Membrane in water
40167
    1TCq1    O1    1   2.643   1.554  11.769 -0.0345 -0.6518 -0.0628
    1TCq1    C1    2   2.571   1.461  11.827  0.0774 -0.9182 -0.1592
    1TCq1    O2    3   2.589   1.395  11.931  0.1874  0.2875 -0.0018
    1TCq1    C2    4   2.444   1.462  11.759 -0.7391 -0.0852 -0.0307
    1TCq1    C3    5   2.409   1.551  11.661  0.2055 -0.3489 -0.1800
    1TCq1    C4    6   2.284   1.538  11.609 -0.5563  0.4781  0.2167
    1TCq1    C5    7   2.205   1.430  11.634 -0.0791 -0.2805  0.3814
    1TCq1    C6    8   2.242   1.340  11.732  0.1420 -0.2182  1.0040
    1TCq1    C7    9   2.362   1.360  11.802  0.2507  0.1469 -0.3763
    1TCq1    C8   10   2.148   1.264  11.804 -0.0842  0.4436 -0.1139
    1TCq1    O4   11   2.135   1.305  11.916 -0.3477 -0.1458  0.2923
    1TCq1    C9   12   2.229   1.633  11.519 -0.3370  0.6364  0.0292
    1TCq1    O5   13   2.128   1.585  11.455 -0.5399 -0.7634 -0.2547
    1TCq1    O6   14   2.279   1.744  11.508  0.0375 -0.3211  0.2123
    1TCq1    H1   15   2.611   1.573  11.678 -0.6753  2.3281  0.8059
    1TCq1    H2   16   2.473   1.632  11.627 -0.3438  0.2817  0.2851
    1TCq1    H3   17   2.099   1.433  11.610  0.2855 -0.9539 -1.2886
    1TCq1    H4   18   2.408   1.281  11.860 -0.0489 -0.1543 -0.5441
    2MPD2     C   19   1.719   1.005  11.801 -0.1641  0.3345  0.3481
    2MPD2    C1   20   1.756   1.125  11.854 -0.3140 -0.3186  0.0940
    2MPD2    C2   21   1.884   1.172  11.836  0.0538 -0.1268  1.0149
    2MPD2    C3   22   1.972   1.104  11.755  0.1183  0.4230  0.3003
    2MPD2    C4   23   1.935   0.986  11.700 -0.6929 -0.1658  1.3646
    2MPD2    C5   24   1.810   0.933  11.722  0.1871  0.2617 -0.5146
    2MPD2     H   25   1.902   1.272  11.871  1.7402 -0.6048  1.4765
    2MPD2    H1   26   2.007   0.936  11.635 -0.6846 -2.7415  3.3350
    2MPD2    H2   27   1.618   0.970  11.822 -0.4068 -0.9407 -2.8314
    2MPD2    H3   28   1.784   0.841  11.669  0.6336  0.2475 -0.7118
    2MPD2     N   29   2.100   1.164  11.726 -0.0262 -0.0029  0.2969
    2MPD2    H5   30   2.158   1.121  11.653  1.7623  1.5560  0.8075
    2MPD2    N1   31   1.668   1.201  11.921  0.1877 -0.0403 -0.4119
    2MPD2    H7   32   1.689   1.299  11.939 -0.6523 -0.2141  1.5722
    3TCq1    O1   33   0.975   3.619  10.401  0.3604 -0.9093  0.0060
    3TCq1    C1   34   1.002   3.582  10.528  0.2226 -0.7035  0.4226
    3TCq1    O2   35   0.916   3.537  10.605 -0.5787  0.0492  0.3735
    3TCq1    C2   36   1.145   3.554  10.552 -0.0019  0.5854 -0.0149
    3TCq1    C3   37   1.244   3.569  10.455 -0.4558  0.4634 -0.0993
    3TCq1    C4   38   1.345   3.490  10.453 -0.0835  0.4158 -0.5216
    3TCq1    C5   39   1.365   3.404  10.549 -0.8719 -0.6273 -0.3864
    3TCq1    C6   40   1.277   3.400  10.656 -0.5718  1.0753  0.5867
    3TCq1    C7   41   1.157   3.464  10.657  0.2924  0.6899  0.3688
    3TCq1    C8   42   1.306   3.310  10.768 -0.3780  0.3862 -0.1360
    3TCq1    O4   43   1.398   3.228  10.762  0.0606 -0.6972  0.3891
    3TCq1    C9   44   1.453   3.503  10.355 -0.4761 -0.1657  1.2300
    3TCq1    O5   45   1.544   3.416  10.349  0.3619  0.2342  0.1214
    3TCq1    O6   46   1.460   3.605  10.281 -0.9414  0.0561  0.4374
    3TCq1    H1   47   1.045   3.654  10.342 -1.3513  0.5855 -1.1251
    3TCq1    H2   48   1.227   3.638  10.374  0.8317  1.2976  0.3628
    3TCq1    H3   49   1.468   3.371  10.556 -0.5218  1.2154  3.3036
    3TCq1    H4   50   1.086   3.449  10.737 -1.4985 -2.2594 -1.7786
    4MPD2     C   51   1.272   3.184  11.273  0.4149  0.8483 -0.4293
    4MPD2    C1   52   1.224   3.309  11.244 -0.3005 -0.3784 -0.3007
    4MPD2    C2   53   1.218   3.347  11.113 -0.7075 -0.4212  0.1611
    4MPD2    C3   54   1.266   3.280  11.006  0.3843  0.0380 -1.0372
    4MPD2    C4   55   1.323   3.160  11.031 -0.1889 -0.0751 -0.5430
    4MPD2    C5   56   1.318   3.112  11.163 -0.1605  0.4249  0.8306
    4MPD2     H   57   1.163   3.436  11.085  1.5007  0.1512 -2.3479
    4MPD2    H1   58   1.364   3.099  10.951 -1.0179  0.0245 -1.0470
    4MPD2    H2   59   1.270   3.135  11.370 -2.7010 -0.9449 -1.3626
    4MPD2    H3   60   1.374   3.020  11.181  1.5646  1.4249  0.6443
    4MPD2     N   61   1.253   3.354  10.880 -0.1755 -0.2395 -0.1491
    4MPD2    H5   62   1.189   3.433  10.885  0.2389 -0.0183  1.8626
    4MPD2    N1   63   1.147   3.391  11.333  0.3419  0.6532 -1.1310
    4MPD2    H7   64   1.098   3.466  11.286 -1.2302  0.8914  0.8987
    5TCq1    O1   65   2.395   0.332  12.066 -0.3465 -0.3118 -0.2797
    5TCq1    C1   66   2.408   0.315  11.937 -0.6232  0.6449 -0.3158
    5TCq1    O2   67   2.498   0.373  11.874 -0.5496  0.0942 -0.5354
    5TCq1    C2   68   2.289   0.279  11.870 -0.3809 -0.6191 -0.0440
    5TCq1    C3   69   2.170   0.310  11.936  0.0743  0.1735  0.5166
    5TCq1    C4   70   2.053   0.285  11.863  0.3424 -0.0347 -0.2646
    5TCq1    C5   71   2.056   0.230  11.739  0.1133 -0.4699  0.0923
    5TCq1    C6   72   2.177   0.200  11.681  0.2141 -0.6089  0.0521
    5TCq1    C7   73   2.293   0.228  11.747 -0.4428  0.1941 -0.3519
    5TCq1    C8   74   2.179   0.117  11.556 -0.3003  0.4623  0.0317
    5TCq1    O4   75   2.275   0.045  11.533 -0.0791 -0.4138  0.1936
    5TCq1    C9   76   1.927   0.310  11.915  0.7532 -0.5805 -0.2520
    5TCq1    O5   77   1.829   0.249  11.868 -0.3478 -0.2124  0.3239
    5TCq1    O6   78   1.915   0.393  12.006 -0.4539 -0.7584  0.2805
    5TCq1    H1   79   2.315   0.289  12.103 -0.3373  1.5604  1.9320
    5TCq1    H2   80   2.159   0.354  12.035  1.5402  0.3917  0.5871
    5TCq1    H3   81   1.966   0.190  11.694 -0.5282  1.9764 -0.8080
    5TCq1    H4   82   2.390   0.193  11.712  0.8408  1.4829  1.9355
    6MPD2     C   83   1.974   0.185  11.258 -0.2586 -0.2675  0.2846
    6MPD2    C1   84   2.060   0.115  11.342  0.2671 -1.8717  0.0890
    6MPD2    C2   85   2.086   4.711  11.294  0.0841 -0.0468 -0.6483
    6MPD2    C3   86   2.052   4.665  11.166  0.0172 -0.4179  0.6278
    6MPD2    C4   87   1.979   0.028  11.092 -0.0238 -0.6384 -0.4238
    6MPD2    C5   88   1.943   0.149  11.130 -0.3544 -0.9830 -0.3286
    6MPD2     H   89   2.139   4.643  11.360  1.9118  0.4725 -1.5750
    6MPD2    H1   90   1.944   0.004  10.992 -3.0454 -1.2212  0.7711
    6MPD2    H2   91   1.924   0.273  11.296  0.6880  0.3811  0.0475
    6MPD2    H3   92   1.885   0.214  11.066 -0.2944  0.9282  1.5614
    6MPD2     N   93   2.078   4.533  11.128  0.0561 -0.7412 -0.1163
    6MPD2    H5   94   2.123   4.477  11.200  0.4012 -0.1469  0.1296
    6MPD2    N1   95   2.084   0.161  11.473  0.2944  0.1843  0.2558
    6MPD2    H7   96   2.040   0.251  11.490 -0.3273 -0.0613 -0.0212
    7TCq1    O1   97   3.533   4.094  12.984  0.5523  0.4797 -0.3364
    7TCq1    C1   98   3.634   4.121  13.071  0.2493  0.0605 -0.2465
    7TCq1    O2   99   3.649   4.226  13.132 -0.1660  0.1936  0.2419
    7TCq1    C2  100   3.656   3.996  13.136  0.2225  0.6884 -0.5021
    7TCq1    C3  101   3.622   3.879  13.067  0.6220 -0.1828  0.1617
    7TCq1    C4  102   3.694   3.768  13.086  0.6168 -0.3766 -0.5046
    7TCq1    C5  103   3.794   3.763  13.181  0.4231  0.2047  0.3494
    7TCq1    C6  104   3.820   3.872  13.252  0.0865  0.0266 -0.7162
    7TCq1    C7  105   3.755   3.992  13.229 -0.0317  0.7903 -0.5940
    7TCq1    C8  106   3.905   3.875  13.375 -0.2107 -0.0233  0.4331
    7TCq1    O4  107   3.962   3.773  13.405  0.2739  0.3698  0.0220
    7TCq1    C9  108   3.668   3.662  12.992 -0.0199 -0.0633 -0.5310
    7TCq1    O5  109   3.732   3.552  13.017 -0.3920  0.2673  0.1606
    7TCq1    O6  110   3.609   3.695  12.887  0.1121  0.2907  0.3172
    7TCq1    H1  111   3.569   4.025  12.925  0.3492  0.0331  0.0674
    7TCq1    H2  112   3.533   3.862  13.008  1.0454  0.4311 -0.6466
    7TCq1    H3  113   3.863   3.681  13.201  0.3816 -0.1786 -1.0848
    7TCq1    H4  114   3.790   4.087  13.268  0.3194  1.6139 -2.9288
    8MPD2     C  115   4.055   4.062  13.830  0.0918  0.0332 -0.1075
    8MPD2    C1  116   4.116   3.983  13.737 -0.6474 -0.3826  0.2246
    8MPD2    C2  117   4.051   3.947  13.615 -0.0446 -0.1382  0.1566
    8MPD2    C3  118   3.933   4.012  13.580 -0.4308  0.0485 -0.9745
    8MPD2    C4  119   3.886   4.110  13.663 -0.0426 -0.3965 -0.2017
    8MPD2    C5  120   3.942   4.131  13.789 -0.0292 -0.0117  0.0315
    8MPD2     H  121   4.100   3.873  13.553 -0.1831 -2.5452  2.9147
    8MPD2    H1  122   3.793   4.160  13.639 -1.8160 -3.0758  1.1000
    8MPD2    H2  123   4.083   4.087  13.932 -0.3760 -0.8453  0.2343
    8MPD2    H3  124   3.893   4.197  13.860 -0.1382  1.9272 -1.8400
    8MPD2     N  125   3.863   3.976  13.460  0.2407 -0.7799  0.4524
    8MPD2    H5  126   3.788   4.038  13.429  0.3679  0.8781  3.4769
    8MPD2    N1  127   4.254   3.940  13.763  0.1885  0.2227  0.0984
    8MPD2    H7  128   4.288   3.945  13.859 -1.9513 -3.1258  1.0617
    9TCq1    O1  129   1.657   2.925  11.106  0.4708 -0.0893 -0.3446
    9TCq1    C1  130   1.628   2.801  11.074  0.1570 -0.3624 -0.3304
    9TCq1    O2  131   1.585   2.725  11.158  0.6066 -0.2560 -0.6885
    9TCq1    C2  132   1.723   2.778  10.966 -0.6035 -0.5429 -0.3760
    9TCq1    C3  133   1.705   2.857  10.857 -0.7678 -0.1702  0.7576
    9TCq1    C4  134   1.786   2.838  10.758 -0.0804  0.2541  0.4743
    9TCq1    C5  135   1.900   2.769  10.769 -0.3319 -0.9630  0.2726
    9TCq1    C6  136   1.925   2.707  10.889  0.0649 -0.1371 -0.4455
    9TCq1    C7  137   1.836   2.715  10.991  0.2383  0.0106 -0.2901
    9TCq1    C8  138   2.054   2.640  10.900  0.3845 -0.2763 -0.8014
    9TCq1    O4  139   2.137   2.658  10.810  0.5136  0.1856  0.0384
    9TCq1    C9  140   1.754   2.900  10.632  0.0176  0.4372 -0.3489
    9TCq1    O5  141   1.821   2.855  10.534 -0.7085 -0.3777 -0.4341
    9TCq1    O6  142   1.657   2.984  10.624 -0.1266 -0.3312  0.0385
    9TCq1    H1  143   1.729   2.957  11.048  1.6401 -0.9305  0.6411
    9TCq1    H2  144   1.618   2.921  10.851 -0.5508  0.0563  0.0818
    9TCq1    H3  145   1.964   2.748  10.684 -0.5171  1.5394 -0.4873
    9TCq1    H4  146   1.844   2.672  11.091  0.2788 -0.8365 -0.6561
   10MPD2     C  147   2.304   2.489  11.003 -0.2763  0.5515 -0.0719
   10MPD2    C1  148   2.173   2.483  11.054  0.2453  0.4099  0.0025
   10MPD2    C2  149   2.144   2.419  11.168 -0.3558 -0.2370 -0.4547
   10MPD2    C3  150   2.250   2.356  11.238  0.4350  0.0192  0.0948
   10MPD2    C4  151   2.377   2.362  11.189  0.6349 -0.1450 -0.0698
   10MPD2    C5  152   2.406   2.426  11.074  1.0531 -0.0584 -0.2725
   10MPD2     H  153   2.046   2.422  11.213  0.0194 -1.6472  0.4723
   10MPD2    H1  154   2.464   2.313  11.230 -1.8889 -3.2001  1.5197
   10MPD2    H2  155   2.338   2.533  10.910  1.6869 -2.7808 -0.9347
   10MPD2    H3  156   2.507   2.422  11.033  0.4665 -0.3566 -1.6727
   10MPD2     N  157   2.232   2.286  11.356 -0.0250  0.2039 -0.3975
   10MPD2    H5  158   2.316   2.249  11.399 -0.1918  1.4735  1.0217
   10MPD2    N1  159   2.058   2.545  11.003 -0.5771  0.4118 -0.6571
   10MPD2    H7  160   1.971   2.526  11.051  0.7333 -2.1427  0.6693
   11TCq1    O1  161   2.756   3.544  14.077 -0.3277  0.0730 -0.0737
   11TCq1    C1  162   2.746   3.424  14.139  0.8697  0.7316 -0.7116
   11TCq1    O2  163   2.771   3.318  14.084  0.4728  0.3422 -0.3901
   11TCq1    C2  164   2.624   3.435  14.224 -0.1304 -0.9701  0.1569
   11TCq1    C3  165   2.618   3.536  14.318 -0.1720  0.1840 -0.4157
   11TCq1    C4  166   2.508   3.537  14.396 -0.2324  0.5774 -0.2001
   11TCq1    C5  167   2.413   3.442  14.403  0.8088  0.2161  0.2552
   11TCq1    C6  168   2.426   3.339  14.309 -0.1983  0.4127  0.3881
   11TCq1    C7  169   2.529   3.335  14.218 -0.1208  0.1981  0.3234
   11TCq1    C8  170   2.302   3.259  14.295 -0.3884 -0.4527 -0.3170
   11TCq1    O4  171   2.212   3.276  14.375 -0.0348 -0.4123 -0.2534
   11TCq1    C9  172   2.505   3.639  14.492  0.1723 -0.0415  0.2383
   11TCq1    O5  173   2.429   3.616  14.590  0.8270 -0.0339  0.3348
   11TCq1    O6  174   2.582   3.739  14.479 -0.1095 -0.0303  0.0298
   11TCq1    H1  175   2.683   3.600  14.112  0.3396 -0.2548  1.8372
   11TCq1    H2  176   2.683   3.623  14.310  2.8969 -1.9441  1.0127
   11TCq1    H3  177   2.333   3.432  14.476  2.0840  1.1017  1.7544
   11TCq1    H4  178   2.533   3.266  14.135  1.2306  0.4242  0.1941
   12MPD2     C  179   2.071   3.152  14.149  0.3855 -0.3298  0.7588
   12MPD2    C1  180   2.198   3.099  14.135  0.2537  0.0383  0.0903
   12MPD2    C2  181   2.218   3.002  14.040  1.0655 -0.6171 -0.0994
   12MPD2    C3  182   2.110   2.950  13.975  0.5015  0.0566 -0.0387
   12MPD2    C4  183   1.980   3.005  13.995 -0.6398 -0.5906 -0.8190
   12MPD2    C5  184   1.962   3.101  14.086  0.0330  0.1896 -0.2181
   12MPD2     H  185   2.313   2.960  14.011  2.4832  0.4407  3.0844
   12MPD2    H1  186   1.890   2.986  13.939 -1.0670 -0.5704 -0.1388
   12MPD2    H2  187   2.048   3.226  14.225  0.1516  0.5235 -0.1409
   12MPD2    H3  188   1.865   3.150  14.088  0.0919  0.3403 -1.0292
   12MPD2     N  189   2.127   2.853  13.872  0.0951 -0.0138  0.1851
   12MPD2    H5  190   2.213   2.802  13.860 -0.5450 -1.4727  1.8407
   12MPD2    N1  191   2.314   3.156  14.202 -0.5281 -0.7322  0.3016
   12MPD2    H7  192   2.406   3.127  14.172 -0.2132 -0.0333  0.6116
   13TCq1    O1  193   0.899   2.562  10.551 -0.2993 -0.0988  0.0739
   13TCq1    C1  194   0.985   2.589  10.451 -0.0074 -0.2472  0.2240
   13TCq1    O2  195   0.984   2.527  10.343  0.3286 -0.0897 -0.1627
   13TCq1    C2  196   1.107   2.640  10.509  0.1209 -1.2344  0.1464
   13TCq1    C3  197   1.227   2.623  10.440  0.4147 -0.4060 -0.3354
   13TCq1    C4  198   1.346   2.657  10.495  0.3013  0.1921  0.5417
   13TCq1    C5  199   1.352   2.723  10.608  0.4343 -0.0314 -0.1355
   13TCq1    C6  200   1.234   2.734  10.677 -0.8290  0.4485  0.0017
   13TCq1    C7  201   1.114   2.707  10.629  0.3143 -0.3408 -0.3825
   13TCq1    C8  202   1.259   2.758  10.818 -0.3361 -0.2408  0.4589
   13TCq1    O4  203   1.372   2.778  10.854 -0.1442 -0.2255 -0.2687
   13TCq1    C9  204   1.469   2.616  10.433 -0.7411 -0.2880 -0.2553
   13TCq1    O5  205   1.564   2.694  10.453  0.1674 -0.0390  0.4212
   13TCq1    O6  206   1.471   2.544  10.331  0.2645  0.1728 -0.1764
   13TCq1    H1  207   0.930   2.591  10.639  0.4149 -0.6058 -0.0080
   13TCq1    H2  208   1.228   2.583  10.339 -0.6540  1.5394 -1.0980
   13TCq1    H3  209   1.445   2.741  10.662 -0.1638 -1.4234  1.3466
   13TCq1    H4  210   1.027   2.721  10.692  2.0692  1.9008  1.5003
   14MPD2     C  211   1.024   2.843  11.087  0.2593  0.0623  0.0835
   14MPD2    C1  212   1.140   2.799  11.035 -0.0339 -0.2771 -0.5823
   14MPD2    C2  213   1.251   2.779  11.122 -0.4768  0.1663 -0.0690
   14MPD2    C3  214   1.243   2.800  11.255  0.4639  0.1742 -0.3314
   14MPD2    C4  215   1.116   2.837  11.304  0.6563 -0.3893 -0.1656
   14MPD2    C5  216   1.011   2.854  11.220 -0.0500  0.0792 -0.1645
   14MPD2     H  217   1.340   2.734  11.080 -0.2687  1.4993 -1.0631
   14MPD2    H1  218   1.087   2.836  11.408 -0.0570 -0.4498 -0.3583
   14MPD2    H2  219   0.933   2.864  11.032 -0.7993 -1.2044  1.3658
   14MPD2    H3  220   0.916   2.876  11.267 -0.1400 -4.0569  1.6169
   14MPD2     N  221   1.358   2.781  11.336  0.4386 -0.5145 -0.1951
   14MPD2    H5  222   1.444   2.752  11.292  0.4007  0.5603 -0.9828
   14MPD2    N1  223   1.146   2.788  10.895 -0.1258 -0.3157 -0.0240
   14MPD2    H7  224   1.063   2.787  10.836  0.7278 -0.5915 -1.2230
   15TCq1    O1  225   3.067   2.562   2.323  0.2238 -0.1793  0.2712
   15TCq1    C1  226   3.141   2.620   2.229 -0.7411  0.8567 -0.2891
   15TCq1    O2  227   3.112   2.648   2.113 -0.2026  0.0780 -0.0346
   15TCq1    C2  228   3.274   2.574   2.258 -0.4515  0.2682 -0.4567
   15TCq1    C3  229   3.319   2.588   2.388  0.2478  0.7632 -0.2489
   15TCq1    C4  230   3.446   2.558   2.422  0.1933  0.7650 -0.0559
   15TCq1    C5  231   3.526   2.502   2.323 -0.2025 -0.2600 -0.3788
   15TCq1    C6  232   3.478   2.491   2.195  0.3876 -0.1394 -0.3680
   15TCq1    C7  233   3.346   2.509   2.168 -0.1397  0.5125  0.1069
   15TCq1    C8  234   3.563   2.431   2.100  0.1993 -0.4137 -0.4581
   15TCq1    O4  235   3.655   2.377   2.151  0.2700  0.2618 -0.3988
   15TCq1    C9  236   3.488   2.573   2.562  0.5283  0.0210  0.2492
   15TCq1    O5  237   3.403   2.604   2.647  0.2558 -0.1031  0.4540
   15TCq1    O6  238   3.591   2.510   2.592  0.1605 -0.3322 -0.1692
   15TCq1    H1  239   3.113   2.523   2.400 -1.4734 -0.2027  1.2696
   15TCq1    H2  240   3.263   2.637   2.467  0.3051  1.5206 -0.6756
   15TCq1    H3  241   3.629   2.478   2.347  0.9057  3.0375 -1.8348
   15TCq1    H4  242   3.295   2.484   2.076  1.1730  2.7092 -1.2119
   16MPD2     C  243   3.549   2.428   1.732 -0.0647 -0.6841 -0.6007
   16MPD2    C1  244   3.606   2.406   1.860 -0.1109  0.6487  0.0743
   16MPD2    C2  245   3.738   2.363   1.869 -0.2800  0.3808  0.2206
   16MPD2    C3  246   3.812   2.348   1.760  0.4547  0.2996  0.2494
   16MPD2    C4  247   3.752   2.353   1.638 -0.5990  0.6780  0.5430
   16MPD2    C5  248   3.623   2.396   1.619 -0.4060 -0.0671  0.3968
   16MPD2     H  249   3.796   2.353   1.959  0.1444 -2.8470 -0.4285
   16MPD2    H1  250   3.798   2.328   1.543 -3.7006  0.2048 -0.8147
   16MPD2    H2  251   3.449   2.469   1.720 -0.6523 -1.4492  1.6077
   16MPD2    H3  252   3.572   2.406   1.524 -0.8288  1.0714  0.7473
   16MPD2     N  253   3.945   2.311   1.781 -0.0688  0.3375  0.5376
   16MPD2    H5  254   3.974   2.308   1.878 -0.2931  1.4040  0.6317
   16MPD2    N1  255   3.526   2.437   1.973  0.3258  0.6437 -0.0317
   16MPD2    H7  256   3.437   2.482   1.954 -1.3759 -2.8851 -0.4251
   17TCq1    O1  257   0.732   2.374  11.336 -0.0385  0.3927  0.6607
   17TCq1    C1  258   0.835   2.324  11.406  0.4215  0.0417 -0.0242
   17TCq1    O2  259   0.829   2.273  11.520 -0.0077  0.1393 -0.1819
   17TCq1    C2  260   0.958   2.360  11.349  0.2936 -0.0763  0.0987
   17TCq1    C3  261   1.073   2.374  11.423  0.9956 -0.3884  0.1093
   17TCq1    C4  262   1.195   2.376  11.367  0.2198 -0.7130  0.4413
   17TCq1    C5  263   1.210   2.357  11.236 -0.3368 -0.1919 -0.0961
   17TCq1    C6  264   1.098   2.321  11.160  0.2228  0.1277 -0.5068
   17TCq1    C7  265   0.970   2.322  11.219 -0.5454  0.7093  0.4429
   17TCq1    C8  266   1.109   2.351  11.020  0.2291  0.1386 -0.8276
   17TCq1    O4  267   1.006   2.336  10.953  0.2199  0.0267  0.0180
   17TCq1    C9  268   1.314   2.398  11.452  0.1010  0.8664  0.5514
   17TCq1    O5  269   1.420   2.402  11.387 -0.2794 -0.2356 -0.7207
   17TCq1    O6  270   1.290   2.398  11.573  0.3274 -0.5205  0.1865
   17TCq1    H1  271   0.786   2.429  11.276  0.3133 -0.7552 -0.0741
   17TCq1    H2  272   1.056   2.392  11.529  0.7885  0.1784 -0.0170
   17TCq1    H3  273   1.310   2.348  11.195 -1.3925 -0.4828 -2.6231
   17TCq1    H4  274   0.880   2.303  11.161  1.1268 -0.9876 -1.6112
   18MPD2     C  275   1.214   2.319  10.726  0.8914  0.2506 -0.3987
   18MPD2    C1  276   1.286   2.359  10.836 -0.0013 -0.3905  0.3214
   18MPD2    C2  277   1.423   2.376  10.821  0.0840  0.4675 -0.4162
   18MPD2    C3  278   1.486   2.362  10.699  0.5232  0.1000  0.8987
   18MPD2    C4  279   1.410   2.329  10.588 -0.1404 -0.3468  0.5592
   18MPD2    C5  280   1.277   2.310  10.603 -0.4789 -0.0354  0.0980
   18MPD2     H  281   1.478   2.410  10.908  1.6401 -0.5703 -1.0027
   18MPD2    H1  282   1.455   2.302  10.493 -0.5152  0.0561  0.2671
   18MPD2    H2  283   1.106   2.308  10.722  0.7783  1.0652  0.3232
   18MPD2    H3  284   1.223   2.276  10.516  0.4720 -1.0297 -0.1017
   18MPD2     N  285   1.625   2.378  10.684  0.2231  0.2114 -0.1560
   18MPD2    H5  286   1.665   2.365  10.592 -0.8745  1.1176 -0.7530
   18MPD2    N1  287   1.237   2.372  10.972 -0.3061 -0.5007  0.1726
   18MPD2    H7  288   1.307   2.378  11.045 -1.4245  1.4782  1.0799
   19TMC2    C1  289   3.703   2.804  13.967  0.8526 -0.6553 -0.0394
   19TMC2    C2  290   3.710   2.914  13.890 -0.1732  0.1450 -0.0632
   19TMC2    C3  291   3.631   2.911  13.776 -0.2768  1.0836 -0.0005
   19TMC2    C4  292   3.613   2.700  13.961 -0.1048 -0.7581  0.4136
   19TMC2    C5  293   3.520   2.723  13.862 -1.3351  0.0232 -1.0025
   19TMC2    C6  294   3.521   2.831  13.776  0.3459  0.1326 -0.0491
   19TMC2     C  295   3.821   2.797  14.056 -0.3549  0.0158  0.1931
   19TMC2     O  296   3.870   2.904  14.091 -0.7813 -0.9411  0.5446
   19TMC2     H  297   3.771   3.001  13.914  0.6137 -0.2958 -0.4549
   19TMC2    H1  298   3.612   2.612  14.024 -2.6631 -0.5039  0.7559
   19TMC2    H2  299   3.440   2.841  13.704  1.4844  1.5260 -1.1218
   19TMC2    C7  300   3.404   2.632  13.863  0.4537  0.2658  0.0588
   19TMC2    C8  301   3.600   3.041  13.707  0.1236 -0.2365 -0.2292
   19TMC2    O1  302   3.406   2.543  13.947 -0.0246  0.2848 -0.2803
   19TMC2    O2  303   3.487   3.082  13.683  0.2895 -0.2566  0.5433
   19TMC2    O5  304   3.722   3.102  13.692 -0.3560 -0.0273 -0.4329
   19TMC2    H5  305   3.796   3.048  13.726 -0.6376 -1.4145 -2.0204
   20MPD2     C  306   4.054   2.726  14.216  0.2779 -0.1190 -0.2422
   20MPD2    C1  307   3.948   2.641  14.197  0.0108  0.1641 -0.3154
   20MPD2    C2  308   3.939   2.530  14.282  0.0896 -0.0611  0.1820
   20MPD2    C3  309   4.037   2.503  14.364  0.4161  0.1302 -0.4852
   20MPD2    C4  310   4.148   2.583  14.374 -0.1951 -0.1558  0.1642
   20MPD2    C5  311   4.158   2.698  14.303  0.5272  0.7997 -0.7534
   20MPD2     H  312   3.852   2.466  14.289 -1.0753  1.4382 -0.7384
   20MPD2    H1  313   4.224   2.562  14.448  0.2550  0.3155 -0.1555
   20MPD2    H2  314   4.064   2.820  14.162 -2.1365 -0.8754 -1.9887
   20MPD2    H3  315   4.233   2.771  14.331 -0.3412  1.0229  0.9632
   20MPD2     N  316   4.042   2.389  14.444  0.0471 -0.3190  0.2173
   20MPD2    H5  317   4.124   2.384  14.504  1.6327 -0.4883 -1.9452
   20MPD2    N1  318   3.839   2.671  14.117 -0.1340 -0.3517  0.1523
   20MPD2    H7  319   3.777   2.592  14.099  1.1912 -1.0722 -1.2139
   21MPD2     C  320   0.749   2.892  14.329  0.4298  0.6526  0.3977
   21MPD2    C1  321   0.876   2.856  14.372 -0.0366  0.5946  0.2087
   21MPD2    C2  322   0.904   2.851  14.507 -0.3567 -0.1645  0.7605
   21MPD2    C3  323   0.814   2.884  14.602  0.1524 -0.0254  0.5793
   21MPD2    C4  324   0.694   2.930  14.557 -0.0281  0.1387  0.2815
   21MPD2    C5  325   0.665   2.936  14.423 -0.1351 -0.1828  0.1769
   21MPD2     H  326   0.997   2.805  14.539  0.9566  1.3737 -0.8813
   21MPD2    H1  327   0.611   2.956  14.623  1.2585  0.0311  1.9459
   21MPD2    H2  328   0.712   2.876  14.228  1.1776  1.5037 -0.0196
   21MPD2    H3  329   0.567   2.974  14.397  0.7113  0.6721 -1.7481
   21MPD2     N  330   0.823   2.862  14.743 -0.6619  0.0541  0.4578
   21MPD2    H5  331   0.748   2.891  14.806 -0.2857  2.6254 -0.2924
   21MPD2    N1  332   0.973   2.801  14.286 -0.3385 -0.1623  0.2342
   21MPD2    H7  333   1.059   2.760  14.323  0.8438 -0.7444 -3.1428
   22TCq2    C1  334   0.927   2.797  14.804 -1.1499  0.6086  0.2846
   22TCq2    O2  335   1.022   2.733  14.762  0.6071  0.1753 -0.7984
   22TCq2    C2  336   0.922   2.808  14.947  0.5628  0.0389  0.3486
   22TCq2    C3  337   1.007   2.726  15.029  0.2531 -0.3237  1.1669
   22TCq2    C4  338   1.018   2.760  15.155  0.0040  0.2315  0.3665
   22TCq2    C5  339   0.951   2.859  15.213 -0.2295 -0.3146  0.1666
   22TCq2    C6  340   0.878   2.946  15.135  0.0473 -0.3647  0.4706
   22TCq2    C7  341   0.867   2.923  15.002 -0.0947  0.1931  0.4370
   22TCq2    C8  342   0.813   3.059  15.205  0.1751  0.7133  0.7087
   22TCq2    O4  343   0.846   3.077  15.322  0.1416 -0.2791  0.3002
   22TCq2    C9  344   1.090   2.662  15.241 -0.0002 -0.0719  0.0076
   22TCq2    O5  345   1.090   2.694  15.359  0.3605 -0.4173 -0.4263
   22TCq2    O6  346   1.151   2.570  15.182 -0.7614 -0.1850 -0.2807
   22TCq2    H2  347   1.059   2.642  14.984 -0.2591 -0.4382  0.7922
   22TCq2    H3  348   0.944   2.874  15.320 -1.1340  0.8683 -0.0652
   22TCq2    H4  349   0.810   2.998  14.947  0.8954  1.3267  0.9376
   23MPD2     C  350   2.600   4.492  15.510  1.0336  0.9036  0.2836
   23MPD2    C1  351   2.507   4.398  15.477  0.3546  0.1280  0.3362
   23MPD2    C2  352   2.450   4.403  15.351  0.6189  0.3098 -0.7112
   23MPD2    C3  353   2.471   4.510  15.272  0.4001  0.3664 -0.0582
   23MPD2    C4  354   2.549   4.612  15.318  0.0215 -0.2129  0.5397
   23MPD2    C5  355   2.614   4.600  15.429  0.6782  0.9160  0.7335
   23MPD2     H  356   2.379   4.327  15.319  1.4100 -1.1372  0.9539
   23MPD2    H1  357   2.545   4.706  15.264  0.6116 -0.2688  0.3979
   23MPD2    H2  358   2.652   4.493  15.605  1.2427 -0.0202  0.1745
   23MPD2    H3  359   2.682   4.678  15.461  0.7435  1.4109 -0.5795
   23MPD2     N  360   2.407   4.532  15.148 -0.7590  0.6867  0.7329
   23MPD2    H5  361   2.416   4.622  15.102 -3.2362  0.4051 -0.3445
   23MPD2    N1  362   2.474   4.291  15.555 -0.0505  0.0031 -0.4645
   23MPD2    H7  363   2.412   4.220  15.516 -1.7191  0.8784  0.5910
   24TCq2    C1  364   2.327   4.442  15.084  0.7327  0.4796 -0.0447
   24TCq2    O2  365   2.317   4.321  15.105 -0.2620 -0.3108 -0.8060
   24TCq2    C2  366   2.277   4.490  14.954 -0.7186 -0.5138 -0.4650
   24TCq2    C3  367   2.363   4.570  14.877 -0.5385 -0.5829  0.2792
   24TCq2    C4  368   2.345   4.580  14.742  0.6289  0.2419  0.0912
   24TCq2    C5  369   2.245   4.511  14.681 -0.1331 -0.5873  0.1442
   24TCq2    C6  370   2.164   4.425  14.754  0.1390 -0.5022  0.3320
   24TCq2    C7  371   2.184   4.411  14.891 -0.1154  0.4641  0.0137
   24TCq2    C8  372   2.034   4.395  14.699  0.3846  0.4995 -0.1079
   24TCq2    O4  373   1.937   4.451  14.751  0.1158  0.0659 -0.0583
   24TCq2    C9  374   2.441   4.652  14.660 -0.4809 -0.1033 -0.1470
   24TCq2    O5  375   2.537   4.711  14.729 -0.1658  0.1585  0.1879
   24TCq2    O6  376   2.431   4.651  14.531  0.0029  0.2718 -0.3046
   24TCq2    H2  377   2.445   4.627  14.919  1.1650 -2.4558 -0.5573
   24TCq2    H3  378   2.253   4.517  14.573 -2.4612 -2.1132 -0.1011
   24TCq2    H4  379   2.123   4.343  14.950  2.1159 -0.3656  1.3411
   25TMC2    C1  380   1.233   1.067  11.464  0.6158  0.0612  0.8148
   25TMC2    C2  381   1.313   0.969  11.504  0.0629  0.5536  0.8977
   25TMC2    C3  382   1.317   0.960  11.642  0.6624 -0.3144 -0.3947
   25TMC2    C4  383   1.193   1.170  11.544 -0.0226 -0.1455 -0.2196
   25TMC2    C5  384   1.216   1.159  11.675 -0.2291 -0.1462 -0.0550
   25TMC2    C6  385   1.266   1.048  11.736  0.3290  0.0130 -0.4603
   25TMC2     C  386   1.181   1.071  11.323  0.0808  0.2779 -0.4416
   25TMC2     O  387   1.259   1.037  11.236  0.1430 -0.1077 -0.2055
   25TMC2     H  388   1.325   0.887  11.434 -2.9992 -1.6707  3.0042
   25TMC2    H1  389   1.124   1.246  11.513  0.7062  0.1499 -1.1175
   25TMC2    H2  390   1.288   1.027  11.840 -1.6997  2.0234  0.3778
   25TMC2    C7  391   1.186   1.273  11.766  0.0879  0.9065 -0.3121
   25TMC2    C8  392   1.365   0.830  11.690  0.5001 -0.1423  0.0840
   25TMC2    O1  393   1.195   1.243  11.883  0.0189  0.6145 -0.2085
   25TMC2    O2  394   1.335   0.783  11.805 -0.2164  0.7830 -0.7930
   25TMC2    O5  395   1.483   0.818  11.624 -0.1599  0.7013 -0.0194
   25TMC2    H5  396   1.488   0.878  11.547  0.0652  1.4579  0.5833
   26MPD2     C  397   0.832   1.099  10.962 -0.5846  0.2321 -0.4200
   26MPD2    C1  398   0.769   1.099  11.082  0.1330  0.3175 -0.1779
   26MPD2    C2  399   0.841   1.109  11.199 -0.7981  0.5778 -0.2712
   26MPD2    C3  400   0.978   1.111  11.192 -1.2676 -0.5782 -0.4963
   26MPD2    C4  401   1.042   1.121  11.066  0.4025 -0.6001  0.6357
   26MPD2    C5  402   0.969   1.111  10.952  0.7570 -0.2790 -0.2748
   26MPD2     H  403   0.780   1.095  11.287  1.6349 -1.1514  1.1287
   26MPD2    H1  404   1.149   1.129  11.046  0.2164  0.8863  0.1930
   26MPD2    H2  405   0.776   1.086  10.870 -0.2517  0.7336 -0.6922
   26MPD2    H3  406   1.011   1.114  10.852  0.7620 -0.5457 -0.2795
   26MPD2     N  407   1.053   1.111  11.309  0.0602 -0.4688 -0.4833
   26MPD2    H5  408   0.996   1.125  11.391  2.6251  2.3676  0.8311
   26MPD2    N1  409   0.629   1.068  11.082 -0.3715 -0.5001  0.6302
   26MPD2    H7  410   0.577   1.080  10.995  0.6793 -1.9256 -0.1764
   27TMC2    C1  411   0.404   3.423  12.277 -0.0146  0.6900 -0.1012
   27TMC2    C2  412   0.518   3.497  12.276 -0.0295 -0.2920 -0.5403
   27TMC2    C3  413   0.509   3.624  12.215 -0.2590 -0.2763 -0.6243
   27TMC2    C4  414   0.286   3.464  12.226 -0.5686 -0.2456  0.7434
   27TMC2    C5  415   0.277   3.595  12.176  0.1950  0.3835  0.4692
   27TMC2    C6  416   0.388   3.669  12.160  0.3257  0.9314 -0.1573
   27TMC2     C  417   0.389   3.336  12.395  0.2189 -0.0052 -0.0008
   27TMC2     O  418   0.484   3.273  12.433  0.0105 -0.6359  0.7085
   27TMC2     H  419   0.602   3.456  12.331  1.1392 -0.1653 -2.2316
   27TMC2    H1  420   0.202   3.398  12.242  0.8431 -1.6592  2.3858
   27TMC2    H2  421   0.381   3.767  12.114 -0.9431 -0.2600 -2.4783
   27TMC2    C7  422   0.184   3.646  12.279  0.3258  0.2465  0.2385
   27TMC2    C8  423   0.592   3.718  12.279  0.4741  0.3256 -0.5782
   27TMC2    O1  424   0.134   3.564  12.360  0.2479 -0.0327  1.1115
   27TMC2    O2  425   0.614   3.697  12.399 -0.3684  0.2670  0.5835
   27TMC2    O5  426   0.559   3.836  12.226  0.2864  0.1079 -0.4732
   27TMC2    H5  427   0.535   3.821  12.133 -0.7309  3.5504 -0.7741
   28MPD2     C  428   0.141   3.178  12.813 -0.7860 -0.5804  0.4978
   28MPD2    C1  429   0.082   3.294  12.772 -0.4399 -0.4713 -0.0216
   28MPD2    C2  430   0.132   3.355  12.662  0.2503  0.2544  0.0396
   28MPD2    C3  431   0.236   3.293  12.585  0.0770  0.7734  0.7906
   28MPD2    C4  432   0.284   3.171  12.626 -0.4359 -0.5505 -0.1941
   28MPD2    C5  433   0.237   3.123  12.740 -0.6493 -0.8667 -0.7422
   28MPD2     H  434   0.088   3.445  12.621 -0.2671 -0.4561 -0.9885
   28MPD2    H1  435   0.364   3.118  12.575  0.8176  0.7632  0.3998
   28MPD2    H2  436   0.107   3.118  12.898  0.9275 -1.1835  0.7535
   28MPD2    H3  437   0.265   3.027  12.783 -0.9627 -0.4910  0.2923
   28MPD2     N  438   0.278   3.363  12.467 -0.6534 -1.2570  0.1045
   28MPD2    H5  439   0.218   3.440  12.442  0.1363  0.1322  2.4908
   28MPD2    N1  440   4.703   3.351  12.853  0.2775 -0.1565  0.2045
   28MPD2    H7  441   4.688   3.304  12.942  0.0315 -0.1747  0.1534
   29MPD2     C  442   4.090   0.991  14.380 -0.0045 -0.1059  0.2096
   29MPD2    C1  443   4.183   1.010  14.476  0.5305 -0.3110 -0.6310
   29MPD2    C2  444   4.228   1.139  14.488  0.6979  0.6188 -0.6051
   29MPD2    C3  445   4.183   1.245  14.420  0.2647 -0.1648  0.4803
   29MPD2    C4  446   4.081   1.224  14.332  0.0299 -0.4645 -0.1531
   29MPD2    C5  447   4.044   1.090  14.306  0.5109  0.0491 -0.7322
   29MPD2     H  448   4.312   1.145  14.556 -0.3967 -1.5380  0.9415
   29MPD2    H1  449   4.027   1.304  14.282 -0.0406 -0.0856  0.5182
   29MPD2    H2  450   4.044   0.894  14.368 -3.2006  1.3395  0.6132
   29MPD2    H3  451   3.974   1.057  14.230  0.2507  0.3663 -0.6300
   29MPD2     N  452   4.237   1.376  14.445 -0.0077  0.7871 -0.6703
   29MPD2    H5  453   4.207   1.440  14.373 -0.6282  0.9665 -0.2517
   29MPD2    N1  454   4.246   0.917  14.557  0.0129  0.0160 -0.2903
   29MPD2    H7  455   4.333   0.944  14.604  0.0753  1.2675 -1.1354
   30TCq2    C1  456   4.320   1.416  14.548  0.0247 -0.2294  0.1355
   30TCq2    O2  457   4.332   1.371  14.660 -0.3237 -0.1436 -0.8914
   30TCq2    C2  458   4.372   1.556  14.536 -0.2962  0.0505  0.1032
   30TCq2    C3  459   4.380   1.634  14.651 -0.4758 -0.4544  0.2092
   30TCq2    C4  460   4.452   1.748  14.651  0.2264  0.3410 -0.1502
   30TCq2    C5  461   4.527   1.777  14.545  0.6110  0.6575  0.2827
   30TCq2    C6  462   4.530   1.695  14.438  0.5335  0.2022  0.5146
   30TCq2    C7  463   4.458   1.576  14.432 -0.2246  0.0896  0.4981
   30TCq2    C8  464   4.646   1.704  14.351 -0.7637  0.2476  0.0478
   30TCq2    O4  465   4.646   1.638  14.248  0.3564  1.2128  0.1490
   30TCq2    C9  466   4.456   1.834  14.765  0.4785  0.5937 -0.3974
   30TCq2    O5  467   4.396   1.799  14.873  0.1308 -0.0510  0.0542
   30TCq2    O6  468   4.541   1.927  14.759  0.0512 -0.0557 -1.2426
   30TCq2    H2  469   4.315   1.615  14.736  1.4797 -2.4636  1.2584
   30TCq2    H3  470   4.567   1.878  14.540 -0.5020  1.0630 -0.6007
   30TCq2    H4  471   4.466   1.499  14.357  0.4287 -1.5349  2.2307
   31MPD2     C  472   2.333   0.294  15.158 -0.5160  0.4929 -0.0313
   31MPD2    C1  473   2.248   0.220  15.080 -0.3449  0.1503  0.2712
   31MPD2    C2  474   2.179   0.115  15.140 -0.3078  0.3567 -0.1484
   31MPD2    C3  475   2.198   0.094  15.279  0.9074 -1.0156 -0.0765
   31MPD2    C4  476   2.272   0.178  15.352  0.0295  0.3998  0.0856
   31MPD2    C5  477   2.331   0.278  15.296  0.4900  0.2809  0.7972
   31MPD2     H  478   2.107   0.055  15.084 -0.0444  0.8787 -1.0320
   31MPD2    H1  479   2.275   0.164  15.460  0.4135  1.1453  0.1741
   31MPD2    H2  480   2.394   0.377  15.125  1.8982 -1.7616 -1.2448
   31MPD2    H3  481   2.377   0.359  15.351  1.5434  0.5814 -0.5321
   31MPD2     N  482   2.149   4.696  15.344 -0.1723  0.2899  0.2149
   31MPD2    H5  483   2.151   4.687  15.445 -0.3938 -1.4287  0.0572
   31MPD2    N1  484   2.246   0.248  14.950  0.5225 -0.4344 -0.1098
   31MPD2    H7  485   2.323   0.304  14.916 -0.4907 -0.7453 -2.9738
   32TCq2    C1  486   2.097   4.584  15.281  0.7968  0.2200  0.2806
   32TCq2    O2  487   2.070   4.576  15.162  0.6698 -0.2774 -0.1675
   32TCq2    C2  488   2.091   4.465  15.366  0.2452  0.2344  0.1656
   32TCq2    C3  489   2.022   4.358  15.316 -0.6061  0.2458 -0.1850
   32TCq2    C4  490   2.026   4.243  15.387  0.1429 -0.0741 -0.6833
   32TCq2    C5  491   2.069   4.249  15.515  0.3264 -0.5957 -0.3240
   32TCq2    C6  492   2.132   4.354  15.557 -0.5477  0.5307 -0.1828
   32TCq2    C7  493   2.153   4.470  15.489 -0.3285 -0.7938 -0.3344
   32TCq2    C8  494   2.152   4.358  15.701  0.0511 -0.7223  0.0978
   32TCq2    O4  495   2.176   4.251  15.753 -0.1583 -0.6404 -0.2038
   32TCq2    C9  496   1.947   4.123  15.345 -0.2085  0.2286 -0.0628
   32TCq2    O5  497   1.911   4.116  15.228  0.4967 -0.2228  0.1763
   32TCq2    O6  498   1.933   4.024  15.422  0.4299  0.3257  0.3642
   32TCq2    H2  499   1.975   4.353  15.219 -2.9630  2.7835  0.8288
   32TCq2    H3  500   2.037   4.175  15.587 -0.8520 -0.8137 -1.0796
   32TCq2    H4  501   2.213   4.548  15.535 -1.2455 -0.9528  1.1317
   33MPD2     C  502   2.386   2.506  10.285 -0.5700 -0.6904 -0.4187
   33MPD2    C1  503   2.283   2.566  10.345  0.1399 -0.6627  0.5551
   33MPD2    C2  504   2.267   2.701  10.329  1.0176 -0.3309 -0.0599
   33MPD2    C3  505   2.353   2.771  10.249 -0.3509 -0.5441 -0.3571
   33MPD2    C4  506   2.460   2.708  10.199  0.5771  0.0064 -0.3023
   33MPD2    C5  507   2.483   2.573  10.224  0.3940 -0.2726  0.6141
   33MPD2     H  508   2.187   2.748  10.386 -0.4437 -5.4923  2.1173
   33MPD2    H1  509   2.534   2.775  10.158  1.1859  0.2606  1.2074
   33MPD2    H2  510   2.398   2.399  10.296 -1.1355 -0.6539  0.5610
   33MPD2    H3  511   2.564   2.518  10.179 -1.9929 -1.7300 -1.8506
   33MPD2     N  512   2.343   2.909  10.220 -0.2817  0.2447  0.2735
   33MPD2    H5  513   2.410   2.954  10.159  0.7852  0.2439  1.4449
   33MPD2    N1  514   2.202   2.476  10.426 -0.5486  0.4350  0.2176
   33MPD2    H7  515   2.245   2.385  10.442  0.1916  1.0168  1.5529
   34TCq2    C1  516   2.241   2.992  10.267 -0.0086 -0.0295  0.4344
   34TCq2    O2  517   2.137   2.962  10.329 -0.3085  0.0355 -0.3147
   34TCq2    C2  518   2.237   3.113  10.192 -0.1531  0.3114  0.0766
   34TCq2    C3  519   2.110   3.156  10.155  0.0888 -0.8034  0.3070
   34TCq2    C4  520   2.102   3.272  10.085  0.0731  0.0935 -0.1445
   34TCq2    C5  521   2.214   3.345  10.065  0.0400 -0.5849  0.0625
   34TCq2    C6  522   2.337   3.297  10.107 -0.6074 -0.4219 -0.1079
   34TCq2    C7  523   2.351   3.179  10.172 -0.2919 -0.2582 -1.0125
   34TCq2    C8  524   2.453   3.370  10.070  0.2949 -0.1233 -1.2532
   34TCq2    O4  525   2.426   3.490  10.038 -0.2963 -0.2191 -0.4099
   34TCq2    C9  526   1.971   3.310  10.049 -0.6056 -0.2782  0.4060
   34TCq2    O5  527   1.876   3.235  10.077  0.0203 -0.3239  0.0623
   34TCq2    O6  528   1.970   3.410   9.978 -0.4065 -0.0333 -0.4220
   34TCq2    H2  529   2.020   3.096  10.164 -0.3426 -0.2048  0.0015
   34TCq2    H3  530   2.216   3.433  10.001 -2.2109  0.8105  1.9090
   34TCq2    H4  531   2.443   3.150  10.221 -0.2608 -0.9380 -1.4639
   35MPD2     C  532   4.189   4.174  12.130  0.3068 -0.1623  0.5353
   35MPD2    C1  533   4.177   4.040  12.137 -0.4425 -0.2466  0.5180
   35MPD2    C2  534   4.107   3.973  12.036  1.2307  0.2038  0.4330
   35MPD2    C3  535   4.050   4.040  11.931  0.5599  0.4926 -0.0692
   35MPD2    C4  536   4.062   4.182  11.930  0.1559 -0.1121  0.6686
   35MPD2    C5  537   4.138   4.241  12.027  0.6300 -0.1511  0.2983
   35MPD2     H  538   4.086   3.866  12.038  0.4761  0.3688  1.2221
   35MPD2    H1  539   4.017   4.244  11.853  1.0057 -0.3765 -0.0430
   35MPD2    H2  540   4.241   4.231  12.205 -0.3916  0.2874  0.6833
   35MPD2    H3  541   4.144   4.350  12.022 -1.3477 -0.0394  0.1094
   35MPD2     N  542   3.971   3.979  11.835  1.0382  0.1637  0.1931
   35MPD2    H5  543   3.945   3.882  11.852 -0.4908  0.1701 -2.1194
   35MPD2    N1  544   4.239   3.977  12.253 -0.3165  0.2386 -0.2696
   35MPD2    H7  545   4.287   4.031  12.324  0.6506 -0.0492 -0.7045
   36TCq2    C1  546   3.933   4.036  11.714 -0.1714 -0.0167  0.0877
   36TCq2    O2  547   3.972   4.140  11.662  0.1833  0.2804 -0.0687
   36TCq2    C2  548   3.843   3.953  11.644  0.3365 -0.2079 -0.4506
   36TCq2    C3  549   3.798   4.002  11.526  0.7653 -0.3788 -0.7903
   36TCq2    C4  550   3.688   3.952  11.456  0.6501  0.0263  0.4420
   36TCq2    C5  551   3.639   3.830  11.498  0.6606 -0.0621 -0.3025
   36TCq2    C6  552   3.686   3.778  11.612 -0.2485  0.4297 -0.1963
   36TCq2    C7  553   3.775   3.842  11.693  0.0708 -0.6167 -0.5628
   36TCq2    C8  554   3.631   3.654  11.653 -0.0194  0.5889 -0.3238
   36TCq2    O4  555   3.596   3.583  11.558  0.3774  0.0815  0.2239
   36TCq2    C9  556   3.635   4.017  11.340 -0.6916 -0.7172  0.0106
   36TCq2    O5  557   3.538   3.964  11.274  0.4921  0.8632  0.1227
   36TCq2    O6  558   3.701   4.117  11.304 -0.1989  0.6049 -0.2342
   36TCq2    H2  559   3.840   4.093  11.485 -0.6305 -0.5900 -2.6661
   36TCq2    H3  560   3.563   3.782  11.437  0.5803 -1.9305  1.2481
   36TCq2    H4  561   3.807   3.787  11.781  1.2595  1.9794  0.6369
   37TMC2    C1  562   1.381   3.786  11.324 -0.4165 -0.4024  0.2054
   37TMC2    C2  563   1.317   3.738  11.212  0.1424 -0.2553  0.3704
   37TMC2    C3  564   1.387   3.752  11.095 -0.4064 -0.2226  0.0714
   37TMC2    C4  565   1.496   3.851  11.319 -0.5664  0.3590  0.5163
   37TMC2    C5  566   1.569   3.864  11.208  0.1229  0.1766 -0.0498
   37TMC2    C6  567   1.517   3.799  11.091  0.1240 -0.3033  0.4829
   37TMC2     C  568   1.304   3.821  11.446 -0.4220  0.5253 -0.0165
   37TMC2     O  569   1.184   3.830  11.443  0.7729 -0.1748 -0.1339
   37TMC2     H  570   1.217   3.698  11.219 -0.2633  0.8329  0.7762
   37TMC2    H1  571   1.537   3.908  11.402 -0.3561 -1.5859  1.7619
   37TMC2    H2  572   1.579   3.801  11.002  0.3295  0.8480  0.6574
   37TMC2    C7  573   1.715   3.888  11.224  0.4307  0.7157  0.6033
   37TMC2    C8  574   1.318   3.713  10.976 -0.3244 -1.2816  0.3329
   37TMC2    O1  575   1.750   3.976  11.299 -0.1181  0.3152  0.0594
   37TMC2    O2  576   1.225   3.632  10.972 -0.0001  0.3867  0.1683
   37TMC2    O5  577   1.341   3.820  10.896 -0.1937  0.2295 -0.5104
   37TMC2    H5  578   1.373   3.902  10.939  3.1981 -2.3057  1.7690
   38MPD2     C  579   1.325   3.864  11.965  0.1569  0.0502 -0.1076
   38MPD2    C1  580   1.440   3.805  11.918 -0.4877  0.2129 -0.4961
   38MPD2    C2  581   1.459   3.783  11.784  0.4376 -0.2774 -0.8240
   38MPD2    C3  582   1.355   3.815  11.692  0.3810 -0.0048 -0.0262
   38MPD2    C4  583   1.233   3.852  11.748 -0.0296  0.2679 -0.1314
   38MPD2    C5  584   1.220   3.881  11.879  0.4026  0.1454  0.4627
   38MPD2     H  585   1.553   3.734  11.757  0.9152 -1.5204  3.0744
   38MPD2    H1  586   1.151   3.878  11.682 -1.9607 -0.1040  2.1420
   38MPD2    H2  587   1.307   3.881  12.071 -2.1263 -0.3986 -0.4118
   38MPD2    H3  588   1.127   3.920  11.919  0.0584 -1.1636  0.9623
   38MPD2     N  589   1.386   3.803  11.556  0.5499  0.3638 -0.5464
   38MPD2    H5  590   1.486   3.792  11.539  0.5067  1.8394 -1.8085
   38MPD2    N1  591   1.551   3.769  11.992 -0.3135  0.2637  0.0357
   38MPD2    H7  592   1.618   3.707  11.947  0.5211 -0.3835  2.1746
   39MPD2     C  593   4.308   1.686   1.904  0.2130  0.4606 -0.4360
   39MPD2    C1  594   4.276   1.820   1.915 -0.1518  0.3141  0.2223
   39MPD2    C2  595   4.157   1.862   1.866 -0.6593 -0.1395 -0.3580
   39MPD2    C3  596   4.079   1.769   1.799 -0.5949  0.2444  0.2147
   39MPD2    C4  597   4.120   1.643   1.772 -0.1507  0.3809  0.1938
   39MPD2    C5  598   4.238   1.607   1.833 -0.1116  0.8552 -0.6539
   39MPD2     H  599   4.125   1.964   1.882  0.0143  0.4459 -2.8375
   39MPD2    H1  600   4.051   1.581   1.716 -0.8651  0.8377  0.5537
   39MPD2    H2  601   4.405   1.644   1.931 -0.3712 -0.1637  0.6599
   39MPD2    H3  602   4.274   1.504   1.825  1.8252  1.3024  2.2989
   39MPD2     N  603   3.959   1.804   1.735  0.2828  1.0732  0.2723
   39MPD2    H5  604   3.923   1.736   1.669  2.5362  0.9861 -0.8885
   39MPD2    N1  605   4.363   1.903   2.000  0.1157 -0.4704  0.8247
   39MPD2    H7  606   4.454   1.863   2.023  0.6954  0.6503  0.5304
   40TCq2    C1  607   4.327   2.020   2.060 -0.5397  0.0179  0.3329
   40TCq2    O2  608   4.216   2.073   2.065 -0.5167 -0.1892 -0.1789
   40TCq2    C2  609   4.430   2.068   2.150 -0.3557  0.5446  0.5642
   40TCq2    C3  610   4.555   2.014   2.157 -0.6323 -0.7392  0.3897
   40TCq2    C4  611   4.630   2.047   2.266  0.1200 -0.0236 -0.2322
   40TCq2    C5  612   4.591   2.132   2.363  0.2359 -0.7894  0.5721
   40TCq2    C6  613   4.469   2.184   2.351  0.4990  0.8866 -0.1731
   40TCq2    C7  614   4.385   2.156   2.242  0.0537 -0.0942  0.2594
   40TCq2    C8  615   4.409   2.277   2.452  0.8186  0.2340  0.0229
   40TCq2    O4  616   4.416   2.242   2.565  0.6310  0.4352  1.1303
   40TCq2    C9  617   0.041   2.000   2.282 -0.2208  0.3643  0.1494
   40TCq2    O5  618   0.088   1.940   2.180  0.0063  0.1553  0.3807
   40TCq2    O6  619   0.110   2.032   2.383 -0.2445 -0.3653  0.5946
   40TCq2    H2  620   4.606   1.955   2.081 -2.9433 -2.6400  0.3309
   40TCq2    H3  621   4.655   2.147   2.449 -1.0528 -0.3258  1.4621
   40TCq2    H4  622   4.292   2.211   2.233  0.8790  0.9392 -2.0642
   41TMC2    C1  623   3.367   3.940  13.821 -0.1894 -0.7026  0.0731
   41TMC2    C2  624   3.495   3.936  13.870 -0.1219  0.1355 -0.2319
   41TMC2    C3  625   3.595   3.922  13.782 -0.2135 -0.5889  0.6486
   41TMC2    C4  626   3.349   3.918  13.688  0.0819  0.1268  0.5770
   41TMC2    C5  627   3.454   3.916  13.605 -0.5899 -0.7203  0.9312
   41TMC2    C6  628   3.579   3.922  13.649 -0.1162 -0.1194 -0.5741
   41TMC2     C  629   3.261   3.885  13.899 -0.7785 -0.3335  0.2658
   41TMC2     O  630   3.206   3.788  13.850 -0.0042 -0.2018 -0.1272
   41TMC2     H  631   3.497   3.937  13.978  0.5108 -1.4548 -0.2318
   41TMC2    H1  632   3.248   3.908  13.649  1.1196  2.6488 -2.7425
   41TMC2    H2  633   3.659   3.910  13.577  1.2752  0.7814  0.8063
   41TMC2    C7  634   3.436   3.864  13.473  0.2504 -0.2485  0.5483
   41TMC2    C8  635   3.716   3.854  13.824  0.1773 -0.6757 -0.7733
   41TMC2    O1  636   3.524   3.784  13.433  0.0242 -0.3176  0.3273
   41TMC2    O2  637   3.772   3.770  13.752 -1.0461  0.1403  0.4663
   41TMC2    O5  638   3.702   3.852  13.955  0.5048  0.0062 -0.9136
   41TMC2    H5  639   3.689   3.943  13.988 -0.8372 -0.6205  0.2794
   42MPD2     C  640   3.091   3.775  14.115  0.5400  0.5115  0.3686
   42MPD2    C1  641   3.169   3.886  14.128  0.8121  0.3756 -0.1244
   42MPD2    C2  642   3.174   3.958  14.247 -0.1510 -0.5550  0.1148
   42MPD2    C3  643   3.085   3.922  14.343 -0.0141  0.7505 -0.0726
   42MPD2    C4  644   3.002   3.809  14.328 -0.0339 -0.3197  0.5853
   42MPD2    C5  645   3.020   3.723  14.226  0.2570  0.2852 -0.2696
   42MPD2     H  646   3.236   4.047  14.256  0.3074 -0.9304  0.6314
   42MPD2    H1  647   2.937   3.778  14.409 -0.5093 -0.8702 -0.0035
   42MPD2    H2  648   3.083   3.722  14.021  2.4848  2.1745 -0.7362
   42MPD2    H3  649   2.947   3.644  14.217 -1.3062  1.6940  0.1422
   42MPD2     N  650   3.063   3.994  14.463  0.0245  0.2412 -0.2489
   42MPD2    H5  651   2.990   3.962  14.526  0.4804 -0.2486  0.0378
   42MPD2    N1  652   3.256   3.937  14.027 -0.1932  0.0386 -0.2750
   42MPD2    H7  653   3.307   4.021  14.051  1.4875 -1.7779  2.4565
   43MPD2     C  654   4.457   2.397   1.000  1.0632  0.2899 -0.2507
   43MPD2    C1  655   4.566   2.426   1.080 -0.6527  0.1410  0.0744
   43MPD2    C2  656   4.552   2.546   1.150 -1.5182  0.4599 -0.2367
   43MPD2    C3  657   4.432   2.616   1.152  0.0466  1.1677  0.0572
   43MPD2    C4  658   4.327   2.575   1.075 -0.1982 -0.6846  0.3009
   43MPD2    C5  659   4.347   2.469   0.994  0.1272 -0.4988 -0.3380
   43MPD2     H  660   4.625   2.567   1.228 -1.2183 -2.2284  0.2305
   43MPD2    H1  661   4.230   2.624   1.073  0.2283  0.2789  2.5519
   43MPD2    H2  662   4.461   2.315   0.929 -0.2863 -0.2254  0.2689
   43MPD2    H3  663   4.257   2.428   0.949 -0.8976  1.7375 -0.3218
   43MPD2     N  664   4.406   2.723   1.237 -0.2432 -0.1376 -0.2323
   43MPD2    H5  665   4.312   2.761   1.234  0.7327  2.3859  1.0080
   43MPD2    N1  666   4.688   2.350   1.091 -0.3303 -0.4590 -0.7232
   43MPD2    H7  667   0.051   2.388   1.132 -0.4750 -1.2223  0.2798
   44TCq2    C1  668   4.572   3.176   1.574 -0.5711  0.2083  0.0096
   44TCq2    O2  669   4.679   3.188   1.517  0.2371 -0.2711 -0.3837
   44TCq2    C2  670   4.471   3.091   1.511  0.3465 -0.5758  0.0159
   44TCq2    C3  671   4.337   3.102   1.542  0.1682  0.5861 -0.1714
   44TCq2    C4  672   4.254   2.995   1.513 -0.3212  0.1179  0.0387
   44TCq2    C5  673   4.301   2.894   1.436 -0.0247 -0.1379 -0.2993
   44TCq2    C6  674   4.431   2.890   1.397  0.3698 -0.0823 -0.1847
   44TCq2    C7  675   4.521   2.986   1.436 -0.1644  0.2716 -0.4079
   44TCq2    C8  676   4.490   2.779   1.328  0.2253  0.0030  0.5919
   44TCq2    O4  677   4.613   2.777   1.326  1.0150 -0.0738  0.1108
   44TCq2    C9  678   4.121   3.018   1.550 -0.1465 -0.3917 -0.4135
   44TCq2    O5  679   4.094   3.110   1.634 -0.1574 -0.1489  0.2232
   44TCq2    O6  680   4.041   2.977   1.463 -1.0329 -0.1633 -0.0547
   44TCq2    H2  681   4.292   3.187   1.593  0.7246  1.3210 -0.8970
   44TCq2    H3  682   4.224   2.819   1.419 -1.0212  0.5176  1.2566
   44TCq2    H4  683   4.627   2.972   1.424 -0.1817  0.6408 -1.0075
   45TMC2    C1  684   0.343   4.096   9.616 -0.6174  0.5119 -0.0675
   45TMC2    C2  685   0.456   4.067   9.544 -0.1324  0.7291  0.4520
   45TMC2    C3  686   0.567   4.143   9.567  0.6837  0.2417  0.6155
   45TMC2    C4  687   0.316   4.214   9.681  0.4688  0.4711  0.3371
   45TMC2    C5  688   0.430   4.286   9.704 -0.2542 -0.4828  0.1436
   45TMC2    C6  689   0.547   4.259   9.640  0.6793 -0.6742 -0.0902
   45TMC2     C  690   0.225   4.014   9.581  0.1163  0.3870 -0.6305
   45TMC2     O  691   0.239   3.894   9.563  0.4843  0.1459 -0.1772
   45TMC2     H  692   0.463   3.982   9.477 -0.9559  0.8773  0.1718
   45TMC2    H1  693   0.230   4.228   9.744  0.4439 -0.7935  0.5919
   45TMC2    H2  694   0.633   4.325   9.650 -0.4913  0.8266  0.1246
   45TMC2    C7  695   0.413   4.422   9.760 -0.0829 -0.2475 -0.0782
   45TMC2    C8  696   0.681   4.120   9.485 -0.8043 -0.0679 -0.3696
   45TMC2    O1  697   0.514   4.473   9.806  0.2775  0.7663  0.4161
   45TMC2    O2  698   0.722   4.194   9.399  0.3970 -0.5583  0.2170
   45TMC2    O5  699   0.741   4.007   9.520 -0.0261 -0.5147  0.0319
   45TMC2    H5  700   0.689   3.954   9.583 -0.0304 -0.1840  0.3076
   46MPD2     C  701   4.657   3.904   9.583 -0.1827 -0.5107 -0.5194
   46MPD2    C1  702   4.692   4.041   9.588  0.3079 -1.4367  0.2372
   46MPD2    C2  703   4.595   4.133   9.599 -0.2714  0.5054 -0.1244
   46MPD2    C3  704   4.460   4.096   9.605  0.3972 -0.3072  0.5841
   46MPD2    C4  705   4.425   3.964   9.607  0.4377  0.1419 -0.0364
   46MPD2    C5  706   4.524   3.872   9.588 -0.3699  0.2604 -0.0234
   46MPD2     H  707   4.617   4.239   9.599  2.0791  0.0285 -0.0012
   46MPD2    H1  708   4.322   3.930   9.613  0.2462  1.1294  2.1652
   46MPD2    H2  709   0.005   3.822   9.598  0.0257 -0.1001  0.7807
   46MPD2    H3  710   4.489   3.770   9.583 -0.2357  0.2008  0.2312
   46MPD2     N  711   4.366   4.201   9.617 -0.5867 -0.1693 -0.0462
   46MPD2    H5  712   4.395   4.297   9.603  1.2909 -0.5958  0.8972
   46MPD2    N1  713   0.106   4.088   9.597 -0.4290  1.4350 -0.2265
   46MPD2    H7  714   0.127   4.188   9.599  0.4927  1.2343  0.4834
   47TMC2    C1  715   2.700   0.029   9.093 -0.6873  0.8392 -1.1129
   47TMC2    C2  716   2.778   4.641   9.079  0.2210  0.6636  0.0026
   47TMC2    C3  717   2.719   4.522   9.075 -0.0585 -1.1436 -0.2408
   47TMC2    C4  718   2.564   0.028   9.111  0.1247  0.0210 -0.0928
   47TMC2    C5  719   2.509   4.627   9.100 -0.0263  0.3543 -0.3113
   47TMC2    C6  720   2.586   4.521   9.076 -0.0549  1.0047  0.1959
   47TMC2     C  721   2.765   0.158   9.127 -1.0632 -0.5773  0.1357
   47TMC2     O  722   2.698   0.264   9.119  0.2724  0.1186 -0.0766
   47TMC2     H  723   2.885   4.648   9.062  0.3683 -2.0652 -0.1590
   47TMC2    H1  724   2.511   0.115   9.148  1.8763  0.5981  1.0818
   47TMC2    H2  725   2.538   4.427   9.054  2.5327 -0.2003 -0.2950
   47TMC2    C7  726   2.375   4.600   9.150 -0.6105 -0.0393  0.0439
   47TMC2    C8  727   2.791   4.406   9.022  0.4253 -0.3010  0.5640
   47TMC2    O1  728   2.336   4.484   9.164 -0.6877 -0.4962  0.0065
   47TMC2    O2  729   2.744   4.316   8.950 -0.2526 -0.1421  0.2318
   47TMC2    O5  730   2.920   4.428   9.059 -0.0862  0.3803  0.0615
   47TMC2    H5  731   2.927   4.486   9.138  2.0407  1.5080 -0.9272
   48MPD2     C  732   2.969   0.354   9.217 -0.3763 -0.2336 -0.0322
   48MPD2    C1  733   2.971   0.220   9.251  0.7913 -0.0602  0.0969
   48MPD2    C2  734   3.061   0.172   9.348 -0.7648  0.6266  0.4932
   48MPD2    C3  735   3.143   0.262   9.414  0.8462  0.8674  0.6311
   48MPD2    C4  736   3.136   0.396   9.386  0.6429  0.2061 -0.1314
   48MPD2    C5  737   3.046   0.437   9.287 -0.1413  0.9008  0.1239
   48MPD2     H  738   3.057   0.066   9.371  0.2663  0.2867 -0.8830
   48MPD2    H1  739   3.200   0.467   9.437  2.0149 -1.8764  1.0260
   48MPD2    H2  740   2.907   0.395   9.138 -1.7190 -0.3191  0.9772
   48MPD2    H3  741   3.042   0.544   9.266  1.5367  0.7562 -0.9555
   48MPD2     N  742   3.236   0.206   9.497 -0.1746  0.0782  0.2984
   48MPD2    H5  743   3.223   0.110   9.527 -0.7043  0.4540  1.2838
   48MPD2    N1  744   2.879   0.126   9.194  0.6134  0.0464  0.0622
   48MPD2    H7  745   2.890   0.029   9.222 -0.6856  0.1502  0.9549
   49MPD2     C  746   2.129   2.225  10.129  0.1147 -0.1553 -0.0588
   49MPD2    C1  747   2.019   2.294  10.172  0.0284 -0.4566 -0.1923
   49MPD2    C2  748   1.936   2.231  10.262  0.0474  0.6801 -0.5567
   49MPD2    C3  749   1.949   2.100  10.298  0.4213  0.0841 -0.0156
   49MPD2    C4  750   2.057   2.032  10.244 -0.1058  0.3585 -0.3485
   49MPD2    C5  751   2.149   2.095  10.165  0.1302 -0.2991 -0.2101
   49MPD2     H  752   1.845   2.278  10.297 -1.1438 -1.3800 -0.8759
   49MPD2    H1  753   2.068   1.925  10.257 -1.0048  0.4080  0.8560
   49MPD2    H2  754   2.194   2.257  10.048 -0.4100 -2.0273 -1.2276
   49MPD2    H3  755   2.226   2.039  10.113  1.5994  0.7988  0.7651
   49MPD2     N  756   1.862   2.031  10.384 -0.0167  0.0178 -0.5943
   49MPD2    H5  757   1.882   1.932  10.395  1.8371  0.1652 -2.5661
   49MPD2    N1  758   2.000   2.432  10.146 -0.5297 -0.1749 -0.0520
   49MPD2    H7  759   1.929   2.482  10.198 -0.0138  1.7977 -1.2830
   50TCq2    C1  760   2.082   2.497  10.051 -0.0489  0.3223 -0.0988
   50TCq2    O2  761   2.130   2.440   9.949  0.1236  0.2577  0.9054
   50TCq2    C2  762   2.047   2.639  10.038  0.2127 -0.0328  0.1040
   50TCq2    C3  763   1.938   2.691  10.104  0.9380  0.0772  0.4453
   50TCq2    C4  764   1.897   2.820  10.079  0.5586  0.5379 -0.2199
   50TCq2    C5  765   1.956   2.906   9.987 -0.0447 -0.3242 -0.0757
   50TCq2    C6  766   2.063   2.846   9.918 -0.3139 -0.1493  0.0324
   50TCq2    C7  767   2.102   2.716   9.932 -0.2596 -0.3955  0.1631
   50TCq2    C8  768   2.140   2.935   9.839 -0.4761 -0.1866  1.1064
   50TCq2    O4  769   2.077   3.029   9.794 -0.3685  0.2280 -0.5160
   50TCq2    C9  770   1.777   2.870  10.144  0.7351  0.4150 -0.0964
   50TCq2    O5  771   1.751   2.994  10.132  0.3784 -0.1066  0.0239
   50TCq2    O6  772   1.713   2.792  10.226  0.4894  0.6446  0.3466
   50TCq2    H2  773   1.887   2.634  10.181 -0.5657  2.0155  0.8629
   50TCq2    H3  774   1.925   3.008   9.969 -1.6651 -0.9195 -0.6768
   50TCq2    H4  775   2.186   2.674   9.878  0.9128  1.7895  0.2837
   51MPD2     C  776   1.496   1.138   2.217 -0.6761  0.0758 -0.0375
   51MPD2    C1  777   1.588   1.044   2.268  0.5010 -0.7365 -1.1390
   51MPD2    C2  778   1.681   1.083   2.359  0.3649  0.4365 -0.0670
   51MPD2    C3  779   1.677   1.215   2.408  0.2217 -0.0734  0.0485
   51MPD2    C4  780   1.569   1.301   2.371  0.3108  0.4551  0.5616
   51MPD2    C5  781   1.482   1.265   2.271  0.2226 -0.4382 -0.3762
   51MPD2     H  782   1.745   1.005   2.398  1.8251  1.5248 -0.2964
   51MPD2    H1  783   1.560   1.401   2.412  0.2933  0.5700  0.2796
   51MPD2    H2  784   1.406   1.099   2.171 -0.2677  0.0169 -0.7871
   51MPD2    H3  785   1.413   1.331   2.220  2.1588  2.2075  0.4157
   51MPD2     N  786   1.766   1.250   2.509  0.0938 -0.3344 -0.6334
   51MPD2    H5  787   1.759   1.342   2.552  1.1858 -0.6632  0.2394
   51MPD2    N1  788   1.597   0.909   2.224  0.0485  0.1041  0.0110
   51MPD2    H7  789   1.672   0.858   2.271 -1.8058 -1.3087  1.4447
   52TCq2    C1  790   1.874   1.179   2.558  0.3571  0.6493  0.7695
   52TCq2    O2  791   1.916   1.068   2.528 -0.3732 -0.0606  0.1018
   52TCq2    C2  792   1.941   1.256   2.665 -0.2170  0.3830 -0.8361
   52TCq2    C3  793   2.068   1.213   2.700 -0.3496  0.5632  0.4381
   52TCq2    C4  794   2.143   1.303   2.770  0.2185  0.2705  0.3153
   52TCq2    C5  795   2.088   1.412   2.832 -0.5840  0.2971  0.1088
   52TCq2    C6  796   1.959   1.445   2.806 -0.6540 -0.6335  0.7203
   52TCq2    C7  797   1.879   1.371   2.721 -1.2382 -0.8171  0.8428
   52TCq2    C8  798   1.918   1.582   2.837 -0.3794  0.0470 -0.0640
   52TCq2    O4  799   1.858   1.635   2.743 -0.2870 -0.1429 -0.0165
   52TCq2    C9  800   2.281   1.278   2.783 -0.0608 -0.9765  1.0059
   52TCq2    O5  801   2.337   1.176   2.726 -0.1092  0.0270 -0.2025
   52TCq2    O6  802   2.343   1.377   2.836 -0.2584  0.1208  0.0450
   52TCq2    H2  803   2.116   1.130   2.650 -2.2439  1.1567 -2.3335
   52TCq2    H3  804   2.156   1.485   2.876  2.0517 -2.0740 -0.0629
   52TCq2    H4  805   1.777   1.402   2.704 -0.3105  1.3145 -0.8343
   53TMC2    C1  806   2.381   3.919  11.518  0.0292 -0.0416 -0.2473
   53TMC2    C2  807   2.511   3.971  11.536  0.0886 -0.1392  0.4378
   53TMC2    C3  808   2.533   4.020  11.662  0.2675  0.0323 -0.4856
   53TMC2    C4  809   2.291   3.906  11.612  0.2760 -0.0863 -0.2525
   53TMC2    C5  810   2.326   3.967  11.729  0.0688  0.7454 -0.4716
   53TMC2    C6  811   2.448   4.013  11.764  0.9144  0.5740 -0.6170
   53TMC2     C  812   2.348   3.870  11.386 -0.2772 -0.6974  0.2359
   53TMC2     O  813   2.440   3.822  11.317 -0.1826  0.0306  0.1595
   53TMC2     H  814   2.575   3.991  11.451 -3.0623 -0.6733 -2.0607
   53TMC2    H1  815   2.188   3.873  11.610  0.3329 -0.2095 -0.9709
   53TMC2    H2  816   2.474   4.070  11.853 -3.5437 -0.4480  1.3161
   53TMC2    C7  817   2.210   3.999  11.817  0.1624  0.0368  0.7223
   53TMC2    C8  818   2.672   4.045  11.703  0.4149  0.1108  0.7106
   53TMC2    O1  819   2.099   3.995  11.767 -0.2963  0.1739  0.4555
   53TMC2    O2  820   2.707   4.125  11.789  0.2054  0.5063 -0.0537
   53TMC2    O5  821   2.756   3.980  11.614 -0.3678  0.0167  0.1703
   53TMC2    H5  822   2.718   3.909  11.558  1.0757 -1.1702  0.6933
   54MPD2     C  823   2.205   3.747  11.157  0.2710  0.5961  0.0622
   54MPD2    C1  824   2.139   3.812  11.257  0.6781  0.4666 -0.4560
   54MPD2    C2  825   2.005   3.836  11.255  0.0923  0.4792 -1.1980
   54MPD2    C3  826   1.928   3.772  11.163  0.1570 -0.6661 -0.8266
   54MPD2    C4  827   1.993   3.697  11.068  0.0434 -0.4593 -0.3710
   54MPD2    C5  828   2.127   3.686  11.064 -0.2760  0.2728  0.3721
   54MPD2     H  829   1.952   3.884  11.336 -2.3279  1.8294 -3.5926
   54MPD2    H1  830   1.933   3.636  11.002 -0.3665 -0.7890  0.3098
   54MPD2    H2  831   2.312   3.733  11.166  0.0674 -1.1633 -0.3315
   54MPD2    H3  832   2.173   3.622  10.990 -1.0748  0.3496 -0.1870
   54MPD2     N  833   1.783   3.784  11.160  0.0433 -0.1820  0.2762
   54MPD2    H5  834   1.734   3.721  11.097  1.4098 -0.2806 -0.6987
   54MPD2    N1  835   2.211   3.876  11.359  0.1645 -0.2344 -0.6253
   54MPD2    H7  836   2.152   3.918  11.430  1.6917  1.1129 -0.1602
   55MPD2     C  837   2.733   1.645   0.180  0.7085  0.2364  0.0583
   55MPD2    C1  838   2.630   1.671   0.269  0.3223 -0.2961  0.2548
   55MPD2    C2  839   2.569   1.796   0.275  0.1930  0.7554  0.3363
   55MPD2    C3  840   2.614   1.904   0.203  0.8352  0.7412  0.0942
   55MPD2    C4  841   2.715   1.881   0.113  0.8515 -0.1259 -0.2895
   55MPD2    C5  842   2.768   1.754   0.099  0.2177 -0.6644 -0.3108
   55MPD2     H  843   2.490   1.819   0.346  2.8388  2.2514  2.8275
   55MPD2    H1  844   2.747   1.964   0.051  0.9475 -2.3614 -3.2033
   55MPD2    H2  845   2.793   1.555   0.179  0.8288  0.3302 -0.9074
   55MPD2    H3  846   2.847   1.756   0.026  2.0401 -3.1238  1.6050
   55MPD2     N  847   2.553   2.029   0.220 -0.1279  0.4708 -0.4994
   55MPD2    H5  848   2.487   2.041   0.296 -0.7953 -0.8902 -0.8710
   55MPD2    N1  849   2.596   1.571   0.359 -0.0927  0.1756  0.2912
   55MPD2    H7  850   2.645   1.482   0.358  0.2759  0.3816  0.5409
   56TCq2    C1  851   2.492   1.575   0.451 -0.3912 -0.1518  0.3739
   56TCq2    O2  852   2.408   1.661   0.471 -0.5096  0.6291  0.2976
   56TCq2    C2  853   2.489   1.460   0.533 -1.0710  0.4205  1.0175
   56TCq2    C3  854   2.369   1.424   0.584 -0.0773 -0.5788 -0.8083
   56TCq2    C4  855   2.372   1.342   0.699 -0.8191 -0.3367 -0.1699
   56TCq2    C5  856   2.484   1.307   0.762 -0.3032  0.1223  0.0957
   56TCq2    C6  857   2.604   1.349   0.709  0.2155  0.3358  0.0933
   56TCq2    C7  858   2.606   1.417   0.598  0.9342  0.0331  0.5660
   56TCq2    C8  859   2.709   1.383   0.800  0.1329 -0.0430  0.1989
   56TCq2    O4  860   2.819   1.337   0.778 -0.2670  0.3899  0.0092
   56TCq2    C9  861   2.250   1.294   0.754 -0.4136 -0.6842  0.2201
   56TCq2    O5  862   2.255   1.263   0.874  0.1273 -0.5612 -0.5492
   56TCq2    O6  863   2.144   1.339   0.693  0.0895 -0.6132 -0.0024
   56TCq2    H2  864   2.272   1.457   0.548 -0.2384  0.3258  0.4312
   56TCq2    H3  865   2.481   1.241   0.847  0.1708  1.0304  0.8139
   56TCq2    H4  866   2.702   1.457   0.566  0.1749  2.0405  0.7743
   57TMC2    C1  867   1.558   2.935  13.541  1.1606  0.6516  0.3972
   57TMC2    C2  868   1.676   2.997  13.578  0.1778 -0.2447  0.6222
   57TMC2    C3  869   1.785   2.993  13.495 -0.5026  0.6127  0.0355
   57TMC2    C4  870   1.540   2.883  13.415 -0.4382  0.4973  0.0432
   57TMC2    C5  871   1.646   2.875  13.342  0.4895  0.6233  0.8577
   57TMC2    C6  872   1.772   2.927  13.371  0.6928 -0.0416  0.9885
   57TMC2     C  873   1.445   2.932  13.632 -0.2016  0.2474 -0.1742
   57TMC2     O  874   1.449   3.008  13.725 -0.6878 -0.0615 -0.3642
   57TMC2     H  875   1.676   3.041  13.678  1.8199  4.9519 -1.6632
   57TMC2    H1  876   1.449   2.836  13.379  0.3718  0.0025 -1.3435
   57TMC2    H2  877   1.849   2.933  13.295 -1.0347 -2.5525 -0.9466
   57TMC2    C7  878   1.619   2.837  13.203  0.2226  0.1004 -0.2928
   57TMC2    C8  879   1.891   3.090  13.514  0.0531 -0.2094 -0.1282
   57TMC2    O1  880   1.510   2.862  13.151  0.0880 -0.1581 -1.3067
   57TMC2    O2  881   1.920   3.157  13.414  0.1001 -0.6296  0.0994
   57TMC2    O5  882   1.921   3.108  13.645 -0.6826 -0.4602 -0.5408
   57TMC2    H5  883   1.891   3.037  13.704 -0.9514 -0.9681 -1.2912
   58MPD2     C  884   0.925   2.901  13.651  0.0191 -0.0614  0.3127
   58MPD2    C1  885   1.010   2.951  13.746  0.2179 -0.2581 -0.4270
   58MPD2    C2  886   1.150   2.943  13.729  0.2422 -0.7329  0.0523
   58MPD2    C3  887   1.200   2.885  13.612 -0.0727 -0.3533  0.4201
   58MPD2    C4  888   1.116   2.847  13.511 -0.5349 -0.6846  0.5808
   58MPD2    C5  889   0.978   2.865  13.528 -0.7602 -0.4130 -0.2726
   58MPD2     H  890   1.213   2.988  13.805  0.2669  0.7061 -0.8311
   58MPD2    H1  891   1.161   2.819  13.417 -1.1438  1.6636 -0.4252
   58MPD2    H2  892   0.817   2.898  13.660  0.0735  1.4274  1.4368
   58MPD2    H3  893   0.902   2.837  13.456 -0.0744 -1.0743 -0.7400
   58MPD2     N  894   1.335   2.870  13.581 -0.4441  0.7215 -0.7193
   58MPD2    H5  895   1.347   2.833  13.487  1.3286 -0.2414 -0.1003
   58MPD2    N1  896   0.962   2.999  13.870 -0.4829 -0.5920  0.3442
   58MPD2    H7  897   1.031   3.029  13.938 -0.0290  0.2297 -0.4954
   59MPD2     C  898   4.403   2.949  13.515  0.1755  0.1217 -0.0381
   59MPD2    C1  899   4.478   2.999  13.410  0.0035 -0.6266 -0.2616
   59MPD2    C2  900   4.588   3.081  13.439  0.5527  0.1783 -0.5138
   59MPD2    C3  901   4.605   3.123  13.575  0.6463 -0.4370 -0.4298
   59MPD2    C4  902   4.509   3.091  13.661  0.1332  0.1930 -0.0830
   59MPD2    C5  903   4.415   3.005  13.639  0.7702 -0.5889 -1.0744
   59MPD2     H  904   4.662   3.114  13.368 -1.0459 -0.0959 -2.3149
   59MPD2    H1  905   4.516   3.122  13.765  1.4695  2.0105 -0.7092
   59MPD2    H2  906   4.327   2.874  13.501  0.5935 -0.0108 -1.6342
   59MPD2    H3  907   4.356   2.967  13.721  0.0716 -0.8119 -1.6853
   59MPD2     N  908   4.700   3.213  13.619 -1.1342 -0.4540 -0.3517
   59MPD2    H5  909   4.688   3.244  13.715 -0.2083  2.0305 -1.0205
   59MPD2    N1  910   4.439   2.974  13.273  0.0352  0.1369  0.4975
   59MPD2    H7  911   4.516   2.999  13.213  0.8488 -2.2407  0.5613
   60TCq2    C1  912   4.328   2.893  13.232 -0.3494  0.2543 -0.5280
   60TCq2    O2  913   4.231   2.858  13.296  0.1569  0.6257 -0.0714
   60TCq2    C2  914   4.333   2.831  13.102 -0.0176  0.3629 -0.3235
   60TCq2    C3  915   4.259   2.719  13.082 -0.6432 -0.7074 -0.0456
   60TCq2    C4  916   4.273   2.659  12.959  0.0734 -0.6178 -0.0633
   60TCq2    C5  917   4.360   2.712  12.860  0.6301 -0.2837 -0.4724
   60TCq2    C6  918   4.425   2.829  12.889 -0.2521  0.2293  0.8826
   60TCq2    C7  919   4.416   2.892  13.011  0.6925  0.3372 -0.0655
   60TCq2    C8  920   4.503   2.900  12.790 -0.6650 -0.6812 -0.1633
   60TCq2    O4  921   4.584   2.831  12.730  0.7300  0.8718 -0.4274
   60TCq2    C9  922   4.180   2.561  12.926 -0.7662  0.6001 -0.1435
   60TCq2    O5  923   4.209   2.493  12.821 -0.1248 -0.3426 -0.2183
   60TCq2    O6  924   4.073   2.550  12.994 -0.1885  0.0266 -0.6062
   60TCq2    H2  925   4.189   2.689  13.160 -0.7534 -1.3459 -0.3951
   60TCq2    H3  926   4.377   2.661  12.765  1.4354  0.1959 -0.5788
   60TCq2    H4  927   4.468   2.985  13.030  1.9945 -0.2792 -0.6161
   61MPD2     C  928   3.665   0.073  16.092 -0.3452  0.3074  0.6673
   61MPD2    C1  929   3.560   0.128  16.023 -0.4348 -0.1110  1.1762
   61MPD2    C2  930   3.553   0.115  15.884 -1.0346 -0.3593 -0.0319
   61MPD2    C3  931   3.646   0.029  15.822  0.2815 -0.1823 -0.0630
   61MPD2    C4  932   3.742   4.688  15.900 -0.2406  0.2274 -0.3752
   61MPD2    C5  933   3.758   4.716  16.030 -0.3892  0.3252 -0.5408
   61MPD2     H  934   3.475   0.168  15.830 -1.7373  0.1649  1.4867
   61MPD2    H1  935   3.811   4.615  15.858  2.0733  2.3848 -0.3419
   61MPD2    H2  936   3.691   0.098  16.194 -0.4215  1.8649  0.3077
   61MPD2    H3  937   3.836   4.668  16.087  1.1512  1.8839 -1.3614
   61MPD2     N  938   3.637   0.010  15.677 -0.1057  0.2152 -0.3472
   61MPD2    H5  939   3.718   4.696  15.628 -0.7324 -0.4787 -0.8868
   61MPD2    N1  940   3.462   0.211  16.086  1.0107 -0.2701 -0.3791
   61MPD2    H7  941   3.397   0.272  16.038 -0.5397 -0.1824  1.8657
   62TCq2    C1  942   3.458   0.238  16.221  0.6871  0.0038 -0.3213
   62TCq2    O2  943   3.489   0.167  16.312 -0.4252  0.3610  0.5850
   62TCq2    C2  944   3.387   0.364  16.254  1.2302 -1.0368 -0.2325
   62TCq2    C3  945   3.344   0.396  16.380 -0.1429  0.5118 -0.3432
   62TCq2    C4  946   3.273   0.506  16.398  0.1239 -0.0694  0.5282
   62TCq2    C5  947   3.275   0.614  16.315 -0.5022  0.1810  0.0212
   62TCq2    C6  948   3.319   0.583  16.191  0.3477  0.3871 -0.3537
   62TCq2    C7  949   3.375   0.461  16.161 -0.7362  0.3901 -0.3343
   62TCq2    C8  950   3.330   0.688  16.085 -0.1624 -0.0598 -0.0808
   62TCq2    O4  951   3.314   0.649  15.971  0.4804  0.4984 -0.3837
   62TCq2    C9  952   3.207   0.530  16.519 -0.4036 -0.1406  0.2904
   62TCq2    O5  953   3.174   0.426  16.583  0.6447  0.3098 -0.8228
   62TCq2    O6  954   3.165   0.652  16.546  0.0535  0.1361  0.5074
   62TCq2    H2  955   3.346   0.313  16.449  0.3086  1.5605  0.8956
   62TCq2    H3  956   3.222   0.708  16.326 -0.1953  0.4164 -0.4685
   62TCq2    H4  957   3.403   0.445  16.057 -0.1766  1.7449 -0.3916
   63TMC2    C1  958   2.532   4.539  11.015  0.4006  0.5755 -0.1758
   63TMC2    C2  959   2.657   4.497  11.064  0.3360 -0.0147 -0.1004
   63TMC2    C3  960   2.766   4.576  11.048  0.4525 -0.1044  0.2868
   63TMC2    C4  961   2.514   4.662  10.959 -0.3250 -0.1926 -0.1692
   63TMC2    C5  962   2.631   0.016  10.946  0.4836  1.3341 -0.0831
   63TMC2    C6  963   2.757   4.691  10.977  0.4821  0.0749  0.5564
   63TMC2     C  964   2.467   4.445  10.929  0.2387  0.8006  0.0347
   63TMC2     O  965   2.351   4.469  10.898  0.1642  0.1939  0.4263
   63TMC2     H  966   2.674   4.397  11.101  2.4295  0.1391 -0.6433
   63TMC2    H1  967   2.423   4.692  10.908 -0.9516  0.9837  1.6708
   63TMC2    H2  968   2.844   0.030  10.955  0.3459  0.0753  0.0117
   63TMC2    C7  969   2.631   0.120  10.845 -0.3655 -0.0205  0.5089
   63TMC2    C8  970   2.885   4.514  11.010 -0.5592  0.4330 -0.0052
   63TMC2    O1  971   2.729   0.125  10.772 -0.4320 -0.3081  0.2996
   63TMC2    O2  972   2.885   4.471  10.896 -0.0435  0.0635 -0.1448
   63TMC2    O5  973   2.920   4.426  11.115 -0.0729 -0.0974 -0.1911
   63TMC2    H5  974   2.887   4.475  11.194  0.0533  2.1734 -1.5304
   64MPD2     C  975   2.525   4.087  10.571 -0.0008 -0.2390  0.0957
   64MPD2    C1  976   2.636   4.068  10.656 -0.3120  0.2346 -0.3864
   64MPD2    C2  977   2.636   4.155  10.764 -0.2128 -0.3491  0.5330
   64MPD2    C3  978   2.535   4.246  10.797  0.2681 -0.5470  0.2376
   64MPD2    C4  979   2.426   4.247  10.719 -0.4543  0.5711 -0.6215
   64MPD2    C5  980   2.427   4.168  10.608  0.0902 -0.7956 -0.6462
   64MPD2     H  981   2.718   4.164  10.834 -1.4503  2.7635  1.5798
   64MPD2    H1  982   2.342   4.313  10.740  0.1962  1.0105  0.6536
   64MPD2    H2  983   2.508   4.046  10.472 -0.7642 -0.4606  0.3227
   64MPD2    H3  984   2.344   4.180  10.538 -1.5484  0.8542  1.5645
   64MPD2     N  985   2.556   4.346  10.899 -0.2512  0.1102  0.3101
   64MPD2    H5  986   2.642   4.344  10.953  0.7320 -1.9459 -1.3351
   64MPD2    N1  987   2.745   3.980  10.630  0.2392 -0.0892 -0.6097
   64MPD2    H7  988   2.804   3.973  10.712 -0.3156  3.3420  0.0836
   65MPD2     C  989   3.941   3.991  15.965 -0.0138  0.2078 -0.6930
   65MPD2    C1  990   4.017   3.951  15.862 -0.5113  0.4282  0.2155
   65MPD2    C2  991   4.013   3.819  15.824  0.6903 -0.2379  0.3024
   65MPD2    C3  992   3.926   3.723  15.892 -0.1264  0.0865 -0.5981
   65MPD2    C4  993   3.854   3.775  15.994  0.3488  0.2660  0.6664
   65MPD2    C5  994   3.862   3.902  16.033 -0.3654 -0.0275 -0.3851
   65MPD2     H  995   4.066   3.792  15.734 -2.6828  0.9894 -2.0588
   65MPD2    H1  996   3.784   3.716  16.052 -0.2092 -0.9999 -1.2600
   65MPD2    H2  997   3.943   4.095  15.998 -0.1219 -0.5231  1.5892
   65MPD2    H3  998   3.800   3.936  16.116 -0.5676 -0.2162 -0.4579
   65MPD2     N  999   3.906   3.587  15.859  0.1469 -0.1540 -0.4433
   65MPD2    H5 1000   3.850   3.536  15.926  0.8246 -0.3976 -0.0538
   65MPD2    N1 1001   4.092   4.044  15.787 -0.4388  0.0558  0.7583
   65MPD2    H7 1002   4.158   4.008  15.719 -0.1061  0.5597  0.8113
   66TCq2    C1 1003   4.098   4.183  15.800 -0.0677  0.0814 -0.1859
   66TCq2    O2 1004   4.052   4.248  15.893  0.0632  0.4318  1.0429
   66TCq2    C2 1005   4.149   4.251  15.684 -0.2695 -0.7656 -0.4223
   66TCq2    C3 1006   4.165   4.174  15.572 -0.3010  0.1307 -0.2083
   66TCq2    C4 1007   4.215   4.232  15.465  0.6589  0.0098  0.0699
   66TCq2    C5 1008   4.236   4.365  15.466 -0.3447 -0.8814 -0.0058
   66TCq2    C6 1009   4.229   4.438  15.583  0.0104  0.0946 -1.4438
   66TCq2    C7 1010   4.188   4.382  15.701  0.3851 -0.5171 -0.2603
   66TCq2    C8 1011   4.187   4.578  15.564 -0.0342 -0.0339  0.5605
   66TCq2    O4 1012   4.178   4.621  15.449  0.4700  0.0303  0.1508
   66TCq2    C9 1013   4.241   4.146  15.351 -0.3151  0.2095  0.7163
   66TCq2    O5 1014   4.290   4.209  15.256  0.5265  0.1058  0.4760
   66TCq2    O6 1015   4.212   4.025  15.357 -0.0245  0.2807  0.1369
   66TCq2    H2 1016   4.124   4.074  15.560  1.3764 -0.8978  2.8396
   66TCq2    H3 1017   4.279   4.406  15.376  1.0837 -1.6507  0.3249
   66TCq2    H4 1018   4.209   4.431  15.795  2.8562  0.9419 -1.5831
   67MPD2     C 1019   4.306   2.907  14.652  0.8700  0.2145 -0.3992
   67MPD2    C1 1020   4.263   3.026  14.588  0.1211 -0.0722 -0.4182
   67MPD2    C2 1021   4.134   3.021  14.537 -0.4280  0.0944  0.6039
   67MPD2    C3 1022   4.054   2.911  14.554 -0.3232 -0.7950 -0.0445
   67MPD2    C4 1023   4.093   2.806  14.630  0.1320 -0.3186 -1.2592
   67MPD2    C5 1024   4.218   2.803  14.680 -0.6492  0.5801  0.1773
   67MPD2     H 1025   4.106   3.107  14.478 -2.1369 -0.2895  0.8365
   67MPD2    H1 1026   4.022   2.732  14.664 -0.7297 -0.1650 -2.7178
   67MPD2    H2 1027   4.403   2.890  14.698  0.8141  0.7328 -0.0861
   67MPD2    H3 1028   4.247   2.711  14.729  1.8036  0.9216 -0.6625
   67MPD2     N 1029   3.929   2.902  14.498  0.3577 -0.2506  0.0989
   67MPD2    H5 1030   3.871   2.822  14.522 -2.5069  2.2859  1.6451
   67MPD2    N1 1031   4.329   3.151  14.596 -0.0828  0.2487  0.6805
   67MPD2    H7 1032   4.277   3.235  14.575  1.8340  0.7202 -2.1038
   68TCq2    C1 1033   4.458   3.167  14.652  0.6403 -0.3297  0.3391
   68TCq2    O2 1034   4.550   3.089  14.660 -0.1324 -0.3223 -0.0308
   68TCq2    C2 1035   4.473   3.303  14.704 -0.6184 -0.0335 -0.2662
   68TCq2    C3 1036   4.367   3.392  14.699 -0.3821  0.1586 -0.0302
   68TCq2    C4 1037   4.377   3.502  14.779 -0.6819  0.3441 -0.0214
   68TCq2    C5 1038   4.479   3.512  14.872  0.6893 -0.6800  0.6087
   68TCq2    C6 1039   4.589   3.436  14.869 -0.0755 -0.4375  0.0057
   68TCq2    C7 1040   4.582   3.324  14.788 -0.4294 -0.5850 -0.4594
   68TCq2    C8 1041   4.685   3.448  14.969  0.0516 -0.5699 -1.2422
   68TCq2    O4 1042   0.074   3.399  14.947 -0.1622  0.1688  0.5759
   68TCq2    C9 1043   4.252   3.575  14.791 -0.5403  0.4358  0.1837
   68TCq2    O5 1044   4.154   3.529  14.721  0.4150  0.2312  0.2804
   68TCq2    O6 1045   4.243   3.658  14.884  0.2530 -0.1549  0.6241
   68TCq2    H2 1046   4.287   3.378  14.627 -0.5333 -3.8800  0.9442
   68TCq2    H3 1047   4.481   3.601  14.934 -1.9525 -0.5840  0.5284
   68TCq2    H4 1048   4.658   3.247  14.799 -0.4670 -0.2531  2.1807
   69TMC2    C1 1049   1.950   0.057  12.568 -0.3501 -0.5761 -0.6169
   69TMC2    C2 1050   1.995   0.146  12.654  0.0399 -0.5697  0.3110
   69TMC2    C3 1051   2.063   0.251  12.595  0.6699 -0.2269 -0.2024
   69TMC2    C4 1052   1.982   0.047  12.437  0.7330  0.0142  0.0189
   69TMC2    C5 1053   2.045   0.158  12.385  0.2729 -0.6385 -0.2265
   69TMC2    C6 1054   2.092   0.263  12.463 -0.1501  0.1240  0.1784
   69TMC2     C 1055   1.902   4.650  12.618 -0.0601 -0.3753 -0.1391
   69TMC2     O 1056   1.817   4.650  12.704 -0.1339  0.2649 -0.5650
   69TMC2     H 1057   2.005   0.127  12.761 -2.8133  0.6224  0.7981
   69TMC2    H1 1058   1.948   4.688  12.372 -0.9304  1.3529 -0.7691
   69TMC2    H2 1059   2.164   0.336  12.427 -2.7306  1.8158 -1.5664
   69TMC2    C7 1060   2.108   0.138  12.257  0.5705 -0.2963  0.3587
   69TMC2    C8 1061   2.122   0.351  12.680 -0.5308 -0.6911  0.8018
   69TMC2    O1 1062   2.203   0.208  12.229 -0.6207 -0.4230 -0.6006
   69TMC2    O2 1063   2.154   0.327  12.796  0.3651 -0.0041  0.1040
   69TMC2    O5 1064   2.096   0.470  12.624  0.0609  0.2499  0.0960
   69TMC2    H5 1065   2.021   0.459  12.561 -1.7071  1.7003  1.9565
   70MPD2     C 1066   2.066   4.329  12.572  0.0472 -0.2880  0.1410
   70MPD2    C1 1067   1.959   4.413  12.580 -0.1469  0.3454  0.8765
   70MPD2    C2 1068   1.836   4.359  12.613  0.4848  0.2276 -0.7997
   70MPD2    C3 1069   1.820   4.229  12.632  0.1435 -0.1168  0.3049
   70MPD2    C4 1070   1.924   4.146  12.614 -0.2574 -0.5792  0.0145
   70MPD2    C5 1071   2.051   4.194  12.594 -0.0282  1.0408  0.2682
   70MPD2     H 1072   1.751   4.425  12.625  0.7012  0.4719 -0.6220
   70MPD2    H1 1073   1.912   4.043  12.644 -0.9461 -0.6421 -0.4778
   70MPD2    H2 1074   2.164   4.371  12.556  0.2633 -2.0667 -3.1347
   70MPD2    H3 1075   2.130   4.121  12.597 -0.2072  0.8369  0.0482
   70MPD2     N 1076   1.691   4.177  12.668  0.7521  0.1224  0.2839
   70MPD2    H5 1077   1.688   4.080  12.697  2.7782  0.2581  0.9619
   70MPD2    N1 1078   1.979   4.550  12.572 -0.5128  0.1576 -0.1049
   70MPD2    H7 1079   2.060   4.577  12.518 -0.3103  2.4995  1.3505
   71TMC2    C1 1080   3.703   1.384   2.365 -0.0710  0.0134 -0.4110
   71TMC2    C2 1081   3.812   1.450   2.416  0.6005  0.1666 -0.1242
   71TMC2    C3 1082   3.816   1.474   2.559 -0.2886 -0.0843  0.0180
   71TMC2    C4 1083   3.603   1.345   2.447  0.1748 -0.8146  0.2264
   71TMC2    C5 1084   3.610   1.380   2.582 -0.4838  0.3407 -0.1759
   71TMC2    C6 1085   3.717   1.438   2.641 -0.1031  0.8773  0.1822
   71TMC2     C 1086   3.690   1.386   2.218  0.1030 -0.4782  0.1453
   71TMC2     O 1087   3.792   1.409   2.158 -0.0901 -0.0597  0.3564
   71TMC2     H 1088   3.885   1.493   2.348 -0.4254  0.3047 -1.1479
   71TMC2    H1 1089   3.523   1.289   2.399 -1.3266  1.5276 -0.0149
   71TMC2    H2 1090   3.724   1.451   2.748  0.3508  0.5795  0.1905
   71TMC2    C7 1091   3.517   1.324   2.678 -0.3579 -0.4045 -0.0524
   71TMC2    C8 1092   3.920   1.569   2.609  0.5978  0.3809  0.2476
   71TMC2    O1 1093   3.522   1.360   2.796 -0.2684 -0.0344 -0.2664
   71TMC2    O2 1094   4.040   1.591   2.584  0.8906 -0.2634 -0.1699
   71TMC2    O5 1095   3.829   1.671   2.630 -0.2239 -0.0385 -0.0642
   71TMC2    H5 1096   3.737   1.640   2.617 -0.9496  1.6309  1.1103
   72MPD2     C 1097   3.431   1.276   1.785  0.3994 -0.0269  0.1175
   72MPD2    C1 1098   3.564   1.300   1.805 -0.2180 -0.1074  0.1326
   72MPD2    C2 1099   3.603   1.346   1.925 -0.2726 -0.6181  0.0931
   72MPD2    C3 1100   3.518   1.343   2.035 -0.5135  0.2355 -0.5003
   72MPD2    C4 1101   3.382   1.332   2.014 -0.7328 -0.4407 -0.1152
   72MPD2    C5 1102   3.348   1.295   1.891 -0.2113  0.3890  0.5736
   72MPD2     H 1103   3.704   1.383   1.937 -0.4646 -0.5993  1.6599
   72MPD2    H1 1104   3.306   1.344   2.091 -0.6654 -1.0477  0.0460
   72MPD2    H2 1105   3.392   1.240   1.691  1.2940 -0.4156 -0.0983
   72MPD2    H3 1106   3.245   1.267   1.874 -0.0271  0.2710 -0.3216
   72MPD2     N 1107   3.558   1.363   2.173  0.2254  0.1536 -0.2841
   72MPD2    H5 1108   3.482   1.355   2.241  1.8411 -0.1111  1.4887
   72MPD2    N1 1109   3.670   1.288   1.705 -0.0734 -0.6471 -0.3126
   72MPD2    H7 1110   3.764   1.321   1.723 -0.6845  1.0544 -0.2716
   73TMC2    C1 1111   3.542   1.945  14.111 -0.1818  0.0244  0.6300
   73TMC2    C2 1112   3.465   1.996  14.209  0.4282  0.1379 -0.1713
   73TMC2    C3 1113   3.479   1.967  14.343 -0.0917  0.0332  0.4510
   73TMC2    C4 1114   3.644   1.866  14.153  0.1935  0.3512 -0.5286
   73TMC2    C5 1115   3.658   1.827  14.281 -0.2008 -0.0983 -0.5611
   73TMC2    C6 1116   3.568   1.873  14.377  0.1541  0.6351 -0.1190
   73TMC2     C 1117   3.598   2.051  14.032 -0.2500  0.3380 -0.8274
   73TMC2     O 1118   3.714   2.065  14.065 -0.1521 -0.1520 -0.4645
   73TMC2     H 1119   3.388   2.066  14.180  1.9316  2.0973  0.6157
   73TMC2    H1 1120   3.709   1.835  14.072  0.3182 -0.2938 -0.1821
   73TMC2    H2 1121   3.580   1.844  14.481 -0.1894 -2.1281 -0.8433
   73TMC2    C7 1122   3.797   1.831  14.317 -0.0821 -0.3352 -0.2946
   73TMC2    C8 1123   3.356   1.980  14.420 -0.2085 -0.4787  0.8157
   73TMC2    O1 1124   3.832   1.786  14.425  0.0411 -0.2029  0.3605
   73TMC2    O2 1125   3.250   2.011  14.379  0.0736 -1.0234  0.7056
   73TMC2    O5 1126   3.388   1.970  14.551  0.2782  0.1514 -0.3454
   73TMC2    H5 1127   3.478   2.009  14.560  0.4518 -0.0649 -1.1110
   74MPD2     C 1128   3.616   2.413  13.669 -0.2949 -0.3162 -0.7763
   74MPD2    C1 1129   3.700   2.388  13.779  0.4344 -0.1563  0.0508
   74MPD2    C2 1130   3.648   2.296  13.871 -0.3368  0.7690  0.1697
   74MPD2    C3 1131   3.539   2.219  13.857  0.7112 -0.7387 -0.0718
   74MPD2    C4 1132   3.457   2.249  13.753 -0.8159  0.6730  0.6631
   74MPD2    C5 1133   3.495   2.343  13.662 -0.5834 -0.0805  0.0243
   74MPD2     H 1134   3.690   2.289  13.971  1.8007 -1.2723 -0.8973
   74MPD2    H1 1135   3.360   2.202  13.741  0.1979 -1.1581 -0.3179
   74MPD2    H2 1136   3.634   2.489  13.594  0.5411 -1.5768 -1.8768
   74MPD2    H3 1137   3.428   2.352  13.577 -0.3237  2.1375  0.0589
   74MPD2     N 1138   3.507   2.107  13.943 -0.2802  0.7751  0.5195
   74MPD2    H5 1139   3.418   2.062  13.927  0.7870 -1.1379 -0.0107
   74MPD2    N1 1140   3.821   2.462  13.785  0.3950 -0.3107 -0.4144
   74MPD2    H7 1141   3.835   2.513  13.699  0.2650  1.1073  0.4022
   75TCq2    C1 1142   3.873   2.995  14.413 -0.0670  0.0872  0.1439
   75TCq2    O2 1143   3.911   3.109  14.383 -0.0858  0.6946 -0.5207
   75TCq2    C2 1144   3.739   2.960  14.369 -0.1508 -0.9050  0.1356
   75TCq2    C3 1145   3.701   2.829  14.379 -0.6738 -0.5072  0.5848
   75TCq2    C4 1146   3.583   2.797  14.319 -1.1293  0.5754 -0.2667
   75TCq2    C5 1147   3.514   2.883  14.248  0.5963 -0.8303 -0.1381
   75TCq2    C6 1148   3.559   3.014  14.227  0.5147  0.2216 -0.0494
   75TCq2    C7 1149   3.668   3.055  14.298 -0.0473  0.4376 -0.5644
   75TCq2    C8 1150   3.492   3.096  14.126 -0.5596 -0.6034  1.0418
   75TCq2    O4 1151   3.428   3.033  14.045  0.1425 -0.4266  0.3435
   75TCq2    C9 1152   3.534   2.662  14.335  0.1169 -1.1430  0.0758
   75TCq2    O5 1153   3.558   2.601  14.446  0.4289  0.5746 -0.1046
   75TCq2    O6 1154   3.478   2.597  14.243 -0.4422 -0.4616 -0.4522
   75TCq2    H2 1155   3.760   2.750  14.425  0.1019  0.6804  1.6248
   75TCq2    H3 1156   3.421   2.843  14.208 -1.0764 -1.2859  4.2003
   75TCq2    H4 1157   3.711   3.153  14.279 -0.3837  0.1856 -2.6091
   76MPD2     C 1158   2.933   4.206  12.246  0.0335  0.4825  0.0402
   76MPD2    C1 1159   2.887   4.189  12.112  0.2323 -0.0968 -0.6626
   76MPD2    C2 1160   2.890   4.062  12.070 -0.0036 -0.2088 -0.1877
   76MPD2    C3 1161   2.922   3.949  12.144 -0.4479  0.5713  0.8030
   76MPD2    C4 1162   2.955   3.973  12.276  0.3069 -0.2474 -0.0605
   76MPD2    C5 1163   2.960   4.101  12.325 -0.5144 -0.8691 -0.4854
   76MPD2     H 1164   2.862   4.049  11.966  1.2641  0.9900 -0.6916
   76MPD2    H1 1165   2.994   3.889  12.332  1.8261  0.7596  0.3938
   76MPD2    H2 1166   2.935   4.307  12.286  1.9731  0.0371  1.0844
   76MPD2    H3 1167   2.987   4.126  12.427  1.0916  0.1762 -1.1815
   76MPD2     N 1168   2.922   3.820  12.084  0.0515  0.1918 -0.2340
   76MPD2    H5 1169   2.981   3.751  12.130 -1.2414  1.7537  3.7089
   76MPD2    N1 1170   2.849   4.287  12.016  0.4036  0.3907 -0.4857
   76MPD2    H7 1171   2.802   4.249  11.935  0.5294  1.0185 -0.8567
   77TCq2    C1 1172   2.855   3.780  11.971  0.6802 -0.2642 -0.0360
   77TCq2    O2 1173   2.773   3.844  11.906 -0.7433 -0.2785  0.2284
   77TCq2    C2 1174   2.910   3.662  11.914 -0.3486  0.5128 -0.4903
   77TCq2    C3 1175   2.896   3.639  11.776 -0.2108 -0.2427 -0.3813
   77TCq2    C4 1176   2.958   3.526  11.718  0.4329 -0.9091  0.6107
   77TCq2    C5 1177   3.032   3.444  11.796 -0.1665  0.5609 -0.0126
   77TCq2    C6 1178   3.047   3.463  11.928  0.2974 -0.1714 -0.1128
   77TCq2    C7 1179   2.994   3.575  11.987 -0.0168 -0.2425 -0.3167
   77TCq2    C8 1180   3.072   3.343  12.006 -0.4403  0.3551 -0.0398
   77TCq2    O4 1181   3.054   3.237  11.945  0.3762 -0.0778  0.5575
   77TCq2    C9 1182   2.929   3.487  11.578 -0.3951  0.3625  0.5583
   77TCq2    O5 1183   3.003   3.402  11.522  0.5672 -0.2782  0.5298
   77TCq2    O6 1184   2.820   3.524  11.520 -0.2967 -0.0977  0.0084
   77TCq2    H2 1185   2.827   3.694  11.713 -0.2110  1.3994  1.0622
   77TCq2    H3 1186   3.069   3.352  11.752  0.5026  1.9832 -2.3943
   77TCq2    H4 1187   3.004   3.597  12.093  1.6171  1.0539 -0.7213
   78MPD1     C 1188   0.316   4.602   2.712  0.9660  0.0182  0.6361
   78MPD1    C1 1189   0.312   4.469   2.701 -0.8951  0.1511  0.2620
   78MPD1    C2 1190   0.428   4.400   2.705  0.5994 -0.2957 -0.7400
   78MPD1    C3 1191   0.549   4.456   2.691  0.7328  0.2420 -0.3234
   78MPD1    C4 1192   0.548   4.593   2.675 -0.1530 -0.1604 -0.0708
   78MPD1    C5 1193   0.433   4.665   2.691 -0.2412  0.4601  0.4490
   78MPD1     H 1194   0.427   4.294   2.728  0.0919 -0.2256 -0.4238
   78MPD1    H1 1195   0.638   4.650   2.655  0.8126 -1.4858  0.4749
   78MPD1    H2 1196   0.231   4.668   2.723 -0.7336 -2.0703  0.0802
   78MPD1    H3 1197   0.443   0.050   2.674  1.1302  0.1826 -0.5391
   78MPD1     N 1198   0.675   4.394   2.691 -0.0540 -0.9213 -0.1653
   78MPD1    H5 1199   0.759   4.450   2.688 -0.3942 -0.4380 -0.7407
   78MPD1    N1 1200   0.190   4.399   2.717  0.2789  0.4811  0.7568
   78MPD1    H6 1201   0.184   4.302   2.688 -1.5517  0.9177 -0.3459
   78MPD1    H7 1202   0.119   4.456   2.671  2.2266  1.6818 -0.7428
   79TCq2    C1 1203   0.687   4.259   2.685  1.0178 -0.2151  0.2650
   79TCq2    O2 1204   0.597   4.175   2.709 -0.3924 -0.1213 -0.0377
   79TCq2    C2 1205   0.825   4.219   2.705 -0.3200  0.3503  0.8781
   79TCq2    C3 1206   0.848   4.097   2.759 -0.0796 -0.1792  0.4434
   79TCq2    C4 1207   0.976   4.052   2.771 -0.0453 -1.1107  0.5693
   79TCq2    C5 1208   1.091   4.129   2.740 -0.3143  0.2340 -0.0646
   79TCq2    C6 1209   1.053   4.249   2.683 -0.6603  0.7333 -0.0699
   79TCq2    C7 1210   0.928   4.297   2.662 -0.2748 -0.0496  0.2725
   79TCq2    C8 1211   1.157   4.342   2.656 -0.3609  0.8871 -0.1037
   79TCq2    O4 1212   1.134   4.442   2.588 -0.3419  0.0058  0.0130
   79TCq2    C9 1213   1.016   3.920   2.816  0.4645 -0.2430 -0.2009
   79TCq2    O5 1214   0.927   3.863   2.881  0.0287  0.4527  0.8013
   79TCq2    O6 1215   1.135   3.887   2.816  0.1529 -0.6752  0.2428
   79TCq2    H2 1216   0.768   4.027   2.779 -2.0331  1.8623 -0.2601
   79TCq2    H3 1217   1.190   4.087   2.753 -0.8069 -1.5342 -1.8473
   79TCq2    H4 1218   0.913   4.397   2.623  3.9421 -0.1125 -1.4682
   80MPD2     C 1219   2.454   3.608  11.781  0.2126 -0.2369  0.1367
   80MPD2    C1 1220   2.323   3.590  11.738  0.5831 -0.5402  0.6738
   80MPD2    C2 1221   2.223   3.605  11.829 -0.4796 -0.3828 -0.0179
   80MPD2    C3 1222   2.243   3.657  11.957  0.6748 -0.1577  0.6552
   80MPD2    C4 1223   2.375   3.665  11.995 -0.1785 -0.0241 -0.8644
   80MPD2    C5 1224   2.475   3.634  11.911  0.0767 -0.5742 -0.5254
   80MPD2     H 1225   2.121   3.599  11.791 -1.5114  0.7406  2.6095
   80MPD2    H1 1226   2.408   3.688  12.095 -0.1621 -2.2378 -0.3528
   80MPD2    H2 1227   2.540   3.573  11.724 -0.6457 -1.2070 -0.5639
   80MPD2    H3 1228   2.576   3.619  11.947  1.6169  0.2828 -4.5198
   80MPD2     N 1229   2.136   3.686  12.047 -0.9469  0.0831  0.7134
   80MPD2    H5 1230   2.161   3.719  12.139  0.3378  1.0563  0.0130
   80MPD2    N1 1231   2.277   3.556  11.611  0.7651  0.2794 -0.0814
   80MPD2    H7 1232   2.178   3.537  11.594  0.7947  0.0017  0.0599
   81TCq2    C1 1233   2.363   3.528  11.501 -0.6049  0.2862 -0.5378
   81TCq2    O2 1234   2.482   3.548  11.489 -0.3806  0.5716 -0.1150
   81TCq2    C2 1235   2.292   3.471  11.391 -0.2623  0.2129 -0.6605
   81TCq2    C3 1236   2.370   3.450  11.282 -0.4215  0.1900  0.5476
   81TCq2    C4 1237   2.332   3.365  11.183  0.0312 -0.0252  0.1143
   81TCq2    C5 1238   2.210   3.305  11.187  0.4057 -0.3346  1.0125
   81TCq2    C6 1239   2.141   3.320  11.301 -0.0370 -0.0613 -0.2346
   81TCq2    C7 1240   2.174   3.398  11.405  0.0152 -0.2384  0.1873
   81TCq2    C8 1241   2.014   3.259  11.305 -0.4385 -0.2267 -0.1435
   81TCq2    O4 1242   1.947   3.261  11.203  0.0003  0.1319  0.0167
   81TCq2    C9 1243   2.412   3.355  11.065 -0.3037 -0.8633 -1.1437
   81TCq2    O5 1244   2.524   3.415  11.067  0.0640  0.1148 -0.0776
   81TCq2    O6 1245   2.372   3.293  10.964 -0.2075 -0.8092  0.7411
   81TCq2    H2 1246   2.459   3.511  11.274 -1.1782  1.4168  1.5729
   81TCq2    H3 1247   2.169   3.249  11.103  1.1220  1.3216 -0.4309
   81TCq2    H4 1248   2.107   3.408  11.489 -1.8968  0.8801 -1.4790
   82MPD2     C 1249   0.148   3.469  10.794  0.2010 -0.7247  0.2741
   82MPD2    C1 1250   0.064   3.353  10.781  0.1668  0.1780 -0.1202
   82MPD2    C2 1251   0.119   3.230  10.815  0.1726  0.0319  0.7531
   82MPD2    C3 1252   0.245   3.227  10.867  0.1707 -0.5061  0.4444
   82MPD2    C4 1253   0.330   3.338  10.871 -0.0686 -0.2930 -0.6643
   82MPD2    C5 1254   0.280   3.459  10.825 -0.9220  0.4086 -0.0345
   82MPD2     H 1255   0.063   3.139  10.799 -1.1623  1.2929 -1.6401
   82MPD2    H1 1256   0.433   3.333  10.907 -0.9138  0.7931  1.8994
   82MPD2    H2 1257   0.108   3.565  10.763  0.0829 -1.0275 -0.5006
   82MPD2    H3 1258   0.346   3.545  10.829 -1.5726  0.9246 -0.4711
   82MPD2     N 1259   0.303   3.107  10.913 -0.0997  0.2524 -0.2558
   82MPD2    H5 1260   0.402   3.110  10.937 -0.0289 -0.6287 -0.4232
   82MPD2    N1 1261   4.654   3.369  10.728 -0.4172  0.3013  0.8051
   82MPD2    H7 1262   4.616   3.463  10.719 -1.0869 -0.0072  0.4245
   83TCq2    C1 1263   0.236   2.993  10.942  0.6216 -0.0668  0.7054
   83TCq2    O2 1264   0.120   2.984  10.972  0.2386  0.0369 -0.4625
   83TCq2    C2 1265   0.316   2.876  10.965 -0.2725  0.0970 -0.2127
   83TCq2    C3 1266   0.449   2.884  10.929  0.5190 -0.3510 -0.7558
   83TCq2    C4 1267   0.521   2.784  10.982 -0.4310  0.0292  0.3138
   83TCq2    C5 1268   0.473   2.681  11.059  0.4247  0.3925 -0.2261
   83TCq2    C6 1269   0.337   2.684  11.088 -0.3237 -0.3158 -0.2104
   83TCq2    C7 1270   0.256   2.774  11.033 -0.2149  1.0550 -0.4312
   83TCq2    C8 1271   0.295   2.620  11.205  0.1185 -0.8372  0.4249
   83TCq2    O4 1272   0.177   2.604  11.213 -0.1063  0.5076 -0.4588
   83TCq2    C9 1273   0.661   2.778  10.949  0.2770  0.1808  0.0567
   83TCq2    O5 1274   0.721   2.673  10.982 -0.9196 -0.2777 -0.1858
   83TCq2    O6 1275   0.712   2.889  10.940  0.0458 -0.1003 -0.0356
   83TCq2    H2 1276   0.496   2.955  10.862  3.3137 -0.0042  1.5755
   83TCq2    H3 1277   0.534   2.601  11.098 -0.5023 -0.7079 -1.0434
   83TCq2    H4 1278   0.156   2.786  11.074  0.9105  1.4991  2.1777
   84TCq2    C1 1279   1.757   2.076  10.464  0.5608 -0.7131 -0.1405
   84TCq2    O2 1280   1.727   2.193  10.486 -0.2123 -0.1737  0.0646
   84TCq2    C2 1281   1.689   1.976  10.540  0.5919 -0.3834 -0.4238
   84TCq2    C3 1282   1.680   1.846  10.484  0.1002 -0.3315  0.3135
   84TCq2    C4 1283   1.601   1.758  10.563  0.3129 -0.7766  0.0333
   84TCq2    C5 1284   1.536   1.796  10.678  0.0239 -0.2177  0.8565
   84TCq2    C6 1285   1.554   1.926  10.729  0.0297 -0.6538 -0.0115
   84TCq2    C7 1286   1.636   2.015  10.664  0.3143  0.1452  0.2954
   84TCq2    C8 1287   1.485   1.950  10.856  0.1551  0.2126  0.8139
   84TCq2    O4 1288   1.540   2.032  10.921  0.1723  0.0715 -0.2059
   84TCq2    C9 1289   1.600   1.621  10.517 -0.1409  0.0391  0.1130
   84TCq2    O5 1290   1.683   1.586  10.430  0.3012  0.1429  0.3368
   84TCq2    O6 1291   1.514   1.550  10.572  0.8180 -0.1559 -0.4712
   84TCq2    H2 1292   1.703   1.818  10.382  0.6706  0.0176  0.3497
   84TCq2    H3 1293   1.492   1.720  10.741 -2.1675  1.0569  0.8432
   84TCq2    H4 1294   1.650   2.113  10.706 -0.5757  0.0150  0.8870
   85MPD2     C 1295   1.308   0.560  16.494 -1.0027 -0.3677  0.0020
   85MPD2    C1 1296   1.370   0.470  16.416 -0.6487 -0.1483 -0.3542
   85MPD2    C2 1297   1.439   0.515  16.310 -0.2689 -0.9073  0.3609
   85MPD2    C3 1298   1.441   0.648  16.274 -0.5772 -0.2297  0.0604
   85MPD2    C4 1299   1.371   0.737  16.354 -0.2963 -0.2732  0.0406
   85MPD2    C5 1300   1.294   0.689  16.461 -0.0719  0.6440 -0.0578
   85MPD2     H 1301   1.503   0.452  16.250  2.7132  1.1491  1.3587
   85MPD2    H1 1302   1.368   0.842  16.327 -0.6132 -0.3020 -0.0384
   85MPD2    H2 1303   1.263   0.527  16.587  1.4489 -1.5832  0.7587
   85MPD2    H3 1304   1.242   0.752  16.532  0.4253  1.2770 -0.2585
   85MPD2     N 1305   1.527   0.693  16.169 -0.1140  0.4380 -0.0578
   85MPD2    H5 1306   1.589   0.624  16.127 -3.1298 -1.4199 -1.4501
   85MPD2    N1 1307   1.363   0.333  16.444  0.0496  0.0596 -0.2774
   85MPD2    H7 1308   1.423   0.277  16.384  1.7178 -0.2284  1.6539
   86TCq2    C1 1309   1.524   0.818  16.114  0.1528  0.6201  0.6998
   86TCq2    O2 1310   1.457   0.912  16.148  0.2531  0.2568 -0.8161
   86TCq2    C2 1311   1.615   0.833  16.004 -0.2538  0.3307 -0.3717
   86TCq2    C3 1312   1.593   0.951  15.930 -0.4552  0.2076 -0.1050
   86TCq2    C4 1313   1.637   0.971  15.804 -0.2345 -0.3874  0.1397
   86TCq2    C5 1314   1.706   0.863  15.751  0.1829  0.0821 -0.0164
   86TCq2    C6 1315   1.728   0.746  15.828 -0.0299 -0.1177 -0.5130
   86TCq2    C7 1316   1.686   0.726  15.958 -0.0363 -0.0554  0.6546
   86TCq2    C8 1317   1.788   0.635  15.763  0.5004 -1.5539  0.0361
   86TCq2    O4 1318   1.838   0.546  15.832 -0.1137  0.1509  0.5117
   86TCq2    C9 1319   1.602   1.084  15.722 -0.2266  0.1003  0.1112
   86TCq2    O5 1320   1.666   1.102  15.618 -0.1350 -0.1430 -0.3736
   86TCq2    O6 1321   1.502   1.148  15.764  0.2425 -0.4902  0.2882
   86TCq2    H2 1322   1.528   1.032  15.961 -0.7184  0.3914 -1.1181
   86TCq2    H3 1323   1.735   0.879  15.648  0.5274 -0.7788 -0.0488
   86TCq2    H4 1324   1.712   0.637  16.015  0.5138 -0.7597 -0.6779
   87MPD2     C 1325   3.328   4.639   1.232  0.3123  0.5018  0.1574
   87MPD2    C1 1326   3.381   4.656   1.108  0.4387  0.1811 -0.3456
   87MPD2    C2 1327   3.316   4.706   0.999 -0.2979 -0.4398  0.2538
   87MPD2    C3 1328   3.181   0.009   1.005 -0.3412  0.2439 -0.1946
   87MPD2    C4 1329   3.126   4.714   1.133  0.8390 -0.3804  0.1223
   87MPD2    C5 1330   3.192   4.663   1.243 -0.0931  0.5138 -0.1308
   87MPD2     H 1331   3.360   0.012   0.903  0.0693  2.2290  1.1729
   87MPD2    H1 1332   3.020   0.008   1.145  0.8027  0.0898 -0.8370
   87MPD2    H2 1333   3.373   4.591   1.318 -1.6649 -2.2820 -0.3738
   87MPD2    H3 1334   3.140   4.643   1.336  1.6379 -0.9883  0.5387
   87MPD2     N 1335   3.103   0.065   0.903 -0.3887 -0.7651 -0.2216
   87MPD2    H5 1336   3.013   0.102   0.933 -0.1464 -0.6618  0.3847
   87MPD2    N1 1337   3.514   4.629   1.107  0.6180  0.3998 -0.2556
   87MPD2    H7 1338   3.546   4.604   1.200 -0.5664 -0.3678 -0.0559
   88TCq2    C1 1339   3.594   4.632   0.993  0.1417  0.5699  0.3678
   88TCq2    O2 1340   3.573   4.652   0.876 -0.1625 -0.5694 -0.1493
   88TCq2    C2 1341   3.725   4.574   1.032 -0.1481 -0.1180  0.1751
   88TCq2    C3 1342   3.776   4.617   1.150  0.0233 -0.2289  0.9772
   88TCq2    C4 1343   3.888   4.555   1.196 -0.5587  0.4311  0.2416
   88TCq2    C5 1344   3.958   4.454   1.124  0.5446 -0.0457 -0.0287
   88TCq2    C6 1345   3.902   4.412   1.005  0.1665 -0.2308 -0.4225
   88TCq2    C7 1346   3.790   4.472   0.961 -0.2518  0.2543 -0.5912
   88TCq2    C8 1347   3.968   4.301   0.939  0.4445 -0.2010  0.2388
   88TCq2    O4 1348   4.080   4.268   0.974 -0.8947  0.0705 -0.3249
   88TCq2    C9 1349   3.935   4.596   1.324 -0.8444  1.0948  0.5196
   88TCq2    O5 1350   3.859   4.660   1.402 -0.4326 -0.0209  0.3317
   88TCq2    O6 1351   4.046   4.551   1.353 -0.3222 -0.7418 -0.2951
   88TCq2    H2 1352   3.727   4.697   1.204 -0.2914 -0.1668  0.5998
   88TCq2    H3 1353   4.039   4.406   1.177  0.7026  0.2068 -0.0425
   88TCq2    H4 1354   3.744   4.457   0.864 -2.0916 -2.6295  0.7294
   89MPD2     C 1355   4.283   2.515   2.581  0.5144  0.4235 -0.1056
   89MPD2    C1 1356   4.316   2.505   2.446  0.0424  0.3363 -1.2417
   89MPD2    C2 1357   4.313   2.620   2.363 -0.6842 -0.2001  0.3394
   89MPD2    C3 1358   4.271   2.734   2.422 -0.3496  0.1916 -0.2807
   89MPD2    C4 1359   4.240   2.741   2.562 -0.1959  0.0769 -0.2056
   89MPD2    C5 1360   4.232   2.629   2.643  1.1079 -0.3833  0.6203
   89MPD2     H 1361   4.347   2.623   2.260 -0.2817  0.7619  0.4973
   89MPD2    H1 1362   4.208   2.834   2.608  0.5243 -0.1867  0.8354
   89MPD2    H2 1363   4.278   2.429   2.648  0.3885  0.0758 -0.5622
   89MPD2    H3 1364   4.210   2.630   2.750 -0.1474 -1.5744  0.3644
   89MPD2     N 1365   4.274   2.847   2.341  0.0681  0.6587 -0.1601
   89MPD2    H5 1366   4.298   2.841   2.242  1.2067 -0.8179  0.2175
   89MPD2    N1 1367   4.370   2.390   2.388  0.1090  0.4373 -0.2876
   89MPD2    H7 1368   4.385   2.386   2.288 -1.0759 -1.7318 -0.3840
   90TCq2    C1 1369   4.266   2.976   2.380 -0.6913 -0.2099  0.7810
   90TCq2    O2 1370   4.258   3.018   2.494 -0.4285  0.2048 -0.3297
   90TCq2    C2 1371   4.320   3.064   2.276 -0.0381 -0.0267 -0.6933
   90TCq2    C3 1372   4.399   3.166   2.322 -0.6630  0.1445 -0.1758
   90TCq2    C4 1373   4.507   3.201   2.240 -0.0596  0.1062  0.4835
   90TCq2    C5 1374   4.532   3.139   2.115  0.2692  0.1798  0.2357
   90TCq2    C6 1375   4.443   3.041   2.071 -0.1024  0.1924  0.4689
   90TCq2    C7 1376   4.348   3.001   2.156  0.5354 -0.1468  0.2843
   90TCq2    C8 1377   4.487   2.935   1.983  0.6736  0.1160  0.5751
   90TCq2    O4 1378   4.440   2.825   1.996 -0.2098 -0.3595  0.1514
   90TCq2    C9 1379   4.590   3.305   2.284  0.1736  0.2720 -0.3209
   90TCq2    O5 1380   4.549   3.370   2.384  0.0886  0.0082  0.2470
   90TCq2    O6 1381   4.709   3.292   2.242 -0.3174  0.1960 -0.0302
   90TCq2    H2 1382   4.381   3.201   2.422  1.0369  1.0582 -0.1971
   90TCq2    H3 1383   4.614   3.168   2.051 -0.2465  2.0172  0.4098
   90TCq2    H4 1384   4.279   2.930   2.112 -1.4978  1.4622  0.8834
   91TMC2    C1 1385   1.469   1.502  17.113  0.3140 -0.2418  0.5488
   91TMC2    C2 1386   1.443   1.629  17.064 -0.6208  0.3562  0.0182
   91TMC2    C3 1387   1.345   1.648  16.964 -0.3124 -0.0139  0.4889
   91TMC2    C4 1388   1.406   1.390  17.058  0.1211 -0.4037  0.4572
   91TMC2    C5 1389   1.318   1.419  16.957  0.2240  0.1114 -0.5798
   91TMC2    C6 1390   1.275   1.543  16.910 -0.2553  0.8806  0.5048
   91TMC2     C 1391   1.576   1.481  17.205  0.4110  0.1609 -0.0935
   91TMC2     O 1392   1.631   1.371  17.197  1.0910  0.4725  0.3199
   91TMC2     H 1393   1.495   1.713  17.108  0.7278  0.3890 -1.6383
   91TMC2    H1 1394   1.433   1.287  17.078  1.7213 -0.1045 -0.1440
   91TMC2    H2 1395   1.188   1.566  16.849  0.6858 -0.7994 -1.4711
   91TMC2    C7 1396   1.226   1.315  16.927  1.0600 -0.8926  0.1989
   91TMC2    C8 1397   1.342   1.778  16.909 -0.4300  0.6752 -0.0985
   91TMC2    O1 1398   1.212   1.235  17.014  0.1090  0.8174 -0.2446
   91TMC2    O2 1399   1.260   1.797  16.821 -0.5620 -0.4573 -0.0375
   91TMC2    O5 1400   1.469   1.821  16.905 -0.1240 -0.1902  0.0413
   91TMC2    H5 1401   1.537   1.761  16.942  1.5455  0.1893 -2.4149
   92MPD2     C 1402   1.693   1.658  17.495 -0.7720  0.1906  0.3853
   92MPD2    C1 1403   1.698   1.582  17.385 -0.2470  0.3573  0.0761
   92MPD2    C2 1404   1.818   1.527  17.352  0.3277 -0.1898 -0.2405
   92MPD2    C3 1405   1.929   1.550  17.427  0.2383 -0.1209  0.1591
   92MPD2    C4 1406   1.925   1.623  17.547 -0.4194  0.8834 -0.4692
   92MPD2    C5 1407   1.801   1.675  17.576 -0.3417  0.5807  0.8672
   92MPD2     H 1408   1.826   1.479  17.255 -0.8810  2.3188 -1.5955
   92MPD2    H1 1409   2.013   1.654  17.602 -0.0677 -0.9903  0.0082
   92MPD2    H2 1410   1.601   1.708  17.523 -0.8875  0.2717 -0.1375
   92MPD2    H3 1411   1.796   1.741  17.663 -0.8362 -1.3078  2.2689
   92MPD2     N 1412   2.050   1.489  17.393  0.2706 -0.7813  0.5738
   92MPD2    H5 1413   2.061   1.475  17.293 -0.0531  0.2002  0.4011
   92MPD2    N1 1414   1.592   1.577  17.293  0.0858 -0.1487 -0.3720
   92MPD2    H7 1415   1.527   1.653  17.310 -0.6616 -1.4583  2.6986
   93MPD2     C 1416   3.358   0.974  13.962  0.0267 -0.1370 -0.7389
   93MPD2    C1 1417   3.307   1.083  13.894  0.3920 -0.2179 -0.6621
   93MPD2    C2 1418   3.168   1.106  13.892  0.2958  0.0967 -0.0617
   93MPD2    C3 1419   3.082   1.016  13.956  0.3460  0.6029 -0.9579
   93MPD2    C4 1420   3.134   0.898  14.006 -1.0256  0.3436 -0.6814
   93MPD2    C5 1421   3.271   0.882  14.017  0.2736  0.2052 -0.4359
   93MPD2     H 1422   3.135   1.183  13.823  2.1470  2.5947  1.8520
   93MPD2    H1 1423   3.070   0.819  14.044 -0.9840  0.2469 -0.8137
   93MPD2    H2 1424   3.465   0.959  13.968  0.3001  2.0690  0.1858
   93MPD2    H3 1425   3.308   0.786  14.051  1.3921  0.4365 -1.0186
   93MPD2     N 1426   2.940   1.031  13.958  0.0711  0.5960  0.8269
   93MPD2    H5 1427   2.886   0.955  13.999  1.3362 -2.0425 -2.4419
   93MPD2    N1 1428   3.387   1.184  13.830 -0.3270  0.2372  0.4475
   93MPD2    H7 1429   3.339   1.255  13.776 -4.1628 -1.1569  1.9891
   94TCq2    C1 1430   3.526   1.189  13.831 -0.2343  0.7100  0.2081
   94TCq2    O2 1431   3.607   1.112  13.883  0.3974  0.0715  0.3945
   94TCq2    C2 1432   3.591   1.293  13.745 -0.3400 -0.1124 -0.5112
   94TCq2    C3 1433   3.533   1.413  13.746  0.2596 -0.4473  0.1287
   94TCq2    C4 1434   3.609   1.528  13.724  0.2123  1.0328  0.3365
   94TCq2    C5 1435   3.742   1.531  13.703 -0.4285 -0.3887 -0.3037
   94TCq2    C6 1436   3.799   1.407  13.712  0.0083  0.4592 -0.2926
   94TCq2    C7 1437   3.726   1.287  13.729 -0.2273 -0.4059 -0.4942
   94TCq2    C8 1438   3.947   1.388  13.732  0.4969 -0.7245 -0.0656
   94TCq2    O4 1439   3.992   1.273  13.713  0.3417  0.1128  0.3581
   94TCq2    C9 1440   3.536   1.658  13.744  0.4520  0.6242  0.5989
   94TCq2    O5 1441   3.605   1.762  13.748 -1.1539 -0.3746 -0.3483
   94TCq2    O6 1442   3.415   1.660  13.783  0.0063  0.2404 -0.8174
   94TCq2    H2 1443   3.426   1.422  13.761 -0.2247  2.0856 -4.9452
   94TCq2    H3 1444   3.793   1.627  13.700 -0.7059 -0.1880  1.0836
   94TCq2    H4 1445   3.780   1.195  13.746 -0.0204 -0.3811 -1.0017
   95TMC2    C1 1446   3.331   2.802  16.323 -0.3369 -0.0391 -0.2831
   95TMC2    C2 1447   3.383   2.676  16.339 -0.0015 -0.3761  0.3212
   95TMC2    C3 1448   3.368   2.611  16.458  0.2357 -0.4888 -0.1309
   95TMC2    C4 1449   3.249   2.854  16.419  0.0215  0.2093 -0.2212
   95TMC2    C5 1450   3.246   2.795  16.540  0.0081  1.6533 -0.0394
   95TMC2    C6 1451   3.304   2.675  16.560  0.7769  1.2442 -0.2627
   95TMC2     C 1452   3.351   2.876  16.203 -0.7750  0.0295  0.2947
   95TMC2     O 1453   3.447   2.837  16.135  0.3668 -0.4015 -0.4211
   95TMC2     H 1454   3.447   2.628  16.266  0.6444 -1.3606  1.5338
   95TMC2    H1 1455   3.209   2.955  16.416 -1.3173 -0.2260  2.9725
   95TMC2    H2 1456   3.300   2.621  16.653  2.2312 -1.1029 -1.5733
   95TMC2    C7 1457   3.266   2.891  16.649 -0.5944  0.0828 -0.2661
   95TMC2    C8 1458   3.428   2.479  16.482 -0.1020 -0.5118 -0.0047
   95TMC2    O1 1459   3.293   3.005  16.623 -0.2385 -0.5510  0.2182
   95TMC2    O2 1460   3.428   2.439  16.597  0.1952  0.1250  0.0118
   95TMC2    O5 1461   3.404   2.407  16.372 -0.2701  0.9183  0.2503
   95TMC2    H5 1462   3.363   2.458  16.299  0.6025 -0.2382 -1.0676
   96MPD2     C 1463   3.358   3.321  15.941  0.2192 -0.5238  0.0154
   96MPD2    C1 1464   3.449   3.220  15.949  0.1162 -0.2470 -0.3808
   96MPD2    C2 1465   3.423   3.107  16.019  0.3080 -0.2629 -0.7224
   96MPD2    C3 1466   3.309   3.102  16.094  0.1366  0.2125  0.4297
   96MPD2    C4 1467   3.221   3.207  16.096  0.4071 -0.7829 -0.3961
   96MPD2    C5 1468   3.249   3.321  16.023 -0.8189 -0.6675  0.3955
   96MPD2     H 1469   3.493   3.024  16.016  0.5854 -0.1122  1.8317
   96MPD2    H1 1470   3.132   3.213  16.157  0.9056  0.6630  0.1958
   96MPD2    H2 1471   3.378   3.410  15.883  0.2033  1.1201  2.5391
   96MPD2    H3 1472   3.173   3.398  16.013  0.2427  0.0571 -1.9420
   96MPD2     N 1473   3.281   2.986  16.181 -0.1227  0.1686 -0.7163
   96MPD2    H5 1474   3.190   2.985  16.228  0.7534  0.7643  1.0116
   96MPD2    N1 1475   3.567   3.236  15.877 -0.5031  0.0512 -0.5708
   96MPD2    H7 1476   3.583   3.326  15.833 -1.2682 -0.3299 -1.6079
   97MPD2     C 1477   1.084   1.165   2.348  0.0850  0.6370  0.4101
   97MPD2    C1 1478   1.131   1.280   2.290 -0.4671  0.7035  0.7182
   97MPD2    C2 1479   1.154   1.285   2.153 -0.4951  0.6771 -0.2598
   97MPD2    C3 1480   1.117   1.175   2.073 -0.4325 -0.1535  0.2543
   97MPD2    C4 1481   1.083   1.054   2.133 -0.2070 -0.1549  0.0427
   97MPD2    C5 1482   1.074   1.053   2.271 -0.1226  0.0456 -0.3822
   97MPD2     H 1483   1.175   1.379   2.104  1.2246  0.3044 -0.2280
   97MPD2    H1 1484   1.056   0.969   2.073 -1.6396  1.7536 -2.0408
   97MPD2    H2 1485   1.076   1.139   2.453  1.0414 -1.2849  0.0181
   97MPD2    H3 1486   1.053   0.958   2.318  0.0747  0.6398  0.9202
   97MPD2     N 1487   1.112   1.176   1.929  1.3253  0.1335  0.4091
   97MPD2    H5 1488   1.082   1.089   1.886  1.6950 -0.1473  0.7163
   97MPD2    N1 1489   1.136   1.388   2.378 -0.6781  0.3565 -0.3824
   97MPD2    H7 1490   1.125   1.369   2.477  1.7230  0.7077 -0.0611
   98TCq2    C1 1491   1.146   1.282   1.853 -0.1853  0.3693 -0.8443
   98TCq2    O2 1492   1.177   1.394   1.886 -0.1157  0.5443 -0.0152
   98TCq2    C2 1493   1.161   1.240   1.714 -0.2553  0.1720 -0.1716
   98TCq2    C3 1494   1.086   1.143   1.663  0.2674  0.2474 -0.4950
   98TCq2    C4 1495   1.092   1.113   1.530 -0.4238 -0.4594  0.5096
   98TCq2    C5 1496   1.182   1.172   1.447  0.2941  0.0979 -0.1806
   98TCq2    C6 1497   1.253   1.279   1.504  0.1337 -0.0068 -0.3128
   98TCq2    C7 1498   1.251   1.306   1.634 -0.4086  0.3283  0.4267
   98TCq2    C8 1499   1.325   1.361   1.408  0.3095  0.5660  0.8610
   98TCq2    O4 1500   1.409   1.430   1.459  0.1487  0.3453 -0.3780
   98TCq2    C9 1501   1.016   1.004   1.481  0.0222  0.9376  0.2382
   98TCq2    O5 1502   0.998   0.998   1.353  0.2694 -0.0388 -0.3815
   98TCq2    O6 1503   0.969   0.929   1.572  0.3168  0.4088 -0.0350
   98TCq2    H2 1504   1.032   1.069   1.721  1.0298 -0.2109 -0.3701
   98TCq2    H3 1505   1.202   1.137   1.346 -1.9961 -0.0552 -0.5848
   98TCq2    H4 1506   1.307   1.388   1.678 -0.2785 -0.2184  1.2912
   99MPD2     C 1507   4.669   3.579   1.895 -0.6134  0.2295 -0.2587
   99MPD2    C1 1508   4.547   3.520   1.924  0.8905  0.4538  0.0549
   99MPD2    C2 1509   4.495   3.421   1.845  0.1502 -0.4448  0.0355
   99MPD2    C3 1510   4.568   3.367   1.743 -0.5818  0.0512  0.2404
   99MPD2    C4 1511   4.700   3.408   1.728  1.0461 -1.0148 -0.4730
   99MPD2    C5 1512   0.026   3.516   1.795  0.3663 -1.0282  0.2266
   99MPD2     H 1513   4.392   3.392   1.865  0.7631 -3.0572 -0.5485
   99MPD2    H1 1514   0.049   3.370   1.654 -0.1209  0.0685 -2.1119
   99MPD2    H2 1515   4.710   3.660   1.955  0.9324 -2.0117  1.7078
   99MPD2    H3 1516   0.132   3.538   1.785  0.1268 -0.8852 -1.9843
   99MPD2     N 1517   4.514   3.254   1.676 -0.5668  0.5847  0.4632
   99MPD2    H5 1518   4.415   3.242   1.695 -0.5485 -0.5829 -0.1846
   99MPD2    N1 1519   4.457   3.567   2.034  0.1450  0.3986  0.1633
   99MPD2    H7 1520   4.372   3.514   2.051  0.3124 -0.9418 -3.2835
  100TCq2    C1 1521   4.480   3.680   2.111  0.1769  0.5841 -0.4493
  100TCq2    O2 1522   4.557   3.771   2.088 -0.4730  0.5992 -0.2562
  100TCq2    C2 1523   4.383   3.688   2.222  0.2106 -0.0148 -0.0935
  100TCq2    C3 1524   4.355   3.819   2.264  0.4351 -0.7534  0.5457
  100TCq2    C4 1525   4.246   3.836   2.340 -1.0360 -0.2838 -0.5895
  100TCq2    C5 1526   4.163   3.735   2.388 -0.0049 -0.1759 -0.3563
  100TCq2    C6 1527   4.206   3.607   2.362  0.2689 -0.4475 -0.8226
  100TCq2    C7 1528   4.311   3.581   2.272  0.3186  0.3815 -0.5649
  100TCq2    C8 1529   4.121   3.503   2.414  0.0421 -0.7006 -0.4798
  100TCq2    O4 1530   4.057   3.530   2.517  0.0781 -0.0429  0.1944
  100TCq2    C9 1531   4.214   3.981   2.374 -0.1646  0.1041 -0.1854
  100TCq2    O5 1532   4.110   4.003   2.441  0.4193 -0.2202 -0.1462
  100TCq2    O6 1533   4.293   4.069   2.326 -0.2707 -0.4712 -0.1752
  100TCq2    H2 1534   4.418   3.899   2.224  0.6174 -1.1671  0.0005
  100TCq2    H3 1535   4.074   3.760   2.445  0.6461 -1.4365  1.2205
  100TCq2    H4 1536   4.332   3.479   2.243  2.6738  0.9161 -0.7161
  101MPD2     C 1537   0.798   3.616  13.212 -0.0677 -0.3705  0.2209
  101MPD2    C1 1538   0.666   3.665  13.183 -0.1692  0.0815  0.3266
  101MPD2    C2 1539   0.567   3.636  13.278  1.0557  0.2460 -0.2914
  101MPD2    C3 1540   0.591   3.565  13.394  0.0199 -0.6350  0.6484
  101MPD2    C4 1541   0.720   3.528  13.429  0.2491  0.2797 -0.2757
  101MPD2    C5 1542   0.821   3.551  13.341  0.1414  0.7290  0.0080
  101MPD2     H 1543   0.461   3.653  13.264  1.0136  1.0533  0.9355
  101MPD2    H1 1544   0.738   3.467  13.516 -0.8117  1.0968  0.5083
  101MPD2    H2 1545   0.885   3.630  13.149 -1.3276  1.4630 -1.1051
  101MPD2    H3 1546   0.923   3.523  13.366 -0.0743 -1.4788 -1.5747
  101MPD2     N 1547   0.486   3.540  13.486  0.6519  0.2584  0.5406
  101MPD2    H5 1548   0.393   3.574  13.464 -0.0373 -0.7079  1.9590
  101MPD2    N1 1549   0.651   3.729  13.059 -0.4977 -0.6259 -0.2117
  101MPD2    H7 1550   0.737   3.733  13.006 -1.1098  0.5186 -1.1178
  102TCq2    C1 1551   0.821   3.918  12.637 -0.3664  0.7080  0.5877
  102TCq2    O2 1552   0.825   4.012  12.558  0.2415 -0.6429 -0.5493
  102TCq2    C2 1553   0.713   3.934  12.735 -0.0621  0.1757  0.1384
  102TCq2    C3 1554   0.634   4.053  12.722 -1.1526  0.0380  0.1906
  102TCq2    C4 1555   0.518   4.061  12.784 -0.2693 -0.1076  0.1200
  102TCq2    C5 1556   0.486   3.962  12.877  0.2817  0.2233 -0.1693
  102TCq2    C6 1557   0.559   3.849  12.889  0.0157 -0.1727 -0.1944
  102TCq2    C7 1558   0.676   3.835  12.824 -0.6367  0.5298 -0.1792
  102TCq2    C8 1559   0.539   3.786  13.015 -0.8200  0.2706 -0.2985
  102TCq2    O4 1560   0.424   3.790  13.069 -0.6644 -0.1482  0.1657
  102TCq2    C9 1561   0.434   4.180  12.757 -0.6176 -0.7767  0.3139
  102TCq2    O5 1562   0.347   4.208  12.843  0.0407 -0.1744 -0.5500
  102TCq2    O6 1563   0.448   4.231  12.641 -0.3951 -0.0411 -0.4112
  102TCq2    H2 1564   0.664   4.137  12.662 -1.3506  0.1674  0.2742
  102TCq2    H3 1565   0.407   3.976  12.949  0.8472  1.8409  0.1342
  102TCq2    H4 1566   0.734   3.744  12.829 -1.6709 -0.0946  0.5298
  103TMC2    C1 1567   3.358   3.336  12.754 -0.2088 -0.5428  0.1448
  103TMC2    C2 1568   3.477   3.270  12.760  0.1282 -0.1075 -0.1772
  103TMC2    C3 1569   3.538   3.277  12.884  0.0454  0.1750  0.2894
  103TMC2    C4 1570   3.323   3.432  12.851 -0.1243  0.1145 -0.3538
  103TMC2    C5 1571   3.401   3.445  12.962  0.7667 -0.3423  0.4011
  103TMC2    C6 1572   3.500   3.357  12.990  0.7522 -0.3841 -0.7852
  103TMC2     C 1573   3.298   3.339  12.621 -0.1460  0.7721 -0.0139
  103TMC2     O 1574   3.240   3.443  12.594 -0.1299 -0.4317 -0.3642
  103TMC2     H 1575   3.526   3.215  12.680 -0.3323 -1.2304  0.3142
  103TMC2    H1 1576   3.267   3.515  12.809 -0.8668  0.3427  1.0784
  103TMC2    H2 1577   3.570   3.374  13.071  0.4551 -1.6997 -0.2438
  103TMC2    C7 1578   3.361   3.538  13.057  0.3607 -0.4757  0.9369
  103TMC2    C8 1579   3.672   3.228  12.888 -0.3458  0.5779 -0.4166
  103TMC2    O1 1580   3.420   3.519  13.165 -0.0274 -0.3257 -0.0632
  103TMC2    O2 1581   3.700   3.147  12.804 -0.3925 -0.3404  0.1274
  103TMC2    O5 1582   3.753   3.337  12.902  0.5522  0.4339  0.4735
  103TMC2    H5 1583   3.716   3.407  12.959 -0.4697  0.8446 -0.7047
  104MPD2     C 1584   3.275   3.062  12.382  0.1089  0.1829 -0.6359
  104MPD2    C1 1585   3.278   3.193  12.423  0.0527 -0.0220 -0.0429
  104MPD2    C2 1586   3.243   3.302  12.329 -0.2232  0.3246 -0.0460
  104MPD2    C3 1587   3.180   3.272  12.216  1.0306 -0.6151 -0.0284
  104MPD2    C4 1588   3.172   3.139  12.185  0.7011 -0.4945 -0.6403
  104MPD2    C5 1589   3.224   3.039  12.261 -0.0102  0.1612  0.0237
  104MPD2     H 1590   3.248   3.404  12.364 -1.1949  0.4965 -0.3887
  104MPD2    H1 1591   3.122   3.090  12.102  0.9695  1.4300 -1.9398
  104MPD2    H2 1592   3.319   2.980  12.436 -2.7136 -0.9802 -0.1047
  104MPD2    H3 1593   3.212   2.939  12.220 -0.6689 -0.1998  1.0843
  104MPD2     N 1594   3.128   3.373  12.128  0.2090 -0.1401 -0.4565
  104MPD2    H5 1595   3.129   3.471  12.153  1.9894 -0.2637 -0.0275
  104MPD2    N1 1596   3.325   3.222  12.550 -0.1330 -0.4846  0.3260
  104MPD2    H7 1597   3.360   3.139  12.598  2.4906  0.8616  0.7214
  105MPD2     C 1598   0.077   3.147   0.270  0.0580  0.0728 -0.2212
  105MPD2    C1 1599   4.712   3.239   0.214  0.4171 -0.3880 -0.0288
  105MPD2    C2 1600   4.647   3.331   0.293  0.5069  0.1192 -0.6788
  105MPD2    C3 1601   4.646   3.313   0.429  0.0863  0.2456 -0.3139
  105MPD2    C4 1602   0.003   3.212   0.487 -0.2851  0.5578  0.0834
  105MPD2    C5 1603   0.083   3.139   0.409 -0.0994  0.2503 -0.1606
  105MPD2     H 1604   4.579   3.408   0.259  0.6336  0.9038  0.8395
  105MPD2    H1 1605   0.010   3.196   0.594 -2.4474  0.4499  0.1966
  105MPD2    H2 1606   0.123   3.062   0.221 -0.2048 -0.7728  1.0123
  105MPD2    H3 1607   0.140   3.058   0.453 -1.0763  0.0914  0.7882
  105MPD2     N 1608   4.568   3.401   0.511 -0.1202 -0.1707  0.0563
  105MPD2    H5 1609   4.512   3.465   0.456 -2.3442 -0.2499  2.2054
  105MPD2    N1 1610   4.685   3.246   0.072 -0.2657  0.0460 -0.1954
  105MPD2    H7 1611   4.621   3.317   0.039 -0.4010 -0.1937 -0.4566
  106TCq2    C1 1612   4.530   3.382   0.647  0.3939  0.0485  0.2523
  106TCq2    O2 1613   4.558   3.292   0.725 -0.0479 -0.4495  0.0230
  106TCq2    C2 1614   4.471   3.502   0.713 -0.4762 -0.6380  0.0428
  106TCq2    C3 1615   4.502   3.517   0.846 -0.2060 -0.6119  0.1610
  106TCq2    C4 1616   4.468   3.643   0.898  0.2676  0.6119  0.5692
  106TCq2    C5 1617   4.405   3.734   0.825 -0.4576  0.4721 -0.3015
  106TCq2    C6 1618   4.367   3.711   0.696 -1.0659  0.1154 -0.1013
  106TCq2    C7 1619   4.408   3.594   0.641  0.1900  0.0650  1.1798
  106TCq2    C8 1620   4.242   3.769   0.640  0.7271 -0.5025  0.2286
  106TCq2    O4 1621   4.192   3.699   0.551 -0.4815 -0.4618  0.3869
  106TCq2    C9 1622   4.504   3.686   1.029 -0.1769  0.2190  0.2002
  106TCq2    O5 1623   4.560   3.601   1.103  0.0317 -0.1900 -0.8042
  106TCq2    O6 1624   4.464   3.800   1.063  0.7728 -0.0363  0.5222
  106TCq2    H2 1625   4.565   3.445   0.897 -0.5781 -3.0725 -2.8645
  106TCq2    H3 1626   4.373   3.823   0.878 -0.5112  0.9001 -1.0510
  106TCq2    H4 1627   4.393   3.560   0.539  3.3775  1.5940  0.1959
  107TMC2    C1 1628   1.169   2.175  11.753 -0.2219  0.0619  0.5978
  107TMC2    C2 1629   1.302   2.185  11.771 -0.8288 -0.2861  0.2784
  107TMC2    C3 1630   1.386   2.111  11.687  0.6364  0.4965  0.2924
  107TMC2    C4 1631   1.114   2.112  11.646 -0.2644  0.6092 -0.3964
  107TMC2    C5 1632   1.200   2.055  11.556 -0.3051  0.5846  0.1686
  107TMC2    C6 1633   1.340   2.050  11.574  0.0849  0.3582 -0.3603
  107TMC2     C 1634   1.091   2.264  11.829 -0.1932  0.3752  0.0399
  107TMC2     O 1635   0.983   2.228  11.882  0.2801  0.5199 -0.6015
  107TMC2     H 1636   1.336   2.246  11.855 -2.2321 -0.2854  0.8565
  107TMC2    H1 1637   1.008   2.110  11.623 -0.3174 -1.1303 -0.0075
  107TMC2    H2 1638   1.413   2.014  11.502 -0.9023  0.6610 -1.5132
  107TMC2    C7 1639   1.140   1.993  11.435 -0.1696 -0.0619 -1.0439
  107TMC2    C8 1640   1.525   2.154  11.682 -0.3501  0.3530  0.2167
  107TMC2    O1 1641   1.026   1.958  11.455  0.5557  0.3970  0.2780
  107TMC2    O2 1642   1.613   2.092  11.618  0.0039  0.0576 -0.7127
  107TMC2    O5 1643   1.506   2.286  11.681 -0.3771  0.1726 -0.3090
  107TMC2    H5 1644   1.413   2.309  11.663 -0.8664 -0.5065  1.3366
  108MPD2     C 1645   1.083   2.629  11.804  0.5795 -0.1361  0.4989
  108MPD2    C1 1646   1.066   2.510  11.868 -0.2955  0.4061 -0.5116
  108MPD2    C2 1647   0.989   2.502  11.985 -1.4334  0.5328 -0.5542
  108MPD2    C3 1648   0.919   2.613  12.030  0.5018 -0.0425 -0.1612
  108MPD2    C4 1649   0.929   2.732  11.956 -0.1330 -0.5241 -0.0976
  108MPD2    C5 1650   1.017   2.747  11.848 -0.2270  0.1259 -0.0002
  108MPD2     H 1651   0.991   2.411  12.044 -2.8151  1.6881  1.2842
  108MPD2    H1 1652   0.883   2.820  11.998 -1.2765 -0.1680 -2.1439
  108MPD2    H2 1653   1.133   2.638  11.708 -1.8695  0.8652 -0.6995
  108MPD2    H3 1654   1.025   2.844  11.800  1.5394 -0.3558 -0.6817
  108MPD2     N 1655   0.842   2.620  12.151  0.3384 -0.7501  0.6971
  108MPD2    H5 1656   0.790   2.706  12.162  0.1682 -0.5780 -1.4851
  108MPD2    N1 1657   1.129   2.393  11.814 -0.4171  0.0433  0.2158
  108MPD2    H7 1658   1.197   2.409  11.741 -1.8357  1.6044 -0.7909
  109MPD2     C 1659   1.977   0.389   2.842  0.1052  0.6615  0.3643
  109MPD2    C1 1660   1.875   0.478   2.806  0.1395 -0.0802 -1.0514
  109MPD2    C2 1661   1.877   0.606   2.860 -0.0590 -0.8784 -0.2661
  109MPD2    C3 1662   1.987   0.651   2.932 -0.2178 -0.0711 -0.0916
  109MPD2    C4 1663   2.095   0.562   2.954 -0.7737 -0.2203 -0.4849
  109MPD2    C5 1664   2.087   0.435   2.909  0.4510 -0.4026  0.5612
  109MPD2     H 1665   1.784   0.661   2.856  0.2076 -0.4697 -0.9246
  109MPD2    H1 1666   2.180   0.597   3.012 -0.8970  1.7592 -1.4947
  109MPD2    H2 1667   1.990   0.297   2.786 -1.6070  0.3375  0.5116
  109MPD2    H3 1668   2.167   0.362   2.918  1.8321  0.6191 -3.2432
  109MPD2     N 1669   1.978   0.783   2.980  0.5107  0.1100  0.7925
  109MPD2    H5 1670   1.908   0.845   2.940  0.6802  0.4490  1.0223
  109MPD2    N1 1671   1.764   0.423   2.727 -0.2355  0.4261 -0.4854
  109MPD2    H7 1672   1.764   0.323   2.713  2.4022  0.6270 -1.9478
  110TCq2    C1 1673   2.058   0.833   3.085 -0.0077 -0.2849 -0.2049
  110TCq2    O2 1674   2.136   0.768   3.156  0.5445  0.0738 -0.6890
  110TCq2    C2 1675   2.050   0.975   3.117 -0.6367  0.4051  0.0236
  110TCq2    C3 1676   2.134   1.032   3.211 -0.4428 -0.3715 -0.1412
  110TCq2    C4 1677   2.097   1.148   3.263  0.2964 -0.6989 -0.4106
  110TCq2    C5 1678   1.989   1.220   3.222  0.8238 -0.4732 -0.1817
  110TCq2    C6 1679   1.914   1.169   3.120  0.2470  0.1027  0.1977
  110TCq2    C7 1680   1.953   1.053   3.060 -0.2319  0.3468 -0.0065
  110TCq2    C8 1681   1.797   1.237   3.065 -0.0873 -0.6703  0.0531
  110TCq2    O4 1682   1.757   1.214   2.952  0.1200 -0.1994  0.3457
  110TCq2    C9 1683   2.187   1.204   3.363  0.0054 -0.7875  0.9625
  110TCq2    O5 1684   2.275   1.130   3.411 -0.3135 -0.2782  0.0958
  110TCq2    O6 1685   2.174   1.329   3.383 -0.1304  0.4700  0.3558
  110TCq2    H2 1686   2.217   0.977   3.254  1.1132  1.7912 -0.3551
  110TCq2    H3 1687   1.977   1.322   3.257  1.8443 -1.1909  2.2323
  110TCq2    H4 1688   1.878   1.009   2.994  1.9556 -1.1618 -1.4892
  111TMC2    C1 1689   0.755   4.086  11.299  0.3929 -0.0926  0.1994
  111TMC2    C2 1690   0.782   4.024  11.177  0.0454 -0.0965  0.0352
  111TMC2    C3 1691   0.918   3.997  11.154  0.3803  0.3624  0.3948
  111TMC2    C4 1692   0.859   4.108  11.387 -0.2048  0.2799  0.6670
  111TMC2    C5 1693   0.981   4.063  11.365  0.3263 -0.3164  0.9401
  111TMC2    C6 1694   1.015   4.011  11.244 -0.7733 -0.0645 -0.2301
  111TMC2     C 1695   0.636   4.164  11.323  0.5061  0.2464  0.3733
  111TMC2     O 1696   0.578   4.192  11.218  0.5558 -0.3701  0.7058
  111TMC2     H 1697   0.707   4.000  11.102 -1.0844  1.7699  0.5614
  111TMC2    H1 1698   0.835   4.179  11.466  0.5730  0.5136  0.6925
  111TMC2    H2 1699   1.115   3.980  11.217  0.6216  2.2026  2.3406
  111TMC2    C7 1700   1.075   4.117  11.461 -0.1172  0.0496 -0.0772
  111TMC2    C8 1701   0.954   3.936  11.030 -0.7567  0.2904  0.1628
  111TMC2    O1 1702   1.038   4.135  11.576  0.4554  0.4715 -0.2895
  111TMC2    O2 1703   1.046   3.853  11.021  0.2319 -0.3830  0.5424
  111TMC2    O5 1704   0.927   4.021  10.932  0.3968 -0.7962  0.6717
  111TMC2    H5 1705   0.877   4.103  10.954  2.6717  0.6304  0.5487
  112MPD2     C 1706   0.315   4.442  11.580  0.2731  0.3019 -0.1298
  112MPD2    C1 1707   0.364   4.457  11.454 -0.6641  0.2590  0.0918
  112MPD2    C2 1708   0.446   4.364  11.403  0.9201 -0.0848 -0.6258
  112MPD2    C3 1709   0.494   4.264  11.486 -0.4769 -0.0848 -0.1949
  112MPD2    C4 1710   0.457   4.256  11.618  0.3260  0.1952  0.9136
  112MPD2    C5 1711   0.373   4.353  11.669 -0.3223 -0.4324  0.6742
  112MPD2     H 1712   0.476   4.381  11.300 -1.5345 -1.0886 -1.5097
  112MPD2    H1 1713   0.492   4.184  11.690  0.7652 -0.5792 -0.0753
  112MPD2    H2 1714   0.238   4.508  11.618 -0.4996 -0.3065 -0.6662
  112MPD2    H3 1715   0.344   4.350  11.773  0.5808  2.1069  0.9806
  112MPD2     N 1716   0.598   4.181  11.450 -0.0711 -0.3261 -0.3700
  112MPD2    H5 1717   0.652   4.127  11.517  2.0800  1.2428 -0.8231
  112MPD2    N1 1718   0.344   4.570  11.372 -0.4325  0.5313 -0.1238
  112MPD2    H7 1719   0.373   4.576  11.275 -2.5395  0.9409 -0.7501
  113MPD2     C 1720   3.750   3.420   1.044  0.8280  0.1839 -0.0213
  113MPD2    C1 1721   3.629   3.436   1.095  0.4888 -0.2529  0.5203
  113MPD2    C2 1722   3.530   3.345   1.077  0.3943  0.2581 -0.0476
  113MPD2    C3 1723   3.557   3.242   0.990  0.4169 -0.5882 -0.1689
  113MPD2    C4 1724   3.679   3.235   0.916  0.1883 -0.2651  0.5795
  113MPD2    C5 1725   3.770   3.326   0.945  0.1481  0.3720 -0.3723
  113MPD2     H 1726   3.429   3.348   1.116  1.6580  1.3023  3.1723
  113MPD2    H1 1727   3.689   3.165   0.834 -1.5649  0.4027 -0.2011
  113MPD2    H2 1728   3.830   3.491   1.061 -0.2194  1.3119  0.1832
  113MPD2    H3 1729   3.865   3.326   0.893  0.3978  1.1608  0.0870
  113MPD2     N 1730   3.470   3.129   0.972  0.3343  0.0663 -0.1605
  113MPD2    H5 1731   3.487   3.067   0.893 -0.8868  0.0927 -0.4480
  113MPD2    N1 1732   3.608   3.538   1.183 -0.7635  0.0135 -0.4592
  113MPD2    H7 1733   3.513   3.554   1.217 -1.0598 -2.3545 -0.1666
  114TCq2    C1 1734   3.359   3.104   1.051  0.1813 -0.0770  1.0894
  114TCq2    O2 1735   3.340   3.132   1.166  0.4543  0.0480  1.0281
  114TCq2    C2 1736   3.274   3.006   0.997 -0.2324  0.2761  0.3060
  114TCq2    C3 1737   3.253   3.014   0.867  0.0234 -0.2475  0.5658
  114TCq2    C4 1738   3.142   2.951   0.823  0.2581 -0.5075  0.6283
  114TCq2    C5 1739   3.051   2.883   0.899 -0.0666 -0.5821 -0.1023
  114TCq2    C6 1740   3.075   2.886   1.034 -0.1067  0.1675 -0.1718
  114TCq2    C7 1741   3.192   2.940   1.084 -0.0107 -0.7121 -0.1903
  114TCq2    C8 1742   3.000   2.820   1.133  0.8162 -0.0330 -0.2037
  114TCq2    O4 1743   3.057   2.795   1.236  0.0367  0.0146  0.0085
  114TCq2    C9 1744   3.114   2.964   0.678  0.1350  0.3275  0.1556
  114TCq2    O5 1745   3.000   2.928   0.634 -0.3995  0.5406  0.4331
  114TCq2    O6 1746   3.222   2.989   0.609  0.2106 -0.2798 -0.7647
  114TCq2    H2 1747   3.295   3.087   0.799 -2.9206  1.0869  0.1881
  114TCq2    H3 1748   2.963   2.840   0.854 -0.8953  0.3291  0.6642
  114TCq2    H4 1749   3.223   2.931   1.187 -2.1482  0.9525  0.6063
  115TMC2    C1 1750   4.497   0.415   0.642  0.0974 -0.5527 -0.2225
  115TMC2    C2 1751   4.618   0.403   0.584 -0.9641 -0.0058 -0.1864
  115TMC2    C3 1752   4.691   0.519   0.572 -0.0429  0.0017  0.1011
  115TMC2    C4 1753   4.443   0.537   0.679 -0.1635 -0.0921  0.5977
  115TMC2    C5 1754   4.513   0.650   0.652  0.1798 -0.3426 -0.3428
  115TMC2    C6 1755   4.641   0.646   0.597 -0.2349  0.8170  0.1203
  115TMC2     C 1756   4.400   0.310   0.621 -0.3600  0.7588  0.0184
  115TMC2     O 1757   4.430   0.228   0.537 -0.1098 -0.3892  0.0961
  115TMC2     H 1758   4.646   0.309   0.537 -1.4235  0.3393 -1.1543
  115TMC2    H1 1759   4.348   0.547   0.731 -0.1652  0.0321  0.5704
  115TMC2    H2 1760   4.697   0.739   0.583  0.1350  0.5014 -0.5302
  115TMC2    C7 1761   4.460   0.784   0.681  0.9436 -0.1457 -0.3166
  115TMC2    C8 1762   0.116   0.504   0.565  0.2932 -0.5442  0.3038
  115TMC2    O1 1763   4.390   0.796   0.780  0.0763 -0.8021  0.8748
  115TMC2    O2 1764   0.194   0.599   0.545 -0.5948  0.6424 -0.5497
  115TMC2    O5 1765   0.152   0.378   0.593 -0.1085 -0.3805  0.5336
  115TMC2    H5 1766   0.077   0.317   0.607  0.0403  0.1300  3.6538
  116MPD2     C 1767   3.891   0.226   0.528 -0.2660  0.3551 -0.5983
  116MPD2    C1 1768   4.001   0.166   0.476 -0.4666  1.0311  0.4450
  116MPD2    C2 1769   4.128   0.198   0.517  0.1173 -0.2692  0.2535
  116MPD2    C3 1770   4.149   0.295   0.615 -0.6304 -0.0302  0.3380
  116MPD2    C4 1771   4.040   0.340   0.675 -0.1580  0.4144 -0.1906
  116MPD2    C5 1772   3.911   0.321   0.627 -0.3341 -0.2751  1.0692
  116MPD2     H 1773   4.215   0.149   0.474  0.8166 -1.0377  2.5344
  116MPD2    H1 1774   4.062   0.424   0.739 -1.5040 -1.0012  2.1100
  116MPD2    H2 1775   3.789   0.208   0.495 -0.0130  1.7497 -2.1004
  116MPD2    H3 1776   3.832   0.385   0.665 -0.6416 -0.3886  0.6320
  116MPD2     N 1777   4.274   0.339   0.667  0.1758 -0.1307  0.2290
  116MPD2    H5 1778   4.265   0.422   0.725 -1.0646  0.4293 -0.7556
  116MPD2    N1 1779   3.978   0.069   0.374  0.3517 -0.4390 -0.2536
  116MPD2    H7 1780   3.881   0.060   0.346  1.0637 -1.4087 -2.3643
  117TMC2    C1 1781   2.810   1.960  14.010 -0.1718  0.5006  0.0536
  117TMC2    C2 1782   2.889   1.868  14.073 -0.6513  0.2522 -0.1021
  117TMC2    C3 1783   3.020   1.893  14.106  0.3649  0.0771 -1.1127
  117TMC2    C4 1784   2.873   2.077  13.986 -0.0922  0.0996 -0.6759
  117TMC2    C5 1785   3.006   2.099  14.008 -0.2525  0.5483  0.7260
  117TMC2    C6 1786   3.079   2.010  14.070 -0.1623 -0.0006  0.3995
  117TMC2     C 1787   2.668   1.937  13.998 -0.3689  0.5059  0.4278
  117TMC2     O 1788   2.620   1.832  14.038 -0.3260  0.5009 -0.4534
  117TMC2     H 1789   2.847   1.776  14.112 -0.7339  0.8737  1.2600
  117TMC2    H1 1790   2.818   2.158  13.940  3.2001  2.6117 -0.1274
  117TMC2    H2 1791   3.186   2.024  14.080  0.3080 -3.7039  0.7618
  117TMC2    C7 1792   3.080   2.203  13.947  0.1387 -0.3322 -0.2859
  117TMC2    C8 1793   3.111   1.788  14.131  1.0681 -0.1463 -0.0664
  117TMC2    O1 1794   3.192   2.225  13.990  0.1431 -0.1437 -0.2984
  117TMC2    O2 1795   3.205   1.751  14.061  0.6140 -0.2823 -0.1419
  117TMC2    O5 1796   3.044   1.700  14.213  0.0364 -0.0648 -0.7617
  117TMC2    H5 1797   2.975   1.755  14.256 -1.7993  0.1736 -4.0268
  118MPD2     C 1798   2.966   2.435  13.673  0.1380  0.0510  0.2892
  118MPD2    C1 1799   3.044   2.384  13.773 -0.7171 -0.9431  0.2438
  118MPD2    C2 1800   3.163   2.449  13.798 -1.0586 -0.6345 -0.1732
  118MPD2    C3 1801   3.202   2.568  13.729  0.0744 -0.4587 -0.1879
  118MPD2    C4 1802   3.120   2.607  13.627 -1.2823 -0.1338  0.3169
  118MPD2    C5 1803   3.005   2.541  13.599  1.1011  0.4669  0.1694
  118MPD2     H 1804   3.236   2.419  13.872 -0.6147  1.6182  0.3203
  118MPD2    H1 1805   3.138   2.687  13.555  0.1527 -1.9043 -1.3010
  118MPD2    H2 1806   2.870   2.391  13.649 -0.8754  1.9199  0.9334
  118MPD2    H3 1807   2.945   2.578  13.516  2.7244 -0.6672 -1.4971
  118MPD2     N 1808   3.316   2.649  13.754  0.0610 -0.2920  0.4371
  118MPD2    H5 1809   3.330   2.728  13.692 -0.0955 -1.2129 -0.7833
  118MPD2    N1 1810   3.005   2.264  13.845 -0.2682  0.4002  0.0509
  118MPD2    H7 1811   2.924   2.215  13.809  0.2562 -0.5153  0.1147
  119MPD2     C 1812   1.317   3.203  14.226  0.0480 -0.2744 -0.2126
  119MPD2    C1 1813   1.189   3.244  14.203 -0.2938 -0.1370 -0.6989
  119MPD2    C2 1814   1.142   3.277  14.074 -0.0989  0.1609  0.7234
  119MPD2    C3 1815   1.224   3.274  13.964  0.0774  0.4514 -0.4712
  119MPD2    C4 1816   1.356   3.231  13.989  0.4200  0.3116  0.3136
  119MPD2    C5 1817   1.397   3.197  14.117 -0.6660  0.1534  0.8561
  119MPD2     H 1818   1.040   3.315  14.067  0.2015  1.4251  3.1721
  119MPD2    H1 1819   1.417   3.222  13.900 -1.5961 -0.3463 -1.0085
  119MPD2    H2 1820   1.345   3.170  14.325 -0.7530  1.0282  0.4610
  119MPD2    H3 1821   1.500   3.162  14.122  0.1298  2.6890  2.1559
  119MPD2     N 1822   1.182   3.300  13.835 -0.6198 -0.7122  0.1298
  119MPD2    H5 1823   1.250   3.292  13.760  0.5813  0.2076  1.1102
  119MPD2    N1 1824   1.101   3.232  14.314 -0.3923 -0.4776  0.5739
  119MPD2    H7 1825   1.147   3.210  14.402  1.0167 -1.6511 -0.4447
  120TCq2    C1 1826   1.054   3.334  13.800  0.1830 -0.5119  0.3419
  120TCq2    O2 1827   0.954   3.360  13.868  0.3279  0.4529 -0.1096
  120TCq2    C2 1828   1.022   3.330  13.657  0.8017  0.1860 -0.1151
  120TCq2    C3 1829   1.119   3.325  13.560  0.2192 -0.0639  0.3483
  120TCq2    C4 1830   1.104   3.263  13.441 -1.1112 -0.3324 -0.3653
  120TCq2    C5 1831   0.981   3.217  13.403 -0.3208  0.1751 -0.0572
  120TCq2    C6 1832   0.878   3.231  13.494 -0.7202  0.7013 -0.9905
  120TCq2    C7 1833   0.903   3.264  13.621 -0.7833 -0.8124 -0.0257
  120TCq2    C8 1834   0.766   3.141  13.468 -0.5038 -0.1162 -0.5000
  120TCq2    O4 1835   0.757   3.100  13.354 -1.2345  0.0738 -0.1758
  120TCq2    C9 1836   1.216   3.234  13.358 -0.2444  0.9454 -0.7384
  120TCq2    O5 1837   1.213   3.167  13.254 -0.3537 -0.5805 -0.5551
  120TCq2    O6 1838   1.318   3.279  13.413 -0.0319  0.5482 -0.2776
  120TCq2    H2 1839   1.210   3.373  13.594 -0.8322  1.8287  0.4837
  120TCq2    H3 1840   0.975   3.181  13.301 -1.1135 -0.1017  0.0853
  120TCq2    H4 1841   0.826   3.259  13.696  0.4520  0.1294  1.3021
  121TMC2    C1 1842   2.541   0.109  14.189 -0.0861  0.4425 -0.0298
  121TMC2    C2 1843   2.515   4.705  14.241  1.1101  0.0721 -0.7121
  121TMC2    C3 1844   2.451   4.612  14.159  0.1605 -0.1194 -0.1410
  121TMC2    C4 1845   2.488   0.153  14.071 -0.1152 -0.3750 -0.1984
  121TMC2    C5 1846   2.419   0.070  13.998 -0.7102 -0.1639 -0.3401
  121TMC2    C6 1847   2.399   4.662  14.044  0.0497 -0.3705 -0.3775
  121TMC2     C 1848   2.661   0.169  14.244  0.2701 -0.2474  0.2920
  121TMC2     O 1849   2.706   0.121  14.344 -0.2983  0.0565  0.5536
  121TMC2     H 1850   2.563   4.669  14.332 -0.1459  3.5461  1.3368
  121TMC2    H1 1851   2.509   0.255  14.041 -2.3202  0.0960 -0.1114
  121TMC2    H2 1852   2.333   4.590  13.997 -0.5396  0.0477 -0.1785
  121TMC2    C7 1853   2.336   0.131  13.895  0.3983  0.1538  0.1247
  121TMC2    C8 1854   2.403   4.487  14.210  0.0702  0.6086 -0.2961
  121TMC2    O1 1855   2.380   0.237  13.845  0.2936 -0.5441  0.0875
  121TMC2    O2 1856   2.349   4.405  14.134 -0.2373 -0.0936 -0.1328
  121TMC2    O5 1857   2.431   4.470  14.337 -0.0499 -0.4995  0.2161
  121TMC2    H5 1858   2.441   4.548  14.396 -1.0458 -0.3470  0.1911
  122MPD2     C 1859   2.951   0.223  14.200 -0.3431  0.2470 -0.0064
  122MPD2    C1 1860   2.855   0.299  14.146 -0.1216  0.1959 -0.8380
  122MPD2    C2 1861   2.895   0.403  14.066 -0.5823 -0.1660 -0.2216
  122MPD2    C3 1862   3.036   0.416  14.044  0.3346 -0.4260 -0.4368
  122MPD2    C4 1863   3.131   0.342  14.109 -0.4530 -0.6806 -0.3074
  122MPD2    C5 1864   3.083   0.242  14.186  0.9998 -0.1956  0.1542
  122MPD2     H 1865   2.814   0.448  14.010 -0.6373  1.3343  1.0585
  122MPD2    H1 1866   3.235   0.346  14.080 -0.9360  3.9841 -1.4039
  122MPD2    H2 1867   2.931   0.135  14.259 -0.1414  1.2413  1.5640
  122MPD2    H3 1868   3.144   0.160  14.222  0.9872 -0.6814 -0.9362
  122MPD2     N 1869   3.085   0.502  13.944  0.2413 -0.2016  0.6417
  122MPD2    H5 1870   3.186   0.510  13.937  0.1967 -0.8967 -0.8415
  122MPD2    N1 1871   2.719   0.265  14.160 -0.0985  0.1220 -0.2197
  122MPD2    H7 1872   2.657   0.316  14.097  0.6847  0.0876 -1.0086
  123MPD2     C 1873   0.085   3.873   9.271 -0.9390 -0.6298  0.1857
  123MPD2    C1 1874   0.152   3.758   9.307 -0.5493 -0.3320 -0.7779
  123MPD2    C2 1875   0.289   3.761   9.284  0.0497 -1.1656 -0.1527
  123MPD2    C3 1876   0.354   3.879   9.235 -0.8398 -0.3976 -0.3430
  123MPD2    C4 1877   0.279   3.992   9.205 -0.4684 -0.2068 -0.6365
  123MPD2    C5 1878   0.146   3.984   9.219 -0.7815  1.2597  0.7723
  123MPD2     H 1879   0.346   3.670   9.296 -0.8267 -1.5812  0.8526
  123MPD2    H1 1880   0.323   4.086   9.173 -1.1020 -0.2064 -1.4915
  123MPD2    H2 1881   4.699   3.873   9.287 -1.0950 -1.1687 -0.8829
  123MPD2    H3 1882   0.083   4.066   9.188  0.7147  1.9837 -0.3521
  123MPD2     N 1883   0.485   3.869   9.195  0.1242  0.5431  0.8150
  123MPD2    H5 1884   0.526   3.780   9.224 -2.1841  0.1311  2.8106
  123MPD2    N1 1885   0.088   3.652   9.377 -0.5402  0.2055  0.0173
  123MPD2    H7 1886   4.710   3.666   9.392 -0.7845 -0.0814 -1.3141
  124TCq2    C1 1887   0.559   3.954   9.115 -0.5448 -1.4149 -0.3716
  124TCq2    O2 1888   0.519   4.045   9.043 -0.1602  0.0651  0.3561
  124TCq2    C2 1889   0.698   3.908   9.089 -0.0257  0.6407  0.4955
  124TCq2    C3 1890   0.744   3.927   8.954  0.5223  0.3463 -0.1015
  124TCq2    C4 1891   0.864   3.861   8.930  0.2106 -1.0945  0.1895
  124TCq2    C5 1892   0.944   3.810   9.025  0.3939  0.0441 -0.9560
  124TCq2    C6 1893   0.893   3.803   9.152  0.6096 -0.4927 -0.8227
  124TCq2    C7 1894   0.769   3.846   9.190 -0.0354 -0.2704 -0.3888
  124TCq2    C8 1895   0.968   3.731   9.255  0.1107 -0.7720 -0.3115
  124TCq2    O4 1896   0.917   3.709   9.365  0.2580  0.2835  0.0793
  124TCq2    C9 1897   0.914   3.869   8.795 -0.1005 -0.7039  0.0318
  124TCq2    O5 1898   0.858   3.955   8.722 -0.1968  0.6053  0.0487
  124TCq2    O6 1899   0.995   3.781   8.757 -0.0516 -0.2478 -0.1314
  124TCq2    H2 1900   0.683   3.966   8.873  4.1463  1.9622 -2.0804
  124TCq2    H3 1901   1.039   3.767   8.995  0.0009 -0.8824 -0.8952
  124TCq2    H4 1902   0.735   3.843   9.293  1.2576 -1.9235 -0.0228
  125TMC2    C1 1903   1.783   4.162   9.516  0.1953  0.0861  0.0309
  125TMC2    C2 1904   1.654   4.147   9.535  0.4051 -0.0172  0.1987
  125TMC2    C3 1905   1.572   4.255   9.526  0.5348 -0.3062 -0.1557
  125TMC2    C4 1906   1.831   4.281   9.461  1.1676 -1.0127 -0.9444
  125TMC2    C5 1907   1.737   4.383   9.444  0.2930  0.4943 -0.0786
  125TMC2    C6 1908   1.613   4.379   9.486  0.5062  0.3993 -0.1313
  125TMC2     C 1909   1.853   4.042   9.486  0.3050  0.1607 -0.6923
  125TMC2     O 1910   1.790   3.940   9.454  0.0973  0.1055 -0.0708
  125TMC2     H 1911   1.616   4.050   9.565  0.1018  0.3764  1.0784
  125TMC2    H1 1912   1.924   4.289   9.407  1.6619 -2.4982 -0.3041
  125TMC2    H2 1913   1.543   4.456   9.457 -0.2971 -0.5104 -0.6109
  125TMC2    C7 1914   1.771   4.523   9.408 -0.8508 -0.1906 -0.3917
  125TMC2    C8 1915   1.448   4.258   9.598 -0.0306 -0.0736 -0.4003
  125TMC2    O1 1916   1.683   4.610   9.416  0.2739  0.0985 -0.0722
  125TMC2    O2 1917   1.364   4.344   9.569 -0.5148  0.1420  0.1830
  125TMC2    O5 1918   1.431   4.169   9.699  0.1086  0.1564  0.2391
  125TMC2    H5 1919   1.500   4.104   9.727 -0.0075 -0.5032 -0.9690
  126MPD1     C 1920   2.316   3.804   9.470 -0.3496 -0.3118  0.3497
  126MPD1    C1 1921   2.329   3.918   9.541 -0.0292  0.3019  0.1600
  126MPD1    C2 1922   2.222   3.997   9.545 -0.8286  0.7721  0.7389
  126MPD1    C3 1923   2.096   3.967   9.496  0.1812  0.4165 -0.0730
  126MPD1    C4 1924   2.084   3.843   9.438  0.0782 -0.5057  0.2411
  126MPD1    C5 1925   2.198   3.773   9.416 -0.2425 -0.3802 -0.0816
  126MPD1     H 1926   2.238   4.083   9.608  2.6433  0.6717  0.0049
  126MPD1    H1 1927   1.994   3.807   9.388 -1.6219  2.7341  0.9913
  126MPD1    H2 1928   2.404   3.744   9.454 -0.1610  0.4907 -1.6857
  126MPD1    H3 1929   2.193   3.681   9.359 -1.4787 -1.2715  1.4799
  126MPD1     N 1930   1.987   4.062   9.506 -0.3411 -0.3214  0.0237
  126MPD1    H5 1931   2.011   4.154   9.541  0.4502  0.4582 -2.5930
  126MPD1    N1 1932   2.435   3.946   9.619 -0.0449 -0.0225 -0.1369
  126MPD1    H6 1933   2.507   3.882   9.584  2.3072  1.3090  2.3030
  126MPD1    H7 1934   2.462   4.044   9.619  2.1568 -0.6308  1.2274
  127MPD2     C 1935   3.422   4.076   9.824  0.3515 -0.7404  0.0241
  127MPD2    C1 1936   3.363   4.163   9.910  0.7408 -0.0564 -0.0847
  127MPD2    C2 1937   3.380   4.299   9.891  0.5481  0.5472  1.0184
  127MPD2    C3 1938   3.444   4.346   9.783 -0.7455  0.2574 -0.2891
  127MPD2    C4 1939   3.494   4.256   9.690 -0.4012 -0.6250 -0.0721
  127MPD2    C5 1940   3.482   4.121   9.713 -0.4949 -0.0665 -0.0389
  127MPD2     H 1941   3.334   4.371   9.957 -2.0365 -0.3301  0.1771
  127MPD2    H1 1942   3.542   4.295   9.601 -1.3453  1.2272  0.2169
  127MPD2    H2 1943   3.406   3.970   9.839 -0.2108 -0.6379  0.1394
  127MPD2    H3 1944   3.522   4.054   9.638 -0.2310 -0.7788  0.7356
  127MPD2     N 1945   3.440   4.478   9.768  0.3150  0.4351 -0.0320
  127MPD2    H5 1946   3.402   4.529   9.846 -1.9088  0.5772 -1.2238
  127MPD2    N1 1947   3.281   4.109  10.008 -0.2922  0.2645 -0.0194
  127MPD2    H7 1948   3.261   4.010   9.998 -2.4660  0.6266  0.7374
  128TCq2    C1 1949   3.202   4.180  10.100 -0.8403 -0.3142 -0.3133
  128TCq2    O2 1950   3.195   4.301  10.112  0.0620 -0.1055 -0.6951
  128TCq2    C2 1951   3.087   4.102  10.140  0.5621  0.5228  0.6426
  128TCq2    C3 1952   2.963   4.155  10.157  0.1657 -0.3065 -0.0347
  128TCq2    C4 1953   2.851   4.077  10.147  0.5790 -0.1297 -0.6574
  128TCq2    C5 1954   2.852   3.940  10.152  0.4106 -0.1430 -0.1197
  128TCq2    C6 1955   2.979   3.891  10.149 -0.1252 -0.0058  0.0341
  128TCq2    C7 1956   3.097   3.966  10.142  0.0294  0.7358 -0.2624
  128TCq2    C8 1957   2.993   3.743  10.149  0.3312  0.3436 -0.1692
  128TCq2    O4 1958   3.099   3.690  10.178 -0.0139  0.3557 -0.8122
  128TCq2    C9 1959   2.719   4.135  10.148 -0.6838 -0.2450  0.4237
  128TCq2    O5 1960   2.713   4.260  10.127  0.1648 -0.4968 -0.5587
  128TCq2    O6 1961   2.628   4.047  10.125  0.3164  0.2016 -0.3537
  128TCq2    H2 1962   2.942   4.262  10.155  1.9301  0.0359 -0.5179
  128TCq2    H3 1963   2.767   3.873  10.156 -0.5090  1.1267  1.4161
  128TCq2    H4 1964   3.192   3.919  10.168  0.1772  1.9825  1.4293
  129MPD2     C 1965   1.872   0.009   2.510  0.4385 -0.1363 -0.3812
  129MPD2    C1 1966   1.774   4.705   2.410 -0.3328 -0.6182  0.9935
  129MPD2    C2 1967   1.726   0.083   2.341  0.0438 -0.5332 -0.5840
  129MPD2    C3 1968   1.769   0.215   2.365 -0.0503 -0.2147 -0.0566
  129MPD2    C4 1969   1.863   0.232   2.460 -0.0836 -0.1476  0.5137
  129MPD2    C5 1970   1.911   0.135   2.536  0.4939  0.0707 -0.4299
  129MPD2     H 1971   1.656   0.064   2.260 -1.7626  2.0282  0.3631
  129MPD2    H1 1972   1.909   0.327   2.485  1.4139 -0.7110 -0.0980
  129MPD2    H2 1973   1.905   4.644   2.568 -1.0817  0.4063  1.2718
  129MPD2    H3 1974   1.994   0.160   2.602  0.4743 -0.6804 -0.1203
  129MPD2     N 1975   1.711   0.312   2.282  0.3166  0.6516 -0.4215
  129MPD2    H5 1976   1.650   0.277   2.208 -0.3934 -0.2104  0.5669
  129MPD2    N1 1977   1.716   4.577   2.386  0.3678  0.0778  0.2567
  129MPD2    H7 1978   1.636   4.571   2.323 -1.0239  0.3499  1.9822
  130TCq2    C1 1979   1.758   4.458   2.443  0.3633 -0.1072  0.4098
  130TCq2    O2 1980   1.848   4.430   2.522  0.5084  0.5380 -0.0594
  130TCq2    C2 1981   1.673   4.342   2.404  0.0909 -0.1592 -0.0440
  130TCq2    C3 1982   1.731   4.216   2.413 -0.1995 -0.1342 -0.0258
  130TCq2    C4 1983   1.647   4.112   2.392 -0.1459  0.0609 -0.4442
  130TCq2    C5 1984   1.515   4.126   2.340  0.1698 -0.1668  0.1777
  130TCq2    C6 1985   1.465   4.254   2.336  0.7693  0.7463 -0.4028
  130TCq2    C7 1986   1.543   4.367   2.360 -0.1300  0.0663  0.4839
  130TCq2    C8 1987   1.319   4.275   2.322 -0.0425  0.1495  0.0591
  130TCq2    O4 1988   1.271   4.381   2.281 -0.2922 -0.2190  0.0662
  130TCq2    C9 1989   1.692   3.981   2.424 -0.3709  0.0660  0.5032
  130TCq2    O5 1990   1.792   3.980   2.502 -0.9909  0.2305  0.1553
  130TCq2    O6 1991   1.634   3.875   2.386 -0.2387  0.2220  0.0310
  130TCq2    H2 1992   1.835   4.200   2.440  0.1981 -1.8824 -2.6692
  130TCq2    H3 1993   1.464   4.037   2.305  0.9960 -0.6674  0.2432
  130TCq2    H4 1994   1.494   4.464   2.361  0.3109  0.2853  0.7611
  131MPD2     C 1995   0.283   3.044  10.162  1.2997 -0.4123  0.0327
  131MPD2    C1 1996   0.367   3.131  10.095 -0.0243  0.2082  0.5057
  131MPD2    C2 1997   0.319   3.174   9.969 -0.2484  0.8032 -0.5149
  131MPD2    C3 1998   0.199   3.136   9.918 -0.4452 -0.1554  0.1969
  131MPD2    C4 1999   0.119   3.047   9.989  0.4316 -0.1865 -0.1565
  131MPD2    C5 2000   0.160   3.009  10.113 -0.9995 -0.2885 -0.5748
  131MPD2     H 2001   0.387   3.236   9.911  1.5282 -1.1528 -0.5428
  131MPD2    H1 2002   0.020   3.015   9.958  1.2093 -0.1863 -2.6252
  131MPD2    H2 2003   0.308   2.991  10.254 -0.8265  1.3900  1.6428
  131MPD2    H3 2004   0.100   2.943  10.175  0.0237  0.3315  1.0687
  131MPD2     N 2005   0.157   3.196   9.798  0.0771  0.0079  0.2891
  131MPD2    H5 2006   0.216   3.275   9.771 -0.5214  0.6899  0.9638
  131MPD2    N1 2007   0.492   3.156  10.154  0.1247  0.0999 -0.4754
  131MPD2    H7 2008   0.528   3.087  10.219 -0.5302 -1.0065 -1.2922
  132TCq2    C1 2009   1.037   3.364  10.206  0.5660 -0.0723 -0.5019
  132TCq2    O2 2010   1.134   3.311  10.257  0.4965  0.5440 -0.0228
  132TCq2    C2 2011   0.912   3.302  10.244 -0.3481  0.0185  0.2812
  132TCq2    C3 2012   0.903   3.240  10.367 -0.2893  0.0539 -0.0678
  132TCq2    C4 2013   0.789   3.174  10.398  1.0801 -0.5651 -0.3963
  132TCq2    C5 2014   0.688   3.172  10.307 -0.0021  1.2717 -0.1381
  132TCq2    C6 2015   0.701   3.241  10.187 -0.1045 -0.8016 -0.4945
  132TCq2    C7 2016   0.811   3.308  10.158  0.2382 -0.7594  0.1012
  132TCq2    C8 2017   0.591   3.226  10.097 -0.5375 -0.8424  0.2326
  132TCq2    O4 2018   0.590   3.295   9.998  0.0333 -0.1046  0.1636
  132TCq2    C9 2019   0.765   3.118  10.531  0.6063  0.1965  0.5858
  132TCq2    O5 2020   0.647   3.108  10.566 -0.2127  0.2824 -0.3573
  132TCq2    O6 2021   0.871   3.104  10.606 -0.2796 -0.3057  0.5464
  132TCq2    H2 2022   0.977   3.255  10.445 -0.3535  0.3082 -0.0571
  132TCq2    H3 2023   0.592   3.153  10.352  0.8915 -2.1773  0.3388
  132TCq2    H4 2024   0.803   3.359  10.063  0.9311 -1.2501 -0.2230
  133MPD2     C 2025   4.204   0.321   9.216 -0.3345  0.8168 -0.6199
  133MPD2    C1 2026   4.293   0.272   9.310 -0.5865 -0.8027 -0.1753
  133MPD2    C2 2027   4.253   0.164   9.389  0.2759  0.2229  0.0629
  133MPD2    C3 2028   4.133   0.098   9.362 -0.3120 -0.5073  0.4622
  133MPD2    C4 2029   4.057   0.137   9.257  0.3150  0.4001  0.2620
  133MPD2    C5 2030   4.088   0.253   9.189 -0.1139 -0.3088  0.2249
  133MPD2     H 2031   4.303   0.139   9.482 -0.1904 -1.8540 -0.2473
  133MPD2    H1 2032   3.969   0.081   9.227  0.2836 -0.1300  1.3562
  133MPD2    H2 2033   4.226   0.410   9.158  2.1882 -0.6826 -1.9695
  133MPD2    H3 2034   4.031   0.290   9.105  1.0933  0.5793 -0.2022
  133MPD2     N 2035   4.091   4.705   9.428 -0.0260 -0.2165  0.2394
  133MPD2    H5 2036   3.991   4.687   9.423 -0.3403  1.8012 -0.4633
  133MPD2    N1 2037   4.410   0.352   9.340  0.1432 -0.2913 -0.0581
  133MPD2    H7 2038   4.423   0.434   9.282 -1.1999  0.2471  0.4039
  134TCq2    C1 2039   4.500   0.332   9.439  0.6384  0.0676 -1.0665
  134TCq2    O2 2040   4.497   0.254   9.537  0.2303  0.3245 -0.3828
  134TCq2    C2 2041   4.610   0.428   9.428 -0.6089 -0.4491 -0.1194
  134TCq2    C3 2042   4.639   0.493   9.309  0.4925 -0.1304 -0.3680
  134TCq2    C4 2043   4.696   0.618   9.305 -0.0440  0.4081  0.2580
  134TCq2    C5 2044   0.012   0.672   9.424  0.4499 -0.4880  0.3344
  134TCq2    C6 2045   4.708   0.602   9.539  0.0005 -0.8549  0.1881
  134TCq2    C7 2046   4.644   0.482   9.546  0.0101 -0.1288 -0.2164
  134TCq2    C8 2047   0.051   0.651   9.658 -0.3219  0.5188 -0.1137
  134TCq2    O4 2048   0.098   0.581   9.742  0.0507  0.6880  0.3375
  134TCq2    C9 2049   4.712   0.687   9.183  0.5642 -0.7773  0.0879
  134TCq2    O5 2050   4.710   0.623   9.078  0.4236 -0.1209  0.0655
  134TCq2    O6 2051   4.715   0.817   9.186  0.5923 -0.0693  0.3117
  134TCq2    H2 2052   4.610   0.455   9.212 -1.5782  2.0137 -0.6118
  134TCq2    H3 2053   0.064   0.767   9.420 -0.9562  0.2573 -0.1850
  134TCq2    H4 2054   4.625   0.431   9.640 -1.4813  2.0583  0.6511
  135MPD2     C 2055   2.544   0.943   9.808  0.6706 -0.4714 -0.7095
  135MPD2    C1 2056   2.536   1.075   9.763  0.0625  0.1437  0.0510
  135MPD2    C2 2057   2.658   1.130   9.719 -0.3553  0.7310 -0.3780
  135MPD2    C3 2058   2.774   1.051   9.702  0.8923  0.5581  0.2551
  135MPD2    C4 2059   2.770   0.924   9.750 -0.5328  0.3120  0.3516
  135MPD2    C5 2060   2.661   0.875   9.806  0.1637  0.1065  0.1669
  135MPD2     H 2061   2.660   1.235   9.691  0.4726  0.9626  0.5437
  135MPD2    H1 2062   2.858   0.861   9.753 -1.8997 -1.5429  1.5355
  135MPD2    H2 2063   2.467   0.888   9.862 -0.1868  2.5536  1.1769
  135MPD2    H3 2064   2.675   0.780   9.857  0.3505 -0.0190 -0.1192
  135MPD2     N 2065   2.896   1.105   9.652  0.5474  0.0741 -0.2566
  135MPD2    H5 2066   2.978   1.045   9.652  1.0836  0.8167  1.1814
  135MPD2    N1 2067   2.424   1.165   9.782  0.3238  0.0294 -0.2958
  135MPD2    H7 2068   2.440   1.263   9.760 -0.3998  0.2396  0.1282
  136TCq2    C1 2069   2.308   1.130   9.836  0.0244 -0.2210  0.0559
  136TCq2    O2 2070   2.270   1.020   9.874 -0.6437  0.4260  0.3047
  136TCq2    C2 2071   2.208   1.231   9.824  0.1508 -0.2056 -0.4473
  136TCq2    C3 2072   2.247   1.358   9.810  0.3692 -0.3586  0.5118
  136TCq2    C4 2073   2.155   1.459   9.807 -1.0725  0.4357 -0.3880
  136TCq2    C5 2074   2.023   1.426   9.818  0.5588  0.2334 -0.3274
  136TCq2    C6 2075   1.984   1.295   9.829  0.0027 -0.5896 -0.4214
  136TCq2    C7 2076   2.079   1.195   9.826 -0.3030 -0.2278  0.1930
  136TCq2    C8 2077   1.856   1.264   9.876  0.0725 -0.1711 -0.5739
  136TCq2    O4 2078   1.790   1.353   9.929  0.0095  0.2784  0.1045
  136TCq2    C9 2079   2.209   1.595   9.810 -0.0519  0.9751  1.0792
  136TCq2    O5 2080   2.326   1.623   9.785 -0.3906 -0.2112  0.3526
  136TCq2    O6 2081   2.129   1.683   9.850 -0.1366  0.6182 -0.4252
  136TCq2    H2 2082   2.346   1.388   9.841  1.1676  1.2002 -3.5434
  136TCq2    H3 2083   1.951   1.502   9.845 -0.7770 -1.7246  1.6536
  136TCq2    H4 2084   2.053   1.095   9.857  0.1352 -0.1552  0.7912
  137MPD2     C 2085   2.418   3.863   8.982  0.2502 -0.6827 -0.0428
  137MPD2    C1 2086   2.293   3.904   9.023  0.3552 -0.2875  1.1322
  137MPD2    C2 2087   2.283   4.002   9.127  0.4225 -0.0834 -0.4259
  137MPD2    C3 2088   2.395   4.059   9.180  0.5204  0.7647  0.3455
  137MPD2    C4 2089   2.523   4.018   9.134  0.0402  0.2628  0.5899
  137MPD2    C5 2090   2.534   3.917   9.039  0.6516 -0.0396 -0.0062
  137MPD2     H 2091   2.187   4.029   9.168  0.2459  0.0314 -0.9129
  137MPD2    H1 2092   2.615   4.069   9.158 -0.0578  0.3774  0.7273
  137MPD2    H2 2093   2.432   3.797   8.897 -1.5431 -1.2505  0.1058
  137MPD2    H3 2094   2.627   3.880   8.997  1.5592  2.9415 -0.6624
  137MPD2     N 2095   2.375   4.162   9.280  0.1304 -0.8278 -0.5626
  137MPD2    H5 2096   2.284   4.206   9.277  0.9878  1.0186  1.1347
  137MPD2    N1 2097   2.180   3.840   8.969 -0.0456 -0.0400  0.7420
  137MPD2    H7 2098   2.201   3.771   8.898 -3.2542  0.9118 -1.1257
  138TCq2    C1 2099   2.048   3.872   8.988 -0.2555 -0.3796 -0.3128
  138TCq2    O2 2100   1.996   3.938   9.075  0.3783 -0.4145 -0.1471
  138TCq2    C2 2101   1.953   3.811   8.896 -1.0319 -0.3167 -0.2464
  138TCq2    C3 2102   2.001   3.733   8.793  0.0918  0.2752 -0.5776
  138TCq2    C4 2103   1.915   3.694   8.695  0.4547 -0.6698 -0.1348
  138TCq2    C5 2104   1.784   3.724   8.703  0.2153 -0.7578  0.1254
  138TCq2    C6 2105   1.737   3.793   8.806  0.5162 -0.1134  1.2211
  138TCq2    C7 2106   1.820   3.847   8.908  0.6491  0.5299 -0.1850
  138TCq2    C8 2107   1.591   3.821   8.813 -0.0578  0.7664 -0.6512
  138TCq2    O4 2108   1.529   3.808   8.708  0.1295 -0.5550 -0.1012
  138TCq2    C9 2109   1.963   3.651   8.571 -0.4961  0.3804  0.2113
  138TCq2    O5 2110   2.087   3.631   8.559 -0.0345  0.0835  0.2820
  138TCq2    O6 2111   1.881   3.609   8.486 -0.2934  0.1521 -0.8817
  138TCq2    H2 2112   2.105   3.709   8.774  0.4005  0.9240  0.3354
  138TCq2    H3 2113   1.716   3.701   8.622  2.4256  0.9256 -2.2291
  138TCq2    H4 2114   1.796   3.910   8.993  0.2925  0.9991 -0.6345
  139TMC2    C1 2115   2.562   2.442  13.075 -0.6247  0.2395  0.1022
  139TMC2    C2 2116   2.465   2.444  12.973  0.3748  0.5514 -0.5836
  139TMC2    C3 2117   2.348   2.508  12.991 -0.1119  0.5593 -0.0575
  139TMC2    C4 2118   2.536   2.512  13.193 -0.6369 -0.1389  0.6913
  139TMC2    C5 2119   2.408   2.567  13.210  0.2215  0.2494  0.2243
  139TMC2    C6 2120   2.313   2.570  13.110 -0.2810 -0.5098  0.2265
  139TMC2     C 2121   2.657   2.342  13.069 -0.1607  1.1699 -0.1610
  139TMC2     O 2122   2.651   2.262  12.977  0.5793 -0.3659  0.7438
  139TMC2     H 2123   2.471   2.376  12.889 -1.8149 -0.0182 -0.2859
  139TMC2    H1 2124   2.612   2.515  13.270  0.4182 -1.4686 -0.3020
  139TMC2    H2 2125   2.224   2.632  13.116  1.5300  2.0759  0.4371
  139TMC2    C7 2126   2.389   2.674  13.313  0.8609 -0.8592  0.2155
  139TMC2    C8 2127   2.244   2.489  12.892  0.1388  0.3848  0.1885
  139TMC2    O1 2128   2.300   2.756  13.296 -0.1008  0.2970 -0.1022
  139TMC2    O2 2129   2.127   2.520  12.909 -0.6257  0.1935  0.4024
  139TMC2    O5 2130   2.297   2.456  12.769  0.2438 -1.0314  0.1095
  139TMC2    H5 2131   2.394   2.473  12.775  0.0186  0.0066  0.8316
  140MPD2     C 2132   2.875   2.228  13.336 -0.0705  0.3950 -0.2275
  140MPD2    C1 2133   2.810   2.214  13.218  0.1545 -0.2946 -0.0291
  140MPD2    C2 2134   2.801   2.091  13.160 -0.0204  0.3539  0.7835
  140MPD2    C3 2135   2.863   1.981  13.215 -0.3355 -0.2368 -0.2141
  140MPD2    C4 2136   2.919   1.995  13.342 -0.4619  0.1681  0.8510
  140MPD2    C5 2137   2.932   2.123  13.396 -0.3163 -0.7252  0.0980
  140MPD2     H 2138   2.728   2.082  13.080 -0.4767 -1.0427  1.3528
  140MPD2    H1 2139   2.969   1.912  13.392  0.0269  0.0376  0.1377
  140MPD2    H2 2140   2.876   2.321  13.392  1.1002 -0.4842  1.2120
  140MPD2    H3 2141   2.967   2.144  13.496 -1.0508 -1.6071  0.5392
  140MPD2     N 2142   2.852   1.854  13.143  0.2015  0.1853 -0.4838
  140MPD2    H5 2143   2.813   1.867  13.050 -0.0074 -0.1248 -0.4388
  140MPD2    N1 2144   2.748   2.335  13.173  0.3034  0.0039  0.2437
  140MPD2    H7 2145   2.771   2.420  13.223  4.4389  0.3115 -2.1708
  141TCq2    C1 2146   3.117   4.119  14.486 -0.0502  0.6625 -0.1996
  141TCq2    O2 2147   3.211   4.174  14.430  0.5957 -0.0500  0.0444
  141TCq2    C2 2148   3.057   4.183  14.604  0.6306  0.8956  0.5121
  141TCq2    C3 2149   3.024   4.092  14.706  0.1632  0.3680 -0.4795
  141TCq2    C4 2150   3.037   4.143  14.835 -1.0540  0.4924  0.1429
  141TCq2    C5 2151   3.051   4.280  14.860  0.6750 -0.0615 -0.7125
  141TCq2    C6 2152   3.078   4.357  14.754  0.1182  1.1846 -0.0698
  141TCq2    C7 2153   3.095   4.309  14.625 -0.0924 -0.3662 -0.1656
  141TCq2    C8 2154   3.058   4.498  14.770 -0.1279  0.2795  0.5114
  141TCq2    O4 2155   3.010   4.558  14.671 -0.0860  0.1380  0.2268
  141TCq2    C9 2156   3.024   4.057  14.955 -0.0675 -1.1008  0.2668
  141TCq2    O5 2157   3.021   4.114  15.066  0.4155  0.0638 -0.3869
  141TCq2    O6 2158   3.026   3.934  14.947 -0.2038  0.2379  0.0402
  141TCq2    H2 2159   2.987   3.990  14.695 -0.8065  0.8280 -1.4648
  141TCq2    H3 2160   3.043   4.323  14.959  0.8061 -0.1456 -0.6651
  141TCq2    H4 2161   3.115   4.372  14.539 -3.5758  1.0384  0.0709
  142MPD2     C 2162   0.705   2.821  10.281 -0.5336  0.8639 -0.1875
  142MPD2    C1 2163   0.681   2.862  10.152  0.0371  0.3197 -0.7709
  142MPD2    C2 2164   0.773   2.933  10.078  0.0754 -0.2589  0.0638
  142MPD2    C3 2165   0.892   2.962  10.139 -0.2891  0.4136 -0.9469
  142MPD2    C4 2166   0.928   2.916  10.265 -0.4603 -0.8777  0.4483
  142MPD2    C5 2167   0.833   2.846  10.341 -0.2325 -0.0759  0.0597
  142MPD2     H 2168   0.757   2.965   9.976  1.8177 -1.7217 -0.6720
  142MPD2    H1 2169   1.029   2.928  10.302  0.4672 -0.1816 -2.3735
  142MPD2    H2 2170   0.626   2.777  10.340  0.2598  0.0887  0.3086
  142MPD2    H3 2171   0.854   2.809  10.441 -1.0931  0.2589  0.3678
  142MPD2     N 2172   0.995   3.024  10.064  0.5651 -0.2595 -0.1983
  142MPD2    H5 2173   1.085   3.031  10.110  2.2660  0.1654 -3.5873
  142MPD2    N1 2174   0.557   2.819  10.100  0.1740 -0.1653  0.4105
  142MPD2    H7 2175   0.491   2.767  10.158 -0.4040  0.1079 -0.0049
  143TCq2    C1 2176   0.979   3.093   9.951 -0.3958  0.9116 -0.3208
  143TCq2    O2 2177   0.876   3.125   9.897  0.0792  0.2067  0.0956
  143TCq2    C2 2178   1.097   3.148   9.896  0.0636 -0.1547  0.2403
  143TCq2    C3 2179   1.218   3.100   9.932 -0.1128  0.2385  0.2220
  143TCq2    C4 2180   1.324   3.151   9.863 -0.6074  0.0895 -0.4260
  143TCq2    C5 2181   1.315   3.238   9.758  0.4230  0.3219 -1.0944
  143TCq2    C6 2182   1.189   3.281   9.722  0.2443  0.0800  0.5553
  143TCq2    C7 2183   1.081   3.232   9.790 -0.0665 -0.1646 -0.5945
  143TCq2    C8 2184   1.171   3.400   9.637 -0.9131  0.0176  0.0518
  143TCq2    O4 2185   1.062   3.459   9.633  0.2047  0.3208 -0.1388
  143TCq2    C9 2186   1.457   3.103   9.895 -0.3725  0.6472 -0.1217
  143TCq2    O5 2187   1.475   3.024   9.992 -0.3380 -0.9895  0.3732
  143TCq2    O6 2188   1.552   3.166   9.840 -0.0192  0.2017 -0.1924
  143TCq2    H2 2189   1.237   3.033  10.015 -0.8356 -2.0652 -1.4455
  143TCq2    H3 2190   1.408   3.266   9.709  0.7131 -0.0228 -0.7474
  143TCq2    H4 2191   0.982   3.252   9.751 -0.8754  0.9449  1.9931
  144MPD2     C 2192   3.498   2.304   1.207 -0.7710  0.4609  0.8065
  144MPD2    C1 2193   3.519   2.175   1.162 -0.1015  0.4462 -0.3076
  144MPD2    C2 2194   3.647   2.114   1.194  0.3390  0.2050  0.2072
  144MPD2    C3 2195   3.752   2.194   1.233  1.0989 -0.3185 -0.6499
  144MPD2    C4 2196   3.734   2.329   1.250 -0.4453  0.2103  0.4066
  144MPD2    C5 2197   3.609   2.381   1.247  0.6824 -0.0084  0.0803
  144MPD2     H 2198   3.666   2.011   1.166  0.4418  0.7960 -1.9393
  144MPD2    H1 2199   3.814   2.397   1.276  0.6649 -1.4482  1.2598
  144MPD2    H2 2200   3.402   2.353   1.194 -0.3956  1.0060  0.0872
  144MPD2    H3 2201   3.599   2.486   1.274 -3.9830  0.2335 -2.5493
  144MPD2     N 2202   3.883   2.153   1.242  0.1005 -0.4398  0.1470
  144MPD2    H5 2203   3.947   2.231   1.255 -0.5750 -0.1409  1.7130
  144MPD2    N1 2204   3.430   2.103   1.081  0.6824 -0.5326  0.3382
  144MPD2    H7 2205   3.473   2.015   1.057  2.0464  0.5379 -1.1062
  145TCq2    C1 2206   3.935   2.025   1.226  0.2076  0.2609  0.5624
  145TCq2    O2 2207   3.875   1.921   1.203  0.4091 -0.4329 -0.6302
  145TCq2    C2 2208   4.081   2.024   1.241  0.4337 -0.5796  1.0853
  145TCq2    C3 2209   4.153   1.931   1.162 -0.4658  0.4706 -0.2487
  145TCq2    C4 2210   4.287   1.951   1.142  0.6736 -0.2082 -0.6585
  145TCq2    C5 2211   4.350   2.066   1.182  0.1871 -0.1382  0.4001
  145TCq2    C6 2212   4.278   2.159   1.246 -0.5170 -0.2190 -0.3503
  145TCq2    C7 2213   4.142   2.144   1.285  0.1271 -0.3219  0.1703
  145TCq2    C8 2214   4.351   2.255   1.327 -0.3180  0.0837 -0.6000
  145TCq2    O4 2215   4.465   2.229   1.361 -0.5471 -0.0617  0.5510
  145TCq2    C9 2216   4.355   1.865   1.053  0.5306 -0.5137  0.5846
  145TCq2    O5 2217   4.296   1.763   1.005  0.7717 -0.4578 -0.5041
  145TCq2    O6 2218   4.477   1.881   1.019 -0.6958  0.4015  0.2831
  145TCq2    H2 2219   4.100   1.846   1.123  0.9353 -0.2297 -0.6000
  145TCq2    H3 2220   4.453   2.091   1.162  0.1978 -0.9200 -0.5380
  145TCq2    H4 2221   4.087   2.211   1.350 -0.0147  1.3136 -1.6029
  146TMC2    C1 2222   0.454   0.410  12.535  0.2783  0.2137 -1.1064
  146TMC2    C2 2223   0.420   0.479  12.418 -0.3687 -0.0142  0.0484
  146TMC2    C3 2224   0.460   0.413  12.301 -0.0289  0.0103 -0.0715
  146TMC2    C4 2225   0.519   0.288  12.529 -0.5187  0.6119 -0.8828
  146TMC2    C5 2226   0.532   0.229  12.411 -0.2596  0.9970  0.2287
  146TMC2    C6 2227   0.503   0.287  12.291 -0.5647 -0.5362  0.5417
  146TMC2     C 2228   0.425   0.476  12.660  0.2989 -0.4463  0.6061
  146TMC2     O 2229   0.409   0.594  12.640  0.1600 -0.1296  0.4064
  146TMC2     H 2230   0.380   0.579  12.418  1.1514  0.5997  0.0942
  146TMC2    H1 2231   0.555   0.241  12.620  0.4263 -0.3996 -1.7893
  146TMC2    H2 2232   0.486   0.220  12.207 -0.8034  0.8104 -0.4890
  146TMC2    C7 2233   0.633   0.117  12.403  0.1860 -0.6391 -0.1277
  146TMC2    C8 2234   0.397   0.465  12.181 -0.1695 -0.5731  0.5237
  146TMC2    O1 2235   0.667   0.082  12.291  0.4479 -0.2365  0.7632
  146TMC2    O2 2236   0.308   0.546  12.190 -0.5158  0.7226  0.0232
  146TMC2    O5 2237   0.484   0.463  12.081 -0.1632 -0.3004  0.0164
  146TMC2    H5 2238   0.557   0.400  12.099  1.8065  1.7720 -0.7864
  147MPD2     C 2239   1.059   4.595  12.592 -0.2951 -0.3564  0.0705
  147MPD2    C1 2240   0.964   4.613  12.690 -0.1704 -1.1232 -0.2105
  147MPD2    C2 2241   0.848   4.688  12.669 -0.1427  1.1533 -0.2856
  147MPD2    C3 2242   0.812   0.012  12.542 -0.1009 -0.2507 -0.2676
  147MPD2    C4 2243   0.898   4.697  12.438  0.4560 -0.4546  0.0898
  147MPD2    C5 2244   1.017   4.635  12.468 -0.2404  0.6799 -0.3641
  147MPD2     H 2245   0.788   4.716  12.754 -0.3890  1.2015 -0.4742
  147MPD2    H1 2246   0.878   0.009  12.337  0.8798 -1.9992 -0.4987
  147MPD2    H2 2247   1.156   4.551  12.611  1.2667  2.0909 -2.1591
  147MPD2    H3 2248   1.094   4.619  12.393 -0.1978  0.9194 -0.3735
  147MPD2     N 2249   0.692   0.086  12.525 -0.0336 -0.0613  1.0895
  147MPD2    H5 2250   0.636   0.095  12.610  0.6080 -1.6183  1.6763
  147MPD2    N1 2251   1.002   4.566  12.814 -0.4172  0.7332 -0.6977
  147MPD2    H7 2252   1.099   4.539  12.828  0.2462  2.8994 -1.1741
  148MPD2     C 2253   4.484   4.516  10.377  0.2192  0.2586  0.0373
  148MPD2    C1 2254   4.557   4.399  10.388  0.9995  0.5295 -0.2883
  148MPD2    C2 2255   4.500   4.277  10.350 -0.1403  0.2678  0.1350
  148MPD2    C3 2256   4.366   4.264  10.318  0.3736  0.7527 -0.5303
  148MPD2    C4 2257   4.292   4.382  10.319  0.4713 -0.1949 -0.0196
  148MPD2    C5 2258   4.351   4.504  10.340  0.9844 -0.3722 -0.0012
  148MPD2     H 2259   4.570   4.194  10.354  0.1884  0.4751 -1.2869
  148MPD2    H1 2260   4.185   4.369  10.303  0.3619  0.1480  0.4447
  148MPD2    H2 2261   4.512   4.617  10.407 -1.1169  0.7517 -0.3802
  148MPD2    H3 2262   4.283   4.587  10.325  1.2915  0.0435  0.9123
  148MPD2     N 2263   4.299   4.138  10.296 -0.1790  0.3517 -0.6747
  148MPD2    H5 2264   4.198   4.138  10.298 -0.1864 -0.9763 -1.5623
  148MPD2    N1 2265   4.690   4.390  10.432 -0.3528 -0.6296  0.1114
  148MPD2    H7 2266   0.020   4.303  10.436  1.2394  0.2091 -1.7908
  149TCq2    C1 2267   0.048   4.488  10.474  0.1615 -0.2745  0.8256
  149TCq2    O2 2268   0.018   4.602  10.498 -0.1041 -0.1417 -0.3253
  149TCq2    C2 2269   0.174   4.433  10.531 -0.0673  0.7319 -0.6424
  149TCq2    C3 2270   0.236   4.530  10.613 -0.5623 -0.0054 -0.5703
  149TCq2    C4 2271   0.355   4.496  10.671 -0.1457 -0.5395 -0.5463
  149TCq2    C5 2272   0.413   4.380  10.627  0.0713 -0.4187 -0.7981
  149TCq2    C6 2273   0.334   4.285  10.573 -0.2570 -0.0483  0.1043
  149TCq2    C7 2274   0.216   4.305  10.511  0.4494 -0.7015  0.4519
  149TCq2    C8 2275   0.376   4.144  10.568  0.5529 -0.7725 -0.8011
  149TCq2    O4 2276   0.301   4.064  10.510  0.3422  0.8689  0.3427
  149TCq2    C9 2277   0.438   4.608  10.726  0.3397 -0.2722 -0.1523
  149TCq2    O5 2278   0.561   4.598  10.697 -0.6414 -0.0204 -0.2441
  149TCq2    O6 2279   0.379   4.714  10.761  0.1237  0.3305  0.0400
  149TCq2    H2 2280   0.204   4.634  10.612  1.5189  0.6572  1.9318
  149TCq2    H3 2281   0.516   4.357  10.651 -1.2711 -1.9590  3.4106
  149TCq2    H4 2282   0.155   4.231  10.460 -0.7936 -0.4622  1.5969
  150MPD2     C 2283   2.408   2.210  12.195  0.3337  0.2050  0.0323
  150MPD2    C1 2284   2.390   2.293  12.083 -0.3580  0.1278 -0.0939
  150MPD2    C2 2285   2.448   2.417  12.074  0.3037 -0.2560  0.2393
  150MPD2    C3 2286   2.527   2.462  12.177 -0.3257 -0.3390 -0.1531
  150MPD2    C4 2287   2.551   2.385  12.287  0.3282 -0.2607  0.0717
  150MPD2    C5 2288   2.491   2.256  12.298  0.0802  0.6125  0.1162
  150MPD2     H 2289   2.423   2.486  11.995  0.4369 -0.6144 -0.1132
  150MPD2    H1 2290   2.619   2.424  12.363  0.7593 -2.7328  0.9420
  150MPD2    H2 2291   2.360   2.113  12.204 -0.7674  0.9611  2.4139
  150MPD2    H3 2292   2.504   2.202  12.392  1.5351 -0.9801 -0.9856
  150MPD2     N 2293   2.571   2.597  12.165  0.9333 -0.0186  0.5809
  150MPD2    H5 2294   2.534   2.643  12.082 -0.7213 -0.1406  1.2659
  150MPD2    N1 2295   2.309   2.245  11.977  0.3481 -0.0817  0.1729
  150MPD2    H7 2296   2.265   2.155  11.995 -1.2624  0.9869  1.5797
  151TCq2    C1 2297   2.663   2.664  12.245 -0.2920 -0.8121  0.5345
  151TCq2    O2 2298   2.730   2.618  12.336  0.0501  0.4565  0.0266
  151TCq2    C2 2299   2.700   2.801  12.207 -0.1997  0.2221 -0.0778
  151TCq2    C3 2300   2.649   2.848  12.088 -0.6878  0.7887 -0.2343
  151TCq2    C4 2301   2.659   2.980  12.063  0.8017  0.0040  0.3536
  151TCq2    C5 2302   2.717   3.059  12.154  0.5116  1.1604 -0.3877
  151TCq2    C6 2303   2.771   3.009  12.271  0.3718 -0.9286 -0.6874
  151TCq2    C7 2304   2.763   2.876  12.300 -0.1509  1.1315  1.1820
  151TCq2    C8 2305   2.821   3.100  12.369 -0.9131  0.1754  0.8320
  151TCq2    O4 2306   2.798   3.219  12.353  0.2519 -0.0203 -0.1035
  151TCq2    C9 2307   2.605   3.038  11.940  0.2420  0.2990  0.1304
  151TCq2    O5 2308   2.657   3.146  11.894 -0.4576  0.0429  0.2302
  151TCq2    O6 2309   2.521   2.968  11.870 -0.1627  0.3768  0.7058
  151TCq2    H2 2310   2.605   2.782  12.015 -0.6983  0.3962  0.1249
  151TCq2    H3 2311   2.710   3.166  12.143  2.8945  1.3147 -0.3461
  151TCq2    H4 2312   2.786   2.835  12.398  1.2124 -0.2471  0.2977
  152MPD2     C 2313   2.320   2.531  12.461  0.2632  0.3128 -0.0843
  152MPD2    C1 2314   2.309   2.667  12.452 -0.3726 -0.1476  0.0965
  152MPD2    C2 2315   2.209   2.714  12.363  0.4635  0.2495  0.0904
  152MPD2    C3 2316   2.124   2.625  12.304 -0.3214  0.1341 -0.3412
  152MPD2    C4 2317   2.145   2.490  12.310  0.3591 -0.4546  0.2415
  152MPD2    C5 2318   2.238   2.444  12.393 -0.4943  0.5063  0.4100
  152MPD2     H 2319   2.190   2.820  12.350 -0.0244 -0.0891 -1.9537
  152MPD2    H1 2320   2.081   2.414  12.267 -1.4354  1.4326 -0.4067
  152MPD2    H2 2321   2.394   2.491  12.529  0.2055 -1.2556 -0.9473
  152MPD2    H3 2322   2.259   2.338  12.403 -0.6751  0.5337  1.0806
  152MPD2     N 2323   2.011   2.684  12.238 -0.8774  0.4306  0.1777
  152MPD2    H5 2324   2.001   2.785  12.231  0.4364  0.6643  1.9102
  152MPD2    N1 2325   2.398   2.750  12.522  0.1038  0.4401  0.4105
  152MPD2    H7 2326   2.467   2.697  12.574 -1.0095  0.6424  2.0995
  153TCq2    C1 2327   2.415   2.891  12.520 -0.0071  0.1165  0.4769
  153TCq2    O2 2328   2.347   2.973  12.458 -0.2230  0.0428 -0.2250
  153TCq2    C2 2329   2.530   2.934  12.599 -0.0935  0.5909  0.4751
  153TCq2    C3 2330   2.623   2.839  12.635  0.5701  0.3746  0.0201
  153TCq2    C4 2331   2.712   2.872  12.729  0.4169 -0.1876 -0.3113
  153TCq2    C5 2332   2.711   2.982  12.804  0.8172 -0.0887  0.4260
  153TCq2    C6 2333   2.617   3.077  12.763  0.0438 -0.1996  0.4507
  153TCq2    C7 2334   2.524   3.053  12.667  0.2950  0.1542  0.3545
  153TCq2    C8 2335   2.615   3.204  12.841 -0.2622 -0.1128  0.7605
  153TCq2    O4 2336   2.558   3.305  12.802  0.3268  0.1377  0.9040
  153TCq2    C9 2337   2.807   2.768  12.759 -0.1309 -0.5213 -0.1079
  153TCq2    O5 2338   2.783   2.652  12.721  0.1082 -0.3103  0.3543
  153TCq2    O6 2339   2.900   2.798  12.834  0.4801  0.0715  0.1327
  153TCq2    H2 2340   2.635   2.746  12.580 -0.9707  1.0715 -1.5353
  153TCq2    H3 2341   2.803   2.995  12.858  0.9268  0.0775  0.1992
  153TCq2    H4 2342   2.453   3.128  12.634 -1.3920 -2.0927 -1.1559
  154MPD2     C 2343   3.810   3.504   0.408 -0.0436  0.1843 -0.5661
  154MPD2    C1 2344   3.781   3.588   0.514 -0.7997  0.1716 -0.2843
  154MPD2    C2 2345   3.673   3.672   0.507 -0.7622  0.2793  0.2485
  154MPD2    C3 2346   3.605   3.683   0.386  0.1650 -0.3210 -0.0711
  154MPD2    C4 2347   3.653   3.615   0.276 -0.8810 -0.1691  0.7763
  154MPD2    C5 2348   3.746   3.520   0.294  0.3561 -0.0835 -0.0887
  154MPD2     H 2349   3.647   3.736   0.590  0.3565  1.4194 -0.2883
  154MPD2    H1 2350   3.603   3.619   0.180  0.0584 -0.6081  0.2631
  154MPD2    H2 2351   3.890   3.431   0.406  0.7206  0.9476  2.6656
  154MPD2    H3 2352   3.787   3.470   0.208  1.0975 -2.5551  1.7179
  154MPD2     N 2353   3.503   3.781   0.389 -0.6447  0.6434  0.1508
  154MPD2    H5 2354   3.486   3.832   0.476 -3.4681 -1.6928  0.9590
  154MPD2    N1 2355   3.860   3.567   0.630 -0.2872 -0.0059 -0.4823
  154MPD2    H7 2356   3.938   3.503   0.622  0.9519  1.3145  0.9696
  155TCq2    C1 2357   3.848   3.641   0.739 -0.1544  0.4056 -0.6675
  155TCq2    O2 2358   3.755   3.697   0.791  0.3969 -0.2216  0.8120
  155TCq2    C2 2359   3.964   3.632   0.834 -0.5359 -0.1306  0.1916
  155TCq2    C3 2360   4.049   3.527   0.839 -0.2186 -0.7953 -0.2442
  155TCq2    C4 2361   4.127   3.512   0.949 -0.0063  0.2555  0.3882
  155TCq2    C5 2362   4.131   3.610   1.048 -0.2023  0.1645  0.8661
  155TCq2    C6 2363   4.033   3.711   1.047 -0.2594  0.5935  0.1491
  155TCq2    C7 2364   3.951   3.723   0.935 -0.7550  0.3007  0.5784
  155TCq2    C8 2365   4.031   3.811   1.153  0.6433 -0.0749  0.3907
  155TCq2    O4 2366   4.134   3.835   1.218  0.3559  0.4729  0.3721
  155TCq2    C9 2367   4.210   3.394   0.955 -0.1319  0.2166  0.0181
  155TCq2    O5 2368   4.192   3.311   0.863  0.8766 -0.1477  0.9427
  155TCq2    O6 2369   4.283   3.375   1.056 -0.1444 -0.3680 -0.1924
  155TCq2    H2 2370   4.052   3.455   0.757 -1.0329 -1.2352  0.1168
  155TCq2    H3 2371   4.186   3.597   1.140 -1.5034 -1.1133  1.4520
  155TCq2    H4 2372   3.902   3.817   0.913 -0.6411 -0.2378 -2.0206
  156MPD2     C 2373   3.041   0.558  11.851  0.0690 -0.6878  0.7508
  156MPD2    C1 2374   2.953   0.449  11.835  0.1899 -0.6499 -0.5744
  156MPD2    C2 2375   2.846   0.434  11.923 -0.1143 -0.3188  0.2542
  156MPD2    C3 2376   2.820   0.535  12.016 -0.3635 -0.3035  0.5924
  156MPD2    C4 2377   2.909   0.640  12.032 -0.2761  0.4673  0.3979
  156MPD2    C5 2378   3.016   0.649  11.945 -0.1426 -0.1683  0.1137
  156MPD2     H 2379   2.770   0.359  11.904 -1.2196  1.1973 -1.2222
  156MPD2    H1 2380   2.896   0.720  12.104  2.1831 -0.0848  1.4494
  156MPD2    H2 2381   3.132   0.568  11.794  0.0093 -1.2638  0.5528
  156MPD2    H3 2382   3.094   0.723  11.954 -1.7509  1.5542 -0.0894
  156MPD2     N 2383   2.693   0.525  12.078  0.0991  0.4777  0.4654
  156MPD2    H5 2384   2.621   0.476  12.025  0.3626 -0.6116  1.1147
  156MPD2    N1 2385   2.970   0.361  11.729 -0.2586  0.4675 -0.2196
  156MPD2    H7 2386   3.023   0.389  11.647 -1.2479 -1.8397 -1.6601
  157TCq2    C1 2387   2.912   0.236  11.717  0.7907 -0.3915  0.2633
  157TCq2    O2 2388   2.858   0.170  11.806 -0.6699  0.1893  0.2058
  157TCq2    C2 2389   2.917   0.184  11.578  0.6093  0.3516 -0.8472
  157TCq2    C3 2390   2.912   0.045  11.567  0.3825  0.6318 -0.5209
  157TCq2    C4 2391   2.894   4.711  11.440  0.4098  0.0788 -0.7521
  157TCq2    C5 2392   2.866   0.070  11.332  0.7606  0.8657 -0.5786
  157TCq2    C6 2393   2.866   0.199  11.355  0.4193 -0.1695 -0.2354
  157TCq2    C7 2394   2.901   0.265  11.473  0.0952 -0.8752  0.0149
  157TCq2    C8 2395   2.779   0.279  11.268 -0.2118 -0.3222 -0.5961
  157TCq2    O4 2396   2.804   0.392  11.228 -0.3210  0.6977  0.6379
  157TCq2    C9 2397   2.903   4.571  11.423  0.1957 -0.2153 -0.1841
  157TCq2    O5 2398   2.962   4.505  11.510  0.0848  0.1019  0.4530
  157TCq2    O6 2399   2.841   4.522  11.328  0.7256  0.9218  0.2518
  157TCq2    H2 2400   2.925   4.705  11.655 -1.5090  2.9427  1.3613
  157TCq2    H3 2401   2.842   0.024  11.236 -0.1418 -0.9565  0.5260
  157TCq2    H4 2402   2.885   0.372  11.475 -1.0394 -1.0598  1.5826
  158TMC2    C1 2403   2.540   4.353  13.344  0.0291  0.7441 -0.9614
  158TMC2    C2 2404   2.540   4.466  13.263  0.3029 -0.4558 -0.2202
  158TMC2    C3 2405   2.423   4.505  13.194  0.4996 -0.3025  1.5145
  158TMC2    C4 2406   2.427   4.284  13.364 -0.0642 -0.1844  0.0240
  158TMC2    C5 2407   2.316   4.324  13.303 -0.5727 -0.1861  0.7395
  158TMC2    C6 2408   2.317   4.435  13.219  0.4555  0.1285  0.4203
  158TMC2     C 2409   2.670   4.280  13.362 -0.4010 -0.1293 -0.5258
  158TMC2     O 2410   2.747   4.285  13.268 -0.5402  0.4027 -0.2180
  158TMC2     H 2411   2.636   4.507  13.235  0.0483  0.2991  0.0299
  158TMC2    H1 2412   2.443   4.185  13.404  3.6007  0.7181  0.8507
  158TMC2    H2 2413   2.227   4.487  13.189 -0.6667 -1.7704  0.4460
  158TMC2    C7 2414   2.203   4.231  13.286 -0.0057  0.0093 -0.0046
  158TMC2    C8 2415   2.453   4.541  13.058 -0.0729 -0.1163 -0.8103
  158TMC2    O1 2416   2.129   4.253  13.195  0.1661  0.6505 -0.1174
  158TMC2    O2 2417   2.563   4.539  13.003 -0.0041 -0.6612 -0.8373
  158TMC2    O5 2418   2.353   4.630  13.025  0.4108 -0.0829  0.0701
  158TMC2    H5 2419   2.296   4.637  13.105  1.3518  0.4225  0.6951
  159MPD2     C 2420   2.965   3.941  13.644  0.1918 -0.2974  0.0737
  159MPD2    C1 2421   2.881   4.011  13.727 -0.3058  0.1326 -0.3697
  159MPD2    C2 2422   2.789   4.098  13.680 -1.4228 -0.4432  0.1086
  159MPD2    C3 2423   2.781   4.132  13.540  0.0425  0.0509 -0.2326
  159MPD2    C4 2424   2.872   4.074  13.455 -0.5523 -0.5570 -0.7316
  159MPD2    C5 2425   2.956   3.972  13.510  0.2875 -0.7754  0.2288
  159MPD2     H 2426   2.709   4.130  13.746  0.0656 -1.3769  2.3320
  159MPD2    H1 2427   2.880   4.096  13.349 -2.8624  2.0483 -0.3558
  159MPD2    H2 2428   3.017   3.853  13.679  2.0154  1.8564  2.7819
  159MPD2    H3 2429   3.019   3.916  13.442  1.4224  0.0186  0.6269
  159MPD2     N 2430   2.683   4.224  13.488 -0.1411 -0.2535  0.1002
  159MPD2    H5 2431   2.615   4.256  13.557  1.0587  1.8080  0.3134
  159MPD2    N1 2432   2.894   3.990  13.866 -0.1276 -0.1782 -0.6568
  159MPD2    H7 2433   2.935   3.904  13.900 -1.0388 -1.5167 -2.8947
  160TMC2    C1 2434   1.889   2.281   1.650  0.4258  0.3366 -0.1787
  160TMC2    C2 2435   1.994   2.206   1.687  0.2684 -0.5126  0.3532
  160TMC2    C3 2436   2.115   2.253   1.634  0.1275 -0.0986 -0.1699
  160TMC2    C4 2437   1.897   2.391   1.574  0.0399  0.4624 -0.1527
  160TMC2    C5 2438   2.015   2.432   1.526 -0.0600  1.2443  0.0688
  160TMC2    C6 2439   2.130   2.369   1.558  0.4160 -0.9189  0.0411
  160TMC2     C 2440   1.756   2.242   1.707  0.8527 -0.0361  0.5543
  160TMC2     O 2441   1.751   2.128   1.747  0.0155  0.5538  0.0376
  160TMC2     H 2442   1.989   2.136   1.770 -0.0263  0.7209  1.3801
  160TMC2    H1 2443   1.806   2.436   1.535  0.0301 -0.7925 -1.5641
  160TMC2    H2 2444   2.223   2.398   1.510  0.5010 -2.2365 -0.5869
  160TMC2    C7 2445   2.015   2.544   1.436 -0.2437 -0.4591  0.1133
  160TMC2    C8 2446   2.243   2.198   1.682 -0.3874  0.1066 -0.3871
  160TMC2    O1 2447   1.919   2.572   1.368 -0.3383  0.0777 -0.0964
  160TMC2    O2 2448   2.349   2.251   1.666  0.0501  0.4993  0.2412
  160TMC2    O5 2449   2.232   2.071   1.729  0.0218  0.2008  0.2000
  160TMC2    H5 2450   2.146   2.030   1.706  0.0662 -0.8560  1.9393
  161MPD2     C 2451   1.517   2.222   1.895  0.1474 -0.1192 -0.0427
  161MPD2    C1 2452   1.551   2.329   1.815  0.4998  0.9509  1.1643
  161MPD2    C2 2453   1.477   2.439   1.831  0.1510 -0.9317  0.4178
  161MPD2    C3 2454   1.377   2.450   1.930 -0.0463  0.9162  0.8482
  161MPD2    C4 2455   1.338   2.344   2.002  0.2978 -0.0614  0.0819
  161MPD2    C5 2456   1.401   2.224   1.976 -0.1428 -0.4071 -0.3076
  161MPD2     H 2457   1.507   2.527   1.775  0.3936 -1.7971 -0.8110
  161MPD2    H1 2458   1.258   2.346   2.075  0.9118  1.4029  0.7060
  161MPD2    H2 2459   1.569   2.128   1.882  2.1296  1.1432 -1.2744
  161MPD2    H3 2460   1.374   2.141   2.041 -0.3861  0.4421  0.6692
  161MPD2     N 2461   1.308   2.575   1.959  0.1725 -0.1713 -0.9560
  161MPD2    H5 2462   1.225   2.567   2.017  0.1895  1.2620 -0.7488
  161MPD2    N1 2463   1.668   2.337   1.730  0.1200 -0.2353 -0.7077
  161MPD2    H7 2464   1.681   2.424   1.680  0.0885  0.9926  1.4497
  162TMC2    C1 2465   0.839   0.396   1.421 -0.0816 -0.3789  0.8798
  162TMC2    C2 2466   0.892   0.498   1.348  0.1075  0.2228 -0.0025
  162TMC2    C3 2467   0.960   0.596   1.414 -0.3904  0.1797  0.3679
  162TMC2    C4 2468   0.852   0.382   1.552 -0.0206 -0.4122  0.4864
  162TMC2    C5 2469   0.913   0.480   1.616  0.0177 -0.0185 -0.0515
  162TMC2    C6 2470   0.963   0.587   1.554  0.2964 -0.3214  0.0089
  162TMC2     C 2471   0.754   0.302   1.354  0.9269  0.3922  0.1381
  162TMC2     O 2472   0.743   0.187   1.398 -0.3727  0.2769  0.1216
  162TMC2     H 2473   0.907   0.496   1.240 -2.1357 -0.9178 -0.3051
  162TMC2    H1 2474   0.798   0.306   1.607 -1.1954  2.0430  2.7177
  162TMC2    H2 2475   1.007   0.661   1.621 -1.4407  2.0160 -1.4481
  162TMC2    C7 2476   0.855   0.519   1.747  0.1650  0.4033  0.4888
  162TMC2    C8 2477   1.035   0.691   1.336  0.6177  0.4889 -0.4485
  162TMC2    O1 2478   0.821   0.636   1.751 -0.5763  0.0921 -0.2407
  162TMC2    O2 2479   1.005   0.706   1.217 -0.2514 -0.2024 -0.2858
  162TMC2    O5 2480   1.153   0.646   1.374  0.3622  0.5785 -0.6925
  162TMC2    H5 2481   1.144   0.595   1.457  2.6053 -1.4921 -1.7064
  163MPD2     C 2482   0.497   0.182   0.936  0.5234 -0.3002  0.7856
  163MPD2    C1 2483   0.562   0.095   1.024 -0.3394 -0.5611 -0.2508
  163MPD2    C2 2484   0.629   0.160   1.129  0.4498  0.2357  0.3117
  163MPD2    C3 2485   0.620   0.296   1.155 -0.2566 -0.7158  0.1850
  163MPD2    C4 2486   0.538   0.377   1.076 -0.5842  0.6096  0.5514
  163MPD2    C5 2487   0.482   0.318   0.966 -0.1571 -0.2714  0.6340
  163MPD2     H 2488   0.691   0.100   1.194  1.0067 -1.1180 -1.4424
  163MPD2    H1 2489   0.540   0.485   1.075  2.1495  0.5508 -0.3254
  163MPD2    H2 2490   0.438   0.147   0.853 -2.8670  0.5746  2.8162
  163MPD2    H3 2491   0.420   0.372   0.896  1.4739  1.6802  0.7118
  163MPD2     N 2492   0.704   0.360   1.242 -0.0949  0.0857  0.1099
  163MPD2    H5 2493   0.714   0.459   1.223 -0.8601 -0.1013 -1.2771
  163MPD2    N1 2494   0.564   4.675   0.989 -0.3357  0.1164 -0.1427
  163MPD2    H7 2495   0.513   4.647   0.906 -1.6436  0.7853  0.4343
  164TCq2    C1 2496   1.134   3.373  11.468  0.6175 -0.1493  0.2618
  164TCq2    O2 2497   1.195   3.295  11.538  0.2725  0.3960 -0.5987
  164TCq2    C2 2498   1.056   3.480  11.526  0.2445 -0.0627  0.3385
  164TCq2    C3 2499   1.078   3.498  11.658 -0.3549  0.1222  0.1953
  164TCq2    C4 2500   0.996   3.587  11.727 -0.3396  0.0980  0.5530
  164TCq2    C5 2501   0.905   3.665  11.663  0.2598  0.1105  0.5527
  164TCq2    C6 2502   0.886   3.647  11.532 -0.1227  0.7628  0.5963
  164TCq2    C7 2503   0.961   3.556  11.460 -0.9446  0.4204  0.5254
  164TCq2    C8 2504   0.777   3.715  11.470  0.7725 -0.1665 -0.9859
  164TCq2    O4 2505   0.711   3.797  11.537 -0.2835  0.1192  0.3230
  164TCq2    C9 2506   1.020   3.602  11.865  0.4818  0.1923 -0.7227
  164TCq2    O5 2507   0.943   3.680  11.934 -0.3265  0.1646 -0.3006
  164TCq2    O6 2508   1.098   3.511  11.906 -0.5387  0.0789 -0.7887
  164TCq2    H2 2509   1.149   3.433  11.707 -1.1210  1.1903  2.7251
  164TCq2    H3 2510   0.839   3.727  11.722 -1.2606  0.1096 -1.1176
  164TCq2    H4 2511   0.929   3.511  11.367  0.1587 -1.7567  1.1879
  165MPD2     C 2512   1.975   1.777   3.140 -0.4437  0.6202 -0.5112
  165MPD2    C1 2513   1.959   1.758   3.003 -0.6611 -0.2151 -0.3947
  165MPD2    C2 2514   1.932   1.864   2.922  0.9367  0.4119 -0.2928
  165MPD2    C3 2515   1.939   1.991   2.973 -0.2765 -0.6430 -0.2207
  165MPD2    C4 2516   1.940   2.011   3.109  0.3044 -0.1061  0.0900
  165MPD2    C5 2517   1.961   1.902   3.191 -0.2645 -0.1168 -1.1696
  165MPD2     H 2518   1.918   1.849   2.816  0.9170  2.0479 -0.5236
  165MPD2    H1 2519   1.933   2.108   3.157  0.7663 -0.1548  0.2554
  165MPD2    H2 2520   2.000   1.696   3.207  0.9210  1.4609  0.0042
  165MPD2    H3 2521   1.971   1.916   3.298 -2.6491  0.2784 -0.9968
  165MPD2     N 2522   1.916   2.101   2.894  0.0850  0.3607 -1.0403
  165MPD2    H5 2523   1.911   2.192   2.937 -2.2320 -1.2406  2.0265
  165MPD2    N1 2524   1.967   1.628   2.955  0.2725  0.4954 -0.3464
  165MPD2    H7 2525   1.992   1.563   3.029  1.8676  2.0375  0.4498
  166TCq2    C1 2526   1.919   2.094   2.752  0.0354  0.1801 -0.1859
  166TCq2    O2 2527   1.951   2.006   2.675 -0.3144 -0.4373  0.2420
  166TCq2    C2 2528   1.905   2.222   2.692  0.1185 -0.0277 -0.1253
  166TCq2    C3 2529   1.847   2.327   2.761 -0.1113 -0.4944  0.1506
  166TCq2    C4 2530   1.853   2.456   2.710 -1.2547 -1.1093  0.1526
  166TCq2    C5 2531   1.923   2.482   2.596  0.1764  0.1284  0.0231
  166TCq2    C6 2532   2.000   2.381   2.539  0.0968  0.1932  0.0015
  166TCq2    C7 2533   1.988   2.249   2.583 -0.0633  0.2217  0.3050
  166TCq2    C8 2534   2.103   2.408   2.440 -0.2974  0.2355 -0.5651
  166TCq2    O4 2535   2.175   2.316   2.398  0.5664  0.3333 -0.4459
  166TCq2    C9 2536   1.797   2.569   2.787 -0.3588  0.5288  0.4032
  166TCq2    O5 2537   1.802   2.687   2.744 -0.3110  0.5941  0.2243
  166TCq2    O6 2538   1.737   2.540   2.890  0.3313 -0.0658  0.5190
  166TCq2    H2 2539   1.789   2.317   2.852  0.1496 -0.9470  0.2667
  166TCq2    H3 2540   1.952   2.587   2.596  3.2494 -0.7283 -0.6759
  166TCq2    H4 2541   2.042   2.170   2.533  1.8243  2.2340 -0.8489
  167TMC2    C1 2542   0.118   3.727  13.000  1.1744  0.5009 -0.3920
  167TMC2    C2 2543   0.037   3.737  13.117 -0.0826 -0.0850  0.2338
  167TMC2    C3 2544   0.054   3.641  13.211 -0.3284  0.0815  0.1695
  167TMC2    C4 2545   0.210   3.629  12.985 -0.0861  0.0252 -0.3283
  167TMC2    C5 2546   0.213   3.525  13.077 -0.0240 -0.2243  0.0575
  167TMC2    C6 2547   0.136   3.536  13.192 -0.1302 -0.4568 -0.1029
  167TMC2     C 2548   0.103   3.821  12.898 -0.3670 -0.1746 -0.0045
  167TMC2     O 2549   0.033   3.916  12.925  0.0744  0.2758  0.3490
  167TMC2     H 2550   4.709   3.829  13.144 -0.8415 -1.0912  2.2495
  167TMC2    H1 2551   0.281   3.636  12.903  0.2802 -0.5118 -0.0628
  167TMC2    H2 2552   0.160   3.457  13.262  2.3234  2.6905  2.6010
  167TMC2    C7 2553   0.336   3.440  13.089 -1.0558  0.7160  0.2364
  167TMC2    C8 2554   4.663   3.611  13.292 -0.1545 -0.1437  0.7568
  167TMC2    O1 2555   0.355   3.389  13.197 -0.4032  0.4949 -0.1410
  167TMC2    O2 2556   4.545   3.625  13.266  0.3334 -0.5402  0.6886
  167TMC2    O5 2557   4.706   3.597  13.419  0.3134 -0.7632  0.4527
  167TMC2    H5 2558   0.083   3.595  13.415  0.2948  0.6200 -0.4876
  168MPD2     C 2559   0.155   3.976  12.655  0.3545  0.2694 -0.1444
  168MPD2    C1 2560   0.149   3.844  12.654  0.0365 -0.3711 -0.1623
  168MPD2    C2 2561   0.168   3.776  12.536  0.1465  0.5371  0.2505
  168MPD2    C3 2562   0.182   3.849  12.418  0.2349 -0.3417 -0.0502
  168MPD2    C4 2563   0.183   3.985  12.418 -0.0105  0.1231 -0.6713
  168MPD2    C5 2564   0.176   4.049  12.542  0.2166  0.3551 -0.3626
  168MPD2     H 2565   0.151   3.670  12.552 -0.5943  0.6046 -0.1097
  168MPD2    H1 2566   0.190   4.045  12.328  0.9589 -1.6775 -1.7799
  168MPD2    H2 2567   0.144   4.039  12.742 -0.4012  0.0264 -0.0576
  168MPD2    H3 2568   0.194   4.156  12.550  0.2932  0.3779 -0.8383
  168MPD2     N 2569   0.184   3.782  12.290 -0.0377 -0.9928 -0.0672
  168MPD2    H5 2570   0.216   3.839  12.212 -3.9061 -0.8341 -1.5418
  168MPD2    N1 2571   0.142   3.768  12.780  0.0048  0.0574 -0.4350
  168MPD2    H7 2572   0.170   3.671  12.776  1.6502  0.4733  0.8630
  169MPD1     C 2573   3.465   1.460   9.883  0.4128 -0.3173 -0.2757
  169MPD1    C1 2574   3.339   1.467   9.817 -0.2658 -0.0430 -0.5220
  169MPD1    C2 2575   3.295   1.587   9.768  0.2459  0.0992  0.0624
  169MPD1    C3 2576   3.367   1.705   9.791 -1.0803  0.2116  1.0714
  169MPD1    C4 2577   3.495   1.698   9.848  0.4634 -0.3179 -0.0974
  169MPD1    C5 2578   3.539   1.578   9.897 -0.7833  0.2211 -0.4801
  169MPD1     H 2579   3.199   1.589   9.717  0.8760 -1.9904 -1.1939
  169MPD1    H1 2580   3.561   1.780   9.873  0.1606 -0.3372  0.7787
  169MPD1    H2 2581   3.509   1.367   9.915 -2.7865 -1.5838  0.4424
  169MPD1    H3 2582   3.639   1.573   9.941 -0.8155 -0.2757 -0.4656
  169MPD1     N 2583   3.317   1.833   9.749  0.7480 -0.5029 -0.5373
  169MPD1    H5 2584   3.234   1.832   9.690 -0.7121  0.1561  1.5255
  169MPD1    N1 2585   3.250   1.358   9.816 -0.6453  0.1669  0.1765
  169MPD1    H6 2586   3.205   1.356   9.725 -0.9249  0.4614  0.3039
  169MPD1    H7 2587   3.304   1.273   9.827 -1.5196 -0.4714 -0.4530
  170MPD1     C 2588   0.394   0.813  13.497  0.1977  0.0614 -0.1395
  170MPD1    C1 2589   0.434   0.836  13.627 -0.1322  0.4979 -0.2858
  170MPD1    C2 2590   0.556   0.904  13.654  0.6254 -0.5145  0.3627
  170MPD1    C3 2591   0.614   0.978  13.556  0.4173 -0.3896 -0.5532
  170MPD1    C4 2592   0.557   0.976  13.429 -0.1222  0.4403  0.3866
  170MPD1    C5 2593   0.454   0.896  13.402 -0.0925  0.0116 -0.1677
  170MPD1     H 2594   0.598   0.922  13.752  2.1595  2.3729 -0.8247
  170MPD1    H1 2595   0.594   1.040  13.349 -2.3260  0.6225 -0.4702
  170MPD1    H2 2596   0.315   0.742  13.475 -1.2293  1.7184 -0.3910
  170MPD1    H3 2597   0.409   0.882  13.305  0.9623 -0.9648 -0.5128
  170MPD1     N 2598   0.725   1.047  13.603  0.2774  0.1297  0.2888
  170MPD1    H5 2599   0.753   1.037  13.701 -0.1962 -1.0456  0.2989
  170MPD1    N1 2600   0.366   0.762  13.727 -0.4268  0.0641  0.1126
  170MPD1    H6 2601   0.274   0.738  13.690 -0.0023  0.2207 -1.0431
  170MPD1    H7 2602   0.350   0.807  13.817  2.1569  1.7306 -0.2748
  171MPD1     C 2603   0.231   2.667  15.346  0.4834  0.6799  0.0689
  171MPD1    C1 2604   0.147   2.698  15.452 -0.6579 -0.8765  0.9159
  171MPD1    C2 2605   0.120   2.602  15.545 -0.3213  0.0422  0.8772
  171MPD1    C3 2606   0.172   2.473  15.529  0.8212  0.4084  0.2668
  171MPD1    C4 2607   0.253   2.441  15.424  0.5110 -0.0302  0.2760
  171MPD1    C5 2608   0.279   2.542  15.331 -0.0738  0.4058  0.2124
  171MPD1     H 2609   0.057   2.626  15.630 -0.1794  3.8889 -0.0831
  171MPD1    H1 2610   0.289   2.340  15.405  0.2660 -0.0048 -0.3469
  171MPD1    H2 2611   0.245   2.728  15.257  1.0049 -0.5597 -0.6948
  171MPD1    H3 2612   0.334   2.524  15.240  0.4221 -0.7993  0.7444
  171MPD1     N 2613   0.140   2.372  15.616  0.3808 -0.4859 -0.0640
  171MPD1    H5 2614   0.167   2.283  15.574 -1.4376 -1.7238  1.3697
  171MPD1    N1 2615   0.066   2.813  15.445 -0.1549  0.3803  0.3928
  171MPD1    H6 2616   0.119   2.889  15.405 -0.0841 -0.1928 -0.5991
  171MPD1    H7 2617   0.037   2.842  15.538 -1.6393  0.9557 -0.2439
  172MPD1     C 2618   3.282   1.478   0.914  0.2928  0.9501 -0.2557
  172MPD1    C1 2619   3.357   1.528   1.013  0.5008 -0.9279 -0.2348
  172MPD1    C2 2620   3.458   1.613   0.974 -0.1936  0.1635 -0.7841
  172MPD1    C3 2621   3.498   1.627   0.844  0.3673  0.0331 -0.4266
  172MPD1    C4 2622   3.432   1.548   0.748  0.3426 -0.1568 -0.2452
  172MPD1    C5 2623   3.319   1.480   0.786  0.0813  0.4007  0.3371
  172MPD1     H 2624   3.511   1.650   1.061 -3.6450  1.1990  0.9047
  172MPD1    H1 2625   3.462   1.537   0.645 -0.0350  0.3615 -0.4126
  172MPD1    H2 2626   3.195   1.419   0.943  1.0940 -1.2270 -2.2826
  172MPD1    H3 2627   3.252   1.433   0.714 -0.4024 -0.0759  1.0969
  172MPD1     N 2628   3.605   1.716   0.815 -0.0407  0.0395  0.3435
  172MPD1    H5 2629   3.652   1.714   0.725  0.3007  1.9326  0.4896
  172MPD1    N1 2630   3.311   1.532   1.146  0.7362  0.5354  0.4068
  172MPD1    H6 2631   3.394   1.530   1.205  0.5534 -2.1793  0.5743
  172MPD1    H7 2632   3.247   1.457   1.170  0.8940  0.0770 -0.6139
  173MPD1     C 2633   4.316   0.968  14.107  0.4437  0.3165 -0.0722
  173MPD1    C1 2634   4.350   1.096  14.077  0.2097  0.5499  0.0069
  173MPD1    C2 2635   4.465   1.149  14.140  0.0691  0.0474 -0.6844
  173MPD1    C3 2636   4.510   1.103  14.265  0.1005 -0.6445  0.1136
  173MPD1    C4 2637   4.456   0.985  14.310  0.2065  0.5295 -0.6691
  173MPD1    C5 2638   4.369   0.916  14.223 -0.1080 -0.4224 -0.1571
  173MPD1     H 2639   4.504   1.242  14.101  1.1439 -1.1589 -2.4893
  173MPD1    H1 2640   4.480   0.942  14.406 -1.1731  0.7067 -0.2544
  173MPD1    H2 2641   4.237   0.919  14.049  1.5376 -0.6835 -0.7198
  173MPD1    H3 2642   4.337   0.824  14.270 -2.3561 -0.1456 -1.0983
  173MPD1     N 2643   4.607   1.171  14.342  0.0735 -0.4347 -0.2158
  173MPD1    H5 2644   4.640   1.252  14.291  0.5032 -0.3973  0.1137
  173MPD1    N1 2645   4.305   1.156  13.955 -0.2582  0.1201  0.1835
  173MPD1    H6 2646   4.217   1.115  13.926  0.3641 -0.9366 -0.2264
  173MPD1    H7 2647   4.302   1.257  13.963  1.6447  0.3347 -1.7489
  174MPD1     C 2648   0.524   1.380  13.997  0.0263 -0.2431 -0.0559
  174MPD1    C1 2649   0.569   1.372  14.127 -0.0089 -0.8769 -0.3037
  174MPD1    C2 2650   0.490   1.409  14.228 -0.1459  0.2065 -0.6435
  174MPD1    C3 2651   0.360   1.465  14.203 -0.0956 -0.3412  0.1203
  174MPD1    C4 2652   0.317   1.467  14.072  0.9129  0.5751  0.2078
  174MPD1    C5 2653   0.396   1.432  13.971  0.0566  0.7413  0.4160
  174MPD1     H 2654   0.529   1.401  14.329 -2.1036 -0.4485  0.0642
  174MPD1    H1 2655   0.213   1.491  14.052  0.9513 -1.0970 -2.0126
  174MPD1    H2 2656   0.583   1.346  13.912 -0.1925 -0.8714  0.0479
  174MPD1    H3 2657   0.350   1.418  13.873  0.3696  0.1166  0.3569
  174MPD1     N 2658   0.266   1.467  14.308  0.4924  0.4040 -0.7956
  174MPD1    H5 2659   0.169   1.480  14.282  0.5088 -0.2846 -1.2100
  174MPD1    N1 2660   0.680   1.292  14.159 -0.2597  0.1613 -1.0933
  174MPD1    H6 2661   0.754   1.315  14.093  1.9696 -1.5827  0.7998
  174MPD1    H7 2662   0.712   1.317  14.252 -0.4630  2.3244 -1.5999
  175MPD1     C 2663   3.514   1.982  15.973 -1.6194 -0.0452  0.0063
  175MPD1    C1 2664   3.382   2.005  16.001  0.6030 -0.1647  0.1690
  175MPD1    C2 2665   3.349   2.035  16.133  0.5967  0.0574  0.6992
  175MPD1    C3 2666   3.436   2.023  16.238  0.5932 -0.3939  0.9637
  175MPD1    C4 2667   3.560   1.989  16.208 -0.5034 -0.3376  0.7377
  175MPD1    C5 2668   3.598   1.969  16.080 -0.2620  0.7660  0.0109
  175MPD1     H 2669   3.251   2.075  16.156 -0.2999 -2.2377  0.9605
  175MPD1    H1 2670   3.635   1.969  16.283  1.0498  0.2708 -0.6513
  175MPD1    H2 2671   3.557   1.964  15.875 -1.5542 -1.1697  0.2408
  175MPD1    H3 2672   3.698   1.932  16.061  0.4218  2.6373 -0.0383
  175MPD1     N 2673   3.415   2.058  16.372 -0.6307 -0.3330 -0.1041
  175MPD1    H5 2674   3.494   2.042  16.434  0.7718  0.6472 -1.6620
  175MPD1    N1 2675   3.291   2.031  15.896 -0.6175 -0.1253 -0.6802
  175MPD1    H6 2676   3.194   2.018  15.925 -1.0132  0.7426 -1.6360
  175MPD1    H7 2677   3.306   1.978  15.811  0.6335  0.9352 -1.1153
  176MPD1     C 2678   0.330   4.324  17.152 -1.1666  0.3249  0.3258
  176MPD1    C1 2679   0.296   4.449  17.112  0.8990  0.4203 -0.5569
  176MPD1    C2 2680   0.341   4.559  17.185  0.0944  0.4393 -0.2381
  176MPD1    C3 2681   0.396   4.545  17.309 -0.4107  0.1291  0.4671
  176MPD1    C4 2682   0.432   4.416  17.343 -0.0350  0.1892 -0.0095
  176MPD1    C5 2683   0.401   4.308  17.266  0.6732  0.7680 -1.0037
  176MPD1     H 2684   0.323   4.658  17.146  0.1440 -0.1820 -1.8814
  176MPD1    H1 2685   0.487   4.387  17.431 -1.6860  0.5964  1.1734
  176MPD1    H2 2686   0.301   4.234  17.099  0.2662  0.3955 -0.5609
  176MPD1    H3 2687   0.426   4.208  17.301  2.2688  0.8463 -1.9185
  176MPD1     N 2688   0.433   4.659  17.385 -0.1579 -0.4868 -0.0788
  176MPD1    H5 2689   0.426   0.034  17.354  1.1977 -0.9306 -1.7960
  176MPD1    N1 2690   0.219   4.456  16.993 -0.0655  0.1759  0.0624
  176MPD1    H6 2691   0.196   4.552  16.967  1.6487  0.6075  0.1249
  176MPD1    H7 2692   0.135   4.399  16.996 -1.5404  2.2924 -0.7910
  177MPD1     C 2693   3.476   0.500  10.390  0.7363  0.1775  0.4058
  177MPD1    C1 2694   3.562   0.551  10.295  0.4307 -0.3026 -0.2852
  177MPD1    C2 2695   3.546   0.487  10.175  0.1028  0.1863  0.0302
  177MPD1    C3 2696   3.477   0.362  10.166 -0.2089  1.2226  0.3038
  177MPD1    C4 2697   3.403   0.311  10.268 -0.2488 -0.0871  0.2270
  177MPD1    C5 2698   3.395   0.392  10.377  0.3282 -0.3570 -0.0914
  177MPD1     H 2699   3.596   0.520  10.084 -0.0116  0.5570  0.1007
  177MPD1    H1 2700   3.334   0.228  10.260  0.7929 -0.9060 -0.2463
  177MPD1    H2 2701   3.465   0.552  10.485  0.0165  1.6417 -0.4732
  177MPD1    H3 2702   3.328   0.381  10.462 -0.3520 -0.1195 -0.6007
  177MPD1     N 2703   3.494   0.304  10.031 -0.9260 -0.5870 -0.0333
  177MPD1    H5 2704   3.547   0.361   9.965 -1.6883 -0.7741 -0.8018
  177MPD1    N1 2705   3.612   0.676  10.312 -0.5919  0.6051  0.3985
  177MPD1    H6 2706   3.632   0.689  10.411  1.8776 -0.1102  0.0083
  177MPD1    H7 2707   3.695   0.691  10.255 -2.4698  2.3857 -1.8621
  178MPD1     C 2708   0.731   1.317   0.053  0.0275  0.0142  0.4242
  178MPD1    C1 2709   0.772   1.288  17.610  0.5474  0.3096  0.1154
  178MPD1    C2 2710   0.844   1.166  17.597  0.6976  0.3807  0.2260
  178MPD1    C3 2711   0.871   1.086   0.017  0.5480  0.5612  0.1057
  178MPD1    C4 2712   0.828   1.113   0.140 -0.1113  0.0555 -0.4765
  178MPD1    C5 2713   0.750   1.226   0.153  0.6359 -0.2592  0.8682
  178MPD1     H 2714   0.883   1.145  17.498  3.0356 -0.1312  1.2554
  178MPD1    H1 2715   0.847   1.052   0.227  0.6446  2.9073  1.3583
  178MPD1    H2 2716   0.672   1.405   0.077  0.1532  0.7798 -2.0663
  178MPD1    H3 2717   0.712   1.258   0.249 -0.5909  2.8881 -0.6466
  178MPD1     N 2718   0.941   0.964  17.687  0.4469  0.7944  0.3924
  178MPD1    H5 2719   0.940   0.912   0.087  1.1227 -2.3619 -1.4970
  178MPD1    N1 2720   0.761   1.381  17.511 -0.1430  0.3218  0.5165
  178MPD1    H6 2721   0.770   1.325  17.427 -0.2108 -1.7603  1.9057
  178MPD1    H7 2722   0.670   1.427  17.498  0.2550  0.7104 -0.8465
  179MPD1     C 2723   0.476   3.775  15.470 -0.1079 -0.2657  0.7217
  179MPD1    C1 2724   0.604   3.739  15.499  0.0732  0.1239 -0.1468
  179MPD1    C2 2725   0.620   3.639  15.597 -0.4465 -0.5995 -0.0420
  179MPD1    C3 2726   0.505   3.582  15.648 -0.0368  0.0602 -0.6693
  179MPD1    C4 2727   0.379   3.614  15.606 -0.1733  0.5255 -0.2780
  179MPD1    C5 2728   0.366   3.719  15.523  0.1374 -0.5307 -0.7931
  179MPD1     H 2729   0.720   3.610  15.625 -0.7175  0.3864  1.9610
  179MPD1    H1 2730   0.290   3.579  15.656  1.5611 -1.4835  1.3518
  179MPD1    H2 2731   0.456   3.853  15.397  1.4099 -1.8364 -1.3773
  179MPD1    H3 2732   0.264   3.755  15.513  0.3385  0.2453 -0.0754
  179MPD1     N 2733   0.510   3.476  15.750 -0.2387 -0.3863 -0.0386
  179MPD1    H5 2734   0.417   3.441  15.771 -0.0271  1.2670  3.6479
  179MPD1    N1 2735   0.707   3.830  15.478  0.1592  0.0091  0.1335
  179MPD1    H6 2736   0.690   3.897  15.403 -1.2722 -1.3491 -0.7548
  179MPD1    H7 2737   0.796   3.781  15.478  0.9731  1.5098  0.9678
  180MPD1     C 2738   0.310   0.077  15.541 -0.6498 -0.4146 -0.1068
  180MPD1    C1 2739   0.416   0.085  15.454 -0.1707 -0.3795  0.3025
  180MPD1    C2 2740   0.394   0.044  15.325 -0.4792  0.4674  0.1358
  180MPD1    C3 2741   0.273   0.020  15.269 -0.8404  0.7644 -0.7152
  180MPD1    C4 2742   0.167   0.023  15.360 -0.5050 -0.3247 -0.9145
  180MPD1    C5 2743   0.183   0.050  15.494  0.4961  0.0803 -0.5926
  180MPD1     H 2744   0.478   0.038  15.257  0.7982  1.6946  1.5795
  180MPD1    H1 2745   0.062   0.012  15.334 -0.0241 -1.6035 -2.2830
  180MPD1    H2 2746   0.329   0.094  15.646 -1.1026  2.5285 -0.5174
  180MPD1    H3 2747   0.099   0.049  15.562 -2.2662 -0.8366 -4.0289
  180MPD1     N 2748   0.272   4.714  15.132  0.4725 -0.2331 -0.6254
  180MPD1    H5 2749   0.362   0.000  15.086  1.6552  1.4843  1.9740
  180MPD1    N1 2750   0.540   0.115  15.510  1.5053 -0.0182 -0.5427
  180MPD1    H6 2751   0.531   0.174  15.593 -0.0356  0.0559 -0.7554
  180MPD1    H7 2752   0.594   0.174  15.448  0.2229 -0.6289 -2.2178
  181MPD1     C 2753   2.982   0.121  10.024  0.8049  0.0967  0.4875
  181MPD1    C1 2754   3.017   0.196   9.913 -0.0193  0.4400 -0.5716
  181MPD1    C2 2755   3.078   0.317   9.934 -0.1920  0.5123  0.1371
  181MPD1    C3 2756   3.097   0.373  10.057  0.7144  0.2386 -0.2463
  181MPD1    C4 2757   3.067   0.296  10.162 -0.5235  0.0856 -1.0545
  181MPD1    C5 2758   3.006   0.174  10.145 -0.3511 -0.0757 -0.3406
  181MPD1     H 2759   3.094   0.380   9.847  1.6574 -0.3405 -0.1450
  181MPD1    H1 2760   3.080   0.333  10.264 -0.1761  0.2697 -1.1651
  181MPD1    H2 2761   2.963   0.016  10.007 -1.6464  0.8973 -1.6004
  181MPD1    H3 2762   2.981   0.111  10.230  0.3151 -0.9853 -0.8147
  181MPD1     N 2763   3.150   0.501  10.084 -0.1694 -0.0775  0.0484
  181MPD1    H5 2764   3.169   0.528  10.180 -2.2207 -0.5963  0.6128
  181MPD1    N1 2765   3.004   0.138   9.785 -0.6285 -0.1742 -0.1379
  181MPD1    H6 2766   2.986   0.206   9.712  0.4302  2.7637  2.3823
  181MPD1    H7 2767   2.927   0.070   9.789  1.7246 -2.9571 -1.8394
  182MPD1     C 2768   3.784   1.798   2.248  0.4797  0.3011 -0.2774
  182MPD1    C1 2769   3.826   1.767   2.121 -0.1685  0.4166  0.1987
  182MPD1    C2 2770   3.735   1.722   2.026 -0.4396 -0.9544 -0.1744
  182MPD1    C3 2771   3.597   1.734   2.051  0.5509 -0.0486 -0.3388
  182MPD1    C4 2772   3.558   1.758   2.181 -0.8895 -0.6505 -0.1076
  182MPD1    C5 2773   3.653   1.791   2.277  0.5932 -0.3869 -0.0709
  182MPD1     H 2774   3.763   1.695   1.925  0.8954  0.4882 -0.1854
  182MPD1    H1 2775   3.452   1.756   2.203 -0.6845  0.0397  0.8976
  182MPD1    H2 2776   3.851   1.824   2.329 -2.8514  1.4783  2.0849
  182MPD1    H3 2777   3.615   1.795   2.378  0.0712  1.2044 -0.3354
  182MPD1     N 2778   3.493   1.714   1.957 -0.1121 -0.6299 -0.0124
  182MPD1    H5 2779   3.399   1.725   1.994 -0.5273  0.0633 -1.2719
  182MPD1    N1 2780   3.962   1.794   2.087  0.0431 -1.4057 -0.2137
  182MPD1    H6 2781   4.019   1.756   2.162  2.2506  3.4374  0.5503
  182MPD1    H7 2782   3.992   1.732   2.012  2.5867  0.6677 -0.8936
  183MPD1     C 2783   0.027   2.331   9.595 -0.4054  0.1891  0.2376
  183MPD1    C1 2784   4.648   2.358   9.676  0.3022 -0.2828  0.3787
  183MPD1    C2 2785   4.575   2.247   9.721 -0.5007  0.6934  0.2196
  183MPD1    C3 2786   4.615   2.117   9.682 -0.4100  0.4855  0.0042
  183MPD1    C4 2787   0.010   2.093   9.612  0.1990  0.2877  0.1540
  183MPD1    C5 2788   0.080   2.204   9.574  0.0670  0.0902 -0.7075
  183MPD1     H 2789   4.473   2.258   9.755 -0.3153  2.5838  0.2024
  183MPD1    H1 2790   0.052   1.994   9.598 -0.7325  0.2785 -2.5080
  183MPD1    H2 2791   0.092   2.406   9.549  2.7841 -2.3439  0.5794
  183MPD1    H3 2792   0.156   2.185   9.499  0.1010 -1.3590 -0.3063
  183MPD1     N 2793   4.545   2.011   9.741  0.4821 -0.4804 -0.7981
  183MPD1    H5 2794   4.482   2.031   9.818  1.1154  2.8731 -1.1737
  183MPD1    N1 2795   4.584   2.487   9.687  0.1197 -0.8356  0.3322
  183MPD1    H6 2796   4.546   2.498   9.780  0.7835 -0.5840  0.5725
  183MPD1    H7 2797   4.654   2.560   9.673  0.8621 -1.6734 -0.3404
  184MPD1     C 2798   1.773   3.806   9.831  0.4415  0.1457 -0.2756
  184MPD1    C1 2799   1.733   3.937   9.886 -0.3483  0.2297 -0.2779
  184MPD1    C2 2800   1.838   4.027   9.902  0.9946  0.4448 -0.1132
  184MPD1    C3 2801   1.967   3.980   9.899  0.0619 -0.0767  0.6834
  184MPD1    C4 2802   2.004   3.857   9.848 -0.5439 -0.0100 -0.2273
  184MPD1    C5 2803   1.901   3.769   9.812 -0.2051 -0.2663 -0.3856
  184MPD1     H 2804   1.814   4.131   9.922 -1.7408 -0.2828  0.4108
  184MPD1    H1 2805   2.108   3.828   9.833  0.2042  2.7823 -0.3524
  184MPD1    H2 2806   1.703   3.733   9.793  1.2938 -2.4148  3.0209
  184MPD1    H3 2807   1.914   3.671   9.767  2.4056 -0.2096  0.2689
  184MPD1     N 2808   2.075   4.065   9.922  0.2711 -0.0867  0.6233
  184MPD1    H5 2809   2.167   4.024   9.912 -1.5890 -3.8327 -1.4066
  184MPD1    N1 2810   1.598   3.981   9.873 -0.0732 -0.0658 -0.2955
  184MPD1    H6 2811   1.575   4.055   9.940 -0.5069  0.2350 -0.7762
  184MPD1    H7 2812   1.523   3.913   9.881 -0.2625  0.3546  1.6519
  185MPD1     C 2813   2.995   4.229   9.617  0.0976 -0.5136 -0.0452
  185MPD1    C1 2814   2.873   4.212   9.548  0.1864  0.1417  0.2526
  185MPD1    C2 2815   2.753   4.217   9.625 -0.3300 -0.2010 -0.2669
  185MPD1    C3 2816   2.752   4.251   9.761  0.4342  0.3697 -0.6452
  185MPD1    C4 2817   2.872   4.268   9.826 -0.6071 -0.4308 -0.0368
  185MPD1    C5 2818   2.983   4.264   9.756 -0.3904  0.0175  0.2985
  185MPD1     H 2819   2.657   4.200   9.579 -1.1424 -1.0326  1.7523
  185MPD1    H1 2820   2.876   4.288   9.933 -1.9462  2.2234 -0.4699
  185MPD1    H2 2821   3.093   4.231   9.571 -0.1099 -1.5897 -0.5192
  185MPD1    H3 2822   3.072   4.283   9.814 -0.0648  1.1899 -0.5819
  185MPD1     N 2823   2.633   4.264   9.842 -0.4290  0.1437  0.2021
  185MPD1    H5 2824   2.646   4.295   9.937  1.1476 -0.3904  0.1740
  185MPD1    N1 2825   2.866   4.162   9.412 -0.7942 -0.8422 -0.8324
  185MPD1    H6 2826   2.935   4.212   9.356  0.5626  0.2401  1.8174
  185MPD1    H7 2827   2.775   4.173   9.368 -1.0603  0.7337  0.1358
  186MPD1     C 2828   0.636   3.766  15.932 -0.2204 -0.1007 -0.1427
  186MPD1    C1 2829   0.762   3.820  15.907 -0.0675  0.4064  0.0557
  186MPD1    C2 2830   0.847   3.851  16.016  0.6854 -0.2692  0.2322
  186MPD1    C3 2831   0.797   3.838  16.147  0.4730  0.8445 -0.5855
  186MPD1    C4 2832   0.665   3.798  16.161 -0.7925 -0.2015  0.3886
  186MPD1    C5 2833   0.588   3.752  16.058 -0.0767 -0.1379 -0.7104
  186MPD1     H 2834   0.946   3.879  15.984 -0.4731 -0.0774 -3.1794
  186MPD1    H1 2835   0.627   3.780  16.261  0.7945  1.6570  1.3314
  186MPD1    H2 2836   0.567   3.736  15.853 -1.0042 -2.7397  1.5418
  186MPD1    H3 2837   0.488   3.714  16.079 -1.2660  3.1764 -0.4817
  186MPD1     N 2838   0.879   3.863  16.262 -0.1114 -0.1697  0.3715
  186MPD1    H5 2839   0.821   3.870  16.346 -1.4611 -3.0330 -0.3263
  186MPD1    N1 2840   0.810   3.825  15.779  0.6034  0.2336  0.4605
  186MPD1    H6 2841   0.734   3.839  15.713  3.4434 -0.0211 -2.8653
  186MPD1    H7 2842   0.892   3.880  15.754 -1.2784  3.4636  1.3703
  187MPD1     C 2843   0.731   0.949   0.560 -0.0407 -0.4099  0.0601
  187MPD1    C1 2844   0.706   0.858   0.461 -0.0939  0.1324 -0.0284
  187MPD1    C2 2845   0.596   0.886   0.375  0.0268 -0.3521 -0.2652
  187MPD1    C3 2846   0.537   1.013   0.378  0.0712  0.3863 -0.0725
  187MPD1    C4 2847   0.571   1.100   0.477  0.2968  0.2804 -0.5844
  187MPD1    C5 2848   0.656   1.060   0.574  0.3292 -0.0143 -0.3505
  187MPD1     H 2849   0.579   0.817   0.293 -0.7788  0.9307 -1.1769
  187MPD1    H1 2850   0.511   1.189   0.490 -0.7803 -0.4446 -0.5505
  187MPD1    H2 2851   0.803   0.933   0.640  1.2338 -4.2235 -1.8445
  187MPD1    H3 2852   0.682   1.122   0.659  0.2298 -1.1023  0.4756
  187MPD1     N 2853   0.440   1.048   0.283  0.1005 -0.0611 -0.7459
  187MPD1    H5 2854   0.406   1.144   0.282 -0.6140 -0.2564  2.3378
  187MPD1    N1 2855   0.764   0.731   0.447 -0.1531 -0.1542  0.2327
  187MPD1    H6 2856   0.859   0.721   0.481 -0.5490 -2.3553  0.6409
  187MPD1    H7 2857   0.706   0.664   0.497  0.2312 -0.2527  0.5450
  188MPD1     C 2858   4.708   0.660  10.958 -0.2522  0.2137 -0.1999
  188MPD1    C1 2859   4.586   0.678  10.889  0.4437  0.0407  0.0333
  188MPD1    C2 2860   4.579   0.637  10.761 -0.4571 -0.0658 -1.0609
  188MPD1    C3 2861   4.681   0.569  10.706  0.4967  0.2218 -0.3270
  188MPD1    C4 2862   0.078   0.539  10.774  0.0928 -0.6983 -0.3887
  188MPD1    C5 2863   0.077   0.573  10.907 -0.7972 -0.1583 -0.3642
  188MPD1     H 2864   4.484   0.639  10.708  0.4628  0.3998 -2.7083
  188MPD1    H1 2865   0.155   0.474  10.734 -0.6777 -0.8376 -1.6507
  188MPD1    H2 2866   0.008   0.687  11.061  1.7932 -0.2746 -0.5009
  188MPD1    H3 2867   0.161   0.539  10.967  0.2154  0.5274 -1.3828
  188MPD1     N 2868   4.676   0.532  10.564 -0.1619 -0.0891  0.0099
  188MPD1    H5 2869   0.029   0.466  10.545  0.7806  1.0334 -0.1750
  188MPD1    N1 2870   4.497   0.773  10.938  0.1333 -0.6329 -0.0126
  188MPD1    H6 2871   4.504   0.757  11.038 -2.8289 -0.4798  0.2333
  188MPD1    H7 2872   4.408   0.740  10.901 -0.2041 -2.6725  2.5708
  189MPD1     C 2873   2.476   1.591   1.442  0.0711  0.1255 -0.2510
  189MPD1    C1 2874   2.363   1.601   1.519 -0.5206  0.4705 -0.3911
  189MPD1    C2 2875   2.251   1.658   1.457 -0.1549  0.2926 -0.7690
  189MPD1    C3 2876   2.257   1.704   1.328  0.0907 -0.1015 -0.9403
  189MPD1    C4 2877   2.373   1.690   1.257  0.1718  0.1278  0.3144
  189MPD1    C5 2878   2.481   1.631   1.312  0.0877 -0.7793 -0.2192
  189MPD1     H 2879   2.162   1.678   1.516  0.0323 -0.3330 -0.2777
  189MPD1    H1 2880   2.372   1.711   1.150  1.8731  1.7928  0.6249
  189MPD1    H2 2881   2.568   1.547   1.479  1.0455  2.4613  0.0673
  189MPD1    H3 2882   2.573   1.629   1.255  0.2614  0.8397 -0.0093
  189MPD1     N 2883   2.144   1.760   1.265  0.2653 -0.7582  0.3574
  189MPD1    H5 2884   2.056   1.753   1.316 -0.7224  1.1138 -1.0615
  189MPD1    N1 2885   2.384   1.582   1.654 -0.3695 -0.1331 -0.0466
  189MPD1    H6 2886   2.293   1.555   1.690 -1.4503  0.5460 -2.3153
  189MPD1    H7 2887   2.455   1.513   1.679 -1.9194 -2.1286 -1.1613
  190MPD1     C 2888   0.953   0.851  15.281  0.8886  0.1768 -0.2823
  190MPD1    C1 2889   1.080   0.797  15.268 -1.1590  0.5688  0.1975
  190MPD1    C2 2890   1.103   0.684  15.352  0.1337 -0.4412  0.1936
  190MPD1    C3 2891   1.019   0.650  15.458 -0.1207 -0.7494  0.1630
  190MPD1    C4 2892   0.892   0.716  15.467  0.0693 -0.1085  0.1283
  190MPD1    C5 2893   0.866   0.821  15.384 -1.0618  0.5131  0.4163
  190MPD1     H 2894   1.191   0.625  15.333  0.8854  0.0165  2.3047
  190MPD1    H1 2895   0.822   0.681  15.542  0.9556 -1.1567  0.4615
  190MPD1    H2 2896   0.915   0.919  15.206 -0.1447  2.1305  2.0045
  190MPD1    H3 2897   0.770   0.871  15.396 -0.0549  2.4459  0.4861
  190MPD1     N 2898   1.056   0.551  15.545 -0.5299 -0.4238  0.1582
  190MPD1    H5 2899   1.155   0.528  15.544 -0.5365 -0.4593  0.3657
  190MPD1    N1 2900   1.158   0.812  15.153  0.2173  0.3920 -0.2627
  190MPD1    H6 2901   1.256   0.792  15.174 -0.5505 -0.7225  2.1754
  190MPD1    H7 2902   1.151   0.908  15.118  1.0111  0.5851  0.0915
  191MPD1     C 2903   0.120   1.073  13.363 -0.4192 -0.2205 -0.6004
  191MPD1    C1 2904   0.189   1.154  13.276 -0.3388  0.1544 -0.3772
  191MPD1    C2 2905   0.132   1.277  13.252  0.0555 -0.3560  0.0604
  191MPD1    C3 2906   0.040   1.344  13.336 -0.3059 -0.8829  0.5211
  191MPD1    C4 2907   4.695   1.262  13.420  0.0825  1.0502  0.0027
  191MPD1    C5 2908   0.008   1.123  13.429  0.2704  0.1418  0.6183
  191MPD1     H 2909   0.186   1.337  13.179 -2.0012  2.9953  1.2668
  191MPD1    H1 2910   4.621   1.297  13.491 -0.4939  0.1723 -0.1630
  191MPD1    H2 2911   0.147   0.972  13.392  1.6710  0.2170 -1.0261
  191MPD1    H3 2912   4.683   1.053  13.497  1.2362 -2.0228 -0.9462
  191MPD1     N 2913   0.024   1.481  13.335  0.0030  0.4973 -0.4501
  191MPD1    H5 2914   0.088   1.536  13.278  0.9399  1.0816  1.1883
  191MPD1    N1 2915   0.284   1.104  13.185  0.1840 -0.1203 -0.7169
  191MPD1    H6 2916   0.361   1.054  13.229 -0.3877  0.0016  0.4061
  191MPD1    H7 2917   0.327   1.176  13.127  0.7630 -0.3772 -0.6055
  192MPD1     C 2918   4.046   2.057  13.799 -0.0983 -0.0876 -0.1717
  192MPD1    C1 2919   4.038   2.087  13.664 -0.7199  1.0492  0.3029
  192MPD1    C2 2920   4.146   2.050  13.583 -0.5335 -0.4594  0.8061
  192MPD1    C3 2921   4.249   1.971  13.637  0.1929  0.4330 -0.1183
  192MPD1    C4 2922   4.249   1.947  13.772 -0.6943 -0.2073 -0.0222
  192MPD1    C5 2923   4.151   1.994  13.852 -0.4862 -0.0293 -0.7400
  192MPD1     H 2924   4.137   2.070  13.477  1.7550 -1.1077  0.4771
  192MPD1    H1 2925   4.329   1.889  13.817 -1.8789 -1.6950  0.1840
  192MPD1    H2 2926   3.961   2.076  13.864  0.1941  0.5107  0.0339
  192MPD1    H3 2927   4.168   1.965  13.955 -0.9589  0.9482 -0.3883
  192MPD1     N 2928   4.348   1.918  13.555 -0.5866  0.1603 -0.4480
  192MPD1    H5 2929   4.408   1.852  13.604 -2.1332  0.6691  2.1250
  192MPD1    N1 2930   3.930   2.160  13.616 -0.6412 -0.2727 -0.2436
  192MPD1    H6 2931   3.919   2.141  13.517 -1.1753 -0.2623 -0.1861
  192MPD1    H7 2932   3.852   2.133  13.676 -0.5107 -2.5477 -1.1228
  193MPD1     C 2933   4.256   2.267  16.960  0.9393  0.4128  0.3267
  193MPD1    C1 2934   4.378   2.252  16.890  0.0109  0.0713 -0.3310
  193MPD1    C2 2935   4.500   2.282  16.952 -0.5330 -0.0561  0.0952
  193MPD1    C3 2936   4.505   2.358  17.070  0.2652 -0.0493  0.0069
  193MPD1    C4 2937   4.390   2.387  17.136  0.4177  0.1288 -0.6447
  193MPD1    C5 2938   4.269   2.335  17.082 -0.2649 -0.1552 -1.1597
  193MPD1     H 2939   4.591   2.248  16.904  0.5097  1.0882  1.2688
  193MPD1    H1 2940   4.386   2.452  17.223  0.3007 -0.4549 -0.2212
  193MPD1    H2 2941   4.162   2.238  16.914  1.4027 -2.8181  1.3873
  193MPD1    H3 2942   4.178   2.358  17.136 -0.5262  1.1421 -2.1546
  193MPD1     N 2943   4.630   2.390  17.126  0.0389  0.6177  0.5317
  193MPD1    H5 2944   4.630   2.457  17.203 -2.2450  0.1816  0.9123
  193MPD1    N1 2945   4.378   2.176  16.775 -0.2420  0.4086  0.0037
  193MPD1    H6 2946   4.456   2.205  16.717  1.0147 -2.0330  0.4914
  193MPD1    H7 2947   4.294   2.177  16.717 -0.1217 -0.8074 -0.1898
  194MPD1     C 2948   2.365   4.529   0.039 -0.3929 -0.1073  0.0385
  194MPD1    C1 2949   2.286   4.433  17.659 -1.1685  0.2630 -0.1948
  194MPD1    C2 2950   2.332   4.353  17.555  0.2906 -0.1512  0.1207
  194MPD1    C3 2951   2.447   4.391  17.490  0.5260 -0.5674  0.2072
  194MPD1    C4 2952   2.517   4.502  17.544  0.1055 -0.1693 -0.1127
  194MPD1    C5 2953   2.482   4.560  17.665  0.5094 -0.1610  0.0568
  194MPD1     H 2954   2.270   4.279  17.506  2.9480 -0.3820 -2.9350
  194MPD1    H1 2955   2.621   4.517  17.518 -0.6422 -0.7962 -3.4861
  194MPD1    H2 2956   2.333   4.584   0.126  2.0439  1.0261  0.1914
  194MPD1    H3 2957   2.546   4.625   0.037  0.5921 -1.3883  1.3142
  194MPD1     N 2958   2.506   4.319  17.379  0.0748  0.0432 -0.3301
  194MPD1    H5 2959   2.590   4.356  17.336 -0.7608 -0.2091 -2.1707
  194MPD1    N1 2960   2.163   4.402   0.035  0.5340  0.4733  0.1918
  194MPD1    H6 2961   2.128   4.457   0.113  0.7158  2.4613 -1.1568
  194MPD1    H7 2962   2.093   4.350  17.670  0.5352  0.0328  0.6258
  195MPD1     C 2963   4.705   0.927   0.142  0.4297  0.7070 -0.0925
  195MPD1    C1 2964   4.712   1.037   0.226  0.7082  0.0772 -0.3963
  195MPD1    C2 2965   0.045   1.019   0.352 -0.4798  0.1145 -0.2834
  195MPD1    C3 2966   0.105   0.895   0.381 -0.0326 -0.5567  0.3049
  195MPD1    C4 2967   0.096   0.790   0.288 -0.0727  0.7447 -0.8342
  195MPD1    C5 2968   0.043   0.810   0.165 -0.4980 -0.5676 -0.1484
  195MPD1     H 2969   0.046   1.100   0.425  0.9958  0.6319 -0.8763
  195MPD1    H1 2970   0.135   0.690   0.306  1.5469  2.0782  2.9016
  195MPD1    H2 2971   4.642   0.949   0.056  1.3415  0.7079 -0.7513
  195MPD1    H3 2972   0.050   0.729   0.093 -1.9832  0.3649 -1.3441
  195MPD1     N 2973   0.168   0.868   0.501 -0.1258  0.4274  0.6424
  195MPD1    H5 2974   0.191   0.769   0.506 -2.5702 -0.0722  1.9702
  195MPD1    N1 2975   4.627   1.147   0.197  0.2645  0.4868  0.7161
  195MPD1    H6 2976   4.621   1.162   0.097 -0.2726  0.3127  0.7177
  195MPD1    H7 2977   4.665   1.235   0.229  0.3994  0.4368  0.6909
  196MPD1     C 2978   3.683   0.714   0.931  0.1119 -0.6073  0.6631
  196MPD1    C1 2979   3.765   0.808   0.878 -0.2856  0.8276  0.7137
  196MPD1    C2 2980   3.810   0.907   0.970 -0.0492  0.7096  0.2062
  196MPD1    C3 2981   3.779   0.896   1.106 -0.0582  0.6690 -0.1868
  196MPD1    C4 2982   3.715   0.791   1.155 -0.0597 -0.1961  0.0199
  196MPD1    C5 2983   3.670   0.697   1.065 -0.3924 -0.4419 -0.4776
  196MPD1     H 2984   3.858   0.994   0.926 -0.8618  0.8470 -0.4140
  196MPD1    H1 2985   3.708   0.769   1.261 -1.5163 -2.5807 -0.5514
  196MPD1    H2 2986   3.640   0.641   0.864  2.6121 -0.5665 -0.9593
  196MPD1    H3 2987   3.617   0.609   1.099 -0.8158 -0.0718 -0.1830
  196MPD1     N 2988   3.826   0.990   1.198 -0.4243  0.6358 -0.6172
  196MPD1    H5 2989   3.805   0.967   1.295  1.6625 -1.1524 -0.5867
  196MPD1    N1 2990   3.764   0.823   0.739 -0.4284  0.3050  0.1549
  196MPD1    H6 2991   3.846   0.867   0.699  0.6733 -2.0491 -0.2059
  196MPD1    H7 2992   3.745   0.732   0.696 -2.2289  1.0746 -0.6887
  197MPD1     C 2993   4.061   2.938   0.329 -0.3233  0.2150 -0.3547
  197MPD1    C1 2994   4.019   3.072   0.312 -0.0246 -0.6577  0.0281
  197MPD1    C2 2995   3.910   3.100   0.238  0.1818  0.2343  0.3209
  197MPD1    C3 2996   3.832   2.993   0.194  0.2320 -0.2161  0.1611
  197MPD1    C4 2997   3.870   2.861   0.210  1.1225  0.3311  0.5534
  197MPD1    C5 2998   3.981   2.841   0.288  0.0258 -0.5143 -0.3367
  197MPD1     H 2999   3.868   3.195   0.205 -2.0307 -0.7426  0.3005
  197MPD1    H1 3000   3.814   2.778   0.169  0.0902  0.9803  0.6403
  197MPD1    H2 3001   4.157   2.907   0.369 -0.1325  1.0552 -0.1541
  197MPD1    H3 3002   4.015   2.742   0.314 -0.8280  0.2372  3.6927
  197MPD1     N 3003   3.720   3.009   0.109  0.7159 -0.6858 -0.4339
  197MPD1    H5 3004   3.669   2.928   0.076  1.1767 -1.1316 -0.0277
  197MPD1    N1 3005   4.114   3.171   0.350 -0.3813  0.3505 -0.0462
  197MPD1    H6 3006   4.169   3.143   0.431 -0.4978 -0.4071 -0.2274
  197MPD1    H7 3007   4.074   3.264   0.362 -1.7268 -0.1662 -0.5456
  198MPD1     C 3008   0.216   2.026  16.449  0.1945  0.1710  0.1243
  198MPD1    C1 3009   0.181   1.908  16.514  0.4328  0.4258 -0.2770
  198MPD1    C2 3010   0.223   1.789  16.456 -1.0244  0.9082  0.0881
  198MPD1    C3 3011   0.308   1.790  16.339 -0.0730 -0.1910  0.7173
  198MPD1    C4 3012   0.352   1.914  16.293 -0.0241  1.0066 -0.0617
  198MPD1    C5 3013   0.304   2.028  16.347 -0.0626 -0.3474  0.8988
  198MPD1     H 3014   0.199   1.692  16.496 -1.4726  1.1041  0.2890
  198MPD1    H1 3015   0.425   1.926  16.215  1.2255 -1.8607  0.6916
  198MPD1    H2 3016   0.183   2.122  16.486 -1.0458  0.7902 -2.6169
  198MPD1    H3 3017   0.336   2.125  16.311 -2.4530 -0.4274 -1.4618
  198MPD1     N 3018   0.367   1.663  16.307  0.2818 -0.1790  0.1459
  198MPD1    H5 3019   0.343   1.588  16.371  1.7932 -1.4573 -0.8056
  198MPD1    N1 3020   0.078   1.905  16.605 -0.3479  0.6850 -0.3705
  198MPD1    H6 3021   0.075   1.990  16.660 -0.4255  0.1123  0.4962
  198MPD1    H7 3022   0.076   1.831  16.675  0.1255  1.4949  0.4933
  199MPD1     C 3023   1.895   1.085  10.224 -0.0047 -0.2861 -0.3072
  199MPD1    C1 3024   2.013   1.079  10.151  0.4286  0.0810  0.5666
  199MPD1    C2 3025   2.091   1.193  10.145  0.2600  0.1790  0.0628
  199MPD1    C3 3026   2.036   1.317  10.182 -0.8708 -0.0395 -0.0796
  199MPD1    C4 3027   1.907   1.322  10.235 -0.6525  0.0370 -0.4142
  199MPD1    C5 3028   1.845   1.203  10.267  0.3406 -0.0493  0.6541
  199MPD1     H 3029   2.194   1.192  10.113  0.8453 -0.9607  1.9704
  199MPD1    H1 3030   1.862   1.418  10.258  3.9950  1.8528  1.0936
  199MPD1    H2 3031   1.842   0.992  10.245 -1.9833  0.6612 -1.1181
  199MPD1    H3 3032   1.755   1.207  10.329  0.5452  1.7214  0.8156
  199MPD1     N 3033   2.099   1.441  10.182 -0.4489  0.0296  0.8064
  199MPD1    H5 3034   2.036   1.516  10.208  0.8236  1.0448  0.9336
  199MPD1    N1 3035   2.056   0.951  10.105  0.5941 -0.0470  0.0958
  199MPD1    H6 3036   2.102   0.962  10.015  1.4001  1.6910  0.7178
  199MPD1    H7 3037   1.982   0.881  10.104  0.6030 -0.0831  1.2711
  200MPD1     C 3038   1.565   2.661  14.694 -0.0411  0.1969  0.1461
  200MPD1    C1 3039   1.658   2.730  14.623  0.1655  0.6385 -0.7111
  200MPD1    C2 3040   1.743   2.653  14.543 -0.5756 -0.6378 -0.1556
  200MPD1    C3 3041   1.736   2.514  14.528  0.1715  0.7532 -0.6785
  200MPD1    C4 3042   1.640   2.448  14.608 -0.0711 -0.0775  0.0926
  200MPD1    C5 3043   1.559   2.525  14.692  0.2068 -0.2124 -0.5866
  200MPD1     H 3044   1.810   2.709  14.478 -0.5871  0.0420  0.4093
  200MPD1    H1 3045   1.631   2.340  14.607 -0.1152 -0.0753  0.5645
  200MPD1    H2 3046   1.496   2.718  14.756 -1.2207 -0.4261 -0.6167
  200MPD1    H3 3047   1.476   2.479  14.746 -0.8161  0.7915 -1.3196
  200MPD1     N 3048   1.827   2.459  14.437 -0.0734  0.2021  0.6794
  200MPD1    H5 3049   1.882   2.531  14.391 -1.3626  0.8965  0.2103
  200MPD1    N1 3050   1.652   2.870  14.618 -0.4621  0.3846 -0.0974
  200MPD1    H6 3051   1.636   2.922  14.704  1.4772 -0.8228  1.0072
  200MPD1    H7 3052   1.730   2.918  14.573  0.9128 -0.5321  1.2798
  201MPD1     C 3053   3.591   0.826  14.681  0.8147  0.3883  0.3532
  201MPD1    C1 3054   3.716   0.877  14.666 -0.0915  0.7826 -0.2843
  201MPD1    C2 3055   3.807   0.810  14.593 -0.9428  0.7901  0.4313
  201MPD1    C3 3056   3.771   0.680  14.548 -1.0186  0.2597  0.5371
  201MPD1    C4 3057   3.641   0.631  14.571 -0.1530 -0.0134 -0.3281
  201MPD1    C5 3058   3.556   0.710  14.637  0.3151 -0.6826 -0.0727
  201MPD1     H 3059   3.894   0.861  14.553 -0.4972 -1.6240 -1.6730
  201MPD1    H1 3060   3.615   0.533  14.532 -0.8557 -0.0732  0.3033
  201MPD1    H2 3061   3.515   0.886  14.729  1.5701  1.9549 -0.3956
  201MPD1    H3 3062   3.452   0.683  14.656  0.6372 -0.5153  1.9437
  201MPD1     N 3063   3.872   0.622  14.464  0.4506  0.0430 -0.1483
  201MPD1    H5 3064   3.966   0.661  14.466  1.2768 -1.8724 -1.5000
  201MPD1    N1 3065   3.748   1.014  14.685  0.7039 -0.2196  0.2155
  201MPD1    H6 3066   3.843   1.047  14.701  0.2736  0.3914  1.5250
  201MPD1    H7 3067   3.688   1.062  14.752  0.2392  0.8394 -0.9408
  202MPD1     C 3068   4.070   1.056  11.159 -0.0473  0.5956  0.0968
  202MPD1    C1 3069   4.086   1.133  11.042 -0.2227 -0.0980 -0.6552
  202MPD1    C2 3070   4.103   1.051  10.934 -0.4739  0.7741 -0.4285
  202MPD1    C3 3071   4.131   0.917  10.929  0.3189  0.0928  1.3915
  202MPD1    C4 3072   4.135   0.849  11.046  0.5178  0.0480 -0.1260
  202MPD1    C5 3073   4.100   0.920  11.160 -0.6450  0.1884 -0.4675
  202MPD1     H 3074   4.084   1.102  10.840 -4.3223  0.2847  0.0919
  202MPD1    H1 3075   4.142   0.741  11.053  0.3298  0.1217  1.0992
  202MPD1    H2 3076   4.037   1.093  11.255 -0.4987  3.2398 -1.0755
  202MPD1    H3 3077   4.083   0.861  11.249  0.3848  1.7742  0.7679
  202MPD1     N 3078   4.148   0.843  10.808  0.1157 -0.2435  0.1012
  202MPD1    H5 3079   4.148   0.742  10.819 -0.7475 -0.5054 -2.2352
  202MPD1    N1 3080   4.003   1.243  11.034 -0.0354 -0.0332  0.5320
  202MPD1    H6 3081   3.996   1.299  11.118  0.0504  0.6303  0.0951
  202MPD1    H7 3082   4.034   1.303  10.957  0.7634 -2.6271 -1.1785
  203MPD1     C 3083   3.173   2.244  12.778 -0.1444  0.9231 -0.0256
  203MPD1    C1 3084   3.138   2.149  12.676  0.0413 -0.3892  0.1441
  203MPD1    C2 3085   3.153   2.014  12.704 -0.2439 -0.0341 -0.7140
  203MPD1    C3 3086   3.191   1.972  12.826  0.4046  0.6231 -0.4351
  203MPD1    C4 3087   3.240   2.063  12.920  0.7910 -0.5377 -0.1901
  203MPD1    C5 3088   3.233   2.201  12.894  0.0652  0.0220  0.0397
  203MPD1     H 3089   3.101   1.944  12.640  1.7925 -2.5996  0.4711
  203MPD1    H1 3090   3.277   2.037  13.019  0.0506  0.2453  0.2982
  203MPD1    H2 3091   3.159   2.351  12.767 -0.5487  0.9954  1.2631
  203MPD1    H3 3092   3.267   2.267  12.973  0.1199 -0.0503  0.0763
  203MPD1     N 3093   3.186   1.836  12.853  0.1990  0.5819  0.4075
  203MPD1    H5 3094   3.153   1.770  12.784  0.4905  1.4103 -0.5196
  203MPD1    N1 3095   3.077   2.193  12.556 -0.4384 -0.8098  0.2411
  203MPD1    H6 3096   3.094   2.124  12.483  0.8359  0.7363 -0.9010
  203MPD1    H7 3097   3.117   2.278  12.518 -0.5234 -0.9490 -0.1606
  204MPD1     C 3098   1.299   2.840   0.340  0.1849 -0.4038 -0.2366
  204MPD1    C1 3099   1.322   2.833   0.211  0.7329 -0.2065  0.4247
  204MPD1    C2 3100   1.414   2.743   0.158  0.1128  0.3890  0.2443
  204MPD1    C3 3101   1.473   2.650   0.242 -0.0163 -0.3401 -0.2470
  204MPD1    C4 3102   1.455   2.657   0.381  0.3210  0.6877 -0.3643
  204MPD1    C5 3103   1.361   2.748   0.429  0.1721  0.3871  0.2531
  204MPD1     H 3104   1.444   2.733   0.054  0.6320 -2.7373  0.7105
  204MPD1    H1 3105   1.504   2.594   0.454 -0.5563 -1.2506 -1.4529
  204MPD1    H2 3106   1.237   2.918   0.382  0.4780  0.3203 -1.1452
  204MPD1    H3 3107   1.355   2.754   0.537  0.9782  0.9011  0.2718
  204MPD1     N 3108   1.568   2.561   0.192  1.1568  0.9279  0.0656
  204MPD1    H5 3109   1.600   2.565   0.095  2.8077  0.4996  0.6014
  204MPD1    N1 3110   1.273   2.940   0.130  0.2639  0.2244  0.0424
  204MPD1    H6 3111   1.246   2.918   0.034 -2.6178  2.9473  0.2547
  204MPD1    H7 3112   1.196   2.982   0.181 -1.5493  0.2278 -2.7104
  205MPD1     C 3113   2.695   1.638  17.208  0.0498  0.5674  0.4812
  205MPD1    C1 3114   2.723   1.515  17.261 -0.4412 -0.7328 -0.0100
  205MPD1    C2 3115   2.678   1.488  17.392  0.3857 -0.6771  0.2297
  205MPD1    C3 3116   2.592   1.577  17.452  0.6519 -0.1945 -0.6791
  205MPD1    C4 3117   2.566   1.697  17.395 -0.4311  0.1754  0.2801
  205MPD1    C5 3118   2.618   1.729  17.274  0.2882  0.0932 -1.0976
  205MPD1     H 3119   2.709   1.396  17.440 -2.0524 -2.2570 -1.1973
  205MPD1    H1 3120   2.505   1.775  17.440  0.6417  2.4763 -2.2428
  205MPD1    H2 3121   2.737   1.668  17.112  1.4613 -1.4351  0.4789
  205MPD1    H3 3122   2.595   1.824  17.228 -0.4643  1.2913  1.8015
  205MPD1     N 3123   2.528   1.555  17.580  0.2775  0.1826  0.0352
  205MPD1    H5 3124   2.463   1.628  17.605 -2.2751 -2.1171  0.1294
  205MPD1    N1 3125   2.782   1.420  17.180  0.5196 -0.6500  0.0131
  205MPD1    H6 3126   2.837   1.470  17.111 -0.0165 -3.1386 -2.2072
  205MPD1    H7 3127   2.834   1.361  17.243  2.4380 -0.0533 -1.0243
  206MPD1     C 3128   2.470   4.553  17.190  0.6400  0.0388 -0.0525
  206MPD1    C1 3129   2.568   4.488  17.110 -0.0751 -0.2533 -0.1329
  206MPD1    C2 3130   2.522   4.436  16.988 -0.3431 -0.2163 -0.6024
  206MPD1    C3 3131   2.391   4.442  16.948  0.2565  0.3604  0.6442
  206MPD1    C4 3132   2.306   4.522  17.016  0.1834 -0.1349 -0.6392
  206MPD1    C5 3133   2.343   4.568  17.142  1.2962  0.4454  0.9385
  206MPD1     H 3134   2.595   4.380  16.930  1.3246  1.9901 -0.6254
  206MPD1    H1 3135   2.204   4.540  16.983 -0.8164 -0.1533  2.4308
  206MPD1    H2 3136   2.487   4.577  17.294 -1.0802 -1.3278  0.5543
  206MPD1    H3 3137   2.270   4.621  17.201  1.9491 -0.4154  2.5236
  206MPD1     N 3138   2.344   4.390  16.824 -0.2667 -0.1789 -0.1262
  206MPD1    H5 3139   2.268   4.438  16.776 -0.1354 -0.1734 -0.3285
  206MPD1    N1 3140   2.703   4.462  17.148  0.2702  0.5705 -0.4161
  206MPD1    H6 3141   2.763   4.419  17.078  2.1881  1.0015  0.9488
  206MPD1    H7 3142   2.752   4.536  17.197  1.9664 -0.3982 -0.6509
  207MPD1     C 3143   4.703   2.980   9.270  0.4098 -0.4634 -0.2149
  207MPD1    C1 3144   4.644   2.881   9.339 -0.4795 -0.1895 -0.0033
  207MPD1    C2 3145   4.709   2.829   9.443 -0.1257 -0.1028  0.2788
  207MPD1    C3 3146   0.096   2.899   9.500 -0.5309  0.5884  0.3392
  207MPD1    C4 3147   0.137   3.010   9.439 -0.3698 -0.5350  0.2908
  207MPD1    C5 3148   0.089   3.048   9.321  0.2904  0.6551  0.3494
  207MPD1     H 3149   4.665   2.742   9.491 -3.1978  0.4605 -1.5063
  207MPD1    H1 3150   0.215   3.068   9.488  0.6711 -1.7498  0.0655
  207MPD1    H2 3151   4.665   3.007   9.172  1.6361  0.2849 -0.4852
  207MPD1    H3 3152   0.127   3.132   9.265  0.8062 -1.2021 -2.1162
  207MPD1     N 3153   0.166   2.859   9.617 -0.0337  0.2351  0.1356
  207MPD1    H5 3154   0.242   2.918   9.651 -0.1571 -0.3256  1.3853
  207MPD1    N1 3155   4.538   2.811   9.284  0.4574 -0.2801  0.7007
  207MPD1    H6 3156   4.487   2.873   9.221 -1.0095 -1.5539  0.6642
  207MPD1    H7 3157   4.470   2.768   9.347  1.0905 -1.0102  0.8869
  208MPD1     C 3158   3.585   1.438   0.427  0.2186  0.2368 -0.3774
  208MPD1    C1 3159   3.633   1.365   0.534  0.1885 -0.7096 -0.2446
  208MPD1    C2 3160   3.553   1.267   0.591  0.4651 -0.1183  0.4172
  208MPD1    C3 3161   3.422   1.253   0.557 -0.6805  0.3966 -0.4479
  208MPD1    C4 3162   3.367   1.336   0.462 -0.6616  0.1473  0.4514
  208MPD1    C5 3163   3.452   1.417   0.386 -0.8829  0.0309  0.9881
  208MPD1     H 3164   3.589   1.189   0.658 -1.1750 -1.2902 -0.0511
  208MPD1    H1 3165   3.264   1.329   0.429 -0.5242 -0.0465  0.0610
  208MPD1    H2 3166   3.647   1.510   0.375  1.0405 -0.3003 -0.1292
  208MPD1    H3 3167   3.419   1.480   0.303 -1.9188 -2.1868 -0.2875
  208MPD1     N 3168   3.337   1.174   0.645 -0.4902 -0.2727  1.0407
  208MPD1    H5 3169   3.380   1.114   0.715 -0.2964  1.1986  2.1744
  208MPD1    N1 3170   3.776   1.373   0.562  0.2772 -0.0850 -0.7745
  208MPD1    H6 3171   3.831   1.456   0.538  0.6583  0.0292  0.4684
  208MPD1    H7 3172   3.802   1.343   0.656  0.0486 -0.6332 -0.8873
  209MPD1     C 3173   0.267   1.342  11.059 -0.1641  0.7043 -0.5450
  209MPD1    C1 3174   0.367   1.428  11.104 -1.0217 -0.4574  0.2577
  209MPD1    C2 3175   0.401   1.535  11.024 -0.0937 -0.0557 -0.3262
  209MPD1    C3 3176   0.341   1.557  10.897 -0.2519 -0.1639  0.9854
  209MPD1    C4 3177   0.239   1.476  10.856  0.0276 -0.0911  0.5448
  209MPD1    C5 3178   0.210   1.371  10.941 -0.8578  0.1301 -0.2816
  209MPD1     H 3179   0.485   1.597  11.054 -1.8790  1.3253  1.8006
  209MPD1    H1 3180   0.188   1.475  10.761  0.7682  1.1013  0.1390
  209MPD1    H2 3181   0.221   1.253  11.101  1.3162 -0.7686 -2.0556
  209MPD1    H3 3182   0.121   1.312  10.920 -0.2480 -0.9594  0.2069
  209MPD1     N 3183   0.396   1.659  10.822 -0.5417 -0.5090  0.1596
  209MPD1    H5 3184   0.470   1.716  10.864 -0.6109  0.7946 -1.5118
  209MPD1    N1 3185   0.444   1.389  11.212 -0.2563 -0.1351  0.8984
  209MPD1    H6 3186   0.392   1.339  11.284 -0.5603 -2.4158 -0.9274
  209MPD1    H7 3187   0.490   1.471  11.252  1.9565 -0.9388  0.0175
  210MPD1     C 3188   1.272   1.863  10.478 -0.0742  0.5312 -0.4269
  210MPD1    C1 3189   1.202   1.779  10.560 -0.3687 -0.1090 -0.7029
  210MPD1    C2 3190   1.067   1.802  10.561  0.2369 -0.3883 -0.4098
  210MPD1    C3 3191   1.014   1.924  10.523  0.1360  0.4088 -0.0972
  210MPD1    C4 3192   1.090   2.008  10.456 -0.7065 -0.2943 -0.4569
  210MPD1    C5 3193   1.218   1.976  10.423 -0.3353 -0.0882 -0.5666
  210MPD1     H 3194   1.004   1.723  10.599  0.1100 -0.8499 -1.5734
  210MPD1    H1 3195   1.053   2.106  10.426 -0.0971  0.8148  2.4667
  210MPD1    H2 3196   1.373   1.835  10.451 -0.3281 -0.0503 -0.7890
  210MPD1    H3 3197   1.276   2.052  10.372 -0.0670  0.5387  0.6515
  210MPD1     N 3198   0.876   1.952  10.543  0.7167  0.7487  0.5274
  210MPD1    H5 3199   0.831   2.018  10.482 -1.9086 -1.7648 -0.2417
  210MPD1    N1 3200   1.249   1.644  10.593 -0.2139 -0.6109 -0.3501
  210MPD1    H6 3201   1.180   1.603  10.654  0.1967  0.7414  1.0234
  210MPD1    H7 3202   1.348   1.618  10.595 -0.4818 -1.8039 -2.9470
  211MPD1     C 3203   2.865   0.828  17.215 -1.0315  0.5628  0.2684
  211MPD1    C1 3204   2.889   0.949  17.157  0.1557 -0.2055 -0.0094
  211MPD1    C2 3205   2.794   1.046  17.162  0.6941 -0.0905  0.2374
  211MPD1    C3 3206   2.681   1.042  17.239 -0.1754  0.1199  0.3452
  211MPD1    C4 3207   2.676   0.926  17.318 -0.7774  0.3155 -0.0482
  211MPD1    C5 3208   2.761   0.818  17.303  0.6121  0.9507 -0.1984
  211MPD1     H 3209   2.805   1.135  17.101  0.7096  0.1749  0.6239
  211MPD1    H1 3210   2.596   0.909  17.389  1.3515 -0.7117  2.1145
  211MPD1    H2 3211   2.922   0.737  17.199 -0.7237  0.4876  1.7414
  211MPD1    H3 3212   2.742   0.720  17.344  2.3301  1.2594  1.3305
  211MPD1     N 3213   2.594   1.151  17.251 -0.3653 -0.2188 -0.2589
  211MPD1    H5 3214   2.620   1.227  17.189  0.3948 -1.3626 -1.3216
  211MPD1    N1 3215   3.000   0.972  17.073 -0.5053 -0.1656  0.2094
  211MPD1    H6 3216   3.081   0.919  17.104  0.6657  0.7618 -1.2930
  211MPD1    H7 3217   3.028   1.070  17.063  0.0597 -0.5528 -1.8493
  212MPD1     C 3218   1.966   4.581  16.663  0.5136 -0.2737  0.5844
  212MPD1    C1 3219   1.961   4.628  16.795  0.3306  0.4418  0.2095
  212MPD1    C2 3220   1.889   4.564  16.898 -0.1650 -0.0213 -0.0949
  212MPD1    C3 3221   1.835   4.434  16.869 -0.0907 -0.0411  0.9126
  212MPD1    C4 3222   1.860   4.381  16.743 -0.0965  0.4509  0.2689
  212MPD1    C5 3223   1.918   4.454  16.637 -0.6544  0.3934 -0.5960
  212MPD1     H 3224   1.879   4.616  16.993 -2.5066 -1.7531  0.5950
  212MPD1    H1 3225   1.812   4.287  16.723  0.0752  0.5034 -0.4153
  212MPD1    H2 3226   2.001   4.636  16.576  1.5894  0.1607  1.2947
  212MPD1    H3 3227   1.904   4.414  16.537 -1.4371 -2.9369  0.8333
  212MPD1     N 3228   1.761   4.357  16.957  0.5828 -0.4163  0.0279
  212MPD1    H5 3229   1.741   4.264  16.923 -1.5507  0.5764 -1.4286
  212MPD1    N1 3230   2.011   0.036  16.812  0.1650 -0.2748 -0.0225
  212MPD1    H6 3231   1.950   0.102  16.764 -0.7666 -1.0176  0.1579
  212MPD1    H7 3232   1.991   0.058  16.909 -0.7712 -1.3656  0.0275
  213MPD1     C 3233   0.368   1.177  16.189 -0.9814  0.1476  0.5906
  213MPD1    C1 3234   0.230   1.195  16.159 -0.4191  0.2610  0.2117
  213MPD1    C2 3235   0.189   1.124  16.052  0.1534 -0.5303 -0.3183
  213MPD1    C3 3236   0.274   1.070  15.956 -0.4764  0.7765 -0.0621
  213MPD1    C4 3237   0.410   1.078  15.971 -0.0772  0.4374  0.4656
  213MPD1    C5 3238   0.453   1.115  16.093 -0.5993  0.7936 -0.1077
  213MPD1     H 3239   0.082   1.131  16.035  0.3552 -0.8398 -1.6556
  213MPD1    H1 3240   0.481   1.036  15.901 -0.8668 -1.1175  0.5868
  213MPD1    H2 3241   0.406   1.197  16.288 -1.4827 -2.0476  1.2326
  213MPD1    H3 3242   0.560   1.103  16.108 -0.1370  2.8549 -1.8034
  213MPD1     N 3243   0.206   1.008  15.854 -0.3825 -0.0502  0.4241
  213MPD1    H5 3244   0.105   1.009  15.858 -0.4654 -0.3362 -1.8052
  213MPD1    N1 3245   0.154   1.225  16.277 -0.3594  0.2509  0.5400
  213MPD1    H6 3246   0.203   1.299  16.328  2.2382 -1.6529  0.8068
  213MPD1    H7 3247   0.066   1.270  16.252 -0.9992  0.5902  3.3862
  214MPD1     C 3248   4.434   0.137  15.630 -0.8801  0.1394 -0.0728
  214MPD1    C1 3249   4.442   0.217  15.743 -0.5251 -0.2470  0.3586
  214MPD1    C2 3250   4.504   0.341  15.732  0.6218  0.0120 -0.9603
  214MPD1    C3 3251   4.556   0.384  15.606 -0.4739 -0.2606  0.9187
  214MPD1    C4 3252   4.557   0.292  15.500  0.0683  0.2688  0.0398
  214MPD1    C5 3253   4.482   0.179  15.510 -0.6666  0.6284  0.0558
  214MPD1     H 3254   4.509   0.402  15.822 -0.2088  0.1513 -1.0074
  214MPD1    H1 3255   4.609   0.320  15.408 -1.0439  0.2889 -0.5830
  214MPD1    H2 3256   4.396   0.035  15.632  0.8200 -0.5190 -0.7564
  214MPD1    H3 3257   4.476   0.108  15.428 -0.5678  0.2004  0.4194
  214MPD1     N 3258   4.625   0.510  15.597 -0.5636 -0.4216  0.5859
  214MPD1    H5 3259   4.662   0.541  15.508  0.1487 -1.9000  0.3708
  214MPD1    N1 3260   4.422   0.145  15.859  0.5939 -0.6324  0.1303
  214MPD1    H6 3261   4.402   0.192  15.948  1.2082  0.5569 -0.3506
  214MPD1    H7 3262   4.354   0.073  15.839 -0.6559  0.3412  0.8168
  215MPD1     C 3263   4.456   1.046  11.175  0.0372  0.1721  0.4861
  215MPD1    C1 3264   4.534   1.061  11.286  0.6910 -0.0715 -0.6301
  215MPD1    C2 3265   4.591   1.186  11.320  0.6769  0.4989 -0.6169
  215MPD1    C3 3266   4.578   1.297  11.234  0.4915  0.2341 -0.4869
  215MPD1    C4 3267   4.494   1.282  11.127  1.1707 -0.1180  0.0620
  215MPD1    C5 3268   4.429   1.163  11.099 -0.4903  0.3983  0.4311
  215MPD1     H 3269   4.640   1.213  11.413 -0.2310 -1.3135  0.4042
  215MPD1    H1 3270   4.471   1.360  11.056 -0.5876 -0.6309  0.0697
  215MPD1    H2 3271   4.404   0.952  11.160  1.8005 -0.4032 -2.0806
  215MPD1    H3 3272   4.359   1.171  11.016  0.9853  1.0308 -0.7573
  215MPD1     N 3273   4.644   1.418  11.268 -0.8717 -0.5518  0.0853
  215MPD1    H5 3274   4.704   1.422  11.350 -0.5515 -1.3385 -0.1073
  215MPD1    N1 3275   4.533   0.955  11.384 -0.1744  0.2320 -0.1608
  215MPD1    H6 3276   4.522   0.869  11.331  1.5689  0.2492 -0.5576
  215MPD1    H7 3277   4.619   0.956  11.439 -0.5578  1.4076  0.4343
  216MPD1     C 3278   2.035   4.150  16.930  0.4451  0.3007 -0.0843
  216MPD1    C1 3279   2.021   4.039  16.850  0.1631  0.0031  0.3137
  216MPD1    C2 3280   2.035   3.908  16.902  0.1247 -0.0366 -0.0663
  216MPD1    C3 3281   2.054   3.894  17.037 -0.0865 -0.7398  0.0520
  216MPD1    C4 3282   2.069   4.006  17.119 -0.0305 -0.2937  0.6690
  216MPD1    C5 3283   2.052   4.131  17.064  0.4599 -0.3023  0.3794
  216MPD1     H 3284   2.025   3.821  16.839 -2.2807  0.2965 -0.1433
  216MPD1    H1 3285   2.093   4.001  17.224  0.8090 -1.9372  0.3880
  216MPD1    H2 3286   2.015   4.251  16.894  0.8866  0.5501  0.3614
  216MPD1    H3 3287   2.053   4.227  17.115  1.2106 -0.4991  0.7377
  216MPD1     N 3288   2.064   3.758  17.081 -0.2795  0.0045  0.1362
  216MPD1    H5 3289   2.035   3.688  17.013 -1.3802 -0.5220  1.1326
  216MPD1    N1 3290   2.018   4.062  16.715  0.1079  0.2854  0.0503
  216MPD1    H6 3291   1.998   4.155  16.679  1.1083 -0.1992 -1.7922
  216MPD1    H7 3292   1.958   3.990  16.673  1.1838 -1.1266  0.9320
  217MPD1     C 3293   3.515   1.981   9.365 -0.3287  0.4224  0.3744
  217MPD1    C1 3294   3.376   1.964   9.364  0.8183  0.4892  0.0223
  217MPD1    C2 3295   3.311   1.847   9.381 -0.7084 -0.4403  0.6624
  217MPD1    C3 3296   3.390   1.736   9.424  0.6183  0.2915 -0.3885
  217MPD1    C4 3297   3.528   1.752   9.441  0.2683 -0.5116 -0.5306
  217MPD1    C5 3298   3.587   1.869   9.406 -0.2793  0.3081 -0.3033
  217MPD1     H 3299   3.203   1.848   9.379 -0.6508  1.2198 -1.1383
  217MPD1    H1 3300   3.585   1.675   9.491  0.3894  1.1342  1.8534
  217MPD1    H2 3301   3.567   2.075   9.349 -0.3828 -0.0130 -2.3413
  217MPD1    H3 3302   3.694   1.886   9.409 -0.3524  0.6918  0.1405
  217MPD1     N 3303   3.342   1.606   9.439 -0.5217 -0.2744  0.1457
  217MPD1    H5 3304   3.404   1.533   9.475 -0.6281  0.1251  1.1527
  217MPD1    N1 3305   3.289   2.067   9.326 -0.2720  0.2958 -0.2898
  217MPD1    H6 3306   3.329   2.160   9.331 -2.5782  1.2245  1.0519
  217MPD1    H7 3307   3.201   2.067   9.377  0.8336 -0.1985  1.6158
  218MPD1     C 3308   4.223   1.678  13.051  0.1369  0.0170 -0.7659
  218MPD1    C1 3309   4.279   1.768  12.967 -0.3503 -0.3945 -0.4344
  218MPD1    C2 3310   4.393   1.729  12.902 -0.5198  0.5649  1.0065
  218MPD1    C3 3311   4.455   1.609  12.934 -0.2516 -0.2214 -0.9498
  218MPD1    C4 3312   4.403   1.519  13.032 -0.7276 -0.4248 -0.1049
  218MPD1    C5 3313   4.283   1.559  13.084 -0.2949  0.5203 -0.6870
  218MPD1     H 3314   4.433   1.793  12.824  2.1190 -1.5634  0.6271
  218MPD1    H1 3315   4.443   1.423  13.062 -0.1811  0.0449  0.6808
  218MPD1    H2 3316   4.126   1.703  13.092  0.4856  1.4554 -0.8449
  218MPD1    H3 3317   4.229   1.492  13.149  1.8324  0.7849  1.3408
  218MPD1     N 3318   4.575   1.577  12.856  0.3919  0.3371  0.7202
  218MPD1    H5 3319   4.605   1.639  12.782  0.3948  0.4357  0.8046
  218MPD1    N1 3320   4.213   1.884  12.922 -0.3932  0.1712  0.6669
  218MPD1    H6 3321   4.278   1.955  12.890 -0.3574 -0.2460 -0.1824
  218MPD1    H7 3322   4.173   1.928  13.004  1.3228  0.1257  1.5403
  219MPD1     C 3323   0.564   1.946  12.281 -0.2667  0.0694 -0.2747
  219MPD1    C1 3324   0.424   1.958  12.299  0.0998  0.7711 -0.6121
  219MPD1    C2 3325   0.370   1.889  12.408 -0.0530 -0.5233 -0.3334
  219MPD1    C3 3326   0.442   1.797  12.484 -1.3438 -0.1675 -0.6073
  219MPD1    C4 3327   0.578   1.793  12.470 -0.1594 -0.5157 -0.5537
  219MPD1    C5 3328   0.632   1.869  12.375  0.6294 -0.0319 -0.2892
  219MPD1     H 3329   0.267   1.911  12.434  0.1306 -1.2265  0.9812
  219MPD1    H1 3330   0.645   1.738  12.535  0.7639 -0.1679 -1.2077
  219MPD1    H2 3331   0.624   2.003  12.211  0.8815  0.7927  1.2998
  219MPD1    H3 3332   0.740   1.868  12.378  0.6254  2.7810  1.2113
  219MPD1     N 3333   0.382   1.722  12.587  0.1604 -0.7829  0.8137
  219MPD1    H5 3334   0.441   1.650  12.627  1.6084  1.1201  2.0882
  219MPD1    N1 3335   0.348   2.061  12.235 -0.1200  0.0426  0.1832
  219MPD1    H6 3336   0.389   2.079  12.144  1.7538  3.5370  1.7296
  219MPD1    H7 3337   0.247   2.044  12.236 -0.1301  0.0974  0.1013
  220MPD1     C 3338   4.427   2.621   9.981  0.2493  0.7768 -0.2696
  220MPD1    C1 3339   4.555   2.604  10.024 -0.4208 -0.4233  0.1316
  220MPD1    C2 3340   4.605   2.473  10.038  0.1590  0.6482 -0.1006
  220MPD1    C3 3341   4.521   2.363  10.040  0.5275  0.0164  0.2846
  220MPD1    C4 3342   4.389   2.387  10.005  1.1494 -0.2047  0.2160
  220MPD1    C5 3343   4.340   2.510   9.978  0.3333 -0.1124 -0.0530
  220MPD1     H 3344   4.708   2.445  10.057  0.8851  1.8326 -2.3024
  220MPD1    H1 3345   4.316   2.307  10.012 -0.1289  0.9501 -0.0793
  220MPD1    H2 3346   4.394   2.720   9.953 -0.1702  1.2147  1.8173
  220MPD1    H3 3347   4.235   2.527   9.961  0.2582  0.5196  1.0495
  220MPD1     N 3348   4.570   2.239  10.078  0.4291 -0.0544 -0.2602
  220MPD1    H5 3349   4.656   2.239  10.132 -1.3157 -0.6785  2.5190
  220MPD1    N1 3350   4.646   2.705  10.019 -0.1662  0.6396  0.2662
  220MPD1    H6 3351   0.007   2.687  10.077 -1.3139 -2.0233  1.0254
  220MPD1    H7 3352   4.598   2.791  10.044 -2.7730 -1.0572  1.0356
  221MPD1     C 3353   1.883   0.777  17.084 -0.1807  0.7809 -0.0220
  221MPD1    C1 3354   1.856   0.665  17.004  0.0498  0.3344 -0.4200
  221MPD1    C2 3355   1.962   0.594  16.946 -0.1874 -0.0746  0.3929
  221MPD1    C3 3356   2.092   0.645  16.969 -0.0747  0.6376 -0.2351
  221MPD1    C4 3357   2.112   0.758  17.041  0.3745 -0.5885  0.7380
  221MPD1    C5 3358   2.010   0.819  17.099 -0.0125  0.3596  0.0614
  221MPD1     H 3359   1.939   0.495  16.907 -0.7529 -0.4725  1.7089
  221MPD1    H1 3360   2.208   0.807  17.049 -0.2420  0.5512  1.1680
  221MPD1    H2 3361   1.810   0.835  17.138 -1.3688 -1.3504  0.6493
  221MPD1    H3 3362   2.033   0.911  17.151  0.7715  0.4165 -0.3980
  221MPD1     N 3363   2.208   0.580  16.916  0.4396 -0.4823  0.0906
  221MPD1    H5 3364   2.297   0.616  16.949 -0.1463  2.1787 -1.2993
  221MPD1    N1 3365   1.729   0.614  17.008 -0.2914  0.0121  0.2675
  221MPD1    H6 3366   1.665   0.688  17.037 -2.3038 -0.7751 -2.1588
  221MPD1    H7 3367   1.699   0.575  16.919  0.1448  0.7750 -0.2060
  222MPD1     C 3368   2.038   4.426  17.325  0.3662 -0.1468  0.3544
  222MPD1    C1 3369   1.949   4.534  17.354 -0.0795 -0.1780  0.3305
  222MPD1    C2 3370   1.860   4.522  17.462  0.5725 -0.3466 -0.0143
  222MPD1    C3 3371   1.847   4.406  17.535  0.3305  0.5898 -1.0135
  222MPD1    C4 3372   1.930   4.302  17.509 -0.0769  0.4966 -0.1285
  222MPD1    C5 3373   2.026   4.314  17.406  0.3095 -0.3235  0.2823
  222MPD1     H 3374   1.805   4.612  17.486  0.5305 -0.1222 -0.9696
  222MPD1    H1 3375   1.926   4.203  17.553  1.9928  0.2449 -0.4810
  222MPD1    H2 3376   2.114   4.448  17.250 -0.8966  1.0509 -0.5695
  222MPD1    H3 3377   2.094   4.235  17.376 -0.3558 -0.0244 -1.9794
  222MPD1     N 3378   1.752   4.388  17.641 -0.0865  0.0121 -0.2939
  222MPD1    H5 3379   1.736   4.297  17.683 -0.3039 -0.6052 -1.7328
  222MPD1    N1 3380   1.981   4.663  17.304  0.6644  0.5419 -0.5431
  222MPD1    H6 3381   1.923   0.023  17.324  0.8525  0.1388  1.5931
  222MPD1    H7 3382   2.001   4.672  17.205  0.7344  0.2122 -0.5567
  223MPD1     C 3383   1.437   3.634   0.127 -0.2312  0.2611  0.1101
  223MPD1    C1 3384   1.521   3.694   0.038 -0.8608 -0.3786  0.6494
  223MPD1    C2 3385   1.543   3.830   0.053 -0.1087 -0.0879 -0.4218
  223MPD1    C3 3386   1.452   3.899   0.132  0.1296 -0.2826  0.4661
  223MPD1    C4 3387   1.356   3.837   0.215  0.5453 -0.2990  0.0733
  223MPD1    C5 3388   1.359   3.703   0.211  0.5410  0.2235 -0.1405
  223MPD1     H 3389   1.618   3.876  17.677  1.4989 -0.7053  1.0285
  223MPD1    H1 3390   1.296   3.877   0.295 -0.5874 -2.6468  0.4059
  223MPD1    H2 3391   1.439   3.526   0.137  0.6008  0.3923  1.3093
  223MPD1    H3 3392   1.291   3.654   0.280 -0.1822 -0.1506 -1.1001
  223MPD1     N 3393   1.474   4.041   0.132 -0.1772  0.5434  0.5643
  223MPD1    H5 3394   1.567   4.068   0.102 -0.4146  1.7161  0.8839
  223MPD1    N1 3395   1.610   3.612  17.656 -0.5628  0.0306 -1.1018
  223MPD1    H6 3396   1.656   3.652  17.575 -0.4521  1.7717 -0.1728
  223MPD1    H7 3397   1.566   3.525  17.626 -1.1446 -0.7419  2.0201
  224MPD1     C 3398   4.688   1.427   9.455  0.4386 -0.4946  0.0934
  224MPD1    C1 3399   4.709   1.298   9.417  0.4647  0.6399 -0.0987
  224MPD1    C2 3400   4.622   1.201   9.458  0.0119 -0.7920  0.5895
  224MPD1    C3 3401   4.529   1.226   9.557  0.4866 -0.1694 -0.4586
  224MPD1    C4 3402   4.519   1.352   9.611 -0.1496  0.4542 -0.2535
  224MPD1    C5 3403   4.592   1.452   9.552 -0.1168  0.4156  0.0499
  224MPD1     H 3404   4.630   1.107   9.403 -0.1051 -0.4662  0.0185
  224MPD1    H1 3405   4.447   1.382   9.686  0.5379  0.6836  0.3060
  224MPD1    H2 3406   0.022   1.508   9.410 -2.1484 -0.6055 -3.2829
  224MPD1    H3 3407   4.577   1.555   9.583 -0.9703  0.7770 -1.5997
  224MPD1     N 3408   4.443   1.127   9.609 -0.4749 -0.6801 -0.8143
  224MPD1    H5 3409   4.362   1.161   9.660 -0.9459 -0.8247 -1.4647
  224MPD1    N1 3410   0.065   1.279   9.303 -0.3322 -0.3199  0.2284
  224MPD1    H6 3411   0.097   1.184   9.288  0.1537  0.2258 -2.1796
  224MPD1    H7 3412   0.142   1.346   9.300  1.7295 -2.7187 -0.0912
  225MPD1     C 3413   0.429   2.430  12.519  0.1944  0.6997 -1.0235
  225MPD1    C1 3414   0.374   2.370  12.409 -0.3251  0.6203  0.0845
  225MPD1    C2 3415   0.235   2.382  12.396 -0.0828  0.0208  0.2617
  225MPD1    C3 3416   0.157   2.442  12.492 -0.2040  0.3797 -0.4600
  225MPD1    C4 3417   0.221   2.509  12.596 -0.0730  0.1271  0.4291
  225MPD1    C5 3418   0.356   2.503  12.611 -0.6119  0.3399 -0.1795
  225MPD1     H 3419   0.187   2.342  12.307  0.3003 -1.0842  0.5407
  225MPD1    H1 3420   0.158   2.561  12.668 -1.3382 -0.1920 -0.4531
  225MPD1    H2 3421   0.534   2.414  12.540 -0.3151  1.9653  2.4607
  225MPD1    H3 3422   0.405   2.543  12.700  2.4801 -0.7358 -1.3751
  225MPD1     N 3423   0.018   2.439  12.496 -0.2656  0.2103  0.6231
  225MPD1    H5 3424   4.694   2.486  12.574  1.5031 -0.2474  1.9104
  225MPD1    N1 3425   0.460   2.316  12.315  0.2475  0.5279  0.1679
  225MPD1    H6 3426   0.412   2.242  12.265  0.1177  1.7049 -1.4995
  225MPD1    H7 3427   0.542   2.276  12.359 -0.3924 -0.4560  0.4471
  226MPD1     C 3428   2.750   2.255  10.062 -0.5864 -0.4422 -0.4005
  226MPD1    C1 3429   2.806   2.179  10.162  0.1238  0.0051 -0.1820
  226MPD1    C2 3430   2.942   2.215  10.184 -0.7424 -0.2341 -0.2430
  226MPD1    C3 3431   3.015   2.302  10.093  0.5010  0.2142 -0.6242
  226MPD1    C4 3432   2.948   2.370  10.000  0.4487 -0.5024  0.6033
  226MPD1    C5 3433   2.817   2.346   9.987 -0.4106 -0.1063 -0.7227
  226MPD1     H 3434   2.995   2.167  10.265  0.1069  0.5367 -0.3411
  226MPD1    H1 3435   2.992   2.438   9.928 -0.4215  1.1909  1.6778
  226MPD1    H2 3436   2.645   2.237  10.040 -1.1214  0.1368  1.6963
  226MPD1    H3 3437   2.765   2.394   9.905 -1.7292 -1.1533 -0.5010
  226MPD1     N 3438   3.151   2.310  10.103  0.2532  0.1563  0.1988
  226MPD1    H5 3439   3.190   2.245  10.171  0.3197 -0.7709 -0.7136
  226MPD1    N1 3440   2.726   2.104  10.246 -0.0969 -0.1052 -0.2696
  226MPD1    H6 3441   2.778   2.046  10.312 -1.6518  0.6268  1.6032
  226MPD1    H7 3442   2.653   2.051  10.199 -0.7994  0.1213  0.5638
  227MPD1     C 3443   3.924   2.919  10.044 -0.1052 -0.4681  0.6940
  227MPD1    C1 3444   3.789   2.942  10.024  0.1041 -0.6453  0.2236
  227MPD1    C2 3445   3.715   2.829   9.992  0.0725 -0.4604  0.0567
  227MPD1    C3 3446   3.764   2.699  10.012 -0.6384 -1.0707 -0.7595
  227MPD1    C4 3447   3.896   2.688  10.033 -0.2091  0.2999  0.8016
  227MPD1    C5 3448   3.973   2.794  10.056  0.0157 -0.6801  0.2259
  227MPD1     H 3449   3.611   2.837   9.961 -1.1803  0.4409  4.5445
  227MPD1    H1 3450   3.945   2.596  10.062 -0.4664  0.7782  2.7110
  227MPD1    H2 3451   3.992   3.004  10.052  1.1399 -1.4913  0.8666
  227MPD1    H3 3452   4.071   2.769  10.094  0.6911  0.2926 -0.8791
  227MPD1     N 3453   3.669   2.595  10.016  0.3494 -0.4256 -0.4757
  227MPD1    H5 3454   3.571   2.620  10.006 -0.1728 -0.6033  4.2995
  227MPD1    N1 3455   3.747   3.069   9.982  0.3948  0.6301 -0.5484
  227MPD1    H6 3456   3.796   3.141  10.034 -0.1927  0.7006 -0.0884
  227MPD1    H7 3457   3.649   3.072  10.010  1.0922  1.9884  1.7345
  228MPD1     C 3458   1.762   4.207  13.044 -0.0149  0.7879 -0.3066
  228MPD1    C1 3459   1.714   4.307  12.962 -0.4743 -0.0426  0.2218
  228MPD1    C2 3460   1.577   4.326  12.961 -0.1204  0.8093 -0.2190
  228MPD1    C3 3461   1.489   4.251  13.045 -0.3199 -0.0899  0.7124
  228MPD1    C4 3462   1.545   4.155  13.121 -0.1591 -0.7797 -0.5906
  228MPD1    C5 3463   1.677   4.129  13.117  0.0569  0.5036  0.0323
  228MPD1     H 3464   1.531   4.410  12.909 -1.4345 -0.4381 -1.0950
  228MPD1    H1 3465   1.490   4.088  13.186  2.0168  0.1960  2.2250
  228MPD1    H2 3466   1.868   4.198  13.062  0.1077  1.1837 -0.8338
  228MPD1    H3 3467   1.723   4.051  13.177 -0.9445 -1.7256 -2.1264
  228MPD1     N 3468   1.352   4.294  13.041 -0.2513 -0.4283  0.9100
  228MPD1    H5 3469   1.329   4.368  12.975 -1.8249 -1.4834  0.2891
  228MPD1    N1 3470   1.788   4.408  12.913 -0.1219 -0.0892 -0.5488
  228MPD1    H6 3471   1.737   4.459  12.842  1.0371  0.6712 -0.8323
  228MPD1    H7 3472   1.875   4.369  12.878 -0.2036 -1.8562  1.1503
  229MPD1     C 3473   0.559   3.948  14.585  0.1832 -0.1818  0.8875
  229MPD1    C1 3474   0.511   3.964  14.714 -0.0830 -0.1922  0.5043
  229MPD1    C2 3475   0.583   3.899  14.818 -0.4101 -0.2869  0.5531
  229MPD1    C3 3476   0.680   3.797  14.781 -0.0623 -0.5587 -0.3728
  229MPD1    C4 3477   0.718   3.777  14.651  0.5756 -0.6515 -0.5528
  229MPD1    C5 3478   0.652   3.850  14.557 -0.0080  0.4310 -0.1964
  229MPD1     H 3479   0.551   3.907  14.922  0.0328 -0.5150  0.7042
  229MPD1    H1 3480   0.793   3.706  14.619  2.0692  1.4176 -1.6843
  229MPD1    H2 3481   0.524   4.003  14.498  1.2464 -0.6547  0.1638
  229MPD1    H3 3482   0.701   3.838  14.461  0.4045  0.4781  0.0094
  229MPD1     N 3483   0.743   3.715  14.876 -0.2855 -0.0722 -0.8227
  229MPD1    H5 3484   0.802   3.641  14.839  1.0799  0.7936 -0.3847
  229MPD1    N1 3485   0.418   4.061  14.732  0.2621  0.5547 -0.4399
  229MPD1    H6 3486   0.365   4.082  14.648 -1.0221  0.8433  0.4393
  229MPD1    H7 3487   0.355   4.057  14.813  0.0872  0.4779 -0.5798
  230MPD1     C 3488   1.211   3.557  15.852  0.4362  0.2032 -0.1327
  230MPD1    C1 3489   1.234   3.441  15.780 -1.4195 -0.3854  0.7421
  230MPD1    C2 3490   1.169   3.423  15.659 -0.3174  0.4576  0.1201
  230MPD1    C3 3491   1.099   3.527  15.601  0.1106  0.0369 -0.1701
  230MPD1    C4 3492   1.081   3.643  15.676  0.1897 -0.2264  0.5703
  230MPD1    C5 3493   1.133   3.658  15.800 -0.3658  0.0438  0.9981
  230MPD1     H 3494   1.182   3.332  15.601 -2.6259 -0.6439  1.3253
  230MPD1    H1 3495   1.034   3.732  15.636 -1.7916 -1.2557  0.6285
  230MPD1    H2 3496   1.259   3.578  15.947 -1.9037  0.0286  1.0753
  230MPD1    H3 3497   1.121   3.746  15.862 -1.6528 -0.7182  1.8266
  230MPD1     N 3498   1.043   3.505  15.472 -0.0743 -0.6627  0.0026
  230MPD1    H5 3499   1.035   3.409  15.439  1.8204 -1.2009  1.1484
  230MPD1    N1 3500   1.305   3.340  15.846  0.5856 -0.1162 -0.5454
  230MPD1    H6 3501   1.379   3.385  15.900  0.9295 -0.1648 -0.9744
  230MPD1    H7 3502   1.354   3.277  15.783  2.6765  2.3344 -1.3356
  231MPD1     C 3503   3.723   0.721  15.783  0.4843 -0.4993  0.3101
  231MPD1    C1 3504   3.753   0.656  15.670  0.3809  0.5742  0.2399
  231MPD1    C2 3505   3.892   0.649  15.632 -0.0597 -0.3175 -0.2420
  231MPD1    C3 3506   3.987   0.723  15.691  0.4352  0.4096 -0.4645
  231MPD1    C4 3507   3.945   0.813  15.791 -0.4588 -0.1255 -0.3442
  231MPD1    C5 3508   3.812   0.812  15.825 -0.6357  0.3342 -0.8647
  231MPD1     H 3509   3.916   0.574  15.557  0.1272 -0.1609 -0.3368
  231MPD1    H1 3510   4.003   0.900  15.819 -0.3407 -0.4225  0.3440
  231MPD1    H2 3511   3.623   0.724  15.825  0.5457 -0.4276  0.4528
  231MPD1    H3 3512   3.775   0.895  15.885  0.5370  0.0597  0.2472
  231MPD1     N 3513   4.122   0.720  15.647 -1.1338  0.3526  0.3163
  231MPD1    H5 3514   4.131   0.683  15.553  0.3703  1.2981  0.0971
  231MPD1    N1 3515   3.655   0.557  15.633 -0.2157  0.0247  0.1918
  231MPD1    H6 3516   3.558   0.586  15.643 -0.1265 -0.4643  2.4825
  231MPD1    H7 3517   3.666   0.521  15.539 -0.7088 -0.9068  0.4858
  232MPD1     C 3518   1.345   3.301   0.410 -0.4009  0.2718  0.0821
  232MPD1    C1 3519   1.257   3.266   0.512  0.0303 -0.2460  0.6749
  232MPD1    C2 3520   1.139   3.201   0.472 -0.3414  0.0632  0.4077
  232MPD1    C3 3521   1.104   3.179   0.343 -0.0070  0.1036 -0.0997
  232MPD1    C4 3522   1.191   3.222   0.247  0.2556  0.0445  0.2166
  232MPD1    C5 3523   1.307   3.277   0.285  1.0940 -0.5426 -0.0220
  232MPD1     H 3524   1.077   3.163   0.552 -0.9411  1.3471  0.5508
  232MPD1    H1 3525   1.177   3.199   0.142  0.7290 -1.2009  0.4271
  232MPD1    H2 3526   1.447   3.325   0.436 -0.0483 -0.5310 -0.5559
  232MPD1    H3 3527   1.375   3.292   0.202 -0.7790  2.6425 -0.9986
  232MPD1     N 3528   0.992   3.101   0.314 -0.5796  0.3564  0.2006
  232MPD1    H5 3529   0.938   3.070   0.393 -2.5428  2.0664 -0.4764
  232MPD1    N1 3530   1.319   3.251   0.635  0.0712  0.2586  0.1533
  232MPD1    H6 3531   1.258   3.260   0.716  0.9275  1.1592  0.6979
  232MPD1    H7 3532   1.389   3.325   0.642 -0.0920  0.4642 -0.4435
  233MPD1     C 3533   1.732   2.494   2.104 -0.0825  0.3200 -0.3473
  233MPD1    C1 3534   1.815   2.523   1.999 -0.0206 -0.2419 -0.4364
  233MPD1    C2 3535   1.947   2.467   2.001  0.4947 -0.2356 -0.0605
  233MPD1    C3 3536   1.967   2.361   2.082  0.2266  0.0758  0.4452
  233MPD1    C4 3537   1.872   2.320   2.174  0.4932 -0.0681  0.1199
  233MPD1    C5 3538   1.756   2.389   2.188 -0.6954  0.3567  0.1195
  233MPD1     H 3539   2.020   2.496   1.927  0.2595 -0.8305 -0.5212
  233MPD1    H1 3540   1.888   2.227   2.227 -0.3343 -0.1037  0.2954
  233MPD1    H2 3541   1.630   2.531   2.096 -0.8258 -1.5488  0.6357
  233MPD1    H3 3542   1.676   2.351   2.251 -0.7632 -0.0380 -0.2048
  233MPD1     N 3543   2.087   2.287   2.091 -0.4892 -0.6119 -0.3529
  233MPD1    H5 3544   2.088   2.226   2.172  3.0974  1.4748  1.1748
  233MPD1    N1 3545   1.793   2.630   1.912  0.2438 -0.7313 -0.3102
  233MPD1    H6 3546   1.846   2.624   1.825 -1.0530  0.2847 -1.1804
  233MPD1    H7 3547   1.696   2.656   1.897  0.4419  0.5400  0.6006
  234MPD1     C 3548   2.971   0.159   8.772 -0.4629 -0.0386  0.4035
  234MPD1    C1 3549   2.997   0.293   8.788  0.0326 -0.0441  0.3124
  234MPD1    C2 3550   3.098   0.326   8.877  0.5058  0.1732 -1.2568
  234MPD1    C3 3551   3.174   0.235   8.949  0.1787  0.4855 -0.0272
  234MPD1    C4 3552   3.144   0.105   8.928 -0.5286 -0.5070 -0.0010
  234MPD1    C5 3553   3.044   0.067   8.847 -0.2659  0.3079  0.1948
  234MPD1     H 3554   3.119   0.427   8.909 -0.6297 -0.7712  2.4547
  234MPD1    H1 3555   3.191   0.025   8.984 -0.5350  0.1325  0.9165
  234MPD1    H2 3556   2.906   0.123   8.693 -0.3107  0.4108  0.0775
  234MPD1    H3 3557   3.014   4.685   8.836  0.7556 -0.1498  1.8126
  234MPD1     N 3558   3.268   0.276   9.046  0.5673  0.0352  0.2066
  234MPD1    H5 3559   3.293   0.375   9.046  1.7314 -0.2547 -0.2162
  234MPD1    N1 3560   2.938   0.394   8.704  0.2152  0.3686 -0.0776
  234MPD1    H6 3561   2.950   0.486   8.746  2.4535 -0.2247  0.5880
  234MPD1    H7 3562   2.843   0.374   8.675  0.9003 -2.1072 -0.6777
  235MPD1     C 3563   4.168   2.886   9.214 -0.1232  0.4175 -0.5211
  235MPD1    C1 3564   4.156   2.900   9.354 -0.8686 -0.6996 -0.1700
  235MPD1    C2 3565   4.239   3.000   9.412 -0.0539 -0.0804  0.4332
  235MPD1    C3 3566   4.312   3.088   9.336 -0.4103  0.0132 -0.4736
  235MPD1    C4 3567   4.326   3.071   9.200  0.5704 -0.0114  0.3340
  235MPD1    C5 3568   4.242   2.980   9.143  0.3243 -0.1164 -0.0621
  235MPD1     H 3569   4.244   3.014   9.519 -2.2893  1.6837  0.3117
  235MPD1    H1 3570   4.396   3.125   9.139 -0.3458 -2.3211 -2.7852
  235MPD1    H2 3571   4.126   2.802   9.160  0.2978 -1.2266  1.6969
  235MPD1    H3 3572   4.242   2.968   9.035  0.2268 -0.9054  0.0246
  235MPD1     N 3573   4.396   3.170   9.415  0.3807  0.2670 -0.3794
  235MPD1    H5 3574   4.396   3.181   9.516 -3.0924 -0.2761 -0.3107
  235MPD1    N1 3575   4.087   2.799   9.428 -0.5305 -0.3059  0.1034
  235MPD1    H6 3576   4.064   2.830   9.522 -2.4847 -0.0828 -0.4575
  235MPD1    H7 3577   3.997   2.792   9.383 -0.6287 -0.3707  0.3110
  236MPD1     C 3578   3.500   3.963  10.255 -0.3318  0.7171  0.2337
  236MPD1    C1 3579   3.534   3.845  10.304  0.4744  0.1234  0.0049
  236MPD1    C2 3580   3.666   3.809  10.290  0.3075  0.0138  0.1098
  236MPD1    C3 3581   3.754   3.893  10.219  0.6133 -0.4006  0.8751
  236MPD1    C4 3582   3.710   4.015  10.167 -0.5616  0.1616 -0.5127
  236MPD1    C5 3583   3.582   4.039  10.180  0.8077 -0.3719  0.4974
  236MPD1     H 3584   3.710   3.720  10.333 -1.4661 -0.2182  1.4187
  236MPD1    H1 3585   3.776   4.083  10.115  0.7454 -0.8299 -0.1276
  236MPD1    H2 3586   3.401   4.004  10.264  0.0542  2.1710 -2.1807
  236MPD1    H3 3587   3.546   4.139  10.158  0.8377 -0.1081  1.6304
  236MPD1     N 3588   3.893   3.874  10.210  0.6568  0.1375  0.2919
  236MPD1    H5 3589   3.950   3.946  10.167  0.1947 -0.7945 -1.8611
  236MPD1    N1 3590   3.441   3.755  10.362  0.3148  0.3202 -0.2536
  236MPD1    H6 3591   3.377   3.818  10.411  0.5932  0.3106  0.1220
  236MPD1    H7 3592   3.480   3.690  10.430 -1.7225  1.3213  1.9085
  237MPD1     C 3593   3.935   2.612  15.448  0.2059 -0.8425  0.4256
  237MPD1    C1 3594   4.036   2.543  15.509  0.1286 -0.7505 -0.2219
  237MPD1    C2 3595   4.030   2.402  15.515  0.1706  0.5504  0.2594
  237MPD1    C3 3596   3.930   2.337  15.446 -0.2044 -0.1444 -0.6944
  237MPD1    C4 3597   3.837   2.412  15.373  0.0276 -0.2753 -0.7340
  237MPD1    C5 3598   3.840   2.549  15.379 -0.0381 -0.0356 -0.3455
  237MPD1     H 3599   4.104   2.349  15.575 -0.7729 -0.7048  0.3066
  237MPD1    H1 3600   3.759   2.370  15.311 -1.0826 -0.6034  0.9160
  237MPD1    H2 3601   3.944   2.717  15.425  0.2236 -1.0903 -0.6911
  237MPD1    H3 3602   3.774   2.605  15.313 -1.4084 -0.8570  0.3232
  237MPD1     N 3603   3.908   2.198  15.456  0.2242 -0.7470  0.3790
  237MPD1    H5 3604   3.823   2.167  15.410 -0.1017  3.1654 -1.6664
  237MPD1    N1 3605   4.127   2.618  15.584  0.5777  0.7790 -0.3146
  237MPD1    H6 3606   4.220   2.577  15.585  0.4052  0.3513 -3.6182
  237MPD1    H7 3607   4.125   2.718  15.565  0.0121  0.7881 -0.2215
  238MPD1     C 3608   1.776   0.071  15.086  0.0359 -0.1785  0.1919
  238MPD1    C1 3609   1.742   0.193  15.025 -0.2163 -0.5398  0.3533
  238MPD1    C2 3610   1.617   0.243  15.054 -0.5414  0.1834  0.2383
  238MPD1    C3 3611   1.522   0.177  15.116  0.1066 -0.3655 -0.7502
  238MPD1    C4 3612   1.548   0.048  15.151  0.5907 -0.2434  1.0064
  238MPD1    C5 3613   1.673   4.716  15.137 -0.1760  0.0393  0.6452
  238MPD1     H 3614   1.594   0.339  15.011  1.0149  0.4216 -0.0925
  238MPD1    H1 3615   1.469   4.712  15.199 -2.3283  2.0044 -1.1880
  238MPD1    H2 3616   1.876   0.033  15.071  0.1323 -0.2814  1.0777
  238MPD1    H3 3617   1.700   4.617  15.171  3.8427  0.5789 -0.9761
  238MPD1     N 3618   1.396   0.231  15.143  0.2169  0.3538  0.4972
  238MPD1    H5 3619   1.325   0.167  15.179 -0.0022  0.7270  0.7227
  238MPD1    N1 3620   1.843   0.279  14.981  0.2698  0.0078 -0.6157
  238MPD1    H6 3621   1.920   0.225  14.943  0.8760 -0.9706  2.0503
  238MPD1    H7 3622   1.804   0.341  14.909 -0.9373  0.5519  0.5115
  239MPD1     C 3623   1.349   1.380  15.153  0.7989 -0.9442 -0.4946
  239MPD1    C1 3624   1.244   1.420  15.080 -0.3232 -0.9188  0.1927
  239MPD1    C2 3625   1.269   1.472  14.955  1.0018  0.1668 -0.3373
  239MPD1    C3 3626   1.401   1.498  14.914  0.0376 -0.0777  0.0511
  239MPD1    C4 3627   1.505   1.458  14.991  0.4133  0.1616 -0.5215
  239MPD1    C5 3628   1.478   1.395  15.106  0.3071 -0.2408  0.3434
  239MPD1     H 3629   1.188   1.503  14.889 -0.4229  1.3469  1.9704
  239MPD1    H1 3630   1.610   1.480  14.974  0.6971 -1.2575 -0.5984
  239MPD1    H2 3631   1.349   1.344  15.255  1.9940  2.6177  0.7717
  239MPD1    H3 3632   1.561   1.354  15.162  1.0496 -1.0635 -1.3606
  239MPD1     N 3633   1.427   1.560  14.791  0.8855  0.2066  0.2789
  239MPD1    H5 3634   1.526   1.553  14.772  0.8934  0.9473  0.0557
  239MPD1    N1 3635   1.111   1.382  15.113 -0.2279 -0.3725 -0.3874
  239MPD1    H6 3636   1.081   1.406  15.207  0.2011  1.2728 -0.6855
  239MPD1    H7 3637   1.043   1.423  15.048  0.7121 -0.1263 -1.2118
  240MPD1     C 3638   0.928   1.549  14.833  0.2084  0.2712  0.4704
  240MPD1    C1 3639   0.929   1.443  14.746 -0.4005 -0.2593  0.4892
  240MPD1    C2 3640   0.856   1.328  14.771  0.1410 -0.6573  0.0616
  240MPD1    C3 3641   0.795   1.306  14.898  0.2853  0.2214 -0.4539
  240MPD1    C4 3642   0.813   1.409  14.987 -0.6785  0.2953  0.0526
  240MPD1    C5 3643   0.866   1.527  14.953 -0.2102  0.5858 -0.1758
  240MPD1     H 3644   0.836   1.251  14.698 -0.1020 -1.6396  1.1572
  240MPD1    H1 3645   0.775   1.395  15.088 -1.3496  1.1335 -0.0743
  240MPD1    H2 3646   0.981   1.642  14.816  0.4885  0.1827  0.8582
  240MPD1    H3 3647   0.882   1.597  15.034 -0.9408 -0.3068  0.7334
  240MPD1     N 3648   0.745   1.178  14.915 -0.2353  0.3739 -0.0671
  240MPD1    H5 3649   0.724   1.114  14.839  2.0206 -1.4746  0.8685
  240MPD1    N1 3650   0.997   1.469  14.627 -0.6483  0.1185  0.0929
  240MPD1    H6 3651   1.027   1.381  14.584 -0.0501 -0.5266  1.8570
  240MPD1    H7 3652   1.083   1.519  14.650 -0.4718 -0.2611  0.2544
  241MPD1     C 3653   0.233   0.414  15.532  0.8806 -0.8176 -0.5187
  241MPD1    C1 3654   0.306   0.515  15.580  0.0700 -0.6439  0.0049
  241MPD1    C2 3655   0.361   0.604  15.492  0.2981 -0.0755  0.8112
  241MPD1    C3 3656   0.354   0.581  15.356  0.2431 -0.0559  0.8809
  241MPD1    C4 3657   0.266   0.479  15.309  0.5461 -0.1468 -0.0922
  241MPD1    C5 3658   0.214   0.396  15.403 -0.1228 -0.1615  0.0663
  241MPD1     H 3659   0.424   0.685  15.526  1.2938 -0.3881 -0.2975
  241MPD1    H1 3660   0.260   0.448  15.206 -2.6237  0.7264 -0.1892
  241MPD1    H2 3661   0.181   0.344  15.597  0.9734  1.8397  2.4031
  241MPD1    H3 3662   0.161   0.310  15.364  0.6880 -0.2625 -0.8081
  241MPD1     N 3663   0.424   0.649  15.264  0.5752 -0.6008  0.1705
  241MPD1    H5 3664   0.421   0.606  15.172  2.4298 -0.8514  0.2300
  241MPD1    N1 3665   0.348   0.510  15.716  0.1573  0.0935 -0.1490
  241MPD1    H6 3666   0.394   0.594  15.752  1.5159 -0.9464  0.5572
  241MPD1    H7 3667   0.279   0.487  15.787 -0.7793  0.5054 -0.9240
  242MPD1     C 3668   0.109   3.679  16.283 -0.1409 -0.7550  0.0247
  242MPD1    C1 3669   0.084   3.651  16.148  0.1198  0.3565 -0.1405
  242MPD1    C2 3670   0.143   3.731  16.057  0.4276 -0.3094  0.1605
  242MPD1    C3 3671   0.229   3.839  16.086  0.4886 -0.1338  0.5994
  242MPD1    C4 3672   0.261   3.861  16.216  0.6407 -0.1263 -0.4598
  242MPD1    C5 3673   0.201   3.773  16.312  0.8567  0.0076 -0.4661
  242MPD1     H 3674   0.132   3.696  15.955  0.8097 -2.3627  0.8297
  242MPD1    H1 3675   0.334   3.935  16.245 -0.5974  0.9140 -0.0190
  242MPD1    H2 3676   0.065   3.623  16.364  1.5030 -1.1237  0.6639
  242MPD1    H3 3677   0.225   3.796  16.415  0.3844  0.0007 -0.3555
  242MPD1     N 3678   0.280   3.921  15.991  0.3526  0.6164  0.3144
  242MPD1    H5 3679   0.334   3.999  16.026 -0.9790  0.9830  1.5470
  242MPD1    N1 3680   0.005   3.542  16.104  0.2403 -0.2176  0.1580
  242MPD1    H6 3681   4.675   3.499  16.181  0.7505  0.3198  0.7996
  242MPD1    H7 3682   4.653   3.578  16.044  0.1558 -0.2648  0.2333
  243MPD1     C 3683   1.808   2.799   0.329 -0.2190 -0.1124 -0.5497
  243MPD1    C1 3684   1.933   2.741   0.329  0.7686  0.4714 -0.4881
  243MPD1    C2 3685   2.001   2.744   0.207  0.9196  0.2205 -0.1156
  243MPD1    C3 3686   1.948   2.794   0.088  0.7710  0.7855 -0.0946
  243MPD1    C4 3687   1.819   2.842   0.086 -0.0609  0.0347 -0.2626
  243MPD1    C5 3688   1.751   2.842   0.210  0.4255 -0.5691  0.1347
  243MPD1     H 3689   2.105   2.714   0.208  1.1628  1.0424 -0.8110
  243MPD1    H1 3690   1.775   2.890  17.686 -0.1834  0.3473 -0.0289
  243MPD1    H2 3691   1.750   2.810   0.420  1.8588 -2.4781  1.0895
  243MPD1    H3 3692   1.652   2.886   0.207  0.5245 -0.3088  0.8320
  243MPD1     N 3693   2.037   2.805  17.669  0.2747  0.3088 -0.0066
  243MPD1    H5 3694   2.135   2.789   0.000 -0.4578 -0.4130  3.2119
  243MPD1    N1 3695   2.005   2.712   0.451  0.5048 -0.3659 -0.1784
  243MPD1    H6 3696   2.067   2.634   0.430  0.4777 -0.3560 -0.2970
  243MPD1    H7 3697   1.945   2.676   0.526  1.9205 -2.8261 -0.2160
  244MPD1     C 3698   2.775   3.016   0.257 -0.3668  0.2402 -0.0668
  244MPD1    C1 3699   2.664   2.941   0.278 -0.0076 -0.2336  0.3642
  244MPD1    C2 3700   2.564   2.939   0.183 -0.3125 -0.4625 -0.3582
  244MPD1    C3 3701   2.568   3.008   0.065  0.4600 -0.1262 -0.6777
  244MPD1    C4 3702   2.688   3.077   0.039 -0.1627  0.4810  0.1759
  244MPD1    C5 3703   2.787   3.091   0.136 -0.6982  0.2532  0.8446
  244MPD1     H 3704   2.488   2.868   0.213 -0.3556 -0.2345  0.0701
  244MPD1    H1 3705   2.695   3.124  17.628 -2.4646 -0.0924 -0.2691
  244MPD1    H2 3706   2.863   3.009   0.319 -1.1858  2.3202  1.3352
  244MPD1    H3 3707   2.878   3.143   0.108  0.8686 -3.0453 -0.2561
  244MPD1     N 3708   2.470   2.971  17.659  0.6378 -0.7158 -0.0108
  244MPD1    H5 3709   2.390   2.914  17.683  0.2856  0.5027  1.7446
  244MPD1    N1 3710   2.665   2.869   0.397  0.1278 -0.2360  0.1583
  244MPD1    H6 3711   2.732   2.909   0.462  2.9548 -1.9471 -1.6959
  244MPD1    H7 3712   2.571   2.871   0.437  0.3946 -0.7323  0.8013
  245MPD1     C 3713   3.989   3.037  13.532  0.5592  0.9190  0.9721
  245MPD1    C1 3714   4.026   3.042  13.668  0.1351 -0.5574 -0.0695
  245MPD1    C2 3715   4.119   3.136  13.707 -0.7838 -0.1758  0.0926
  245MPD1    C3 3716   4.173   3.231  13.615  0.1806 -0.3925 -0.0949
  245MPD1    C4 3717   4.140   3.217  13.483  0.4884 -0.2646  0.3180
  245MPD1    C5 3718   4.045   3.125  13.445 -0.8318  0.2401  0.2214
  245MPD1     H 3719   4.145   3.143  13.812  0.0186  0.2922 -0.1376
  245MPD1    H1 3720   4.173   3.289  13.410 -4.6385  2.3729  0.5985
  245MPD1    H2 3721   3.905   2.982  13.492 -0.7608  1.6967  2.7427
  245MPD1    H3 3722   4.031   3.114  13.338 -1.4142  0.8266  0.2394
  245MPD1     N 3723   4.253   3.333  13.668 -0.1134  0.1103 -0.1823
  245MPD1    H5 3724   4.264   3.327  13.769  2.3005 -2.2860 -0.5628
  245MPD1    N1 3725   3.966   2.961  13.764  0.9719 -0.1866  0.0197
  245MPD1    H6 3726   4.031   2.932  13.837  0.3698  2.8727  1.8010
  245MPD1    H7 3727   3.924   2.878  13.723 -1.3008  0.5671  0.8080
  246MPD1     C 3728   0.260   1.055   9.896 -0.2930  0.4346 -0.6324
  246MPD1    C1 3729   0.175   1.106   9.798 -0.6869 -0.1610  0.2083
  246MPD1    C2 3730   0.108   1.016   9.719 -0.7441  0.6766 -0.6440
  246MPD1    C3 3731   0.113   0.880   9.742  0.1577 -0.4304  0.1862
  246MPD1    C4 3732   0.193   0.835   9.845  0.2008 -0.3821 -0.3345
  246MPD1    C5 3733   0.276   0.919   9.907  0.1582 -0.0887  0.3955
  246MPD1     H 3734   0.054   1.050   9.632 -0.3452  0.1369 -1.0991
  246MPD1    H1 3735   0.200   0.732   9.878  1.2464 -0.0970  0.3314
  246MPD1    H2 3736   0.330   1.116   9.952 -0.0612  0.3437 -0.8255
  246MPD1    H3 3737   0.342   0.886   9.987  0.7938  0.5067  0.1201
  246MPD1     N 3738   0.035   0.790   9.661  0.0614 -0.2040  0.8594
  246MPD1    H5 3739   4.694   0.834   9.594  1.0857  0.6830  0.4917
  246MPD1    N1 3740   0.178   1.245   9.761 -0.2309 -0.5800 -0.0706
  246MPD1    H6 3741   0.185   1.311   9.838  2.3205 -1.5821  0.5338
  246MPD1    H7 3742   0.091   1.260   9.709 -1.6107  2.3435  3.1110
  247MPD1     C 3743   3.263   3.028  17.149  0.1176 -0.1248 -0.7040
  247MPD1    C1 3744   3.296   3.099  17.034 -0.1286 -0.8045  0.7925
  247MPD1    C2 3745   3.290   3.033  16.917  1.3428  0.5239 -0.2927
  247MPD1    C3 3746   3.255   2.899  16.899 -0.6174  0.4826 -0.0580
  247MPD1    C4 3747   3.241   2.826  17.014 -0.0283  0.4635  0.3787
  247MPD1    C5 3748   3.240   2.894  17.129 -0.7858  0.3024 -0.0701
  247MPD1     H 3749   3.330   3.085  16.830 -1.2831  0.4125 -1.5777
  247MPD1    H1 3750   3.214   2.722  17.006 -0.0929  0.4564  0.7126
  247MPD1    H2 3751   3.247   3.076  17.245  2.5663  1.1640 -0.9168
  247MPD1    H3 3752   3.206   2.831  17.211  0.5164 -0.1502  0.1183
  247MPD1     N 3753   3.255   2.829  16.775  0.1687 -0.1373  0.0455
  247MPD1    H5 3754   3.237   2.730  16.787 -1.5305  0.1643 -0.0373
  247MPD1    N1 3755   3.304   3.240  17.031 -0.1090  0.1914 -0.0960
  247MPD1    H6 3756   3.356   3.279  16.953  2.8791 -1.4511  1.0533
  247MPD1    H7 3757   3.328   3.280  17.121  0.9704 -0.0086 -0.3023
  248MPD1     C 3758   3.820   4.226   1.372 -0.3974 -0.4410  0.2607
  248MPD1    C1 3759   3.738   4.185   1.273 -0.1678 -0.0580 -0.5134
  248MPD1    C2 3760   3.778   4.079   1.197  0.0835 -0.2453  0.0587
  248MPD1    C3 3761   3.896   4.015   1.226  0.2812  0.1054  0.1993
  248MPD1    C4 3762   3.975   4.053   1.330  1.3730 -0.9463 -0.3932
  248MPD1    C5 3763   3.935   4.163   1.400 -1.0137 -0.0070 -0.0429
  248MPD1     H 3764   3.719   4.060   1.108 -0.1463 -0.0131  0.1628
  248MPD1    H1 3765   4.070   4.008   1.356  1.5748 -1.8159 -2.5592
  248MPD1    H2 3766   3.802   4.316   1.429  2.0416  1.0109 -1.2666
  248MPD1    H3 3767   3.987   4.194   1.490  1.2368 -0.2637 -1.2433
  248MPD1     N 3768   3.922   3.896   1.148 -0.2088  0.4066  0.1148
  248MPD1    H5 3769   3.853   3.871   1.078  1.0004 -0.5901 -0.7137
  248MPD1    N1 3770   3.630   4.263   1.240  0.2085 -0.0279 -0.7324
  248MPD1    H6 3771   3.592   4.319   1.316 -0.3491 -0.6076 -0.5842
  248MPD1    H7 3772   3.560   4.211   1.187  0.6350 -0.1744 -1.1540
  249MPD1     C 3773   2.572   3.114   9.672 -0.0194 -0.1649  0.0227
  249MPD1    C1 3774   2.591   2.980   9.698  0.1521  0.6255 -1.0889
  249MPD1    C2 3775   2.485   2.903   9.747  0.3720  0.1108 -0.3533
  249MPD1    C3 3776   2.365   2.970   9.782  0.9456  0.5218 -0.4376
  249MPD1    C4 3777   2.354   3.109   9.767  0.5046 -0.2167  0.7517
  249MPD1    C5 3778   2.461   3.178   9.715  0.7457  0.5844 -0.5899
  249MPD1     H 3779   2.484   2.795   9.756 -1.1533  0.1551  0.0388
  249MPD1    H1 3780   2.271   3.165   9.807  0.7339  0.9423 -0.3929
  249MPD1    H2 3781   2.653   3.173   9.630 -0.3078  1.0965  1.2209
  249MPD1    H3 3782   2.445   3.284   9.696 -0.5844 -0.0098 -2.7642
  249MPD1     N 3783   2.265   2.891   9.837 -0.0546  0.2099  0.3573
  249MPD1    H5 3784   2.281   2.798   9.876  0.1340 -0.2830 -0.9016
  249MPD1    N1 3785   2.702   2.911   9.643  0.5973  0.2218 -0.6304
  249MPD1    H6 3786   2.715   2.820   9.686 -0.6890 -0.4516 -1.6789
  249MPD1    H7 3787   2.788   2.963   9.659 -0.9376  2.4398  0.4049
  250MPD2     C 3788   2.165   1.654  13.414  0.5871  0.5166  0.2998
  250MPD2    C1 3789   2.080   1.677  13.305  0.2400  0.3394 -0.5898
  250MPD2    C2 3790   2.011   1.571  13.252  1.2968  0.2676 -0.2533
  250MPD2    C3 3791   2.017   1.444  13.304  0.1741  0.3735  0.4888
  250MPD2    C4 3792   2.095   1.423  13.413 -0.4005  0.0629 -0.1171
  250MPD2    C5 3793   2.171   1.526  13.469 -0.2361  0.6163  0.1667
  250MPD2     H 3794   1.948   1.581  13.165 -0.7579  2.6966  1.4946
  250MPD2    H1 3795   2.110   1.322  13.449 -0.2717  0.3881  0.7560
  250MPD2    H2 3796   2.216   1.740  13.456  1.3943  0.1044  0.1591
  250MPD2    H3 3797   2.250   1.502  13.539 -0.2704  0.0720  0.0195
  250MPD2     N 3798   1.938   1.345  13.242  0.2819  0.1390 -0.0294
  250MPD2    H5 3799   1.887   1.368  13.157 -0.4386  2.2710  0.9714
  250MPD2    N1 3800   2.072   1.803  13.249 -0.0599 -0.2449  0.9015
  250MPD2    H7 3801   2.128   1.876  13.293 -1.2090  0.3008  1.4675
  251TMC3    C1 3802   2.019   1.984  13.099  0.0566  0.5846  0.0295
  251TMC3    C2 3803   1.915   2.052  13.042  0.1928 -0.0451 -0.7096
  251TMC3    C3 3804   1.952   2.156  12.967  0.2209  0.3721 -0.0189
  251TMC3    C4 3805   2.151   2.019  13.101 -0.2567 -0.4325 -0.8047
  251TMC3    C5 3806   2.187   2.117  13.012  0.2038  0.5023  0.1107
  251TMC3    C6 3807   2.084   2.181  12.941  0.3725 -0.3966 -0.4509
  251TMC3     C 3808   1.986   1.845  13.146 -0.4482 -0.4815 -0.3130
  251TMC3     O 3809   1.910   1.792  13.074  0.5447 -0.0415  0.0688
  251TMC3     H 3810   1.812   2.019  13.052  1.4532 -3.3168  1.3473
  251TMC3    H1 3811   2.217   1.942  13.141  2.4733  1.8058 -1.0373
  251TMC3    H2 3812   2.111   2.269  12.884 -0.9402 -0.4082 -1.0775
  251TMC3    C7 3813   2.313   2.091  12.949  0.0594 -0.2001 -0.1666
  251TMC3    C8 3814   1.852   2.251  12.928 -0.0613  0.0366  0.0169
  251TMC3    O1 3815   2.389   2.034  13.021  0.0351 -0.0315 -0.2350
  251TMC3    O2 3816   1.744   2.205  12.903 -0.3782 -0.9218 -0.5405
  252TMC3    C1 3817   3.295   2.067   9.731 -0.2386 -0.3144 -0.2357
  252TMC3    C2 3818   3.360   2.182   9.685  0.2219  0.7997  0.7762
  252TMC3    C3 3819   3.286   2.300   9.670  0.1357  0.1350 -0.5267
  252TMC3    C4 3820   3.161   2.070   9.762 -0.6806 -0.4292  0.3779
  252TMC3    C5 3821   3.093   2.188   9.751 -0.1131 -0.1623  0.2221
  252TMC3    C6 3822   3.149   2.301   9.688 -0.2968  0.1428 -0.3032
  252TMC3     C 3823   3.382   1.950   9.746  0.6883  0.3766  0.0242
  252TMC3     O 3824   3.505   1.977   9.761 -0.7065  0.3309 -0.2745
  252TMC3     H 3825   3.465   2.190   9.657  0.6441 -1.5299  1.6520
  252TMC3    H1 3826   3.110   1.984   9.805  1.4596 -2.1073 -0.4035
  252TMC3    H2 3827   3.091   2.383   9.648  1.3731  0.8616 -1.2778
  252TMC3    C7 3828   2.953   2.173   9.708 -0.4872 -1.3035 -0.3765
  252TMC3    C8 3829   3.364   2.412   9.614 -0.2721 -0.3971  0.1997
  252TMC3    O1 3830   2.922   2.219   9.598  0.4727  0.3503 -0.5119
  252TMC3    O2 3831   3.452   2.394   9.531 -0.2116 -0.4201 -0.2003
  253MPD2     C 3832   3.089   1.752  15.707 -0.4700 -0.1803 -0.3454
  253MPD2    C1 3833   2.973   1.831  15.712  1.0225 -0.6598 -0.5524
  253MPD2    C2 3834   2.919   1.862  15.832  0.0614 -0.1803 -0.2848
  253MPD2    C3 3835   2.987   1.821  15.952  0.1240  0.0903 -0.2905
  253MPD2    C4 3836   3.099   1.738  15.950 -0.4501 -0.0194 -0.2674
  253MPD2    C5 3837   3.139   1.708  15.822 -0.4604 -0.4200  0.3148
  253MPD2     H 3838   2.815   1.895  15.834  0.1589  0.1814 -1.1998
  253MPD2    H1 3839   3.160   1.706  16.034 -1.0180 -0.8995 -0.1916
  253MPD2    H2 3840   3.136   1.725  15.613  0.3693 -1.2466  0.3762
  253MPD2    H3 3841   3.226   1.643  15.817  1.3272  1.8981  0.9212
  253MPD2     N 3842   2.946   1.852  16.080 -0.2675 -0.1167  0.0656
  253MPD2    H5 3843   2.993   1.807  16.158  0.2064 -1.3117 -0.9110
  253MPD2    N1 3844   2.907   1.868  15.595 -0.3357  0.1085  0.0519
  253MPD2    H7 3845   2.831   1.932  15.614 -0.9761 -1.0204  1.3132
  254TMC3    C1 3846   2.802   1.919  16.258  0.4122  0.6625  0.4016
  254TMC3    C2 3847   2.669   1.931  16.287 -0.6443 -0.3896 -0.6267
  254TMC3    C3 3848   2.625   1.912  16.417 -0.0835  0.7213  0.7237
  254TMC3    C4 3849   2.897   1.896  16.353  0.0229  0.4251 -0.3058
  254TMC3    C5 3850   2.848   1.860  16.474  0.7373 -0.4389 -0.3737
  254TMC3    C6 3851   2.717   1.872  16.509  0.7306 -1.0571  0.5778
  254TMC3     C 3852   2.836   1.922  16.116 -0.2688  0.2230 -0.4764
  254TMC3     O 3853   2.755   1.971  16.044 -1.1813  0.0019  0.4193
  254TMC3     H 3854   2.601   1.960  16.207 -0.3427  0.8834 -0.4134
  254TMC3    H1 3855   3.004   1.909  16.336  0.0489  0.8251  0.1436
  254TMC3    H2 3856   2.678   1.851  16.607  0.5709 -1.4379  0.4306
  254TMC3    C7 3857   2.930   1.802  16.578  0.6340 -0.4461  0.7312
  254TMC3    C8 3858   2.536   2.007  16.463 -0.5006  0.2514 -0.9012
  254TMC3    O1 3859   2.892   1.790  16.694 -0.2020  0.9150  0.1104
  254TMC3    O2 3860   2.532   2.037  16.582 -0.0376 -0.8595 -0.2956
  255MPD2     C 3861   1.693   4.608   9.791  0.5052 -0.0222  0.6476
  255MPD2    C1 3862   1.755   4.720   9.739 -1.0822  0.2096 -0.7167
  255MPD2    C2 3863   1.880   4.713   9.687 -0.2737  0.0620  0.5561
  255MPD2    C3 3864   1.942   4.592   9.692 -0.7720  0.6112 -0.0141
  255MPD2    C4 3865   1.880   4.484   9.751  0.9980  0.1079  0.0315
  255MPD2    C5 3866   1.751   4.485   9.790  0.8888 -0.1443 -0.0885
  255MPD2     H 3867   1.935   0.076   9.647  0.3781 -0.5849  0.0917
  255MPD2    H1 3868   1.937   4.394   9.772 -1.1410 -1.1478  0.4884
  255MPD2    H2 3869   1.589   4.615   9.820  0.8221  1.6700  1.3643
  255MPD2    H3 3870   1.704   4.405   9.846 -0.8358  1.3646  0.6450
  255MPD2     N 3871   2.073   4.577   9.637  0.5393  0.0238  0.2105
  255MPD2    H5 3872   2.114   4.666   9.611  0.5579  0.5037  1.9064
  255MPD2    N1 3873   1.675   0.117   9.750 -0.2148 -0.3386  0.3196
  255MPD2    H7 3874   1.584   0.106   9.793 -0.2399  2.3982  0.9422
  256TMC3    C1 3875   1.592   0.331   9.698 -0.2017  0.0012 -0.6287
  256TMC3    C2 3876   1.600   0.468   9.741  0.3277 -0.5010  0.8308
  256TMC3    C3 3877   1.476   0.530   9.754  0.5207  0.2645 -0.5636
  256TMC3    C4 3878   1.478   0.269   9.676 -0.0814  0.1580  0.4937
  256TMC3    C5 3879   1.365   0.334   9.696 -0.0614  0.7560 -0.0337
  256TMC3    C6 3880   1.359   0.460   9.731 -0.7687  0.7763  0.6873
  256TMC3     C 3881   1.709   0.243   9.704  0.1964 -0.1732  0.1030
  256TMC3     O 3882   1.820   0.276   9.666  0.7451  0.2740  0.2969
  256TMC3     H 3883   1.687   0.516   9.783  0.4997  0.6129 -0.7773
  256TMC3    H1 3884   1.481   0.168   9.636 -0.2472  0.2551  0.2354
  256TMC3    H2 3885   1.263   0.507   9.748 -0.4845  2.3938 -2.1217
  256TMC3    C7 3886   1.237   0.265   9.697  0.1396  0.0424 -0.2975
  256TMC3    C8 3887   1.457   0.654   9.837  0.6316  0.0017  0.1610
  256TMC3    O1 3888   1.144   0.326   9.743 -0.3644  0.1849  0.3211
  256TMC3    O2 3889   1.356   0.660   9.904 -0.0257 -0.3117 -0.1170
  257MPD2     C 3890   1.276   1.562  13.044  0.0884  0.1926  0.0918
  257MPD2    C1 3891   1.163   1.613  13.106  0.3204  0.3925  0.1717
  257MPD2    C2 3892   1.129   1.547  13.220  0.3794  0.0985  0.3133
  257MPD2    C3 3893   1.212   1.458  13.284 -0.1755  0.9680  0.7337
  257MPD2    C4 3894   1.319   1.415  13.224 -0.3016  0.5821 -1.0153
  257MPD2    C5 3895   1.351   1.465  13.105 -0.5256  0.4036 -0.0192
  257MPD2     H 3896   1.045   1.572  13.284  1.1846  1.9060  0.6758
  257MPD2    H1 3897   1.373   1.325  13.254  1.0158  2.1861  1.4131
  257MPD2    H2 3898   1.302   1.584  12.941 -1.6714  1.5284 -0.0832
  257MPD2    H3 3899   1.433   1.422  13.048  0.6567  1.9646  0.5326
  257MPD2     N 3900   1.161   1.391  13.400 -0.4359 -0.5074 -0.2795
  257MPD2    H5 3901   1.069   1.414  13.435  0.8719  0.0862  2.7672
  257MPD2    N1 3902   1.091   1.716  13.034  0.0842  0.0834 -0.7556
  257MPD2    H7 3903   1.125   1.742  12.942  0.1400  0.1368 -0.7203
  258TMC3    C1 3904   1.151   1.229  13.563  0.1236 -0.0082  0.3063
  258TMC3    C2 3905   1.034   1.193  13.501 -0.5802  0.3974 -0.3741
  258TMC3    C3 3906   0.923   1.174  13.580 -0.4046 -0.3745 -0.1828
  258TMC3    C4 3907   1.158   1.263  13.697  0.3840 -1.1018 -0.3541
  258TMC3    C5 3908   1.041   1.256  13.771  0.5211  0.0299  0.1841
  258TMC3    C6 3909   0.925   1.198  13.716  0.3455 -0.0603  0.7371
  258TMC3     C 3910   1.234   1.310  13.479  0.1160  0.1208  0.5735
  258TMC3     O 3911   1.350   1.285  13.495  0.1641  0.8778  0.5025
  258TMC3     H 3912   1.037   1.164  13.397 -1.0824  1.2349 -0.6203
  258TMC3    H1 3913   1.248   1.307  13.737 -0.3682 -1.4889  1.7480
  258TMC3    H2 3914   0.829   1.205  13.766 -0.4447 -1.4015 -0.6104
  258TMC3    C7 3915   1.030   1.300  13.906  0.0485 -0.6442 -0.7493
  258TMC3    C8 3916   0.814   1.110  13.516  0.1492 -0.7385  0.2178
  258TMC3    O1 3917   0.925   1.311  13.962  0.6435  0.5345  0.4988
  258TMC3    O2 3918   0.814   1.101  13.396 -0.0160  0.0132 -0.7141
  259MPD2     C 3919   0.274   4.084   1.350 -0.3730  0.0096  0.7109
  259MPD2    C1 3920   0.191   3.977   1.376 -0.8976 -0.1247  0.1770
  259MPD2    C2 3921   0.165   3.883   1.276  0.4867  0.0391 -0.0576
  259MPD2    C3 3922   0.204   3.905   1.146  0.1924 -0.0282  0.6128
  259MPD2    C4 3923   0.287   4.013   1.117  0.1698  0.3368  0.1283
  259MPD2    C5 3924   0.310   4.105   1.220 -0.2898  0.0032  0.0976
  259MPD2     H 3925   0.105   3.793   1.287  2.0351 -0.9561  0.1764
  259MPD2    H1 3926   0.327   4.046   1.022  0.1180  0.4993  0.1639
  259MPD2    H2 3927   0.302   4.155   1.428 -1.0633  0.7121  0.3257
  259MPD2    H3 3928   0.373   4.193   1.207 -0.3216  0.2138  1.3698
  259MPD2     N 3929   0.163   3.822   1.042 -0.3807  0.1506  0.3462
  259MPD2    H5 3930   0.135   3.729   1.074 -1.1658  0.2047 -0.1850
  259MPD2    N1 3931   0.141   3.957   1.510 -0.7361 -0.1786  0.2739
  259MPD2    H7 3932   0.162   4.029   1.578  0.2624 -1.3949  1.2496
  260TMC3    C1 3933   0.157   3.724   0.826 -0.4207 -0.3791 -0.7419
  260TMC3    C2 3934   0.131   3.751   0.697  0.3122  0.6494  0.1009
  260TMC3    C3 3935   0.133   3.639   0.622  0.8640  0.5068 -0.0012
  260TMC3    C4 3936   0.171   3.603   0.881 -0.0629  0.3163  0.0436
  260TMC3    C5 3937   0.155   3.494   0.802  0.0722 -0.5498  0.1105
  260TMC3    C6 3938   0.142   3.514   0.673 -0.4789  0.1892 -0.2605
  260TMC3     C 3939   0.185   3.848   0.907  0.2622  0.5225 -0.6196
  260TMC3     O 3940   0.209   3.950   0.846  0.2168 -0.6812 -0.2773
  260TMC3     H 3941   0.130   3.852   0.658 -0.7776  0.4812 -0.2961
  260TMC3    H1 3942   0.206   3.578   0.981 -2.7210 -0.2758  0.8314
  260TMC3    H2 3943   0.091   3.438   0.615  0.7762 -1.3354  0.6638
  260TMC3    C7 3944   0.159   3.359   0.846  0.1710 -0.0493 -0.2723
  260TMC3    C8 3945   0.163   3.652   0.480  0.3246 -0.0208 -0.3018
  260TMC3    O1 3946   0.180   3.281   0.757 -0.2412 -0.8038 -0.0417
  260TMC3    O2 3947   0.138   3.758   0.414 -0.1896  0.1679  0.6010
  261MPD2     C 3948   1.345   1.216  12.785 -0.3809 -0.0913  0.1113
  261MPD2    C1 3949   1.465   1.193  12.728 -0.1930  0.0771 -0.8241
  261MPD2    C2 3950   1.464   1.208  12.589 -1.1224  0.4677 -0.3025
  261MPD2    C3 3951   1.361   1.265  12.519 -0.1814 -0.4221 -0.2886
  261MPD2    C4 3952   1.251   1.308  12.588 -0.0377 -0.3709  0.6497
  261MPD2    C5 3953   1.240   1.276  12.722 -0.0655 -0.0562  0.1980
  261MPD2     H 3954   1.560   1.195  12.541 -1.0525 -2.0491  0.5381
  261MPD2    H1 3955   1.159   1.349  12.546 -0.1784 -0.4535  0.8758
  261MPD2    H2 3956   1.326   1.204  12.891 -0.0626  1.7483  0.3723
  261MPD2    H3 3957   1.144   1.294  12.769  0.7179 -1.2229  2.2245
  261MPD2     N 3958   1.377   1.297  12.385 -0.3398  0.0715 -0.5895
  261MPD2    H5 3959   1.441   1.241  12.329  1.4514  0.6348  0.9144
  261MPD2    N1 3960   1.579   1.157  12.801 -0.5253  0.1084  0.8602
  261MPD2    H7 3961   1.666   1.130  12.755 -1.2724 -0.9662  0.0761
  262TMC3    C1 3962   1.361   1.405  12.177  0.2081  0.3021  0.1529
  262TMC3    C2 3963   1.386   1.525  12.116 -0.1880  0.0529 -0.6901
  262TMC3    C3 3964   1.450   1.525  11.995 -0.2844 -0.2290 -0.0458
  262TMC3    C4 3965   1.406   1.286  12.123 -0.0386 -0.4465  0.5376
  262TMC3    C5 3966   1.473   1.290  12.005  0.5368 -0.4444 -0.3041
  262TMC3    C6 3967   1.480   1.408  11.930  0.3378  0.7110 -0.1815
  262TMC3     C 3968   1.327   1.407  12.323 -0.6098 -0.3327  0.4611
  262TMC3     O 3969   1.253   1.496  12.364  0.1964 -0.1330 -0.1476
  262TMC3     H 3970   1.357   1.609  12.178  0.1997  0.5497 -1.1805
  262TMC3    H1 3971   1.368   1.190  12.156  0.5896 -0.9542 -0.2176
  262TMC3    H2 3972   1.538   1.409  11.839  1.3160 -1.5902  0.3979
  262TMC3    C7 3973   1.542   1.171  11.961 -0.4598  0.2292  0.3757
  262TMC3    C8 3974   1.512   1.655  11.947 -0.4039 -0.3321  1.0039
  262TMC3    O1 3975   1.500   1.061  11.985  0.3119  0.3745 -0.1802
  262TMC3    O2 3976   1.602   1.636  11.866  0.1105  0.3009  0.5332
  263MPD2     C 3977   2.778   1.148  11.751 -0.5926  0.4433 -0.0155
  263MPD2    C1 3978   2.902   1.170  11.694 -0.2243 -0.0537 -0.1628
  263MPD2    C2 3979   2.899   1.189  11.557  0.9544 -0.0924  0.6244
  263MPD2    C3 3980   2.791   1.196  11.478  0.0299  0.6912 -0.0591
  263MPD2    C4 3981   2.672   1.170  11.534 -0.3940 -0.0810 -0.6227
  263MPD2    C5 3982   2.670   1.145  11.672  0.1172 -0.2330 -0.1905
  263MPD2     H 3983   2.996   1.198  11.508  1.7266  0.5867  2.2976
  263MPD2    H1 3984   2.578   1.169  11.479 -0.7412  2.4436 -0.0457
  263MPD2    H2 3985   2.774   1.116  11.854  1.1824  2.1058  0.5830
  263MPD2    H3 3986   2.576   1.128  11.722  1.2866 -0.2056  2.0123
  263MPD2     N 3987   2.817   1.220  11.330  0.1281 -0.0531  0.4230
  263MPD2    H5 3988   2.912   1.231  11.296  0.8795 -0.6937  2.3574
  263MPD2    N1 3989   3.011   1.167  11.774  0.3941 -0.4824  0.3530
  263MPD2    H7 3990   2.982   1.163  11.871 -0.2702  0.1314  0.1812
  264TMC3    C1 3991   2.743   1.314  11.120 -0.0021 -0.1842 -0.0799
  264TMC3    C2 3992   2.666   1.420  11.074  0.2426 -0.5458 -0.8264
  264TMC3    C3 3993   2.709   1.493  10.967  0.5446  0.1980  0.2221
  264TMC3    C4 3994   2.860   1.282  11.059 -0.4520 -0.3198  0.1434
  264TMC3    C5 3995   2.889   1.346  10.939  0.3155 -0.0537  0.3138
  264TMC3    C6 3996   2.810   1.448  10.891  0.1601  0.2404 -0.0939
  264TMC3     C 3997   2.714   1.255  11.245 -0.0463 -0.3986 -0.9854
  264TMC3     O 3998   2.598   1.270  11.283 -0.2542 -0.0156 -0.0021
  264TMC3     H 3999   2.578   1.455  11.127  1.4552 -0.3096  1.0489
  264TMC3    H1 4000   2.925   1.212  11.112  1.4438  0.8002 -0.6925
  264TMC3    H2 4001   2.835   1.506  10.804  0.4751 -0.7257 -0.6504
  264TMC3    C7 4002   3.028   1.337  10.890  0.8517 -0.1769 -0.4476
  264TMC3    C8 4003   2.746   1.628  11.009  0.0885 -0.3314  0.9431
  264TMC3    O1 4004   3.082   1.227  10.896  0.8619  0.5034 -0.6689
  264TMC3    O2 4005   2.844   1.670  10.956  0.0318  0.3749  0.6398
  265MPD2     C 4006   0.219   1.631  15.623 -0.3237 -0.2980 -0.2334
  265MPD2    C1 4007   0.209   1.754  15.549 -0.1522 -0.5015 -0.8276
  265MPD2    C2 4008   0.277   1.758  15.424  0.7440 -0.2639 -0.3051
  265MPD2    C3 4009   0.359   1.651  15.392  0.6477 -0.0989 -0.2912
  265MPD2    C4 4010   0.368   1.541  15.465 -0.0552  0.1389 -0.3216
  265MPD2    C5 4011   0.302   1.530  15.582  0.1068 -0.5792  0.4924
  265MPD2     H 4012   0.279   1.848  15.365  0.5745 -0.7625 -1.0739
  265MPD2    H1 4013   0.432   1.455  15.450  0.6686  0.5925  0.1170
  265MPD2    H2 4014   0.173   1.633  15.722 -0.7508  2.0672 -0.4937
  265MPD2    H3 4015   0.297   1.434  15.631  1.5475 -0.3845  1.0133
  265MPD2     N 4016   0.437   1.644  15.267  0.4216 -0.0297  0.1288
  265MPD2    H5 4017   0.470   1.550  15.252 -1.4442  0.0696 -4.7137
  265MPD2    N1 4018   0.141   1.874  15.589 -0.4083 -0.2721 -0.2962
  265MPD2    H7 4019   0.167   1.963  15.548  0.9653 -0.2166  0.7389
  266TMC3    C1 4020   4.710   1.995  15.734 -0.1435 -0.7073  0.1122
  266TMC3    C2 4021   4.591   1.998  15.802  0.2243  0.1211  0.6051
  266TMC3    C3 4022   4.571   2.110  15.878 -0.2378 -0.6598  0.2582
  266TMC3    C4 4023   0.065   2.107  15.715 -0.1103 -0.6759 -0.2369
  266TMC3    C5 4024   0.021   2.230  15.774 -0.1501  0.1546  0.4241
  266TMC3    C6 4025   4.634   2.229  15.861  1.0730  0.3665 -0.5904
  266TMC3     C 4026   0.030   1.873  15.674 -0.4119 -1.0614  0.5887
  266TMC3     O 4027   4.683   1.776  15.696 -0.1361  0.0982  0.1683
  266TMC3     H 4028   4.535   1.909  15.825  0.2656  0.1849  0.9632
  266TMC3    H1 4029   0.158   2.100  15.660  1.8996  1.6022  2.8395
  266TMC3    H2 4030   4.608   2.315  15.922 -0.2010 -0.1318 -0.4268
  266TMC3    C7 4031   0.064   2.369  15.736 -0.6227 -0.3485 -0.2930
  266TMC3    C8 4032   4.454   2.111  15.969  0.4872  0.2672 -0.3588
  266TMC3    O1 4033   0.030   2.474  15.797 -0.0760  0.0455 -0.1271
  266TMC3    O2 4034   4.369   2.019  15.951 -0.3479 -0.5175 -0.4938
  267MPD2     C 4035   2.268   3.126   0.275  0.1046  0.2049 -0.0809
  267MPD2    C1 4036   2.351   3.219   0.207  0.9841  0.1978 -0.0717
  267MPD2    C2 4037   2.318   3.261   0.084  0.7685  0.7167  0.0804
  267MPD2    C3 4038   2.185   3.234   0.032 -0.2337  0.8453  0.1832
  267MPD2    C4 4039   2.101   3.151   0.101 -0.3702  0.0122  0.4138
  267MPD2    C5 4040   2.146   3.098   0.221  0.3895 -0.1016 -0.3218
  267MPD2     H 4041   2.393   3.321   0.034  1.3880 -2.1851 -2.4342
  267MPD2    H1 4042   2.001   3.135   0.061 -0.3944 -0.2108  0.5639
  267MPD2    H2 4043   2.287   3.080   0.371 -1.0885  1.3971  0.7304
  267MPD2    H3 4044   2.071   3.048   0.282  0.1829  1.3789  0.6323
  267MPD2     N 4045   2.143   3.297  17.603 -0.3003 -0.3523 -0.1428
  267MPD2    H5 4046   2.050   3.264  17.577  0.1968 -1.6151 -0.3092
  267MPD2    N1 4047   2.476   3.258   0.268 -0.1536  0.4805 -0.3491
  267MPD2    H7 4048   2.504   3.202   0.348 -0.4329 -0.8742 -1.1940
  268TMC3    C1 4049   2.681   3.390   0.285 -0.6879 -0.4468  0.6318
  268TMC3    C2 4050   2.765   3.470   0.225 -0.3512  0.6465 -1.0157
  268TMC3    C3 4051   2.898   3.471   0.258 -0.0337  0.1192 -0.7473
  268TMC3    C4 4052   2.715   3.311   0.390 -0.0454 -0.1206 -0.7065
  268TMC3    C5 4053   2.838   3.333   0.446 -0.6130  0.1427  0.0574
  268TMC3    C6 4054   2.940   3.412   0.377 -0.1952  0.1486 -0.1840
  268TMC3     C 4055   2.546   3.368   0.230 -0.4179 -0.6839  0.5202
  268TMC3     O 4056   2.503   3.463   0.165  0.0535 -0.4634  0.2672
  268TMC3     H 4057   2.735   3.518   0.133  0.7337  0.6407 -1.3705
  268TMC3    H1 4058   2.637   3.258   0.443  0.2932  1.1747  1.1149
  268TMC3    H2 4059   3.045   3.419   0.402 -0.2631  0.1637  0.0926
  268TMC3    C7 4060   2.859   3.296   0.588 -0.2668  0.3818 -0.7124
  268TMC3    C8 4061   2.993   3.575   0.215 -0.7166  0.0575 -0.8988
  268TMC3    O1 4062   2.771   3.229   0.641 -0.3284  0.0888  0.3845
  268TMC3    O2 4063   3.074   3.623   0.293 -0.0702 -0.2280 -0.2302
  269MPD2     C 4064   2.739   2.358  15.966  0.0968  0.0309  0.5637
  269MPD2    C1 4065   2.597   2.356  15.955  0.5971  0.5925  0.0851
  269MPD2    C2 4066   2.527   2.470  15.915  0.4514  0.9480 -0.1679
  269MPD2    C3 4067   2.594   2.590  15.898 -0.0967  0.4524 -0.3777
  269MPD2    C4 4068   2.736   2.588  15.915 -1.4439 -0.9408 -0.1904
  269MPD2    C5 4069   2.807   2.473  15.951  0.4352  0.1622 -0.5262
  269MPD2     H 4070   2.419   2.471  15.908  0.4638  2.6499 -0.1235
  269MPD2    H1 4071   2.800   2.675  15.903 -2.2474 -0.4910 -1.2291
  269MPD2    H2 4072   2.787   2.262  15.984  2.2568  0.9846 -0.1374
  269MPD2    H3 4073   2.915   2.476  15.947  0.5572  0.8105  3.6185
  269MPD2     N 4074   2.522   2.716  15.895 -0.2722 -0.1519  0.4375
  269MPD2    H5 4075   2.422   2.699  15.904  0.0006 -1.0639  1.7345
  269MPD2    N1 4076   2.537   2.228  15.970  0.5932  0.1875  0.3319
  269MPD2    H7 4077   2.591   2.142  15.981 -3.2505 -2.1725  0.8593
  270TMC3    C1 4078   2.360   2.067  15.947 -0.5955 -0.2061 -0.1693
  270TMC3    C2 4079   2.233   2.038  15.927 -0.7623  0.9106  0.3879
  270TMC3    C3 4080   2.197   1.929  15.842 -0.0884  0.7146 -0.0727
  270TMC3    C4 4081   2.465   1.977  15.914 -0.5134  0.1196  0.3943
  270TMC3    C5 4082   2.425   1.876  15.830  0.0296  0.3989  0.0683
  270TMC3    C6 4083   2.297   1.847  15.795  0.2176  0.3343 -0.2134
  270TMC3     C 4084   2.399   2.205  15.958 -0.1406 -0.5593 -0.8405
  270TMC3     O 4085   2.304   2.280  15.951  0.0984 -0.3603  0.2651
  270TMC3     H 4086   2.157   2.115  15.939 -2.6063 -1.0309  1.0471
  270TMC3    H1 4087   2.570   2.000  15.924 -0.3552  0.2073 -1.5525
  270TMC3    H2 4088   2.273   1.757  15.739 -0.5530  1.3651 -1.5216
  270TMC3    C7 4089   2.529   1.786  15.797  0.6048 -0.2119  0.9694
  270TMC3    C8 4090   2.080   1.948  15.768 -0.0084 -0.0844 -0.2336
  270TMC3    O1 4091   2.609   1.780  15.887 -0.2883 -0.4143 -0.5439
  270TMC3    O2 4092   2.012   2.046  15.797  0.3292 -0.0439  0.4579
  271MPD2     C 4093   1.754   1.827  13.979 -0.3610  0.4689  0.0123
  271MPD2    C1 4094   1.710   1.871  14.100  0.1852 -0.2894  0.0438
  271MPD2    C2 4095   1.584   1.933  14.105  0.1544 -0.0659 -0.2404
  271MPD2    C3 4096   1.507   1.939  13.992  0.3453 -1.2488 -0.1486
  271MPD2    C4 4097   1.558   1.898  13.871  0.0118  0.0848 -0.0646
  271MPD2    C5 4098   1.674   1.833  13.868  0.4308 -0.6295  0.4988
  271MPD2     H 4099   1.540   1.966  14.199 -1.9890  0.4233 -1.4110
  271MPD2    H1 4100   1.501   1.902  13.779  1.7739  0.2784 -1.1375
  271MPD2    H2 4101   1.844   1.771  13.956 -0.9379 -0.4782  0.0684
  271MPD2    H3 4102   1.715   1.811  13.770  0.3751  1.2386  0.0566
  271MPD2     N 4103   1.374   1.995  13.985  0.0993 -0.3681 -0.6836
  271MPD2    H5 4104   1.322   1.994  13.898 -2.2394  2.7650  0.6603
  271MPD2    N1 4105   1.782   1.845  14.220 -0.4701  0.3983 -0.2486
  271MPD2    H7 4106   1.732   1.867  14.306 -0.7115  0.5552 -0.4288
  272TMC3    C1 4107   1.915   1.693  14.358 -0.2332  0.5357  0.4899
  272TMC3    C2 4108   2.004   1.590  14.364 -0.3271  0.2398 -0.0894
  272TMC3    C3 4109   1.990   1.496  14.456  0.5574 -0.7130 -0.0896
  272TMC3    C4 4110   1.822   1.713  14.457 -0.5933  0.0201 -0.1711
  272TMC3    C5 4111   1.816   1.620  14.554  0.4644  0.2245  0.0426
  272TMC3    C6 4112   1.905   1.515  14.560  0.2227  0.0748 -0.5709
  272TMC3     C 4113   1.899   1.772  14.230  0.5750  0.2515  0.3509
  272TMC3     O 4114   1.984   1.741  14.140 -0.1316 -0.1557 -0.9466
  272TMC3     H 4115   2.070   1.579  14.279  0.9338 -1.9280  1.1645
  272TMC3    H1 4116   1.751   1.795  14.456  0.4304  0.8787 -1.4305
  272TMC3    H2 4117   1.896   1.441  14.639 -3.3410  0.2974 -0.7448
  272TMC3    C7 4118   1.762   1.662  14.683  0.3618 -0.2851  0.5292
  272TMC3    C8 4119   2.102   1.397  14.469  0.0965 -0.1310  0.5724
  272TMC3    O1 4120   1.699   1.574  14.735 -0.6608 -0.3653  0.1312
  272TMC3    O2 4121   2.167   1.384  14.367 -0.0236 -0.5146 -0.1369
  273MPD2     C 4122   3.123   4.099  11.881 -0.0927 -0.6205  0.0449
  273MPD2    C1 4123   3.214   4.185  11.937 -0.3622  0.2875  0.2238
  273MPD2    C2 4124   3.251   4.299  11.869  0.5924  0.6690  0.8064
  273MPD2    C3 4125   3.184   4.326  11.755  0.0767 -1.1564  0.0021
  273MPD2    C4 4126   3.086   4.249  11.706 -0.0651 -0.4476  0.9530
  273MPD2    C5 4127   3.056   4.130  11.763  0.0672  0.1464  0.8536
  273MPD2     H 4128   3.326   4.365  11.911 -0.2034  1.8696  0.3348
  273MPD2    H1 4129   3.028   4.283  11.620  1.1750 -0.1574  0.2371
  273MPD2    H2 4130   3.098   4.007  11.933  1.6595 -1.5938 -0.8661
  273MPD2    H3 4131   2.980   4.066  11.720 -0.7571  0.5541  1.6920
  273MPD2     N 4132   3.206   4.445  11.684  0.5046 -0.4751  0.1517
  273MPD2    H5 4133   3.146   4.464  11.605  0.8144 -1.9930 -0.4519
  273MPD2    N1 4134   3.278   4.157  12.060  0.1138 -0.5440 -0.3233
  273MPD2    H7 4135   3.251   4.071  12.107 -2.1632  1.4500  2.0371
  274TMC3    C1 4136   3.290   4.645  11.607  0.4260 -0.6106 -0.5550
  274TMC3    C2 4137   3.280   4.635  11.471 -0.4357 -0.2393  0.0759
  274TMC3    C3 4138   3.271   0.035  11.402 -0.0635  0.2251 -0.2286
  274TMC3    C4 4139   3.313   0.041  11.670  0.2534 -0.0815  0.5108
  274TMC3    C5 4140   3.306   0.150  11.596  0.7557 -0.2333 -0.1937
  274TMC3    C6 4141   3.271   0.155  11.465  0.2297 -0.3058 -1.3071
  274TMC3     C 4142   3.308   4.529  11.692  0.3127 -0.2322  0.1104
  274TMC3     O 4143   3.399   4.533  11.774  0.1743 -0.0917  0.9288
  274TMC3     H 4144   3.268   4.541  11.420  2.6762 -1.0816  0.8596
  274TMC3    H1 4145   3.318   0.036  11.778  1.8578 -1.1470  0.3810
  274TMC3    H2 4146   3.281   0.253  11.419  1.1085  0.4457  0.4650
  274TMC3    C7 4147   3.310   0.277  11.675 -0.3831 -0.2801 -0.4349
  274TMC3    C8 4148   3.242   0.026  11.257 -0.1728 -0.6493 -0.0593
  274TMC3    O1 4149   3.241   0.369  11.639 -0.7887 -0.2758  0.3173
  274TMC3    O2 4150   3.272   4.643  11.206  0.2758  0.3332  0.5609
  275MPD2     C 4151   2.976   3.093  14.818 -0.0675  0.3775 -0.1010
  275MPD2    C1 4152   3.014   2.963  14.797 -0.1529 -0.4671 -0.3540
  275MPD2    C2 4153   2.932   2.890  14.712  0.7774 -0.6594 -0.1598
  275MPD2    C3 4154   2.819   2.948  14.659 -0.6001 -0.1289 -0.0294
  275MPD2    C4 4155   2.782   3.081  14.689 -0.1576  0.0160  0.6906
  275MPD2    C5 4156   2.868   3.155  14.754 -0.5124  0.6062 -0.1813
  275MPD2     H 4157   2.950   2.785  14.691  1.8662 -0.5517  0.2227
  275MPD2    H1 4158   2.694   3.126  14.646 -0.2321  1.0930  1.9579
  275MPD2    H2 4159   3.030   3.164  14.880 -1.1798  0.7192  0.4788
  275MPD2    H3 4160   2.845   3.259  14.775 -0.6131  0.9612 -1.9970
  275MPD2     N 4161   2.726   2.876  14.577  0.1013  0.2997 -0.3463
  275MPD2    H5 4162   2.647   2.926  14.536 -0.8450 -0.5889  0.4103
  275MPD2    N1 4163   3.134   2.910  14.845 -0.4537  0.0794 -0.1369
  275MPD2    H7 4164   3.163   2.818  14.813 -0.5953  0.7104 -2.0909
  276TMC3    C1 4165   3.324   2.870  14.977 -0.7047  0.9063 -0.6758
  276TMC3    C2 4166   3.306   2.735  14.981 -0.9897  0.3240  0.7392
  276TMC3    C3 4167   3.414   2.655  15.006 -0.2869 -0.5904  0.0445
  276TMC3    C4 4168   3.439   2.930  15.014  0.1715 -0.6407  0.0629
  276TMC3    C5 4169   3.546   2.847  15.046 -0.5823  0.1991 -0.1272
  276TMC3    C6 4170   3.537   2.708  15.037 -0.5626  0.2744 -0.4814
  276TMC3     C 4171   3.217   2.955  14.943  0.9238 -0.3666  0.0865
  276TMC3     O 4172   3.210   3.061  15.008 -0.3041  0.4298  0.2428
  276TMC3     H 4173   3.215   2.691  14.940  0.3347 -0.7605 -1.0623
  276TMC3    H1 4174   3.435   3.039  15.009  0.3824 -0.5399  1.8153
  276TMC3    H2 4175   3.627   2.649  15.049 -1.1632 -0.9031 -1.6123
  276TMC3    C7 4176   3.663   2.919  15.097 -0.1511 -0.0854 -0.3678
  276TMC3    C8 4177   3.415   2.514  14.961  1.0465  0.4402 -0.3891
  276TMC3    O1 4178   3.649   3.034  15.132 -0.4110  0.2247  0.2353
  276TMC3    O2 4179   3.524   2.461  14.937  0.3511  0.0520  0.1578
  277MPD2     C 4180   0.591   1.521  13.331  0.4994  0.4555  0.0388
  277MPD2    C1 4181   0.467   1.579  13.339  0.2199  0.7274 -0.1559
  277MPD2    C2 4182   0.373   1.515  13.421  0.4192 -0.6110  0.0758
  277MPD2    C3 4183   0.397   1.393  13.487 -0.8104  0.2316  0.7671
  277MPD2    C4 4184   0.528   1.346  13.485 -0.0789  0.4906 -0.8580
  277MPD2    C5 4185   0.622   1.412  13.400 -0.7885  0.1773 -0.2145
  277MPD2     H 4186   0.278   1.564  13.438  1.9833  1.5738  2.5694
  277MPD2    H1 4187   0.545   1.247  13.526 -0.5027  0.6181 -0.3740
  277MPD2    H2 4188   0.669   1.573  13.277 -0.7623  0.7547 -1.5091
  277MPD2    H3 4189   0.719   1.364  13.392 -1.3875 -1.4228  2.1995
  277MPD2     N 4190   0.296   1.345  13.569 -0.0280 -0.2098 -0.0360
  277MPD2    H5 4191   0.207   1.390  13.557  0.4809  0.7487 -0.1825
  277MPD2    N1 4192   0.451   1.710  13.299  0.3388  0.0585  0.5907
  277MPD2    H7 4193   0.534   1.769  13.304  0.7144 -0.3264 -1.1124
  278TMC3    C1 4194   0.180   1.209  13.706 -0.1051 -0.0144 -0.4491
  278TMC3    C2 4195   0.168   1.087  13.762 -0.1470  0.6262  0.0847
  278TMC3    C3 4196   0.053   1.045  13.808 -0.0177 -0.0278 -0.1693
  278TMC3    C4 4197   0.088   1.309  13.733  0.3519 -0.6969 -0.1160
  278TMC3    C5 4198   4.694   1.267  13.789  0.2656 -0.3306  0.6191
  278TMC3    C6 4199   4.670   1.135  13.826 -0.4604 -0.7457 -0.0112
  278TMC3     C 4200   0.308   1.242  13.660 -0.3941  0.1028  0.2199
  278TMC3     O 4201   0.404   1.172  13.683  0.0152 -0.3324 -0.1075
  278TMC3     H 4202   0.248   1.014  13.753 -0.7999  0.2969 -3.1802
  278TMC3    H1 4203   0.097   1.410  13.695  1.6612 -0.9849 -0.5730
  278TMC3    H2 4204   4.573   1.104  13.863  0.2011 -0.6962  1.7474
  278TMC3    C7 4205   4.606   1.369  13.847  0.1851 -0.3006  0.2327
  278TMC3    C8 4206   0.065   0.925  13.900 -0.0446 -0.3519 -0.4499
  278TMC3    O1 4207   4.664   1.468  13.893  0.1428 -0.2991  0.3561
  278TMC3    O2 4208   0.181   0.895  13.933 -0.5088 -0.3127  0.0653
  279MPD2     C 4209   4.445   1.746   0.674  0.2868 -0.2268  0.4551
  279MPD2    C1 4210   4.309   1.752   0.644 -0.0210  0.4397  0.5278
  279MPD2    C2 4211   4.266   1.787   0.516 -0.3967  0.1629  0.4294
  279MPD2    C3 4212   4.354   1.818   0.417 -0.5318 -0.4559  0.6147
  279MPD2    C4 4213   4.486   1.807   0.442  0.3491 -0.5907  0.0552
  279MPD2    C5 4214   4.532   1.767   0.565 -0.1539 -0.1311 -0.4797
  279MPD2     H 4215   4.163   1.810   0.491 -0.6382  1.3052  2.5077
  279MPD2    H1 4216   4.553   1.816   0.357 -0.8771 -1.4733 -1.0045
  279MPD2    H2 4217   4.481   1.709   0.770 -1.3897  0.2142  1.2668
  279MPD2    H3 4218   4.638   1.747   0.572 -0.3630 -0.4693  1.7469
  279MPD2     N 4219   4.318   1.863   0.291  0.6869 -0.3767 -0.4819
  279MPD2    H5 4220   4.399   1.893   0.238  1.8470  0.0577  1.5347
  279MPD2    N1 4221   4.214   1.743   0.750 -0.5654 -0.8369 -0.0041
  279MPD2    H7 4222   4.244   1.755   0.846  0.0614  1.6639 -0.5132
  280TMC3    C1 4223   4.003   1.807   0.827 -0.7884 -0.1359  0.5313
  280TMC3    C2 4224   3.873   1.770   0.827 -0.5066  0.1429  0.0839
  280TMC3    C3 4225   3.778   1.868   0.859  0.1785  0.0968  0.5767
  280TMC3    C4 4226   4.043   1.941   0.840  0.3599  0.3626  0.4403
  280TMC3    C5 4227   3.943   2.037   0.869 -0.2860 -0.1050 -0.3424
  280TMC3    C6 4228   3.807   2.000   0.883 -0.2061  0.3207 -0.0820
  280TMC3     C 4229   4.080   1.730   0.728  0.0451  0.1755  0.2002
  280TMC3     O 4230   4.016   1.705   0.624 -0.1371 -0.1137 -0.0336
  280TMC3     H 4231   3.849   1.665   0.810  0.7565 -0.0292 -0.6290
  280TMC3    H1 4232   4.147   1.968   0.832  0.0984  0.7064 -1.8534
  280TMC3    H2 4233   3.728   2.063   0.922  2.6468  1.3028  4.0734
  280TMC3    C7 4234   3.978   2.172   0.827 -0.1430  0.4372  0.1267
  280TMC3    C8 4235   3.652   1.815   0.903  0.4462 -0.9501 -0.1451
  280TMC3    O1 4236   4.094   2.197   0.845  0.1614 -0.7570 -0.3612
  280TMC3    O2 4237   3.598   1.858   1.006  0.0298  0.7311 -0.0458
  281TMC3    C1 4238   2.874   1.647  13.071 -0.2020  0.0352  0.6095
  281TMC3    C2 4239   2.873   1.706  12.946  0.0930  0.8843  0.1038
  281TMC3    C3 4240   2.772   1.672  12.859  0.0945 -0.3164  0.2240
  281TMC3    C4 4241   2.788   1.548  13.103  0.4521  0.2490 -0.1056
  281TMC3    C5 4242   2.681   1.525  13.022  0.5419  0.1122 -0.8453
  281TMC3    C6 4243   2.678   1.578  12.896 -0.1446 -0.2704 -0.1642
  281TMC3     C 4244   2.911   1.736  13.176  0.2556  0.5556 -0.1038
  281TMC3     O 4245   2.955   1.685  13.280 -0.0714  0.5503 -0.3797
  281TMC3     H 4246   2.945   1.781  12.913  1.9268  0.0169  2.1757
  281TMC3    H1 4247   2.791   1.502  13.202 -1.5995  1.4375  0.4989
  281TMC3    H2 4248   2.592   1.576  12.830 -0.4502  2.3487  0.1218
  281TMC3    C7 4249   2.574   1.435  13.059  0.4076 -1.2473 -0.1472
  281TMC3    C8 4250   2.725   1.795  12.815  0.2511 -0.3143 -0.4036
  281TMC3    O1 4251   2.514   1.384  12.971  0.2267  0.2615  0.4712
  281TMC3    O2 4252   2.755   1.894  12.886  0.0566 -0.2204  0.6099
  282MPD2     C 4253   0.105   3.448  15.463 -0.0328 -0.3418  0.3969
  282MPD2    C1 4254   4.687   3.460  15.449 -0.1373  0.0394  0.1257
  282MPD2    C2 4255   4.627   3.486  15.332 -0.7940 -0.1208  0.1895
  282MPD2    C3 4256   4.703   3.469  15.217 -0.0527  0.0752 -0.0073
  282MPD2    C4 4257   0.115   3.447  15.230 -0.2645 -0.3933 -0.2995
  282MPD2    C5 4258   0.176   3.431  15.351  0.1309  0.6050 -0.5305
  282MPD2     H 4259   4.521   3.505  15.329 -0.9058 -0.4853  2.0349
  282MPD2    H1 4260   0.176   3.436  15.142  0.1233  0.8831 -0.1827
  282MPD2    H2 4261   0.160   3.445  15.556 -0.4216  0.2193  0.6514
  282MPD2    H3 4262   0.280   3.400  15.353  0.1863  0.5758 -3.3326
  282MPD2     N 4263   4.634   3.481  15.093 -0.7485  0.6563 -0.3384
  282MPD2    H5 4264   4.540   3.518  15.105 -1.2085 -0.2341 -1.1290
  282MPD2    N1 4265   4.602   3.470  15.565  0.7169  0.2862 -0.4977
  282MPD2    H7 4266   4.502   3.476  15.547 -0.1212 -0.3635  3.9947
  283TMC3    C1 4267   4.532   3.535  15.770  0.4866 -0.8978 -0.1253
  283TMC3    C2 4268   4.535   3.663  15.833  0.1040 -0.0859  0.3836
  283TMC3    C3 4269   4.444   3.692  15.926  0.0598 -0.2256  0.0237
  283TMC3    C4 4270   4.444   3.440  15.810 -0.2431 -0.5307 -0.4346
  283TMC3    C5 4271   4.339   3.481  15.892 -0.0910 -0.6858 -0.5905
  283TMC3    C6 4272   4.346   3.604  15.961  0.0050 -0.9307 -0.4538
  283TMC3     C 4273   4.645   3.497  15.690  0.4836  0.0982 -0.8748
  283TMC3     O 4274   0.030   3.539  15.732 -0.1173  0.3213  0.1976
  283TMC3     H 4275   4.615   3.732  15.805 -1.3488  1.3979 -0.0818
  283TMC3    H1 4276   4.445   3.345  15.758  0.3420 -0.3902 -0.6839
  283TMC3    H2 4277   4.285   3.628  16.047  1.1221 -1.7602  0.5597
  283TMC3    C7 4278   4.248   3.382  15.945 -0.2961 -0.5840 -0.2447
  283TMC3    C8 4279   4.464   3.813  16.009  0.9039  0.1597  0.1099
  283TMC3    O1 4280   4.160   3.440  16.002 -0.1475 -0.9457 -0.2263
  283TMC3    O2 4281   4.410   3.810  16.123  0.5311  0.2501  0.0872
  284MPD2     C 4282   2.993   2.646  12.041  0.0426  0.0736  0.2113
  284MPD2    C1 4283   3.116   2.713  12.026 -0.2210 -0.5324  0.3418
  284MPD2    C2 4284   3.230   2.679  12.100  0.9088  0.0178  0.7498
  284MPD2    C3 4285   3.217   2.571  12.185 -0.0051 -0.0225 -0.0550
  284MPD2    C4 4286   3.087   2.518  12.211 -0.1474 -0.3760  0.0686
  284MPD2    C5 4287   2.982   2.553  12.139  0.2872  0.2193 -0.0347
  284MPD2     H 4288   3.330   2.714  12.077  0.5366  0.9871  0.6156
  284MPD2    H1 4289   3.050   2.449  12.286 -0.6860  1.1740  1.2248
  284MPD2    H2 4290   2.906   2.672  11.982  0.9076 -1.1471 -1.6247
  284MPD2    H3 4291   2.879   2.520  12.154 -0.4736  0.9942 -3.6460
  284MPD2     N 4292   3.331   2.522  12.258  0.2916 -1.0549 -0.0164
  284MPD2    H5 4293   3.418   2.571  12.238  0.6667 -1.0072  1.7430
  284MPD2    N1 4294   3.146   2.793  11.914  0.0576 -0.3901 -0.3353
  284MPD2    H7 4295   3.238   2.835  11.919 -0.2645 -0.0049  2.2259
  285TMC3    C1 4296   3.134   2.894  11.714 -0.9345 -0.2875 -0.6774
  285TMC3    C2 4297   3.137   2.851  11.586 -0.4921  0.0495  0.1619
  285TMC3    C3 4298   3.240   2.903  11.504 -0.6805  0.1095 -0.4154
  285TMC3    C4 4299   3.197   3.005  11.754  0.4963  0.6899 -0.0977
  285TMC3    C5 4300   3.286   3.065  11.669  0.5955 -0.4044  0.0126
  285TMC3    C6 4301   3.312   3.010  11.545 -0.2490 -0.3637 -0.1177
  285TMC3     C 4302   3.063   2.816  11.807  0.2798 -0.2100 -0.1676
  285TMC3     O 4303   2.982   2.739  11.762 -0.1045  0.1139 -0.4324
  285TMC3     H 4304   3.089   2.762  11.547  0.2377  0.7471 -2.3356
  285TMC3    H1 4305   3.189   3.045  11.854 -1.2271  1.1260 -0.4030
  285TMC3    H2 4306   3.373   3.058  11.469 -2.3980  0.7060 -1.1745
  285TMC3    C7 4307   3.323   3.202  11.692 -0.3968  0.4703 -0.5065
  285TMC3    C8 4308   3.300   2.805  11.417  0.3239 -0.1212  0.5477
  285TMC3    O1 4309   3.330   3.268  11.589  0.1731  0.1893 -0.2926
  285TMC3    O2 4310   3.225   2.721  11.376  0.0615 -0.4578  0.1026
  286MPD2     C 4311   3.156   2.201   2.094 -0.0969  0.8857 -0.5984
  286MPD2    C1 4312   3.140   2.248   1.966 -0.2755  0.4522  0.0663
  286MPD2    C2 4313   3.227   2.204   1.868 -0.6749  0.0210 -0.5810
  286MPD2    C3 4314   3.345   2.136   1.906  0.0468 -0.0197 -0.1137
  286MPD2    C4 4315   3.361   2.092   2.042  0.2340  0.4399 -0.1055
  286MPD2    C5 4316   3.257   2.120   2.125 -0.9941 -0.7152 -0.8432
  286MPD2     H 4317   3.205   2.226   1.764 -1.4268  2.7674  0.1644
  286MPD2    H1 4318   3.440   2.023   2.067  2.2935  1.8396 -2.7946
  286MPD2    H2 4319   3.082   2.220   2.170  1.1527 -1.1313  1.1203
  286MPD2    H3 4320   3.270   2.090   2.229 -0.2602 -2.2518 -1.3671
  286MPD2     N 4321   3.446   2.100   1.819 -0.5329 -0.0519 -0.5942
  286MPD2    H5 4322   3.518   2.047   1.866 -0.9246 -0.7094 -0.7360
  286MPD2    N1 4323   3.031   2.327   1.921  0.2229 -0.1787  0.3129
  286MPD2    H7 4324   3.026   2.344   1.821 -1.1762 -0.6145  0.3062
  287TMC3    C1 4325   3.554   2.019   1.637  0.3281  0.0947 -0.0923
  287TMC3    C2 4326   3.544   1.961   1.516  0.2923  0.8953 -0.3472
  287TMC3    C3 4327   3.652   1.899   1.465  0.2425  0.9987 -0.5339
  287TMC3    C4 4328   3.675   2.012   1.709 -0.7136  0.2279 -0.5353
  287TMC3    C5 4329   3.783   1.939   1.659 -0.1675 -0.0049  0.0850
  287TMC3    C6 4330   3.774   1.885   1.532 -0.4335 -0.1145  0.6232
  287TMC3     C 4331   3.442   2.104   1.685 -0.3210  0.5912 -0.4073
  287TMC3     O 4332   3.360   2.146   1.604  0.0409 -0.0795  0.5826
  287TMC3     H 4333   3.452   1.979   1.462  0.7533  0.2570 -1.3320
  287TMC3    H1 4334   3.680   2.078   1.795  0.4246  0.3847 -0.7223
  287TMC3    H2 4335   3.866   1.843   1.492  1.1041  1.9874  2.0059
  287TMC3    C7 4336   3.896   1.926   1.754 -0.1259  0.3748 -0.4149
  287TMC3    C8 4337   3.610   1.785   1.397  0.0958  0.8752  0.4127
  287TMC3    O1 4338   3.891   1.989   1.859 -0.0010  0.4177  0.1904
  287TMC3    O2 4339   3.492   1.759   1.397  0.3715  0.0247  0.1346
  288TMC3    C1 4340   0.185   1.415  14.517  0.3365  0.1596 -0.6392
  288TMC3    C2 4341   0.181   1.438  14.651  0.3273  0.2567 -0.0777
  288TMC3    C3 4342   0.087   1.375  14.725 -0.3711  0.5131  1.0100
  288TMC3    C4 4343   0.102   1.323  14.457  0.0295 -0.2611  0.5208
  288TMC3    C5 4344   0.004   1.258  14.539 -0.3814  0.2629  0.0418
  288TMC3    C6 4345   4.716   1.287  14.672  0.3282  0.3475  0.4453
  288TMC3     C 4346   0.293   1.474  14.441  0.7646 -0.7721 -0.0455
  288TMC3     O 4347   0.397   1.496  14.504  0.2670 -0.3787  0.4984
  288TMC3     H 4348   0.261   1.497  14.696 -0.8010  1.2281  0.6383
  288TMC3    H1 4349   0.114   1.299  14.352  2.3402  1.3071  0.4199
  288TMC3    H2 4350   4.628   1.258  14.728 -1.3842  1.0991 -1.8517
  288TMC3    C7 4351   4.628   1.163  14.485  0.0309  0.5559  0.0427
  288TMC3    C8 4352   0.087   1.408  14.867 -0.3077  0.3715 -0.1514
  288TMC3    O1 4353   4.581   1.088  14.566  0.8219 -0.4418 -0.0963
  288TMC3    O2 4354   0.134   1.514  14.900 -0.2861 -0.3562 -0.4244
  289MPD2     C 4355   0.349   0.937  14.511  0.5696  0.0904 -0.1526
  289MPD2    C1 4356   0.330   0.849  14.614 -0.0796 -0.3013 -0.1496
  289MPD2    C2 4357   0.210   0.776  14.623 -0.6531  0.4512 -0.0301
  289MPD2    C3 4358   0.112   0.805  14.533 -0.4714 -0.0071  0.1016
  289MPD2    C4 4359   0.136   0.886  14.423 -0.0391  0.2851  0.3292
  289MPD2    C5 4360   0.258   0.952  14.412  0.6035  0.1625 -0.1587
  289MPD2     H 4361   0.186   0.718  14.712 -1.6687  1.0763  0.1016
  289MPD2    H1 4362   0.058   0.902  14.349  0.0726 -0.2037  0.1026
  289MPD2    H2 4363   0.443   0.988  14.497  0.9541 -0.8310 -0.8927
  289MPD2    H3 4364   0.284   1.003  14.319 -0.4026  2.3681  0.7848
  289MPD2     N 4365   4.705   0.743  14.536 -0.1229  0.0847  0.9893
  289MPD2    H5 4366   4.632   0.769  14.470  0.4285  0.6260  0.5912
  289MPD2    N1 4367   0.431   0.853  14.713 -0.8582 -0.0574  0.0478
  289MPD2    H7 4368   0.502   0.926  14.709 -1.5253  0.4837 -1.7249
  290TMC3    C1 4369   4.524   0.612  14.637 -0.3620  0.4923 -0.2453
  290TMC3    C2 4370   4.441   0.712  14.608  0.6512 -0.9442  0.0547
  290TMC3    C3 4371   4.305   0.700  14.629 -0.3539 -0.2837  1.0259
  290TMC3    C4 4372   4.482   0.499  14.695 -0.2881 -0.3171 -0.8406
  290TMC3    C5 4373   4.349   0.484  14.710  0.3624 -0.2294  0.4340
  290TMC3    C6 4374   4.256   0.581  14.679 -0.7418 -0.4136 -0.5925
  290TMC3     C 4375   4.669   0.629  14.614 -0.4278 -0.1399  0.4997
  290TMC3     O 4376   0.019   0.552  14.685  0.9379 -0.3572 -0.2009
  290TMC3     H 4377   4.479   0.807  14.571 -2.0383  0.1291  0.0896
  290TMC3    H1 4378   4.543   0.413  14.721 -0.2679  0.0548  0.3414
  290TMC3    H2 4379   4.150   0.569  14.699 -0.2546  0.4218  2.5414
  290TMC3    C7 4380   4.290   0.384  14.796  0.3904  0.0103  0.3381
  290TMC3    C8 4381   4.202   0.786  14.571 -0.1303  0.8664  0.0906
  290TMC3    O1 4382   4.191   0.420  14.858  0.2445  0.1343  0.4246
  290TMC3    O2 4383   4.095   0.737  14.545  0.0424  0.3886  0.6632
  291MPD2     C 4384   4.697   0.156   1.093 -0.5216 -0.0810  0.3381
  291MPD2    C1 4385   4.620   0.253   1.035  0.2561  0.3441 -0.5759
  291MPD2    C2 4386   4.667   0.378   1.008  0.4240  0.5374 -0.0709
  291MPD2    C3 4387   0.081   0.400   1.028 -0.4668  0.7944  0.1195
  291MPD2    C4 4388   0.161   0.306   1.100 -0.2643 -0.1575 -1.0772
  291MPD2    C5 4389   0.100   0.189   1.137  0.0582  0.5900  0.2705
  291MPD2     H 4390   4.612   0.451   0.951  2.0162  2.0577  0.3477
  291MPD2    H1 4391   0.260   0.331   1.138 -0.5051 -2.0907  0.8311
  291MPD2    H2 4392   4.665   0.057   1.126 -1.4545  0.3141  0.6071
  291MPD2    H3 4393   0.160   0.116   1.190 -1.2860 -0.6889  0.0268
  291MPD2     N 4394   0.150   0.521   0.997  0.8175 -0.4140 -0.6830
  291MPD2    H5 4395   0.247   0.527   1.027  0.4941  0.8101  0.1260
  291MPD2    N1 4396   4.487   0.225   0.992  0.0841  0.3514 -0.0456
  291MPD2    H7 4397   4.430   0.305   0.965 -2.1396 -1.2216  0.0159
  292TMC3    C1 4398   4.307   0.092   0.951  0.6941  0.7300 -0.3718
  292TMC3    C2 4399   4.221   0.184   0.999 -0.1683 -0.1014  0.0796
  292TMC3    C3 4400   4.085   0.153   0.983  0.6059 -0.2067 -0.2762
  292TMC3    C4 4401   4.273   4.710   0.868 -0.1545 -0.0949 -0.2546
  292TMC3    C5 4402   4.141   4.698   0.833  0.1218 -0.0126 -0.5514
  292TMC3    C6 4403   4.043   0.058   0.891  0.4535 -0.0807  0.1935
  292TMC3     C 4404   4.442   0.097   0.982 -0.3137  0.1423  0.1994
  292TMC3     O 4405   4.500   4.711   0.982 -0.5365  0.3733 -0.6913
  292TMC3     H 4406   4.254   0.246   1.082 -1.1662  2.0275 -1.0937
  292TMC3    H1 4407   4.348   4.648   0.821 -0.6696 -0.6496 -0.3533
  292TMC3    H2 4408   3.935   0.044   0.882  1.0532 -3.5618 -1.6543
  292TMC3    C7 4409   4.099   4.595   0.736 -0.7427  0.6495  0.0497
  292TMC3    C8 4410   3.991   0.221   1.070 -0.3988 -0.6915 -0.1391
  292TMC3    O1 4411   4.187   4.522   0.690  0.2470  0.3724 -0.0810
  292TMC3    O2 4412   4.026   0.262   1.179  0.6407 -0.8124  0.0152
  293MPD2     C 4413   1.556   1.554  12.604  0.6250 -0.1346 -0.2339
  293MPD2    C1 4414   1.461   1.629  12.666 -0.2134  0.4388 -0.1988
  293MPD2    C2 4415   1.483   1.661  12.797 -0.0774  0.0631  0.3634
  293MPD2    C3 4416   1.594   1.607  12.869  0.0545 -0.3463 -0.3206
  293MPD2    C4 4417   1.682   1.523  12.806 -0.1679  0.0869  0.8637
  293MPD2    C5 4418   1.661   1.494  12.671  0.3917 -0.9425  0.3052
  293MPD2     H 4419   1.418   1.728  12.852  0.4581  2.3495 -1.7734
  293MPD2    H1 4420   1.769   1.470  12.843  0.6362  0.7400 -0.1013
  293MPD2    H2 4421   1.547   1.524  12.501  0.5736 -1.3882  0.1350
  293MPD2    H3 4422   1.729   1.427  12.619 -0.9219 -1.0266 -1.2881
  293MPD2     N 4423   1.603   1.643  13.000  0.0138  0.8436  0.0978
  293MPD2    H5 4424   1.543   1.719  13.033 -0.2996  0.2123  0.9742
  293MPD2    N1 4425   1.343   1.669  12.599 -0.0805  0.1454 -0.1885
  293MPD2    H7 4426   1.338   1.636  12.504  1.3421 -1.0501  0.1555
  294TMC3    C1 4427   1.120   1.727  12.549 -0.7248 -0.2321  0.6426
  294TMC3    C2 4428   1.017   1.641  12.575  1.0691 -0.2860  0.5864
  294TMC3    C3 4429   0.929   1.605  12.476 -0.1044 -0.4299  0.3512
  294TMC3    C4 4430   1.147   1.778  12.429 -0.4131  0.1970 -0.0517
  294TMC3    C5 4431   1.058   1.736  12.332  0.5166 -0.9106 -0.4995
  294TMC3    C6 4432   0.949   1.648  12.349 -0.6730 -0.3926  0.0494
  294TMC3     C 4433   1.224   1.717  12.650  0.4225  0.0153  0.2007
  294TMC3     O 4434   1.192   1.747  12.766 -0.2336 -0.0378  0.3021
  294TMC3     H 4435   1.009   1.607  12.678  1.2986 -1.2085  0.3028
  294TMC3    H1 4436   1.241   1.831  12.413 -0.5688  0.0050 -1.6681
  294TMC3    H2 4437   0.886   1.612  12.268 -0.4689 -1.7372  0.4849
  294TMC3    C7 4438   1.106   1.759  12.192 -0.5920 -0.4219 -0.0439
  294TMC3    C8 4439   0.813   1.533  12.515  0.1555 -0.2621  0.1498
  294TMC3    O1 4440   1.191   1.845  12.179  0.3667  0.1182 -0.1283
  294TMC3    O2 4441   0.794   1.548  12.635 -0.5532  0.0876  1.0353
  295MPD2     C 4442   1.608   0.074   1.482 -0.2323  0.3610 -0.6469
  295MPD2    C1 4443   1.585   0.210   1.460 -0.4267 -0.9627  0.1557
  295MPD2    C2 4444   1.580   0.297   1.573 -0.1838  0.0478  0.0381
  295MPD2    C3 4445   1.604   0.255   1.703 -0.1145  0.3773  0.3007
  295MPD2    C4 4446   1.612   0.115   1.720 -0.2782 -0.0550  0.3413
  295MPD2    C5 4447   1.609   0.030   1.612  0.9482  0.5681  0.4540
  295MPD2     H 4448   1.560   0.400   1.548  1.1916  0.7218  1.6552
  295MPD2    H1 4449   1.623   0.064   1.815  0.0010 -0.2942  0.1769
  295MPD2    H2 4450   1.596   4.716   1.410 -0.9437  0.7449 -0.9509
  295MPD2    H3 4451   1.608   4.644   1.633 -0.2718  0.8901  2.0393
  295MPD2     N 4452   1.606   0.332   1.821 -0.0614 -0.3455  0.5900
  295MPD2    H5 4453   1.617   0.286   1.912 -1.4591 -1.6502  0.1034
  295MPD2    N1 4454   1.556   0.261   1.332  0.2555 -0.8528  0.0411
  295MPD2    H7 4455   1.525   0.358   1.333 -0.5212 -1.0973 -0.9113
  296TMC3    C1 4456   1.594   0.527   1.956 -1.2913 -0.5500 -0.5445
  296TMC3    C2 4457   1.565   0.659   1.966  0.1814  0.0461  0.2535
  296TMC3    C3 4458   1.588   0.714   2.088  0.0410  0.1104 -0.0357
  296TMC3    C4 4459   1.653   0.451   2.060 -0.0589 -0.3612 -0.3819
  296TMC3    C5 4460   1.672   0.514   2.177 -0.0018  0.3314  0.4370
  296TMC3    C6 4461   1.628   0.641   2.197  0.0620  0.0803  0.2281
  296TMC3     C 4462   1.606   0.470   1.817 -0.0889  0.2026  0.6047
  296TMC3     O 4463   1.611   0.550   1.721 -0.0806  0.1436 -0.7349
  296TMC3     H 4464   1.521   0.711   1.882 -1.0998 -1.4697 -0.0127
  296TMC3    H1 4465   1.710   0.360   2.041 -0.3241 -0.6833  0.3432
  296TMC3    H2 4466   1.647   0.689   2.292 -1.6886 -0.8174  1.0168
  296TMC3    C7 4467   1.727   0.447   2.292  0.0511 -0.3431 -0.4958
  296TMC3    C8 4468   1.543   0.853   2.112  0.3456 -0.6184  1.4594
  296TMC3    O1 4469   1.783   0.511   2.383  0.5424 -0.3441  0.5550
  296TMC3    O2 4470   1.459   0.902   2.034  0.1457  0.2013 -0.6149
  297MPD2     C 4471   3.734   2.322  16.942  0.7269  0.7220 -0.2040
  297MPD2    C1 4472   3.679   2.336  16.815  0.0493 -0.3069 -0.1951
  297MPD2    C2 4473   3.732   2.426  16.725  0.4397  0.0796 -0.0967
  297MPD2    C3 4474   3.847   2.503  16.763 -0.6153  0.7420 -0.0828
  297MPD2    C4 4475   3.901   2.492  16.892 -0.4519  0.6944  1.0697
  297MPD2    C5 4476   3.838   2.406  16.981 -0.0438  0.3660  0.4646
  297MPD2     H 4477   3.694   2.429  16.623  0.9377  0.6949 -0.2630
  297MPD2    H1 4478   3.994   2.535  16.928  1.7596 -1.5875 -1.9736
  297MPD2    H2 4479   3.693   2.256  17.017  2.4871 -2.0848 -1.6763
  297MPD2    H3 4480   3.884   2.390  17.078 -0.5068  2.7238  1.0861
  297MPD2     N 4481   3.884   2.605  16.669 -0.3884 -0.3581  0.0480
  297MPD2    H5 4482   3.838   2.596  16.579 -0.0550 -1.6428  0.0048
  297MPD2    N1 4483   3.570   2.260  16.779 -0.5390 -0.0157  0.0634
  297MPD2    H7 4484   3.527   2.294  16.693 -0.4822  1.0789  0.4675
  298TMC3    C1 4485   3.382   2.129  16.778  0.4878  0.1613 -0.6748
  298TMC3    C2 4486   3.399   2.107  16.643  1.2956  0.2043  0.1483
  298TMC3    C3 4487   3.286   2.119  16.570 -0.5979 -0.3843  0.2445
  298TMC3    C4 4488   3.264   2.163  16.837 -0.6622  0.1946 -0.8564
  298TMC3    C5 4489   3.159   2.190  16.756  0.0504  0.0883 -0.2018
  298TMC3    C6 4490   3.160   2.158  16.622  0.7464  0.0732 -0.3901
  298TMC3     C 4491   3.498   2.172  16.854  0.1962 -0.2030  0.6393
  298TMC3     O 4492   3.508   2.131  16.969 -0.3781  0.0990 -0.4174
  298TMC3     H 4493   3.496   2.089  16.598  1.1559  0.8969 -0.4279
  298TMC3    H1 4494   3.281   2.204  16.936  0.5995 -1.0262 -0.5588
  298TMC3    H2 4495   3.074   2.181  16.560  0.5962 -1.9678 -0.9112
  298TMC3    C7 4496   3.086   2.314  16.789 -0.7814  0.8173  0.3677
  298TMC3    C8 4497   3.292   2.084  16.427 -0.6647  0.0439 -0.6615
  298TMC3    O1 4498   3.064   2.337  16.907  0.1995 -0.3032  0.2276
  298TMC3    O2 4499   3.182   2.068  16.379 -0.1393 -0.0024  0.5052
  299MPD2     C 4500   4.511   2.352  10.444  0.9289 -0.4358  0.3511
  299MPD2    C1 4501   4.521   2.252  10.529  0.3790  0.1578 -1.2250
  299MPD2    C2 4502   4.447   2.132  10.512 -0.2724  0.0831 -0.7263
  299MPD2    C3 4503   4.346   2.129  10.422 -0.3815 -0.0385  0.1418
  299MPD2    C4 4504   4.334   2.241  10.339  0.2777  0.2790  0.5080
  299MPD2    C5 4505   4.427   2.345  10.338  0.9043  0.5058  0.2565
  299MPD2     H 4506   4.477   2.047  10.572 -0.1982  2.1327  2.1027
  299MPD2    H1 4507   4.257   2.233  10.263  2.9548  1.1748 -2.2915
  299MPD2    H2 4508   4.577   2.438  10.436  0.7187 -0.3787 -0.8037
  299MPD2    H3 4509   4.415   2.423  10.264 -0.3057  0.4018  0.3439
  299MPD2     N 4510   4.259   2.016  10.392  0.4357  0.3708 -0.2546
  299MPD2    H5 4511   4.201   2.028  10.310 -1.6426  0.5036  1.2446
  299MPD2    N1 4512   4.616   2.259  10.630  0.0488  0.6727  0.0594
  299MPD2    H7 4513   4.663   2.349  10.629 -1.7164  1.5989  2.1578
  300TMC3    C1 4514   4.149   1.816  10.404 -0.0171  1.1418 -0.5728
  300TMC3    C2 4515   4.060   1.882  10.333 -0.1925  0.1452 -0.1397
  300TMC3    C3 4516   3.932   1.899  10.380 -0.0630  0.2168  0.3232
  300TMC3    C4 4517   4.111   1.731  10.507 -0.0955 -0.2892 -0.3664
  300TMC3    C5 4518   3.992   1.765  10.564  0.0573 -1.0230 -0.3260
  300TMC3    C6 4519   3.901   1.847  10.508  0.8416 -0.8476  0.0262
  300TMC3     C 4520   4.262   1.893  10.454 -0.3117 -0.3334  0.2559
  300TMC3     O 4521   4.331   1.858  10.548 -0.0346 -0.0088  0.0098
  300TMC3     H 4522   4.091   1.926  10.239 -3.1399  2.4736 -0.0087
  300TMC3    H1 4523   4.182   1.676  10.567  0.2962  0.6157 -0.0008
  300TMC3    H2 4524   3.808   1.871  10.558  0.6724  0.1145 -0.7469
  300TMC3    C7 4525   3.966   1.685  10.684 -0.1455 -0.2163  0.4116
  300TMC3    C8 4526   3.887   2.033  10.354 -0.3010 -0.1196  0.1770
  300TMC3    O1 4527   4.024   1.581  10.699  0.1961  0.0546  0.3428
  300TMC3    O2 4528   3.981   2.105  10.321  0.2898 -0.2355  0.1652
  301MPD2     C 4529   1.595   3.554   1.909 -1.0890  0.5399 -0.9436
  301MPD2    C1 4530   1.479   3.551   1.981  0.2811 -0.5512 -0.5791
  301MPD2    C2 4531   1.419   3.428   1.995 -0.6718 -0.2109  0.3083
  301MPD2    C3 4532   1.469   3.310   1.949  0.0996  0.1913 -0.1041
  301MPD2    C4 4533   1.586   3.316   1.881  0.5068 -0.5391 -0.1031
  301MPD2    C5 4534   1.653   3.432   1.869  0.3042  0.0769  0.6347
  301MPD2     H 4535   1.326   3.430   2.052 -0.6410 -3.0434  0.4256
  301MPD2    H1 4536   1.630   3.223   1.846  1.7047  0.5181 -1.4082
  301MPD2    H2 4537   1.658   3.639   1.884  0.8713 -0.5528  0.2316
  301MPD2    H3 4538   1.752   3.440   1.824 -0.4789  3.9480 -0.3989
  301MPD2     N 4539   1.406   3.182   1.967 -0.7987  0.3210 -1.2704
  301MPD2    H5 4540   1.458   3.106   1.924  0.4107  0.1366  0.4905
  301MPD2    N1 4541   1.411   3.666   2.028  0.2000 -0.1667  0.0371
  301MPD2    H7 4542   1.320   3.647   2.069  0.3726 -0.9761  0.0402
  302TMC3    C1 4543   1.246   3.018   2.035 -0.1267 -0.5025 -0.2061
  302TMC3    C2 4544   1.315   2.922   1.971 -0.3645  0.0874  0.2272
  302TMC3    C3 4545   1.252   2.809   1.939 -0.2189 -0.0601  0.1188
  302TMC3    C4 4546   1.112   3.007   2.052 -0.7383  0.2625  0.1531
  302TMC3    C5 4547   1.048   2.891   2.017 -0.2151  0.8346 -0.4199
  302TMC3    C6 4548   1.122   2.792   1.964 -0.2379 -0.1901  0.5474
  302TMC3     C 4549   1.295   3.156   2.045  0.2761  0.1602 -0.5037
  302TMC3     O 4550   1.215   3.239   2.085 -0.0810  0.1135  0.4334
  302TMC3     H 4551   1.423   2.926   1.983 -0.2852 -0.2409 -0.4136
  302TMC3    H1 4552   1.056   3.092   2.088 -0.3092  0.2405  0.8686
  302TMC3    H2 4553   1.075   2.700   1.933 -0.7764  0.5352 -0.7961
  302TMC3    C7 4554   0.901   2.882   2.017  0.2984  0.3752  0.0049
  302TMC3    C8 4555   1.344   2.702   1.904 -0.6262  0.3546  0.0013
  302TMC3    O1 4556   0.854   2.776   2.051 -0.4863  0.5801  0.3251
  302TMC3    O2 4557   1.449   2.733   1.853 -0.2934 -0.0165  0.7903
  303MPD2     C 4558   0.809   1.463  11.113  0.0141  0.0342 -0.1095
  303MPD2    C1 4559   0.849   1.464  10.983  0.1979  0.7783 -0.2445
  303MPD2    C2 4560   0.986   1.470  10.953 -0.6202  0.8706 -0.1027
  303MPD2    C3 4561   1.082   1.454  11.050 -0.2913 -0.0348  0.2616
  303MPD2    C4 4562   1.041   1.449  11.182  0.2232  0.0899 -0.2467
  303MPD2    C5 4563   0.910   1.469  11.214 -0.2803  0.0169 -0.6035
  303MPD2     H 4564   1.020   1.468  10.850  1.5506 -0.0151  0.6373
  303MPD2    H1 4565   1.111   1.420  11.260  0.1973  0.0756 -0.2289
  303MPD2    H2 4566   0.705   1.461  11.144 -0.3116  1.1964 -1.1073
  303MPD2    H3 4567   0.871   1.465  11.316 -2.4771 -3.2510 -1.5802
  303MPD2     N 4568   1.220   1.440  11.021 -0.0340  0.1964  0.1201
  303MPD2    H5 4569   1.282   1.421  11.100 -1.4778  0.7340  1.3823
  303MPD2    N1 4570   0.750   1.462  10.888  0.3613  0.9152 -0.4674
  303MPD2    H7 4571   0.654   1.459  10.921  0.0959  1.2105 -1.2051
  304TMC3    C1 4572   0.647   1.444  10.688 -0.6435  0.5007 -0.0759
  304TMC3    C2 4573   0.659   1.459  10.554  0.4429 -0.5227 -0.1894
  304TMC3    C3 4574   0.576   1.382  10.469 -0.1990  0.3469 -0.9585
  304TMC3    C4 4575   0.561   1.347  10.743 -0.2144  0.7167 -0.2505
  304TMC3    C5 4576   0.500   1.262  10.653  0.4479 -0.0193  1.0270
  304TMC3    C6 4577   0.497   1.278  10.516 -0.1848 -0.3212 -0.8115
  304TMC3     C 4578   0.775   1.454  10.756 -0.0540  0.2418 -0.4116
  304TMC3     O 4579   0.876   1.432  10.691 -0.0610 -0.0077  0.3317
  304TMC3     H 4580   0.705   1.548  10.513 -0.0874 -0.7321 -1.2440
  304TMC3    H1 4581   0.555   1.329  10.849 -0.7176 -0.1000 -0.4175
  304TMC3    H2 4582   0.442   1.218  10.444  0.5156  2.5863 -3.8219
  304TMC3    C7 4583   0.522   1.121  10.695  0.0337  0.2179  0.3368
  304TMC3    C8 4584   0.649   1.328  10.365  0.4733  0.4670 -0.3084
  304TMC3    O1 4585   0.522   1.098  10.814 -1.2159  0.0014  0.0113
  304TMC3    O2 4586   0.632   1.206  10.352  0.4073  0.2624  0.1782
  305MPD2     C 4587   0.091   3.924  14.253 -0.0043 -0.1511  0.3726
  305MPD2    C1 4588   0.186   3.829  14.276  0.0417 -0.5849  1.2722
  305MPD2    C2 4589   0.223   3.746  14.165 -0.1380  0.7679  0.8228
  305MPD2    C3 4590   0.164   3.758  14.045  0.3115  0.3145 -0.0287
  305MPD2    C4 4591   0.059   3.850  14.031  0.2392 -0.2853 -0.7452
  305MPD2    C5 4592   0.025   3.938  14.132  0.2364  0.4317  0.5422
  305MPD2     H 4593   0.303   3.675  14.183 -1.4444 -1.0583 -0.5092
  305MPD2    H1 4594   4.720   3.872  13.943  2.4323  2.6143 -1.4782
  305MPD2    H2 4595   0.063   3.993  14.332 -1.9208 -1.3790  0.7476
  305MPD2    H3 4596   4.667   4.008  14.109 -0.8154 -0.8761  0.2158
  305MPD2     N 4597   0.200   3.672  13.941 -0.1484  0.8910 -0.5874
  305MPD2    H5 4598   0.282   3.613  13.955  1.0176  2.2360 -1.7323
  305MPD2    N1 4599   0.229   3.814  14.410  0.1281  0.3495  0.1642
  305MPD2    H7 4600   0.190   3.880  14.476 -0.1788  1.4956 -1.1572
  306TMC3    C1 4601   0.300   3.706  14.601  0.0206  0.0141  0.6328
  306TMC3    C2 4602   0.395   3.631  14.673 -0.1582  0.6461  0.7834
  306TMC3    C3 4603   0.368   3.589  14.803 -0.1376  0.8356  0.3990
  306TMC3    C4 4604   0.175   3.730  14.661  0.3013  0.3533 -0.0111
  306TMC3    C5 4605   0.163   3.707  14.795 -0.0923  0.1725 -0.4662
  306TMC3    C6 4606   0.257   3.640  14.869 -0.6628 -0.4838  0.3718
  306TMC3     C 4607   0.313   3.723  14.460 -0.1311  0.1669  0.3748
  306TMC3     O 4608   0.390   3.651  14.401  0.8571 -0.0159  0.5257
  306TMC3     H 4609   0.483   3.587  14.626 -0.2989  1.1380  0.0594
  306TMC3    H1 4610   0.099   3.792  14.613 -0.7111 -1.0637 -0.2254
  306TMC3    H2 4611   0.232   3.596  14.964 -1.2799  0.2588  0.5510
  306TMC3    C7 4612   0.058   3.780  14.869  0.9929  0.1405  0.5186
  306TMC3    C8 4613   0.457   3.493  14.866  0.3804 -0.1566 -0.0983
  306TMC3    O1 4614   4.669   3.805  14.817 -0.0279  0.1854  0.3538
  306TMC3    O2 4615   0.542   3.442  14.801 -0.2854 -0.1384 -0.0781
  307MPD2     C 4616   2.886   1.517   0.992  0.5148  0.2301  0.1148
  307MPD2    C1 4617   2.757   1.549   0.968 -0.5936 -0.0649  0.2454
  307MPD2    C2 4618   2.713   1.672   1.011 -0.1403 -0.2531 -0.7199
  307MPD2    C3 4619   2.794   1.748   1.099  0.2411  0.2230  0.3370
  307MPD2    C4 4620   2.921   1.705   1.138 -0.0699 -0.0633  0.0267
  307MPD2    C5 4621   2.962   1.587   1.085 -1.2108  0.0708 -0.0322
  307MPD2     H 4622   2.611   1.700   0.987 -0.0245  2.0024  1.4303
  307MPD2    H1 4623   2.986   1.758   1.208 -0.9856 -0.2018  0.9782
  307MPD2    H2 4624   2.937   1.430   0.950  1.5460  0.5410  0.7169
  307MPD2    H3 4625   3.059   1.559   1.123 -1.3108  2.8425  2.3320
  307MPD2     N 4626   2.743   1.868   1.133 -0.2901 -0.1461  0.1086
  307MPD2    H5 4627   2.645   1.879   1.107 -0.3071 -2.2606 -0.7241
  307MPD2    N1 4628   2.679   1.484   0.880  0.0990 -0.4967  0.2167
  307MPD2    H7 4629   2.582   1.514   0.882 -0.3373 -1.9154  0.5574
  308TMC3    C1 4630   2.493   2.150   1.227  0.3182  0.5645  0.3172
  308TMC3    C2 4631   2.519   2.270   1.153  0.3848  0.0803  0.3971
  308TMC3    C3 4632   2.649   2.291   1.117 -0.5491  0.0925 -0.6766
  308TMC3    C4 4633   2.592   2.051   1.234 -0.2273  0.7580  0.0470
  308TMC3    C5 4634   2.720   2.081   1.200  0.0715  0.9885 -0.0178
  308TMC3    C6 4635   2.751   2.200   1.143 -0.6099  0.3455  0.8309
  308TMC3     C 4636   2.358   2.106   1.269 -0.0284  0.6583  0.4219
  308TMC3     O 4637   2.355   2.011   1.349 -0.2007  0.5327  0.0898
  308TMC3     H 4638   2.439   2.341   1.134 -0.2185 -1.1795 -1.7078
  308TMC3    H1 4639   2.576   1.954   1.281 -0.0704  0.6582 -0.1099
  308TMC3    H2 4640   2.851   2.208   1.100 -0.2192 -0.7102  1.5547
  308TMC3    C7 4641   2.817   1.974   1.187 -0.6093 -0.3566 -0.1734
  308TMC3    C8 4642   2.672   2.384   1.004 -1.2703  0.0567  0.1467
  308TMC3    O1 4643   2.937   1.999   1.196  0.4582 -0.2681 -0.3983
  308TMC3    O2 4644   2.573   2.432   0.948  0.3391  0.5833  0.0985
  309MPD2     C 4645   1.714   2.088  17.576 -0.3179 -0.7220 -0.5292
  309MPD2    C1 4646   1.677   2.205  17.507  0.2616 -0.1331  0.0111
  309MPD2    C2 4647   1.579   2.288  17.552 -0.0768  0.0805  0.0095
  309MPD2    C3 4648   1.502   2.254  17.663 -0.0881 -0.1104  0.3008
  309MPD2    C4 4649   1.531   2.135   0.040 -0.2909  0.2542  0.4745
  309MPD2    C5 4650   1.639   2.059   0.003  0.7134 -0.1021  0.1703
  309MPD2     H 4651   1.572   2.384  17.504 -0.7560 -0.3713 -0.8082
  309MPD2    H1 4652   1.478   2.111   0.132 -2.3322 -1.4932 -1.1673
  309MPD2    H2 4653   1.790   2.013  17.557  0.5075 -0.4371  1.6155
  309MPD2    H3 4654   1.662   1.969   0.058  0.1256 -0.5894 -0.3688
  309MPD2     N 4655   1.397   2.333   0.032  0.0474 -0.0634  0.1571
  309MPD2    H5 4656   1.356   2.298   0.118 -1.3022 -0.0045 -0.4598
  309MPD2    N1 4657   1.750   2.252  17.398  0.2664  0.1620 -0.2510
  309MPD2    H7 4658   1.706   2.335  17.360 -0.3872  0.0696  0.3039
  310TMC3    C1 4659   1.919   2.257  17.228  0.4546 -0.4305 -0.2107
  310TMC3    C2 4660   1.842   2.325  17.136 -0.5641  0.2217  0.5047
  310TMC3    C3 4661   1.905   2.346  17.019  0.0808  0.4670  0.6246
  310TMC3    C4 4662   2.047   2.216  17.205 -0.2062  0.0054  0.1462
  310TMC3    C5 4663   2.108   2.242  17.089 -0.5988  0.5581 -0.0146
  310TMC3    C6 4664   2.033   2.306  16.995 -0.1286  0.2839 -0.4854
  310TMC3     C 4665   1.860   2.187  17.346 -0.6785 -0.0599  0.4722
  310TMC3     O 4666   1.917   2.084  17.376 -0.2420 -0.3346 -0.4174
  310TMC3     H 4667   1.736   2.343  17.143 -0.3266  0.5171  3.2525
  310TMC3    H1 4668   2.099   2.171  17.289 -1.2507 -1.3716  0.0497
  310TMC3    H2 4669   2.087   2.319  16.901  0.1226  0.8712 -0.2595
  310TMC3    C7 4670   2.242   2.184  17.074 -0.5233 -0.0227  0.6178
  310TMC3    C8 4671   1.830   2.392  16.909  0.1824  0.3407 -0.5256
  310TMC3    O1 4672   2.306   2.169  17.177 -0.6666 -0.0044 -0.3626
  310TMC3    O2 4673   1.712   2.368  16.904 -0.4210 -0.5998 -0.0688
  311MPD2     C 4674   4.035   3.076  13.054 -0.9577 -0.3308  0.1886
  311MPD2    C1 4675   4.016   3.203  13.077  0.4570 -0.5049 -0.3475
  311MPD2    C2 4676   3.905   3.249  13.153  0.0096  0.0569 -0.1169
  311MPD2    C3 4677   3.812   3.156  13.200  0.3997  0.9052  0.8831
  311MPD2    C4 4678   3.831   3.024  13.162  0.8775 -0.0002 -0.7998
  311MPD2    C5 4679   3.943   2.988  13.098 -0.4464  0.3665 -0.0412
  311MPD2     H 4680   3.901   3.352  13.187 -0.9523 -0.0209 -0.0101
  311MPD2    H1 4681   3.775   2.946  13.214 -0.1489  1.2993  0.0605
  311MPD2    H2 4682   4.121   3.044  12.996 -1.2196  1.0638 -0.9689
  311MPD2    H3 4683   3.957   2.881  13.085 -1.3078  0.3750 -1.0201
  311MPD2     N 4684   3.703   3.196  13.282  0.5357 -0.2239 -0.4864
  311MPD2    H5 4685   3.709   3.293  13.310 -0.4800 -0.0644 -0.8112
  311MPD2    N1 4686   4.119   3.297  13.048  0.3762  0.0369  0.3178
  311MPD2    H7 4687   4.110   3.385  13.099  1.4624 -0.8204  1.9916
  312TMC3    C1 4688   3.476   3.200  13.352 -0.6886 -0.5505  1.1989
  312TMC3    C2 4689   3.364   3.182  13.275  0.0709 -0.0685  0.1530
  312TMC3    C3 4690   3.266   3.272  13.302  0.3946 -0.5567  0.0065
  312TMC3    C4 4691   3.498   3.295  13.445  0.3110 -0.8955 -0.3006
  312TMC3    C5 4692   3.397   3.380  13.472 -0.2250  0.0296  0.0750
  312TMC3    C6 4693   3.282   3.367  13.403  0.2200  0.2808 -0.7728
  312TMC3     C 4694   3.592   3.117  13.316  0.0175  0.2734  0.1196
  312TMC3     O 4695   3.562   3.002  13.284 -0.1186 -0.0896  1.0272
  312TMC3     H 4696   3.356   3.105  13.199 -2.5891  1.3663 -1.0129
  312TMC3    H1 4697   3.591   3.310  13.499 -0.6984 -0.3163  1.2912
  312TMC3    H2 4698   3.207   3.444  13.418  0.2014 -0.3453  2.3925
  312TMC3    C7 4699   3.382   3.444  13.603  0.4902  0.0729  0.3159
  312TMC3    C8 4700   3.145   3.262  13.217  0.3265  0.2613 -0.3810
  312TMC3    O1 4701   3.320   3.551  13.617 -0.2327 -0.1757 -0.3991
  312TMC3    O2 4702   3.153   3.170  13.138  0.0397  0.3781  0.4839
  313MPD2     C 4703   3.538   2.127  10.862 -0.5561  0.0205 -0.0372
  313MPD2    C1 4704   3.410   2.171  10.894 -0.3243 -1.5206 -0.0718
  313MPD2    C2 4705   3.293   2.100  10.851 -0.5942  0.6922 -0.5077
  313MPD2    C3 4706   3.312   2.001  10.759  0.5463  0.4536  0.1489
  313MPD2    C4 4707   3.440   1.966  10.718 -0.1729 -0.6756  0.5059
  313MPD2    C5 4708   3.549   2.024  10.778  0.1020  0.5908  0.1637
  313MPD2     H 4709   3.194   2.125  10.887 -0.4434 -3.4984  2.8705
  313MPD2    H1 4710   3.460   1.884  10.651  2.2981  0.9975 -0.8256
  313MPD2    H2 4711   3.627   2.171  10.905  0.9331 -1.9879 -1.0269
  313MPD2    H3 4712   3.651   1.991  10.757 -0.4846 -0.8325 -0.4607
  313MPD2     N 4713   3.200   1.927  10.712 -0.1814  0.1803  0.3799
  313MPD2    H5 4714   3.112   1.944  10.760 -0.3991 -0.1911  0.1158
  313MPD2    N1 4715   3.380   2.285  10.963  0.1240 -0.3252 -0.1468
  313MPD2    H7 4716   3.285   2.317  10.953  0.7846  1.8436  0.6113
  314TMC3    C1 4717   3.398   2.500  11.042  0.4603  0.6107  0.1619
  314TMC3    C2 4718   3.486   2.607  11.063 -0.0556  0.7131  0.7472
  314TMC3    C3 4719   3.433   2.735  11.058 -0.4176 -0.1399  0.3008
  314TMC3    C4 4720   3.264   2.516  11.031  0.3091  0.4279 -0.5976
  314TMC3    C5 4721   3.211   2.640  11.035 -0.3459 -0.2223  0.6871
  314TMC3    C6 4722   3.293   2.750  11.040 -0.0573 -0.7036 -0.2237
  314TMC3     C 4723   3.465   2.377  11.015  0.1373 -0.4231 -0.5186
  314TMC3     O 4724   3.585   2.360  11.029  0.0445 -0.3010  0.4304
  314TMC3     H 4725   3.587   2.588  11.097  0.6210  0.3431 -1.4844
  314TMC3    H1 4726   3.201   2.431  11.008  0.8984 -0.3766  0.7332
  314TMC3    H2 4727   3.256   2.850  11.059 -1.3588 -1.7955  2.9491
  314TMC3    C7 4728   3.091   2.653  10.963 -0.5286 -0.5779  0.1500
  314TMC3    C8 4729   3.513   2.852  11.086  0.6917 -0.2013 -0.1411
  314TMC3    O1 4730   3.017   2.554  10.958  0.3237  0.1444 -0.3234
  314TMC3    O2 4731   3.455   2.959  11.083 -0.0870  0.5675  0.1551
  315MPD2     C 4732   2.953   2.098   0.462 -0.4983  0.4165  0.7275
  315MPD2    C1 4733   3.021   2.170   0.567  0.5971  0.3133  0.1745
  315MPD2    C2 4734   3.085   2.288   0.531  0.0945  0.1370  0.0896
  315MPD2    C3 4735   3.100   2.327   0.396 -0.1351  0.7654  0.6080
  315MPD2    C4 4736   3.035   2.255   0.299 -0.3377 -0.7897 -0.6292
  315MPD2    C5 4737   2.966   2.144   0.330  0.1904 -0.5575 -0.0018
  315MPD2     H 4738   3.126   2.344   0.614 -0.7278  0.2355  0.4283
  315MPD2    H1 4739   3.042   2.269   0.192  0.6882  0.0590 -0.4517
  315MPD2    H2 4740   2.892   2.011   0.479  1.9133 -1.6600 -1.2567
  315MPD2    H3 4741   2.912   2.103   0.246  0.7230  0.3281 -0.7734
  315MPD2     N 4742   3.182   2.438   0.376  0.1537  0.5155  0.1945
  315MPD2    H5 4743   3.236   2.464   0.458 -1.6875  1.3738  1.1346
  315MPD2    N1 4744   3.029   2.132   0.700 -0.2083 -0.3811  0.1287
  315MPD2    H7 4745   3.096   2.186   0.754  0.9653 -1.3865 -0.3298
  316TMC3    C1 4746   3.309   2.588   0.242 -0.4406  0.2142  0.5500
  316TMC3    C2 4747   3.419   2.567   0.328 -0.3459  0.2797  0.5981
  316TMC3    C3 4748   3.482   2.678   0.367 -0.4988 -0.3706 -0.1587
  316TMC3    C4 4749   3.270   2.704   0.185  0.0611 -0.6253  0.9601
  316TMC3    C5 4750   3.353   2.809   0.212  0.1366 -0.2610 -0.1168
  316TMC3    C6 4751   3.452   2.795   0.306 -0.7660 -0.2491 -0.1605
  316TMC3     C 4752   3.192   2.501   0.254  0.2705  0.1663  0.1509
  316TMC3     O 4753   3.109   2.494   0.164 -0.4586 -0.2659 -0.3633
  316TMC3     H 4754   3.432   2.468   0.370 -1.3030 -0.4729 -0.8885
  316TMC3    H1 4755   3.176   2.717   0.134  0.6689  0.1279  0.0213
  316TMC3    H2 4756   3.522   2.877   0.314  1.1757 -1.9833  0.6172
  316TMC3    C7 4757   3.319   2.942   0.171 -0.6055 -0.7841  0.0523
  316TMC3    C8 4758   3.609   2.673   0.437  0.2410  0.3096 -0.1136
  316TMC3    O1 4759   3.337   3.032   0.253  0.3361 -0.4917 -0.2627
  316TMC3    O2 4760   3.663   2.779   0.461 -0.3045  0.2105  0.4366
  317MPD2     C 4761   0.413   0.596  12.930 -0.3909 -0.2721 -0.8131
  317MPD2    C1 4762   0.457   0.464  12.909  0.4186 -0.2257 -0.0184
  317MPD2    C2 4763   0.488   0.387  13.022 -0.3954 -0.8498 -0.5466
  317MPD2    C3 4764   0.475   0.437  13.146  0.2954  0.1024 -0.0399
  317MPD2    C4 4765   0.442   0.574  13.163 -0.1281 -1.0208 -0.3757
  317MPD2    C5 4766   0.403   0.653  13.056 -0.7318 -0.3006 -0.8302
  317MPD2     H 4767   0.508   0.281  13.014 -2.4058 -1.2279 -0.4602
  317MPD2    H1 4768   0.439   0.616  13.263  0.7815  0.6610 -1.0550
  317MPD2    H2 4769   0.417   0.671  12.851  1.1192 -1.0753 -1.5144
  317MPD2    H3 4770   0.396   0.760  13.070  0.8471 -0.4299  0.8679
  317MPD2     N 4771   0.529   0.361  13.247 -0.0035 -0.2138  0.5703
  317MPD2    H5 4772   0.594   0.287  13.224 -1.3902 -1.8651  1.9436
  317MPD2    N1 4773   0.457   0.411  12.781  0.2395 -0.3485 -0.1541
  317MPD2    H7 4774   0.481   0.313  12.767  1.2023 -0.5145  2.7865
  318TMC3    C1 4775   0.579   0.281  13.462 -0.2589 -0.0481 -0.5200
  318TMC3    C2 4776   0.506   0.173  13.503 -1.0527 -0.0565 -1.4779
  318TMC3    C3 4777   0.578   0.057  13.515 -0.5849  0.0583 -0.2225
  318TMC3    C4 4778   0.703   0.275  13.417  0.9786  0.0337 -0.8163
  318TMC3    C5 4779   0.768   0.154  13.421 -0.1072  0.0041  0.3406
  318TMC3    C6 4780   0.711   0.041  13.470  0.0873 -0.1398 -0.4055
  318TMC3     C 4781   0.504   0.376  13.383  0.2831  0.1571  0.8906
  318TMC3     O 4782   0.406   0.426  13.441  0.1930 -0.0866 -0.7073
  318TMC3     H 4783   0.401   0.177  13.530 -0.3036 -0.6636  1.5513
  318TMC3    H1 4784   0.747   0.358  13.363 -1.0607  1.6400 -0.0218
  318TMC3    H2 4785   0.758   4.665  13.462 -2.5726 -1.3806 -1.0898
  318TMC3    C7 4786   0.845   0.140  13.301  0.4374 -0.1968 -0.2072
  318TMC3    C8 4787   0.503   4.660  13.530 -0.2204 -0.2396  0.0884
  318TMC3    O1 4788   0.804   0.210  13.209  0.1976  0.0255 -0.4813
  318TMC3    O2 4789   0.557   4.564  13.588 -0.3794  0.1235 -0.2037
  319MPD2     C 4790   1.200   2.053  17.227  0.7402  0.3319 -0.3480
  319MPD2    C1 4791   1.082   2.017  17.289  0.2167  0.0287  0.0416
  319MPD2    C2 4792   0.966   2.014  17.214 -0.8809  0.7436 -0.2208
  319MPD2    C3 4793   0.976   2.046  17.080  0.2842 -0.0409 -0.1309
  319MPD2    C4 4794   1.091   2.096  17.025 -0.6304 -0.1863 -0.2554
  319MPD2    C5 4795   1.202   2.101  17.104 -0.4878  0.5339  0.0814
  319MPD2     H 4796   0.871   1.986  17.258 -0.8677 -0.8239 -1.1908
  319MPD2    H1 4797   1.101   2.127  16.922  3.1785  1.3559  0.5706
  319MPD2    H2 4798   1.290   2.062  17.287  0.8329 -2.8753  0.0150
  319MPD2    H3 4799   1.294   2.135  17.058  0.9843 -2.4272  0.8845
  319MPD2     N 4800   0.867   2.034  16.992  0.1038  0.7051  0.5925
  319MPD2    H5 4801   0.892   2.050  16.895 -1.9270 -0.3853 -0.0937
  319MPD2    N1 4802   1.064   1.994  17.431 -0.3813  0.1470 -0.2116
  319MPD2    H7 4803   0.971   1.961  17.458 -0.2451 -2.5095 -2.9412
  320TMC3    C1 4804   0.664   1.988  16.899 -0.0541 -0.2242  0.3109
  320TMC3    C2 4805   0.713   2.055  16.791  0.0056 -0.3497 -0.2830
  320TMC3    C3 4806   0.680   2.009  16.671  0.2256  0.0838 -0.4939
  320TMC3    C4 4807   0.565   1.885  16.890  0.0474  0.2617 -0.3188
  320TMC3    C5 4808   0.544   1.839  16.764  0.6023 -0.4425 -0.4376
  320TMC3    C6 4809   0.603   1.897  16.659 -0.1148 -0.0895 -0.1705
  320TMC3     C 4810   0.740   1.994  17.022  0.6880  0.4819  0.0221
  320TMC3     O 4811   0.690   1.948  17.122 -0.0325 -0.5299  0.5211
  320TMC3     H 4812   0.780   2.140  16.800 -0.2386 -0.5095  3.3103
  320TMC3    H1 4813   0.533   1.837  16.981 -1.4789  0.0641 -0.9569
  320TMC3    H2 4814   0.586   1.848  16.564  0.5086 -1.7591  0.5965
  320TMC3    C7 4815   0.499   1.704  16.746  0.4674 -0.0355 -1.0488
  320TMC3    C8 4816   0.659   2.100  16.564  0.0733  0.9123 -0.0940
  320TMC3    O1 4817   0.564   1.633  16.667 -0.2601 -0.2118 -0.0598
  320TMC3    O2 4818   0.675   2.218  16.595 -0.0231 -0.8010 -0.4157
  321TMC3    C1 4819   1.092   2.001  17.653 -1.0404 -0.0650  0.3812
  321TMC3    C2 4820   1.041   1.877   0.008 -0.4742 -0.0535 -0.9068
  321TMC3    C3 4821   0.994   1.865   0.137  0.1321  0.9339  0.4549
  321TMC3    C4 4822   1.125   2.089   0.063 -0.1022  0.1316  0.8041
  321TMC3    C5 4823   1.098   2.073   0.192  0.1984 -0.4778 -0.1476
  321TMC3    C6 4824   1.026   1.963   0.224 -0.2942  0.7273 -0.2364
  321TMC3     C 4825   1.159   2.014  17.526  0.3280  0.1383 -0.1128
  321TMC3     O 4826   1.265   2.077  17.513  0.3618  0.1590 -0.0075
  321TMC3     H 4827   1.028   1.793  17.629 -0.4338 -1.7692  1.2469
  321TMC3    H1 4828   1.183   2.176   0.035  0.4768 -0.2899  0.7018
  321TMC3    H2 4829   0.981   1.955   0.322  0.3764 -2.9021 -0.2427
  321TMC3    C7 4830   1.200   2.111   0.283 -0.2130 -0.1223  0.1100
  321TMC3    C8 4831   1.025   1.737   0.214 -0.4735  0.2630 -0.0782
  321TMC3    O1 4832   1.261   2.217   0.260  0.0181  0.1830  0.5137
  321TMC3    O2 4833   1.052   1.752   0.333  0.2137  0.4879 -0.8994
  322MPD2     C 4834   4.557   2.688  13.810  0.2686  0.0791  0.8621
  322MPD2    C1 4835   4.539   2.621  13.931  0.3897 -0.3638  0.2766
  322MPD2    C2 4836   4.566   2.485  13.929  0.3690 -0.4810  0.2511
  322MPD2    C3 4837   4.614   2.423  13.815  0.2371 -0.5935  0.3161
  322MPD2    C4 4838   4.636   2.490  13.701  0.7200  0.2687 -0.3408
  322MPD2    C5 4839   4.599   2.620  13.701 -0.3886 -0.4551 -0.2319
  322MPD2     H 4840   4.542   2.418  14.011 -0.8881  0.0432  0.3002
  322MPD2    H1 4841   4.672   2.439  13.613  1.5862  1.4079 -0.6541
  322MPD2    H2 4842   4.532   2.793  13.799  1.0100  0.0952 -0.7397
  322MPD2    H3 4843   4.595   2.675  13.608  2.9867 -3.7702 -2.3379
  322MPD2     N 4844   4.624   2.282  13.811 -0.8453  0.5988 -0.1100
  322MPD2    H5 4845   4.573   2.227  13.879 -1.6807 -2.3112 -3.1278
  322MPD2    N1 4846   4.510   2.693  14.051  0.5212 -0.1065  0.3199
  322MPD2    H7 4847   4.511   2.795  14.047  1.4645 -0.2020 -1.5730
  323TMC3    C1 4848   4.486   2.721  14.287 -0.5636  0.3044  0.5177
  323TMC3    C2 4849   4.547   2.841  14.269  0.1638  0.7535  0.1526
  323TMC3    C3 4850   4.623   2.892  14.370  0.4324  0.1262  0.4437
  323TMC3    C4 4851   4.508   2.662  14.412  0.1881  0.3506 -0.0512
  323TMC3    C5 4852   4.590   2.712  14.511 -0.1145 -1.1292  1.0360
  323TMC3    C6 4853   4.644   2.836  14.495  0.2006  0.8262 -0.4839
  323TMC3     C 4854   4.484   2.628  14.176 -0.5139 -0.3882 -0.5129
  323TMC3     O 4855   4.452   2.512  14.201 -0.0837  0.4379  0.1816
  323TMC3     H 4856   4.550   2.900  14.178 -2.1931 -2.2754 -1.9031
  323TMC3    H1 4857   4.493   2.555  14.416 -0.6789  0.3997 -2.4222
  323TMC3    H2 4858   4.712   2.878  14.568  0.9008 -1.4663  0.1901
  323TMC3    C7 4859   4.699   2.633  14.560  0.2153 -0.4202 -0.2034
  323TMC3    C8 4860   0.004   2.979  14.327  0.0591  0.2945 -0.2478
  323TMC3    O1 4861   0.056   2.615  14.471  0.2601  0.5253  0.1240
  323TMC3    O2 4862   0.050   2.970  14.214  0.2113  0.1187 -0.1809
  324MPD2     C 4863   1.997   4.183  14.396 -0.0148 -0.4094 -0.5837
  324MPD2    C1 4864   1.958   4.271  14.497  0.9920  1.2196 -0.5881
  324MPD2    C2 4865   1.819   4.309  14.496  1.1362  0.4062  0.8003
  324MPD2    C3 4866   1.730   4.262  14.399  0.8305 -0.5152 -0.2029
  324MPD2    C4 4867   1.771   4.179  14.302 -0.4438 -0.6586 -0.5308
  324MPD2    C5 4868   1.903   4.137  14.307 -0.2335 -0.3576 -1.0567
  324MPD2     H 4869   1.793   4.367  14.584  0.6795  1.2603  0.1033
  324MPD2    H1 4870   1.712   4.139  14.220  1.9039 -0.9119 -2.1101
  324MPD2    H2 4871   2.095   4.137  14.394  0.1277 -0.0986 -0.8236
  324MPD2    H3 4872   1.942   4.077  14.226 -0.7738 -0.7302 -1.0411
  324MPD2     N 4873   1.593   4.293  14.396  0.0052 -0.1391 -0.3311
  324MPD2    H5 4874   1.545   4.238  14.325  0.8725 -1.9617  0.4871
  324MPD2    N1 4875   2.057   4.317  14.585  0.0841  0.8411 -0.1061
  324MPD2    H7 4876   2.154   4.292  14.568 -0.1996 -0.8779  0.7998
  325TMC3    C1 4877   1.389   4.366  14.472 -0.0766 -0.4625  1.0885
  325TMC3    C2 4878   1.331   4.259  14.402  0.2784  0.2984  0.5914
  325TMC3    C3 4879   1.196   4.266  14.393 -0.4950  0.3987 -0.3314
  325TMC3    C4 4880   1.308   4.463  14.531  0.5204 -0.0994  0.2211
  325TMC3    C5 4881   1.170   4.455  14.516  0.8015 -0.5143  0.2987
  325TMC3    C6 4882   1.111   4.364  14.436 -0.0828 -0.4839  0.9560
  325TMC3     C 4883   1.533   4.383  14.480 -0.1427  0.2533 -1.1984
  325TMC3     O 4884   1.590   4.451  14.564 -0.7130 -0.1429 -0.1967
  325TMC3     H 4885   1.386   4.178  14.356 -1.6194 -0.6057 -0.0951
  325TMC3    H1 4886   1.363   4.551  14.563  1.4281  0.1084 -1.8870
  325TMC3    H2 4887   1.011   4.380  14.397  0.5027  2.1691  0.5149
  325TMC3    C7 4888   1.098   4.579  14.540 -0.5873  0.3984  0.2703
  325TMC3    C8 4889   1.139   4.169  14.309  0.3029 -0.4798  0.8885
  325TMC3    O1 4890   1.161   4.683  14.537  0.0184  0.0643 -0.0060
  325TMC3    O2 4891   1.198   4.142  14.209  0.4046  0.0634 -0.6574
  326MPD2     C 4892   2.784   0.844  11.412 -0.2270  0.6381 -0.0919
  326MPD2    C1 4893   2.801   0.722  11.349 -0.2117 -0.0828 -0.1448
  326MPD2    C2 4894   2.903   0.644  11.385 -0.1688 -0.5110  0.1232
  326MPD2    C3 4895   2.993   0.679  11.482 -0.3364  0.5785 -0.0224
  326MPD2    C4 4896   2.956   0.786  11.559 -0.5257  0.1932 -0.2015
  326MPD2    C5 4897   2.856   0.870  11.523  0.2325 -0.5968  0.0240
  326MPD2     H 4898   2.941   0.563  11.324 -0.0335 -1.2763  1.2176
  326MPD2    H1 4899   3.033   0.822  11.627 -0.8864  0.6122 -0.0143
  326MPD2    H2 4900   2.711   0.915  11.377 -1.5391 -0.3967  0.5402
  326MPD2    H3 4901   2.843   0.962  11.579 -0.0170  0.8816 -2.4615
  326MPD2     N 4902   3.130   0.629  11.490  0.6122  0.0553 -0.3895
  326MPD2    H5 4903   3.195   0.681  11.547  0.7636 -0.8054  0.2241
  326MPD2    N1 4904   2.735   0.684  11.230 -0.3278 -0.4034  0.6997
  326MPD2    H7 4905   2.778   0.597  11.200 -0.7910 -0.5702  0.5233
  327TMC3    C1 4906   2.641   0.694  11.020  0.0151 -0.6860  0.1616
  327TMC3    C2 4907   2.571   0.767  10.923 -0.0174  0.3176  0.3751
  327TMC3    C3 4908   2.613   0.745  10.794  0.5981  0.2921  0.3404
  327TMC3    C4 4909   2.734   0.597  10.985  0.2715 -0.2903 -0.3470
  327TMC3    C5 4910   2.772   0.584  10.853  0.9579 -0.3028  0.8969
  327TMC3    C6 4911   2.710   0.654  10.752 -0.5784  0.8533  0.3251
  327TMC3     C 4912   2.643   0.752  11.152  0.2789 -0.7296 -0.4494
  327TMC3     O 4913   2.561   0.838  11.186  0.7789 -0.3202 -0.3498
  327TMC3     H 4914   2.503   0.843  10.958 -1.2932 -1.8893  2.7119
  327TMC3    H1 4915   2.761   0.524  11.060 -0.3881 -0.7399 -0.5437
  327TMC3    H2 4916   2.724   0.635  10.646 -0.5318  0.9877  0.3078
  327TMC3    C7 4917   2.876   0.481  10.823 -0.4522 -0.1873  0.0493
  327TMC3    C8 4918   2.569   0.846  10.696 -0.3018 -0.3820  0.1285
  327TMC3    O1 4919   2.884   0.444  10.711 -0.0730  1.0283  0.8420
  327TMC3    O2 4920   2.633   0.865  10.595 -0.1960 -0.3022 -0.3977
  328MPD2     C 4921   0.590   0.747  17.634  0.2041  0.8532 -0.0498
  328MPD2    C1 4922   0.530   0.652  17.546  0.0911  0.1647  0.1880
  328MPD2    C2 4923   0.478   0.699  17.427  0.0344 -0.0330 -0.6262
  328MPD2    C3 4924   0.496   0.827  17.386 -0.6112  0.4355 -0.0446
  328MPD2    C4 4925   0.569   0.912  17.462 -0.7025  0.7155  0.5181
  328MPD2    C5 4926   0.605   0.874  17.587  0.1262 -0.1586  0.4762
  328MPD2     H 4927   0.433   0.625  17.362 -0.6755  0.5860 -0.8279
  328MPD2    H1 4928   0.572   1.019  17.442  3.6993  0.5936  0.4405
  328MPD2    H2 4929   0.630   0.724   0.044  0.3335  1.1276 -0.0399
  328MPD2    H3 4930   0.651   0.953  17.646 -1.5462 -0.0070  1.5702
  328MPD2     N 4931   0.452   0.867  17.258 -0.3784  0.0755 -0.2875
  328MPD2    H5 4932   0.452   0.967  17.243  1.6855  0.4861  2.3279
  328MPD2    N1 4933   0.525   0.518  17.592 -0.2947 -0.5398  0.0361
  328MPD2    H7 4934   0.583   0.503  17.674  0.3130  1.2240 -0.0636
  329TMC3    C1 4935   0.496   0.286  17.590 -0.0473  0.4476  0.4014
  329TMC3    C2 4936   0.517   0.285   0.037 -0.4030  0.2882  0.3950
  329TMC3    C3 4937   0.540   0.161   0.096  0.2408  0.8146  1.2813
  329TMC3    C4 4938   0.485   0.170  17.516  0.1577 -0.0161  0.4910
  329TMC3    C5 4939   0.508   0.050  17.573 -0.5550 -0.1805  0.4695
  329TMC3    C6 4940   0.540   0.043   0.022 -0.6046  0.3078  0.2683
  329TMC3     C 4941   0.470   0.412  17.523  0.1094  0.0067 -0.5389
  329TMC3     O 4942   0.420   0.409  17.409  0.1824  0.5044  0.5249
  329TMC3     H 4943   0.500   0.375   0.095  0.1844  0.9337 -0.4395
  329TMC3    H1 4944   0.453   0.176  17.413  2.0519  0.9527 -0.0418
  329TMC3    H2 4945   0.548   4.672   0.077  1.2340 -0.9143 -2.0537
  329TMC3    C7 4946   0.467   4.646  17.513 -0.4414 -0.1789  0.7709
  329TMC3    C8 4947   0.589   0.163   0.231 -0.4626 -0.1800  0.4422
  329TMC3    O1 4948   0.505   4.549  17.580 -0.0956  0.5304  0.0908
  329TMC3    O2 4949   0.659   0.074   0.274 -0.1225 -0.5482  0.4683
  330TMC3    C1 4950   3.416   0.188   9.640  0.0794  0.4492 -0.2873
  330TMC3    C2 4951   3.439   0.060   9.609  0.7083 -0.0057  0.7561
  330TMC3    C3 4952   3.490   4.693   9.704 -0.0903  0.0759 -0.7032
  330TMC3    C4 4953   3.441   0.232   9.766  0.4482 -0.3504  0.6255
  330TMC3    C5 4954   3.471   0.140   9.863 -0.3188  0.4648 -0.1833
  330TMC3    C6 4955   3.490   0.007   9.838 -0.4222  0.0841 -0.6667
  330TMC3     C 4956   3.336   0.281   9.556  0.5442 -0.1578  1.4341
  330TMC3     O 4957   3.377   0.397   9.555 -0.3738  0.1551 -0.3104
  330TMC3     H 4958   3.429   0.028   9.506  0.4347  0.8366  0.5167
  330TMC3    H1 4959   3.401   0.330   9.790 -0.2322 -0.2268 -1.0078
  330TMC3    H2 4960   3.531   4.659   9.910 -0.5228  2.0291  1.2789
  330TMC3    C7 4961   3.452   0.175   9.999  0.1297  0.2584 -0.1239
  330TMC3    C8 4962   3.497   4.551   9.663  0.1025 -0.2146 -0.1525
  330TMC3    O1 4963   3.424   0.089  10.080  0.2360  0.3622  0.4132
  330TMC3    O2 4964   3.534   4.514   9.551 -0.3550  0.5654  0.1173
  331MPD2     C 4965   1.494   3.367  12.471 -0.1903 -0.0845 -0.3256
  331MPD2    C1 4966   1.597   3.389  12.383 -0.5817  0.5247 -0.4461
  331MPD2    C2 4967   1.642   3.284  12.307 -0.4958  0.4212 -0.0382
  331MPD2    C3 4968   1.588   3.160  12.311  0.7052  1.0562 -0.0935
  331MPD2    C4 4969   1.482   3.140  12.400  0.8137 -0.4437  0.1436
  331MPD2    C5 4970   1.439   3.246  12.478 -0.4333  0.0706  0.4247
  331MPD2     H 4971   1.723   3.295  12.235 -0.2845  3.0896  0.6066
  331MPD2    H1 4972   1.422   3.050  12.401  1.7135 -1.0450 -0.3026
  331MPD2    H2 4973   1.438   3.445  12.522 -0.0171 -0.2244  0.0720
  331MPD2    H3 4974   1.353   3.227  12.542 -0.9727 -0.4831 -0.4550
  331MPD2     N 4975   1.629   3.056  12.220  0.0071  0.1289  0.0313
  331MPD2    H5 4976   1.688   3.086  12.143 -0.5317  4.9400  1.4916
  331MPD2    N1 4977   1.667   3.509  12.393  0.4549 -0.5417  0.0706
  331MPD2    H7 4978   1.616   3.577  12.449 -0.9982 -1.5366 -0.0453
  332TMC3    C1 4979   1.635   2.840  12.131  0.1854  0.1603  0.1630
  332TMC3    C2 4980   1.670   2.905  12.019  0.6897  0.5295 -0.4360
  332TMC3    C3 4981   1.786   2.869  11.960 -0.2040  0.5394 -0.3593
  332TMC3    C4 4982   1.702   2.736  12.180  0.6537 -0.0884 -0.7077
  332TMC3    C5 4983   1.812   2.691  12.114  0.7298 -0.5108 -0.2629
  332TMC3    C6 4984   1.861   2.764  12.011 -0.7123  0.7916 -0.1797
  332TMC3     C 4985   1.588   2.920  12.237 -0.1222  0.0386  0.5218
  332TMC3     O 4986   1.520   2.872  12.324  0.3304  0.1488  0.0942
  332TMC3     H 4987   1.599   2.974  11.976  0.4704  0.7977  0.3598
  332TMC3    H1 4988   1.669   2.681  12.267  3.3715  0.5075  0.7187
  332TMC3    H2 4989   1.957   2.737  11.968 -1.0370  0.0929 -0.4681
  332TMC3    C7 4990   1.901   2.610  12.191 -0.5215 -0.1914 -0.1764
  332TMC3    C8 4991   1.834   2.945  11.850  0.4712  0.1165  0.3196
  332TMC3    O1 4992   1.867   2.494  12.189  0.3939  0.1344  0.1149
  332TMC3    O2 4993   1.953   2.960  11.844  0.3710  0.2574 -0.0024
  333MPD2     C 4994   2.207   2.861  11.199  0.3426  0.1288  0.3285
  333MPD2    C1 4995   2.088   2.925  11.154 -0.0537  0.1789  0.5250
  333MPD2    C2 4996   1.973   2.907  11.233 -0.0587 -0.1199  1.0970
  333MPD2    C3 4997   1.972   2.812  11.327  0.4909  0.7713  0.9045
  333MPD2    C4 4998   2.085   2.741  11.362  0.0222 -0.2015 -0.3846
  333MPD2    C5 4999   2.204   2.766  11.297 -0.4678  0.1919  0.0262
  333MPD2     H 5000   1.883   2.961  11.207 -0.6980 -1.6141  0.1711
  333MPD2    H1 5001   2.091   2.670  11.444  2.0679 -0.0927 -0.4415
  333MPD2    H2 5002   2.293   2.859  11.134  1.0491 -0.4037  1.2811
  333MPD2    H3 5003   2.297   2.718  11.326  1.4103  4.1760  0.5375
  333MPD2     N 5004   1.854   2.787  11.396  0.1762 -0.3353 -0.7743
  333MPD2    H5 5005   1.767   2.818  11.353  0.5087 -0.1531 -1.3096
  333MPD2    N1 5006   2.096   3.003  11.044  0.2846 -0.5678  0.0581
  333MPD2    H7 5007   2.191   3.005  11.008  0.4760 -2.4931  0.4293
  334TMC3    C1 5008   2.028   3.078  10.832  0.1049 -0.4110 -0.1849
  334TMC3    C2 5009   2.153   3.036  10.792 -0.1218 -0.3078  0.2262
  334TMC3    C3 5010   2.217   3.119  10.696 -0.2195 -0.5725  0.2382
  334TMC3    C4 5011   1.969   3.199  10.788 -0.6346  0.1859  0.4321
  334TMC3    C5 5012   2.036   3.269  10.692  0.5423  0.2293 -0.9524
  334TMC3    C6 5013   2.153   3.224  10.635 -0.1661 -0.3964  0.7643
  334TMC3     C 5014   1.988   3.034  10.965 -0.0259  0.3603 -0.4155
  334TMC3     O 5015   1.865   3.043  10.985  0.0348 -0.5574 -0.3711
  334TMC3     H 5016   2.193   2.940  10.821  1.4258 -0.2120 -1.6786
  334TMC3    H1 5017   1.884   3.247  10.835 -0.4126  0.8113  0.1876
  334TMC3    H2 5018   2.210   3.285  10.567  0.6402 -1.4931  0.4563
  334TMC3    C7 5019   2.020   3.409  10.690  0.7135  0.7060 -0.5811
  334TMC3    C8 5020   2.331   3.066  10.633 -0.4810 -0.7966 -0.3782
  334TMC3    O1 5021   2.119   3.481  10.684  0.0630 -0.0550 -0.4224
  334TMC3    O2 5022   2.360   2.949  10.638  0.0188  0.1923  0.0358
  335TMC3    C1 5023   1.064   0.797  17.596  0.0327 -0.1326 -0.9451
  335TMC3    C2 5024   0.993   0.686  17.636  0.0951  0.3742 -0.6713
  335TMC3    C3 5025   1.059   0.580   0.003  0.1647  0.9013 -0.4731
  335TMC3    C4 5026   1.198   0.805  17.613 -0.0273  0.2282 -0.1135
  335TMC3    C5 5027   1.262   0.689  17.654  0.0626 -0.6046 -0.1185
  335TMC3    C6 5028   1.197   0.575   0.008  0.5655 -0.7386 -0.3166
  335TMC3     C 5029   0.994   0.917  17.568 -0.0071 -0.5256  0.2024
  335TMC3     O 5030   1.036   0.973  17.465 -0.3290 -0.0515 -0.0692
  335TMC3     H 5031   0.886   0.682  17.624 -0.1358  1.1863  1.1542
  335TMC3    H1 5032   1.251   0.898  17.595 -0.3192  0.3589 -0.2923
  335TMC3    H2 5033   1.252   0.487   0.037  0.9253 -0.2839  0.3752
  335TMC3    C7 5034   1.399   0.682  17.633 -0.0017 -0.2817 -0.5087
  335TMC3    C8 5035   0.998   0.455  17.667 -0.3315 -0.0643  1.3051
  335TMC3    O1 5036   1.440   0.568  17.604 -0.0473 -0.1610  0.3039
  335TMC3    O2 5037   1.044   0.353   0.034  0.7837  0.3594  0.0555
  336MPD2     C 5038   0.587   2.966  16.390 -0.3992  0.0048  0.2880
  336MPD2    C1 5039   0.640   2.894  16.285 -0.3432 -0.1760 -0.4423
  336MPD2    C2 5040   0.678   2.758  16.296  0.1239  0.5969 -0.5208
  336MPD2    C3 5041   0.669   2.700  16.423 -1.1383 -0.4994 -1.1354
  336MPD2    C4 5042   0.608   2.771  16.521  0.2082 -0.6103 -0.2080
  336MPD2    C5 5043   0.572   2.902  16.509 -0.0201 -0.7131  0.1331
  336MPD2     H 5044   0.715   2.701  16.212 -0.9063  1.4046 -1.5226
  336MPD2    H1 5045   0.600   2.722  16.618 -0.8109  1.9306  0.9998
  336MPD2    H2 5046   0.551   3.068  16.378  1.6429  0.7674  0.6287
  336MPD2    H3 5047   0.524   2.950  16.594  0.8131  0.5343 -0.0999
  336MPD2     N 5048   0.724   2.569  16.453  0.5188  0.2569  0.3267
  336MPD2    H5 5049   0.707   2.537  16.547  0.6541  0.5223  0.4422
  336MPD2    N1 5050   0.650   2.948  16.158 -0.5905 -0.0797 -0.8607
  336MPD2    H7 5051   0.660   2.890  16.075  1.7505 -0.4817 -0.3089
  337TMC3    C1 5052   0.620   3.116  16.006 -0.0956 -0.2896  0.1298
  337TMC3    C2 5053   0.511   3.053  15.953  0.1957  1.0942  0.6712
  337TMC3    C3 5054   0.452   3.095  15.839 -1.0156 -0.3359 -0.0744
  337TMC3    C4 5055   0.645   3.241  15.966  0.0426  0.4079 -0.5087
  337TMC3    C5 5056   0.578   3.289  15.864 -0.3660 -0.8916  0.7267
  337TMC3    C6 5057   0.481   3.218  15.795 -0.3514 -0.0313 -0.1203
  337TMC3     C 5058   0.652   3.083  16.144 -0.5240 -0.5237  0.2072
  337TMC3     O 5059   0.706   3.163  16.214  0.0558 -0.0560 -0.1438
  337TMC3     H 5060   0.464   2.965  15.997  1.7479  0.2869  0.7453
  337TMC3    H1 5061   0.721   3.304  16.012 -0.2952  0.3414  0.1423
  337TMC3    H2 5062   0.442   3.256  15.701 -0.3183  1.3900  0.4421
  337TMC3    C7 5063   0.617   3.411  15.801 -0.3905 -0.7261  0.1811
  337TMC3    C8 5064   0.312   3.062  15.819 -0.5505  0.1027  0.2381
  337TMC3    O1 5065   0.737   3.434  15.781  0.6593  0.4758 -0.8294
  337TMC3    O2 5066   0.249   3.016  15.912  0.4894 -0.1453  0.1272
  338MPD2     C 5067   1.260   2.876   1.528  0.0187  0.1198 -0.1186
  338MPD2    C1 5068   1.200   2.815   1.417  0.2140  0.7516  0.4970
  338MPD2    C2 5069   1.064   2.819   1.392  0.6213  0.0196  0.2916
  338MPD2    C3 5070   0.992   2.910   1.476 -0.3295 -0.0658 -0.7387
  338MPD2    C4 5071   1.050   2.971   1.586  0.0936 -0.8145 -0.8845
  338MPD2    C5 5072   1.181   2.946   1.617  0.3225 -0.1340 -0.5655
  338MPD2     H 5073   1.015   2.770   1.307  0.8281 -0.5153  0.4795
  338MPD2    H1 5074   0.997   3.036   1.654 -0.7946 -1.8174 -0.6042
  338MPD2    H2 5075   1.367   2.877   1.548  0.1707  0.9364 -0.9846
  338MPD2    H3 5076   1.230   3.007   1.692 -0.1250 -0.2386 -0.1916
  338MPD2     N 5077   0.857   2.934   1.435  0.2234  0.2472 -0.3034
  338MPD2    H5 5078   0.826   2.886   1.351 -0.6569  0.7910 -0.2856
  338MPD2    N1 5079   1.274   2.731   1.327  0.3495  0.6981 -0.2444
  338MPD2    H7 5080   1.230   2.700   1.242  1.7208 -1.1020 -0.2972
  339TMC3    C1 5081   0.648   3.009   1.427 -0.4774  0.4052  0.9062
  339TMC3    C2 5082   0.534   2.993   1.499  0.0246 -0.1552 -0.3569
  339TMC3    C3 5083   0.425   2.943   1.435 -0.3368  0.1354 -0.0788
  339TMC3    C4 5084   0.655   2.996   1.289  0.2077 -0.2296  0.1076
  339TMC3    C5 5085   0.546   2.942   1.231 -0.6060 -0.4452 -0.3777
  339TMC3    C6 5086   0.434   2.912   1.305  0.4472  0.1984  0.4451
  339TMC3     C 5087   0.767   3.004   1.507 -0.5302 -0.8289 -0.1151
  339TMC3     O 5088   0.774   3.062   1.616  0.3670  0.5903  0.1423
  339TMC3     H 5089   0.531   3.014   1.606 -0.4441  0.4644 -0.4973
  339TMC3    H1 5090   0.743   3.010   1.227  1.5554  0.1055  2.0934
  339TMC3    H2 5091   0.340   2.900   1.253  0.7280  0.4322 -0.1203
  339TMC3    C7 5092   0.546   2.912   1.091  0.3204 -0.4017  0.1270
  339TMC3    C8 5093   0.329   2.859   1.507 -0.3317  0.4373 -0.5506
  339TMC3    O1 5094   0.597   2.999   1.019 -0.3780 -0.0248  0.3716
  339TMC3    O2 5095   0.312   2.751   1.453 -0.1222  0.2687  0.4101
  340MPD2     C 5096   0.931   4.574   9.642  0.2765  0.1048 -0.4387
  340MPD2    C1 5097   1.063   4.529   9.627  0.0434  0.4477  0.3131
  340MPD2    C2 5098   1.164   4.626   9.617 -0.0334  0.2522  0.6627
  340MPD2    C3 5099   1.139   0.038   9.644  0.0692 -0.1995  0.7227
  340MPD2    C4 5100   1.002   0.079   9.659  0.1427  0.2088  0.5293
  340MPD2    C5 5101   0.900   4.709   9.652  0.2997  0.2031 -0.2730
  340MPD2     H 5102   1.262   4.588   9.592  0.1060  0.9593  0.1439
  340MPD2    H1 5103   0.975   0.184   9.652  1.1195  0.4355  0.0918
  340MPD2    H2 5104   0.843   4.511   9.644  0.7450 -0.4599  3.2267
  340MPD2    H3 5105   0.797   0.020   9.656  0.1786 -0.3158  0.9970
  340MPD2     N 5106   1.248   0.132   9.648  0.5958 -0.4601 -0.2802
  340MPD2    H5 5107   1.343   0.098   9.633  1.0074  0.0194  1.1754
  340MPD2    N1 5108   1.092   4.397   9.611 -0.4949  0.1948 -0.1107
  340MPD2    H7 5109   1.191   4.376   9.601 -0.2463  1.1558  0.3809
  341TMC3    C1 5110   1.061   4.165   9.605  0.6795 -0.0404  1.0681
  341TMC3    C2 5111   1.040   4.071   9.697 -0.0106  0.0376  0.4326
  341TMC3    C3 5112   1.106   3.950   9.684 -0.3290  0.0060 -0.6280
  341TMC3    C4 5113   1.135   4.151   9.492  0.7283  0.1015 -0.1051
  341TMC3    C5 5114   1.208   4.030   9.488  0.2307  0.3006 -0.1788
  341TMC3    C6 5115   1.175   3.926   9.570  0.5217  0.5877 -0.0678
  341TMC3     C 5116   1.004   4.295   9.630  0.6183 -0.5217 -0.8726
  341TMC3     O 5117   0.891   4.296   9.681  0.0908 -0.1637 -0.2214
  341TMC3     H 5118   0.974   4.094   9.780 -1.7787  0.2389 -1.0308
  341TMC3    H1 5119   1.164   4.229   9.422  0.6848 -0.9880 -1.3336
  341TMC3    H2 5120   1.225   3.831   9.553 -1.1374 -0.3427  0.1870
  341TMC3    C7 5121   1.280   4.003   9.367  0.2513 -0.5309 -0.0445
  341TMC3    C8 5122   1.094   3.853   9.783  0.5790 -0.0826 -0.1786
  341TMC3    O1 5123   1.389   3.944   9.387  0.2918 -0.4618 -0.0525
  341TMC3    O2 5124   0.983   3.844   9.841  0.4652 -0.2471 -0.1967
  342MPD2     C 5125   3.810   3.377  17.481 -0.8633 -0.5466  0.3271
  342MPD2    C1 5126   3.906   3.346  17.577 -0.5328  0.9000 -0.4059
  342MPD2    C2 5127   3.944   3.441  17.670  1.0539  0.7881 -0.1238
  342MPD2    C3 5128   3.890   3.571  17.664  0.3356  0.2642 -0.1840
  342MPD2    C4 5129   3.792   3.596  17.565 -0.2285 -0.1316 -0.2796
  342MPD2    C5 5130   3.757   3.500  17.474  0.2242 -0.7506 -0.2325
  342MPD2     H 5131   4.013   3.410   0.060  0.1948 -0.5555  0.1049
  342MPD2    H1 5132   3.760   3.699  17.557  2.1865  0.6804  0.7534
  342MPD2    H2 5133   3.773   3.317  17.399 -2.1033  2.6338 -1.4693
  342MPD2    H3 5134   3.688   3.520  17.393 -1.0146 -0.1174  0.9965
  342MPD2     N 5135   3.923   3.672   0.075  0.7889 -0.2544  0.0647
  342MPD2    H5 5136   3.873   3.759   0.061  0.3301 -0.7629 -1.4554
  342MPD2    N1 5137   3.968   3.220  17.577  0.3653  0.6006  0.1208
  342MPD2    H7 5138   4.030   3.212  17.657 -0.9410 -1.6355  0.9112
  343TMC3    C1 5139   4.010   3.000  17.537 -0.1713 -0.6987  0.2750
  343TMC3    C2 5140   4.133   3.018  17.604  0.3436 -0.5827 -0.4771
  343TMC3    C3 5141   4.198   2.902  17.640 -0.2104  0.1278 -0.0770
  343TMC3    C4 5142   3.948   2.881  17.523  0.3389 -0.6664 -0.5682
  343TMC3    C5 5143   4.015   2.770  17.571 -0.3750 -0.2934 -0.0156
  343TMC3    C6 5144   4.141   2.779  17.623 -0.3998 -0.0664  0.3095
  343TMC3     C 5145   3.933   3.115  17.502 -0.1974  0.5370  0.2852
  343TMC3     O 5146   3.852   3.115  17.412 -0.8098 -0.1260  0.0926
  343TMC3     H 5147   4.180   3.116  17.602 -1.9059  0.4967 -0.5915
  343TMC3    H1 5148   3.847   2.886  17.484 -0.5775 -2.5589  1.5444
  343TMC3    H2 5149   4.199   2.696  17.662 -3.2703 -2.4659 -0.5260
  343TMC3    C7 5150   3.936   2.646  17.593 -0.1410 -0.3488 -0.1404
  343TMC3    C8 5151   4.329   2.914   0.001 -0.4039  0.1447  0.3339
  343TMC3    O1 5152   3.827   2.650  17.538  0.9551  0.2794  0.0980
  343TMC3    O2 5153   4.357   3.004   0.083  0.0693 -0.6775 -0.1962
  344MPD2     C 5154   0.462   2.602  10.658 -0.1904  0.9012  0.0252
  344MPD2    C1 5155   0.333   2.649  10.684  0.4778  0.5832 -0.8347
  344MPD2    C2 5156   0.307   2.783  10.643 -0.5320  0.1335 -0.7047
  344MPD2    C3 5157   0.413   2.865  10.595 -0.1940 -0.4609 -0.0978
  344MPD2    C4 5158   0.537   2.816  10.594  0.1775  0.0833  0.7251
  344MPD2    C5 5159   0.558   2.683  10.614  0.1590  0.3272  0.1850
  344MPD2     H 5160   0.210   2.826  10.662 -1.1334 -1.4030 -0.3742
  344MPD2    H1 5161   0.624   2.875  10.566  0.2510 -1.1601 -1.6792
  344MPD2    H2 5162   0.496   2.500  10.672 -3.0182 -0.0647 -0.2198
  344MPD2    H3 5163   0.660   2.648  10.606 -0.5335 -1.9582  1.5310
  344MPD2     N 5164   0.394   3.004  10.567 -0.2953  0.4700 -0.6606
  344MPD2    H5 5165   0.481   3.054  10.554  0.5961 -0.7393  0.6167
  344MPD2    N1 5166   0.245   2.567  10.754 -0.1877  0.8085 -0.6279
  344MPD2    H7 5167   0.149   2.599  10.764  0.3684  2.5486 -0.9841
  345TMC3    C1 5168   0.294   3.207  10.504 -0.7677  0.0907  0.2246
  345TMC3    C2 5169   0.396   3.278  10.569 -0.0666 -0.6171 -0.4810
  345TMC3    C3 5170   0.433   3.399  10.516 -0.1112 -0.3103  0.4870
  345TMC3    C4 5171   0.226   3.249  10.393 -0.5184  0.1682 -0.3826
  345TMC3    C5 5172   0.261   3.373  10.342 -0.7278  0.4815  0.5451
  345TMC3    C6 5173   0.363   3.448  10.402 -0.0055  0.2496  0.0121
  345TMC3     C 5174   0.275   3.073  10.556  0.4071  0.3185  0.4135
  345TMC3     O 5175   0.164   3.028  10.532 -0.2758  0.6205 -0.4688
  345TMC3     H 5176   0.441   3.240  10.660 -1.2448 -1.0898 -0.1064
  345TMC3    H1 5177   0.151   3.185  10.346 -0.2191 -0.8866  0.5633
  345TMC3    H2 5178   0.399   3.539  10.357  0.4406 -0.0637 -0.2674
  345TMC3    C7 5179   0.169   3.452  10.265  0.0928  0.0508  0.3813
  345TMC3    C8 5180   0.510   3.480  10.610  0.2502  0.0070 -0.3823
  345TMC3    O1 5181   0.190   3.571  10.293  0.1931  0.3389  0.0478
  345TMC3    O2 5182   0.584   3.429  10.687 -0.9247 -0.2277 -0.4235
  346MPD2     C 5183   4.535   4.273  14.226 -0.0078  0.1759 -0.1541
  346MPD2    C1 5184   4.672   4.295  14.208  0.0328 -0.5727  0.4952
  346MPD2    C2 5185   0.030   4.334  14.313  0.2851  0.1691  0.3301
  346MPD2    C3 5186   4.703   4.356  14.440  0.2688 -0.4627 -0.1914
  346MPD2    C4 5187   4.570   4.331  14.456  0.2816  0.4569 -0.1454
  346MPD2    C5 5188   4.493   4.285  14.354  0.3045  0.5141  0.0726
  346MPD2     H 5189   0.136   4.352  14.298 -0.2109  2.1329 -0.7913
  346MPD2    H1 5190   4.522   4.337  14.553  1.7471  2.3470  0.4569
  346MPD2    H2 5191   4.462   4.238  14.154  0.6830 -1.8540  0.1115
  346MPD2    H3 5192   4.388   4.270  14.377  0.7701 -0.3743  1.6280
  346MPD2     N 5193   0.059   4.411  14.545  0.1158 -0.0036 -0.2092
  346MPD2    H5 5194   0.159   4.422  14.539  0.2033 -1.3680 -1.2180
  346MPD2    N1 5195   0.019   4.276  14.086  0.7224 -0.0775  0.7482
  346MPD2    H7 5196   0.119   4.286  14.099  0.9019 -2.7097  1.4199
  347TMC3    C1 5197   0.111   4.534  14.737  0.4040  0.4795 -0.3369
  347TMC3    C2 5198   0.235   4.546  14.672 -0.1011 -0.0391 -0.4329
  347TMC3    C3 5199   0.334   4.604  14.746 -0.2679  0.2976  0.2065
  347TMC3    C4 5200   0.078   4.604  14.848 -0.2363  0.6304 -0.1103
  347TMC3    C5 5201   0.185   4.655  14.921  0.4299 -0.5802  0.0160
  347TMC3    C6 5202   0.311   4.653  14.871 -0.3167  0.7724 -0.2641
  347TMC3     C 5203   0.007   4.475  14.659 -0.3986  0.1742 -0.1047
  347TMC3     O 5204   4.607   4.493  14.689 -0.1663 -0.0885 -0.6512
  347TMC3     H 5205   0.265   4.500  14.579  1.5935 -1.8911  1.0285
  347TMC3    H1 5206   4.699   4.605  14.889 -0.0217  1.2759  0.4041
  347TMC3    H2 5207   0.394   4.701  14.923  0.0454 -0.7165  0.5174
  347TMC3    C7 5208   0.160   4.683  15.060 -0.4690  0.0079  0.3862
  347TMC3    C8 5209   0.465   4.596  14.694 -0.2576  0.3375 -0.0785
  347TMC3    O1 5210   0.047   4.684  15.096  0.3831  0.2106  0.4762
  347TMC3    O2 5211   0.486   4.487  14.643 -0.5461  0.1715 -0.1680
  348MPD2     C 5212   3.732   3.775  12.409 -0.2506  0.0799 -0.2554
  348MPD2    C1 5213   3.833   3.867  12.381  0.7195 -0.7878  0.1161
  348MPD2    C2 5214   3.821   3.948  12.267  0.1336 -0.4184 -0.4067
  348MPD2    C3 5215   3.710   3.933  12.187 -0.0751 -0.7065 -0.4733
  348MPD2    C4 5216   3.609   3.852  12.223  0.4458  0.7741 -0.4808
  348MPD2    C5 5217   3.617   3.778  12.331  0.3017 -0.4142 -0.4614
  348MPD2     H 5218   3.901   4.019  12.249 -0.9107  0.9431  0.3271
  348MPD2    H1 5219   3.513   3.844  12.174  0.1880 -0.9754  0.3035
  348MPD2    H2 5220   3.726   3.717  12.501 -0.2869  1.0339  0.3386
  348MPD2    H3 5221   3.532   3.718  12.363 -0.3467  0.0326 -1.3771
  348MPD2     N 5222   3.695   4.015  12.070  0.5189 -0.1105  0.3442
  348MPD2    H5 5223   3.755   4.097  12.069  0.5252 -0.1498 -1.2344
  348MPD2    N1 5224   3.951   3.883  12.457  0.1308  0.3318  0.1640
  348MPD2    H7 5225   4.025   3.947  12.431  2.1674 -2.6299 -1.3461
  349TMC3    C1 5226   4.120   3.799  12.586 -0.0475  0.2310 -0.3766
  349TMC3    C2 5227   4.143   3.670  12.611  0.4765 -0.1510  0.1272
  349TMC3    C3 5228   4.220   3.599  12.522  0.1566 -0.4866 -0.0878
  349TMC3    C4 5229   4.188   3.870  12.488  0.3702  0.3046 -0.2157
  349TMC3    C5 5230   4.261   3.798  12.397 -0.1381  0.3711  0.1800
  349TMC3    C6 5231   4.268   3.662  12.408  0.1913  0.1784  0.0670
  349TMC3     C 5232   3.975   3.815  12.574 -0.5920  0.5717  0.3794
  349TMC3     O 5233   3.906   3.741  12.637  0.4888  0.0293 -0.0153
  349TMC3     H 5234   4.087   3.623  12.691 -1.0747  1.3980 -0.0457
  349TMC3    H1 5235   4.179   3.978  12.484  0.2392  0.3322  0.7200
  349TMC3    H2 5236   4.328   3.614  12.332 -0.5735 -0.3158 -0.2316
  349TMC3    C7 5237   4.251   3.841  12.263 -0.4054  0.4697 -0.7813
  349TMC3    C8 5238   4.271   3.478  12.577 -0.1422 -0.0770 -0.1963
  349TMC3    O1 5239   4.223   3.757  12.177  0.3363 -0.2282 -0.2601
  349TMC3    O2 5240   4.209   3.429  12.671 -0.2002 -0.4987  0.6981
  350MPD2     C 5241   2.956   1.280   9.979 -0.2569  0.6235 -0.6656
  350MPD2    C1 5242   3.041   1.276  10.085 -0.1584 -0.2769  0.0041
  350MPD2    C2 5243   3.050   1.385  10.168 -0.2700  0.2732 -0.4497
  350MPD2    C3 5244   2.968   1.494  10.149  0.2410  0.3230  0.0091
  350MPD2    C4 5245   2.882   1.501  10.038 -0.1427  0.2490 -0.0157
  350MPD2    C5 5246   2.893   1.393   9.952  0.2129 -0.4137  0.3606
  350MPD2     H 5247   3.124   1.379  10.247  0.2502 -0.1857 -0.9796
  350MPD2    H1 5248   2.820   1.583  10.005  0.9380  0.7034 -0.9232
  350MPD2    H2 5249   2.939   1.196   9.913  1.2167 -1.6715  1.8455
  350MPD2    H3 5250   2.828   1.393   9.866  1.1563 -0.2830 -0.3473
  350MPD2     N 5251   2.971   1.597  10.248 -0.6224  0.0401  0.0600
  350MPD2    H5 5252   3.023   1.581  10.334 -1.0449  2.8926  0.8462
  350MPD2    N1 5253   3.114   1.157  10.119  0.3243  0.1965 -0.6402
  350MPD2    H7 5254   3.199   1.174  10.172 -0.9086  1.9235  0.7924
  351TMC3    C1 5255   3.186   0.929  10.094 -0.2335 -0.4545 -0.6944
  351TMC3    C2 5256   3.313   0.973  10.074 -0.1504 -0.1057 -0.0595
  351TMC3    C3 5257   3.404   0.877  10.037 -0.5413 -0.3709 -1.1010
  351TMC3    C4 5258   3.148   0.800  10.090 -0.7006  0.4007 -0.6013
  351TMC3    C5 5259   3.237   0.705  10.043 -0.3621  0.1419  0.0239
  351TMC3    C6 5260   3.367   0.744  10.023 -0.0917 -0.4049  0.4567
  351TMC3     C 5261   3.088   1.030  10.060 -0.1322  0.0056 -0.7990
  351TMC3     O 5262   3.006   0.993   9.977  0.1151 -0.4583  0.0135
  351TMC3     H 5263   3.332   1.079  10.065  1.2824 -0.2277  1.4038
  351TMC3    H1 5264   3.043   0.775  10.089 -0.3529 -0.9618 -2.2506
  351TMC3    H2 5265   3.440   0.667   9.999  0.2716  0.2356 -0.5037
  351TMC3    C7 5266   3.197   0.582   9.987 -0.2635 -1.1496  0.0301
  351TMC3    C8 5267   3.544   0.904  10.020 -0.5668  0.3976 -0.5142
  351TMC3    O1 5268   3.243   0.556   9.878 -0.3681  0.6071 -0.2321
  351TMC3    O2 5269   3.613   0.835   9.952 -0.3648  0.0486  0.4515
  352MPD2     C 5270   1.484   4.371   1.426  0.1200 -0.4751 -0.0147
  352MPD2    C1 5271   1.386   4.428   1.506 -0.6446  0.3039 -0.2349
  352MPD2    C2 5272   1.349   4.363   1.621 -0.1248  0.7235  0.3232
  352MPD2    C3 5273   1.405   4.248   1.654 -0.7913 -0.3786  0.0015
  352MPD2    C4 5274   1.494   4.190   1.572 -0.0847 -0.3446  0.4848
  352MPD2    C5 5275   1.532   4.245   1.456  0.3375 -0.0885  0.0094
  352MPD2     H 5276   1.276   4.403   1.691 -0.7087  2.6004 -1.3679
  352MPD2    H1 5277   1.543   4.098   1.601  0.3029 -0.9029 -1.9428
  352MPD2    H2 5278   1.515   4.426   1.337 -0.0993  0.8418  0.7225
  352MPD2    H3 5279   1.599   4.181   1.400  1.8336 -0.1850  1.8749
  352MPD2     N 5280   1.380   4.175   1.774  0.0702 -0.2084 -0.1440
  352MPD2    H5 5281   1.420   4.082   1.774 -1.9788 -1.0991  2.0553
  352MPD2    N1 5282   1.329   4.547   1.470 -0.7280  0.6018  0.5223
  352MPD2    H7 5283   1.351   4.585   1.379 -0.8615  1.9144  1.0316
  353TMC3    C1 5284   1.291   4.119   1.981  0.0214 -0.4301  0.0832
  353TMC3    C2 5285   1.392   4.030   1.999  0.2412  1.0440  0.4273
  353TMC3    C3 5286   1.354   3.901   2.030  0.5843  0.3302 -0.5627
  353TMC3    C4 5287   1.162   4.091   2.004  0.2066  0.5313 -0.9680
  353TMC3    C5 5288   1.133   3.965   2.044 -0.1007 -0.0743  0.4301
  353TMC3    C6 5289   1.227   3.866   2.061 -0.4053 -0.6439 -0.8758
  353TMC3     C 5290   1.310   4.219   1.883 -0.2582 -0.3141 -0.8926
  353TMC3     O 5291   1.268   4.334   1.900 -0.1071  0.0643  0.3707
  353TMC3     H 5292   1.495   4.053   1.971  0.2226 -0.7015 -1.0520
  353TMC3    H1 5293   1.091   4.168   1.977 -5.0427 -1.9502  5.7757
  353TMC3    H2 5294   1.203   3.770   2.105  0.3050  0.0918  1.1208
  353TMC3    C7 5295   0.993   3.919   2.026  0.3665  0.3901 -0.1846
  353TMC3    C8 5296   1.455   3.800   2.009  0.3962  0.4079  0.2040
  353TMC3    O1 5297   0.972   3.797   2.034 -0.0523 -0.7433 -0.4379
  353TMC3    O2 5298   1.564   3.840   1.976 -1.0592 -0.2107 -0.0007
  354TMC3    C1 5299   3.088   0.631  13.747  0.3425  0.6753  0.1219
  354TMC3    C2 5300   3.077   0.762  13.707 -0.5299 -0.3519 -0.2465
  354TMC3    C3 5301   3.149   0.798  13.595  0.1917 -0.8367 -0.1425
  354TMC3    C4 5302   3.167   0.538  13.688  0.2621 -0.6766 -0.4688
  354TMC3    C5 5303   3.231   0.583  13.576 -0.1604 -0.6634  0.0031
  354TMC3    C6 5304   3.233   0.714  13.535  0.4186 -0.5634 -0.0478
  354TMC3     C 5305   3.012   0.581  13.858 -0.2636  0.3711  0.2316
  354TMC3     O 5306   2.896   0.616  13.867 -0.1104  0.0147 -0.2706
  354TMC3     H 5307   3.016   0.839  13.754  0.0558 -0.3553  0.5177
  354TMC3    H1 5308   3.168   0.434  13.720 -0.0407 -0.1810  1.1573
  354TMC3    H2 5309   3.264   0.744  13.435 -0.5936  1.6735  0.3143
  354TMC3    C7 5310   3.308   0.490  13.497  0.2872 -0.6950  0.8574
  354TMC3    C8 5311   3.150   0.926  13.535 -0.3069 -0.3303 -0.1206
  354TMC3    O1 5312   3.282   0.369  13.499 -0.0830 -0.0354  0.4233
  354TMC3    O2 5313   3.247   0.955  13.464  0.5430  0.0433 -0.3315
  355MPD2     C 5314   2.948   1.485  11.959  0.5655  0.7534 -0.5899
  355MPD2    C1 5315   3.018   1.505  11.844  0.3549 -0.1698  0.2322
  355MPD2    C2 5316   3.155   1.511  11.854  0.1657  0.0522  0.1303
  355MPD2    C3 5317   3.221   1.517  11.980  0.2036 -0.6777  0.0485
  355MPD2    C4 5318   3.144   1.508  12.092 -0.0547 -0.0514  0.7373
  355MPD2    C5 5319   3.009   1.495  12.084 -0.5019 -0.2561  0.7898
  355MPD2     H 5320   3.221   1.519  11.769 -1.3820  0.1863 -1.0561
  355MPD2    H1 5321   3.179   1.516  12.194 -2.6720 -1.2402  1.7378
  355MPD2    H2 5322   2.840   1.475  11.956  0.6197 -0.2410  0.7283
  355MPD2    H3 5323   2.945   1.482  12.170 -0.2550 -0.3307  0.9634
  355MPD2     N 5324   3.363   1.545  12.003  0.2583 -0.1361 -0.1979
  355MPD2    H5 5325   3.394   1.565  12.098  0.2485  0.4339 -0.3123
  355MPD2    N1 5326   2.938   1.516  11.723  0.1264  0.0705  0.4165
  355MPD2    H7 5327   2.837   1.517  11.727  0.1749 -1.7336  2.2127
  356TMC3    C1 5328   3.580   1.630  11.953  0.9183  0.5061  0.1457
  356TMC3    C2 5329   3.682   1.637  11.856  0.1194 -0.6566  0.8785
  356TMC3    C3 5330   3.785   1.723  11.885 -0.3052 -0.1832 -0.8226
  356TMC3    C4 5331   3.585   1.687  12.077 -0.1495  0.2924  0.2682
  356TMC3    C5 5332   3.699   1.763  12.103 -0.0305 -0.2284  0.6174
  356TMC3    C6 5333   3.799   1.785  12.007  0.1212 -0.2400 -0.3138
  356TMC3     C 5334   3.456   1.571  11.910 -0.1360 -0.6739 -0.5438
  356TMC3     O 5335   3.447   1.538  11.790 -0.4126 -0.4666  0.6525
  356TMC3     H 5336   3.666   1.586  11.762 -2.0526 -0.7120  1.2686
  356TMC3    H1 5337   3.505   1.669  12.148 -0.0003  0.4700  0.4807
  356TMC3    H2 5338   3.893   1.830  12.035  0.2964 -1.4178  1.0192
  356TMC3    C7 5339   3.716   1.786  12.238 -0.3915 -0.0942  0.5974
  356TMC3    C8 5340   3.874   1.757  11.773 -0.6615 -0.0613  0.5325
  356TMC3    O1 5341   3.645   1.726  12.317 -0.1920  0.1638  0.1916
  356TMC3    O2 5342   3.862   1.683  11.676 -0.1574  0.1191 -0.9129
  357MPD2     C 5343   2.934   2.164   1.551 -0.9504 -0.2829 -0.1029
  357MPD2    C1 5344   2.954   2.086   1.658 -0.3582  0.5732  0.1206
  357MPD2    C2 5345   2.856   2.088   1.753 -0.4174 -0.3795  0.1946
  357MPD2    C3 5346   2.738   2.162   1.737  0.2123  0.4570  0.1899
  357MPD2    C4 5347   2.719   2.229   1.618 -0.0211  0.1573 -0.4880
  357MPD2    C5 5348   2.818   2.232   1.527  0.0888  0.4659  0.1051
  357MPD2     H 5349   2.868   2.026   1.840  0.1072  0.9957  1.1028
  357MPD2    H1 5350   2.625   2.283   1.606 -1.4969 -2.2287  0.3141
  357MPD2    H2 5351   3.002   2.162   1.467  0.5537 -0.1331  1.1177
  357MPD2    H3 5352   2.813   2.287   1.433  2.3369  1.1374  0.3644
  357MPD2     N 5353   2.623   2.154   1.822  0.7163  0.1591  0.1250
  357MPD2    H5 5354   2.534   2.192   1.792  0.6414  0.7813  1.1073
  357MPD2    N1 5355   3.064   1.993   1.655  0.0542  0.0114  0.2377
  357MPD2    H7 5356   3.121   1.998   1.571 -0.1207  0.0838  0.1224
  358TMC3    C1 5357   3.212   1.824   1.699 -0.2145 -0.1515 -0.3812
  358TMC3    C2 5358   3.184   1.738   1.593  0.1228  0.2176 -0.0052
  358TMC3    C3 5359   3.262   1.632   1.572  0.1032 -0.1408  0.2403
  358TMC3    C4 5360   3.309   1.786   1.787 -0.1572  0.2184 -0.4795
  358TMC3    C5 5361   3.388   1.683   1.748  1.1514  0.4257 -0.2743
  358TMC3    C6 5362   3.377   1.600   1.637  0.5344  0.4745 -0.1755
  358TMC3     C 5363   3.102   1.904   1.752  0.2610  0.5296  0.7896
  358TMC3     O 5364   3.045   1.873   1.856  0.4482  0.0546  0.0054
  358TMC3     H 5365   3.104   1.765   1.526 -0.1625 -1.5235 -0.3728
  358TMC3    H1 5366   3.328   1.857   1.867  1.1881 -0.4387 -0.2275
  358TMC3    H2 5367   3.440   1.513   1.621  0.7311  0.5294  0.2824
  358TMC3    C7 5368   3.516   1.690   1.817 -0.3891 -0.1308  0.1795
  358TMC3    C8 5369   3.208   1.522   1.495 -0.1798  0.5018 -0.5680
  358TMC3    O1 5370   3.619   1.688   1.751 -0.2998  0.2815  0.7550
  358TMC3    O2 5371   3.288   1.439   1.454  0.1902 -0.1127 -0.7641
  359MPD2     C 5372   3.088   3.747  12.639  0.2968 -0.1526  0.2930
  359MPD2    C1 5373   3.092   3.888  12.643 -0.1905  0.1328  0.0739
  359MPD2    C2 5374   3.008   3.954  12.730 -0.1539 -0.1921 -0.3635
  359MPD2    C3 5375   2.917   3.882  12.806 -0.2478 -0.6133  0.7085
  359MPD2    C4 5376   2.916   3.746  12.797  0.0124  0.6792 -0.0156
  359MPD2    C5 5377   3.009   3.677  12.725 -0.3066 -0.6117  0.3317
  359MPD2     H 5378   3.009   4.062  12.731 -0.9897 -0.1880  0.6491
  359MPD2    H1 5379   2.859   3.681  12.862  0.1887  1.3421  0.8090
  359MPD2    H2 5380   3.157   3.700  12.570  0.3995  1.0453 -0.4399
  359MPD2    H3 5381   3.007   3.569  12.732  0.4473 -0.5323  1.6664
  359MPD2     N 5382   2.822   3.940  12.888 -0.3519 -0.4311 -0.0843
  359MPD2    H5 5383   2.759   3.876  12.935 -0.9283  1.6320  1.9734
  359MPD2    N1 5384   3.196   3.958  12.587  0.0478  0.1135 -0.1658
  359MPD2    H7 5385   3.198   4.059  12.600 -1.4226  0.1390 -0.1046
  360TMC3    C1 5386   3.356   4.030  12.436  0.7141 -0.6284  0.0691
  360TMC3    C2 5387   3.437   4.107  12.517 -0.0108  0.2800  0.0180
  360TMC3    C3 5388   3.529   4.188  12.452 -0.2444 -0.2024 -0.0407
  360TMC3    C4 5389   3.327   4.066  12.305  0.2283  0.4908  0.4307
  360TMC3    C5 5390   3.404   4.167  12.247  0.0783  0.1128  0.3378
  360TMC3    C6 5391   3.503   4.228  12.321 -1.0122  0.1321 -0.0411
  360TMC3     C 5392   3.283   3.917  12.490 -0.2462  0.3511 -0.2523
  360TMC3     O 5393   3.284   3.826  12.409  0.1967  0.4701  0.1719
  360TMC3     H 5394   3.464   4.050  12.605  1.9025  0.0733 -0.7177
  360TMC3    H1 5395   3.241   4.021  12.257  0.9153 -1.4360  1.0268
  360TMC3    H2 5396   3.577   4.287  12.268  0.0050 -0.4004  0.7835
  360TMC3    C7 5397   3.376   4.235  12.123  0.2199 -0.3245  0.4165
  360TMC3    C8 5398   3.667   4.184  12.500  0.1944 -0.1007  0.4340
  360TMC3    O1 5399   3.450   4.321  12.083  0.4894  0.1846 -0.1736
  360TMC3    O2 5400   3.691   4.094  12.580  0.2619  0.2259 -0.2239
  361MPD2     C 5401   0.343   4.148  17.580  0.1569 -0.2501 -0.2086
  361MPD2    C1 5402   0.316   4.049  17.482  0.2209  0.2797  0.2626
  361MPD2    C2 5403   0.400   3.940  17.469  0.3575 -0.0996  0.1919
  361MPD2    C3 5404   0.513   3.931  17.549  0.6089 -0.0506  0.6664
  361MPD2    C4 5405   0.552   4.032  17.636 -0.4999  0.3514  0.3704
  361MPD2    C5 5406   0.457   4.131  17.659 -0.2186  0.6859  0.6065
  361MPD2     H 5407   0.379   3.860  17.399  5.2131 -1.8494  0.7183
  361MPD2    H1 5408   0.636   4.021   0.017  1.1201 -1.1366 -1.8872
  361MPD2    H2 5409   0.275   4.231  17.593  0.1238 -0.4060  0.5698
  361MPD2    H3 5410   0.479   4.208   0.045  0.6880 -0.7137  1.7999
  361MPD2     N 5411   0.594   3.817  17.558 -0.0052  0.3063 -0.0366
  361MPD2    H5 5412   0.666   3.820  17.629 -0.3639  1.1548  0.2916
  361MPD2    N1 5413   0.196   4.052  17.399 -0.1714 -0.3163  0.2713
  361MPD2    H7 5414   0.194   3.986  17.322 -0.6194 -0.0325  0.0405
  362TMC3    C1 5415   4.709   4.125  17.321 -0.2002 -0.9298  0.5009
  362TMC3    C2 5416   4.601   4.058  17.367  0.6688 -0.4303 -0.3285
  362TMC3    C3 5417   4.524   3.991  17.286  0.0571  0.2679  0.3169
  362TMC3    C4 5418   0.025   4.121  17.190 -0.5148 -0.3365 -0.6531
  362TMC3    C5 5419   4.664   4.060  17.105  0.2638  0.0554  0.4970
  362TMC3    C6 5420   4.555   3.987  17.154  0.0855  0.1813  0.1208
  362TMC3     C 5421   0.087   4.134  17.423 -0.3740  0.5543  0.1960
  362TMC3     O 5422   0.054   4.192  17.525 -0.1945 -0.1321 -0.1344
  362TMC3     H 5423   4.585   4.064  17.474 -2.4959 -0.3219 -0.8020
  362TMC3    H1 5424   0.102   4.185  17.145 -0.9893  0.3407 -0.5015
  362TMC3    H2 5425   4.481   3.948  17.085 -0.3367  1.2430 -0.0237
  362TMC3    C7 5426   4.634   4.137  16.978 -0.0580  0.2502 -0.0209
  362TMC3    C8 5427   4.398   3.931  17.326 -0.9020 -0.4437  0.6742
  362TMC3    O1 5428   4.703   4.236  16.955  0.1639 -0.0343 -0.2091
  362TMC3    O2 5429   4.341   3.849  17.256 -0.3197  0.5540 -0.2260
  363TMC3    C1 5430   4.486   1.798   9.822 -0.0130  0.7991  0.2827
  363TMC3    C2 5431   4.539   1.682   9.865 -0.4948  0.6722  0.2435
  363TMC3    C3 5432   4.460   1.595   9.928  0.6704  0.2888 -0.4067
  363TMC3    C4 5433   4.351   1.818   9.807  0.0574 -0.4771 -1.0016
  363TMC3    C5 5434   4.272   1.722   9.858 -0.3538  0.4582  0.5685
  363TMC3    C6 5435   4.322   1.612   9.917 -0.1279 -0.2639 -0.2831
  363TMC3     C 5436   4.575   1.879   9.733 -0.0510 -0.5658 -0.0736
  363TMC3     O 5437   4.663   1.817   9.671  0.4545  0.6000 -0.4550
  363TMC3     H 5438   4.646   1.665   9.869 -0.4790  0.1963 -2.0349
  363TMC3    H1 5439   4.311   1.899   9.747 -1.3712 -0.8437 -0.5490
  363TMC3    H2 5440   4.255   1.534   9.952 -1.1726  1.4812  1.5878
  363TMC3    C7 5441   4.139   1.775   9.884 -0.2310  0.8034 -0.6595
  363TMC3    C8 5442   4.515   1.463   9.951 -0.0764 -0.3484 -0.4795
  363TMC3    O1 5443   4.115   1.890   9.842 -0.0076 -0.6556 -0.1489
  363TMC3    O2 5444   4.631   1.455   9.915  0.7019 -0.3745  0.3139
  364MPD2     C 5445   2.139   1.095  10.526 -0.6325  0.0928  0.6112
  364MPD2    C1 5446   2.271   1.131  10.505  0.3362 -0.7396  0.0979
  364MPD2    C2 5447   2.377   1.047  10.559  0.0379 -0.1625 -0.4132
  364MPD2    C3 5448   2.340   0.933  10.634 -0.2637 -0.3631 -0.4161
  364MPD2    C4 5449   2.201   0.900  10.641 -0.0248 -0.6312 -0.1164
  364MPD2    C5 5450   2.106   0.979  10.584  0.2862 -0.0367 -0.6509
  364MPD2     H 5451   2.481   1.077  10.557 -0.0435 -0.0110 -1.8106
  364MPD2    H1 5452   2.155   0.817  10.694 -0.5976 -1.0789 -1.3187
  364MPD2    H2 5453   2.063   1.160  10.484 -0.6011  1.1482  2.2262
  364MPD2    H3 5454   2.003   0.946  10.591  0.4537  0.0246  2.1111
  364MPD2     N 5455   2.433   0.860  10.713  0.3827 -0.1155  0.2781
  364MPD2    H5 5456   2.395   0.805  10.789 -1.6693  0.9954  0.0578
  364MPD2    N1 5457   2.303   1.258  10.447 -0.6928  0.1103 -0.4226
  364MPD2    H7 5458   2.228   1.326  10.447 -1.3671 -0.6359  0.7278
  365TMC3    C1 5459   2.466   1.429  10.400  0.4414 -0.5998  0.2083
  365TMC3    C2 5460   2.602   1.443  10.372 -0.5095 -0.5073 -0.0609
  365TMC3    C3 5461   2.688   1.503  10.458 -0.1348  0.0079  0.6702
  365TMC3    C4 5462   2.422   1.492  10.519 -0.1108  0.5109 -0.5036
  365TMC3    C5 5463   2.506   1.561  10.596  0.3853 -0.3854 -0.3511
  365TMC3    C6 5464   2.644   1.576  10.568 -0.0431  0.3916  0.1038
  365TMC3     C 5465   2.427   1.291  10.392 -0.6856 -0.8228 -0.3569
  365TMC3     O 5466   2.521   1.211  10.363 -0.4330 -0.7263 -0.6464
  365TMC3     H 5467   2.647   1.403  10.282 -0.7000 -0.2372 -0.2772
  365TMC3    H1 5468   2.318   1.490  10.548  0.1826 -2.1519  0.3249
  365TMC3    H2 5469   2.711   1.618  10.642  0.7784 -0.1824 -0.3237
  365TMC3    C7 5470   2.467   1.594  10.729  0.3510 -0.6710  0.7378
  365TMC3    C8 5471   2.819   1.440  10.483 -0.2547  0.0618  0.0848
  365TMC3    O1 5472   2.527   1.683  10.781  0.1802  0.1711 -0.5615
  365TMC3    O2 5473   2.910   1.506  10.533  0.0977 -0.4350  0.3715
  366MPD2     C 5474   0.387   2.128  15.849  0.0090  0.3076  0.4200
  366MPD2    C1 5475   0.458   2.160  15.741  0.2646 -0.0872  0.3302
  366MPD2    C2 5476   0.506   2.063  15.654 -0.5526 -0.2794 -0.0504
  366MPD2    C3 5477   0.491   1.933  15.683 -0.2051  0.2493  0.0322
  366MPD2    C4 5478   0.428   1.897  15.800 -0.4033  0.0291 -0.3542
  366MPD2    C5 5479   0.371   1.996  15.879 -0.3412  0.6440  0.2445
  366MPD2     H 5480   0.581   2.087  15.580 -1.2878 -0.1800 -0.7682
  366MPD2    H1 5481   0.418   1.795  15.834  1.0259 -0.4735 -1.4535
  366MPD2    H2 5482   0.351   2.201  15.921  1.9285  0.1567  1.5597
  366MPD2    H3 5483   0.316   1.975  15.970 -0.5495 -1.8719 -0.4598
  366MPD2     N 5484   0.591   1.851  15.616 -0.2786  0.5499  0.3231
  366MPD2    H5 5485   0.627   1.895  15.532  1.2032  2.5291  2.0101
  366MPD2    N1 5486   0.483   2.303  15.725  0.1252  0.4903 -0.4642
  366MPD2    H7 5487   0.457   2.367  15.799 -1.7028  0.6928 -1.2774
  367TMC3    C1 5488   0.551   2.506  15.625 -0.2525 -0.2684 -0.4782
  367TMC3    C2 5489   0.578   2.569  15.743  0.1645  0.1662 -0.1232
  367TMC3    C3 5490   0.607   2.699  15.744  0.5363 -0.8713  0.2685
  367TMC3    C4 5491   0.567   2.570  15.507 -0.2114  0.4779 -0.1274
  367TMC3    C5 5492   0.601   2.703  15.513 -0.7342 -0.3876  0.5229
  367TMC3    C6 5493   0.607   2.773  15.632  0.7187  0.4513 -0.3246
  367TMC3     C 5494   0.554   2.362  15.624 -0.2012 -0.5330 -0.2849
  367TMC3     O 5495   0.587   2.310  15.518 -0.1673 -0.1521  0.0627
  367TMC3     H 5496   0.571   2.517  15.838  1.2748  0.3110  0.0464
  367TMC3    H1 5497   0.538   2.517  15.417  0.3668  1.5610 -0.9577
  367TMC3    H2 5498   0.602   2.881  15.636 -0.7553  0.4081 -1.2876
  367TMC3    C7 5499   0.575   2.774  15.390  0.0871 -0.1335  0.2907
  367TMC3    C8 5500   0.656   2.747  15.863  0.4497 -0.5662 -0.0691
  367TMC3    O1 5501   0.513   2.882  15.398 -0.2119 -0.4883 -0.3957
  367TMC3    O2 5502   0.625   2.690  15.967  0.2773 -0.3736  0.0094
  368MPD2     C 5503   1.396   3.511  12.917 -0.4126 -0.5839 -0.4422
  368MPD2    C1 5504   1.463   3.575  12.816  0.3115 -0.1267  0.6929
  368MPD2    C2 5505   1.582   3.516  12.780  0.4305  0.1928  0.2614
  368MPD2    C3 5506   1.626   3.395  12.825  0.3179 -0.0706  0.3935
  368MPD2    C4 5507   1.551   3.326  12.919  0.2304  0.5779 -0.5987
  368MPD2    C5 5508   1.430   3.384  12.954  0.9245 -0.1094  0.1531
  368MPD2     H 5509   1.651   3.567  12.714 -0.0822  1.0901  0.4197
  368MPD2    H1 5510   1.579   3.229  12.957 -1.0797  0.0683 -0.9156
  368MPD2    H2 5511   1.307   3.553  12.961  0.4935 -0.0594  0.8701
  368MPD2    H3 5512   1.369   3.336  13.030  0.2406  0.2208 -0.1868
  368MPD2     N 5513   1.747   3.335  12.798 -0.6353 -0.2616  0.1429
  368MPD2    H5 5514   1.766   3.247  12.846 -0.9269  0.3111  1.3266
  368MPD2    N1 5515   1.422   3.700  12.773 -0.5280  0.4746 -0.3071
  368MPD2    H7 5516   1.343   3.738  12.825 -0.3464 -2.4643  2.1274
  369TMC3    C1 5517   1.429   3.908  12.669  0.1843 -0.3997  1.2433
  369TMC3    C2 5518   1.516   4.006  12.633  0.2768  0.4466 -0.1428
  369TMC3    C3 5519   1.476   4.137  12.651 -0.0951  0.1384 -0.1928
  369TMC3    C4 5520   1.306   3.932  12.720  0.4206  0.3308  0.0340
  369TMC3    C5 5521   1.277   4.068  12.748  0.2968 -0.3728 -0.6195
  369TMC3    C6 5522   1.359   4.168  12.705  0.6453  0.5521 -0.3792
  369TMC3     C 5523   1.478   3.775  12.670  0.1201  0.4293 -0.5101
  369TMC3     O 5524   1.552   3.732  12.584 -0.1564 -0.0438 -0.0499
  369TMC3     H 5525   1.614   3.974  12.598 -1.0329 -0.9858 -2.5252
  369TMC3    H1 5526   1.238   3.851  12.744 -0.4134  1.1074  0.3131
  369TMC3    H2 5527   1.332   4.271  12.726  0.1275 -0.5715  4.6379
  369TMC3    C7 5528   1.148   4.100  12.810 -0.5783 -0.5386 -0.4823
  369TMC3    C8 5529   1.575   4.237  12.651 -0.2071 -0.2938 -0.4145
  369TMC3    O1 5530   1.084   4.193  12.768 -0.0963  0.6772 -0.3349
  369TMC3    O2 5531   1.541   4.352  12.637 -0.1630  0.0406  0.3584
  370TMC3    C1 5532   1.285   0.125  16.521  0.3245 -0.0718 -0.8340
  370TMC3    C2 5533   1.222   0.056  16.626 -0.3491  0.5182  0.0728
  370TMC3    C3 5534   1.176   4.650  16.596 -0.3514 -0.7558 -0.3456
  370TMC3    C4 5535   1.299   0.078  16.394  0.2128 -0.3488  0.5536
  370TMC3    C5 5536   1.256   4.673  16.375  0.4373  0.7812  0.1728
  370TMC3    C6 5537   1.197   4.597  16.473 -0.0244 -1.1412  0.7457
  370TMC3     C 5538   1.280   0.271  16.529 -0.4256  0.1683  0.3474
  370TMC3     O 5539   1.214   0.318  16.622  0.1146  0.2395  0.4141
  370TMC3     H 5540   1.199   0.111  16.717 -0.1549  2.4511 -1.0509
  370TMC3    H1 5541   1.354   0.124  16.313  0.3551 -1.7555 -0.1360
  370TMC3    H2 5542   1.158   4.499  16.447  1.1473 -1.4137  0.0304
  370TMC3    C7 5543   1.294   4.617  16.247 -0.0059 -0.2165  0.1678
  370TMC3    C8 5544   1.160   4.549  16.703 -0.1094 -0.2031 -0.6802
  370TMC3    O1 5545   1.350   4.684  16.162  0.0601  0.2962 -0.6368
  370TMC3    O2 5546   1.173   4.434  16.668 -0.4081 -0.1589  0.2021
  371TMC3    C1 5547   2.473   2.944  15.882  0.0058  0.8442  0.4058
  371TMC3    C2 5548   2.346   2.926  15.928  0.0875 -0.7100  0.3940
  371TMC3    C3 5549   2.260   3.034  15.927 -0.4173 -0.2032 -0.9649
  371TMC3    C4 5550   2.512   3.061  15.821  0.2103  0.0920 -0.2196
  371TMC3    C5 5551   2.419   3.157  15.800  1.3069  0.3426 -0.4896
  371TMC3    C6 5552   2.299   3.152  15.856 -0.0425 -0.0631 -0.2722
  371TMC3     C 5553   2.576   2.843  15.893 -0.3737  0.5261  0.4602
  371TMC3     O 5554   2.692   2.872  15.874  0.2290 -0.1278 -0.6627
  371TMC3     H 5555   2.315   2.843  15.990 -1.2968 -0.5723 -0.1178
  371TMC3    H1 5556   2.617   3.077  15.799  0.6182  0.0551  1.6516
  371TMC3    H2 5557   2.220   3.226  15.847 -0.5532 -0.6454 -0.5830
  371TMC3    C7 5558   2.450   3.286  15.738 -0.2521 -0.4843 -0.6738
  371TMC3    C8 5559   2.125   3.010  15.961 -0.2564  0.5257 -0.1051
  371TMC3    O1 5560   2.366   3.371  15.741 -0.0913  0.2220 -0.0811
  371TMC3    O2 5561   2.089   2.895  15.962  0.5780  0.0571  0.3149
  372MPD2     C 5562   2.002   4.010  13.294  0.1927 -0.1367 -0.0957
  372MPD2    C1 5563   2.101   4.021  13.382  1.0606 -0.2630 -0.4030
  372MPD2    C2 5564   2.131   3.918  13.467 -0.3634 -0.2682  0.3972
  372MPD2    C3 5565   2.057   3.796  13.462 -0.0080  0.5731  0.3870
  372MPD2    C4 5566   1.943   3.796  13.386 -0.1609  0.0966  0.3523
  372MPD2    C5 5567   1.921   3.902  13.295 -0.2571 -0.3525  1.1440
  372MPD2     H 5568   2.218   3.930  13.531 -1.9922 -1.7104  2.8926
  372MPD2    H1 5569   1.874   3.712  13.379 -0.4231  0.4358 -1.1433
  372MPD2    H2 5570   1.975   4.090  13.226  2.5944  0.2641 -0.5690
  372MPD2    H3 5571   1.836   3.884  13.230 -1.3836  2.1255  1.9458
  372MPD2     N 5572   2.088   3.689  13.548  0.0424 -0.1569 -0.0117
  372MPD2    H5 5573   2.155   3.699  13.624  0.9233  1.3013 -1.0010
  372MPD2    N1 5574   2.196   4.125  13.377  0.0459 -0.1710  0.2536
  372MPD2    H7 5575   2.261   4.127  13.455  1.2182 -1.1644 -0.7136
  373TMC3    C1 5576   2.087   3.463  13.627 -0.1325  0.2741 -0.0589
  373TMC3    C2 5577   2.103   3.492  13.757  0.5129 -0.1975  0.0379
  373TMC3    C3 5578   2.177   3.397  13.834  0.0986  0.1090 -0.9858
  373TMC3    C4 5579   2.123   3.341  13.573 -0.3909 -0.5144 -0.8254
  373TMC3    C5 5580   2.204   3.258  13.644  0.6658 -0.3676 -0.0097
  373TMC3    C6 5581   2.228   3.285  13.779 -0.0246 -0.1825 -0.4765
  373TMC3     C 5582   2.034   3.558  13.534  0.5828  0.1806  0.3542
  373TMC3     O 5583   1.966   3.511  13.439 -0.1635  0.1086 -0.1514
  373TMC3     H 5584   2.057   3.577  13.806  1.7534 -2.3346  4.9125
  373TMC3    H1 5585   2.125   3.323  13.466  0.2424  3.6528 -1.5138
  373TMC3    H2 5586   2.291   3.217  13.835  0.4627  1.1851  0.6682
  373TMC3    C7 5587   2.276   3.147  13.580  0.1317 -0.3286  0.3786
  373TMC3    C8 5588   2.250   3.457  13.947 -0.5912 -0.7974 -0.1295
  373TMC3    O1 5589   2.258   3.122  13.463 -0.5725 -0.0208 -0.3938
  373TMC3    O2 5590   2.370   3.443  13.959 -0.2473 -0.1378 -0.3451
  374TMC3    C1 5591   2.190   4.251   9.983 -0.1513  0.1727 -0.0291
  374TMC3    C2 5592   2.222   4.302  10.104 -0.0131  1.1507  0.1539
  374TMC3    C3 5593   2.353   4.348  10.122  0.4182 -0.6959 -0.0855
  374TMC3    C4 5594   2.284   4.250   9.883  0.7516 -0.0098 -0.3292
  374TMC3    C5 5595   2.412   4.290   9.905 -0.0997 -0.3677 -0.2409
  374TMC3    C6 5596   2.446   4.341  10.021  0.2295 -0.2036 -0.2757
  374TMC3     C 5597   2.060   4.190   9.970  0.3256  0.2687 -1.1285
  374TMC3     O 5598   1.964   4.242  10.027 -0.0162 -0.2578 -0.2568
  374TMC3     H 5599   2.152   4.290  10.186 -0.8031 -2.5471 -1.0346
  374TMC3    H1 5600   2.262   4.202   9.788  0.2443 -1.2326  0.4021
  374TMC3    H2 5601   2.537   4.398  10.039 -0.5309  0.7914  0.4116
  374TMC3    C7 5602   2.501   4.259   9.800 -0.2087 -0.5620  0.2866
  374TMC3    C8 5603   2.391   4.376  10.256  0.0095  0.4021  0.7582
  374TMC3    O1 5604   2.464   4.210   9.691  0.3030  0.2810 -0.1214
  374TMC3    O2 5605   2.296   4.404  10.326  0.1443  0.3299 -0.1899
  375MPD2     C 5606   2.572   0.152  17.359  0.5087 -0.2130  0.0405
  375MPD2    C1 5607   2.513   0.171  17.236  0.1477  0.2891  0.2278
  375MPD2    C2 5608   2.583   0.128  17.123  0.0486  0.0425 -0.9270
  375MPD2    C3 5609   2.712   0.078  17.123 -0.1059 -0.4713 -0.0156
  375MPD2    C4 5610   2.782   0.087  17.238  0.3098  0.1947 -0.2644
  375MPD2    C5 5611   2.707   0.115  17.355  0.5178 -0.0331  0.1608
  375MPD2     H 5612   2.524   0.115  17.032  2.3144 -3.4926 -1.9042
  375MPD2    H1 5613   2.883   0.048  17.244 -0.0781 -0.6500  0.6301
  375MPD2    H2 5614   2.518   0.174  17.450  1.6997  0.2132  0.6500
  375MPD2    H3 5615   2.750   0.099  17.454 -0.0736  0.4411  0.4951
  375MPD2     N 5616   2.784   0.024  17.009 -0.0051 -0.5403  0.2982
  375MPD2    H5 5617   2.882   0.004  17.025  0.4129  2.4534  1.4988
  375MPD2    N1 5618   2.387   0.229  17.219  0.0646 -0.3022 -0.0483
  375MPD2    H7 5619   2.352   0.237  17.123 -0.1852 -0.1713  0.0538
  376TMC3    C1 5620   2.819   4.680  16.788 -0.6313 -0.6490  0.4497
  376TMC3    C2 5621   2.939   4.619  16.819 -0.3623 -0.5062  0.0606
  376TMC3    C3 5622   3.024   4.595  16.715 -0.0334 -0.9994  0.3155
  376TMC3    C4 5623   2.775   4.683  16.657 -0.2391 -0.6770 -0.0188
  376TMC3    C5 5624   2.863   4.650  16.560 -0.2784  0.0917 -0.3324
  376TMC3    C6 5625   2.991   4.610  16.581 -0.0294  0.0752 -0.1165
  376TMC3     C 5626   2.730   0.017  16.884 -0.7453  0.3847 -0.1228
  376TMC3     O 5627   2.614   0.035  16.846 -0.1254  0.0606  0.3556
  376TMC3     H 5628   2.979   4.605  16.918 -2.1364  1.5549  1.0526
  376TMC3    H1 5629   2.688   0.024  16.637  0.7120  0.6946  0.1565
  376TMC3    H2 5630   3.059   4.584  16.500 -1.0480 -0.3736 -0.8342
  376TMC3    C7 5631   2.810   4.646  16.425 -0.9227 -0.1421  0.9156
  376TMC3    C8 5632   3.160   4.553  16.738  0.1186  0.1530  0.1247
  376TMC3    O1 5633   2.895   4.634  16.335  0.3830  0.1237  0.6767
  376TMC3    O2 5634   3.192   4.503  16.845  0.2522  0.2534 -0.1174
  377MPD2     C 5635   1.227   3.737  12.396  0.2117  0.5437  0.1492
  377MPD2    C1 5636   1.194   3.870  12.410  0.3458  0.6814  0.0411
  377MPD2    C2 5637   1.077   3.898  12.484  0.3595  0.5083  0.3143
  377MPD2    C3 5638   1.015   3.797  12.559  0.5676 -0.5173  0.3898
  377MPD2    C4 5639   1.078   3.674  12.566 -0.5402  0.0687  0.0814
  377MPD2    C5 5640   1.182   3.642  12.487  0.2855  0.2754  0.1577
  377MPD2     H 5641   1.044   3.999  12.503  1.0316  0.8467 -0.3539
  377MPD2    H1 5642   1.039   3.599  12.633  0.7993 -0.6732  0.0335
  377MPD2    H2 5643   1.306   3.714  12.326 -1.0868  0.0073 -1.1390
  377MPD2    H3 5644   1.229   3.544  12.487  0.5108  0.3845  0.3553
  377MPD2     N 5645   0.904   3.811  12.645 -0.0069 -0.6921  1.0154
  377MPD2    H5 5646   0.875   3.734  12.705 -0.5612 -0.0399  1.5833
  377MPD2    N1 5647   1.274   3.964  12.344 -0.2348 -0.2500  0.0796
  377MPD2    H7 5648   1.360   3.933  12.300 -0.5983 -3.6757  1.8193
  378TMC3    C1 5649   1.413   4.232  12.021 -0.0269 -0.1954 -0.5290
  378TMC3    C2 5650   1.309   4.215  12.114 -0.0252  0.6830  0.6795
  378TMC3    C3 5651   1.334   4.164  12.238  1.5884  0.3499  0.1240
  378TMC3    C4 5652   1.545   4.199  12.046  0.3886 -0.5735 -0.3874
  378TMC3    C5 5653   1.566   4.149  12.173 -0.5887 -0.1359  0.4501
  378TMC3    C6 5654   1.466   4.124  12.265  0.9044  0.5638 -0.2306
  378TMC3     C 5655   1.369   4.234  11.882  0.1049  0.5556  0.4351
  378TMC3     O 5656   1.246   4.233  11.865 -0.0125  0.0475 -0.0042
  378TMC3     H 5657   1.205   4.235  12.090  0.1426  0.4131 -0.2994
  378TMC3    H1 5658   1.622   4.225  11.974  0.9289 -0.1816  0.3399
  378TMC3    H2 5659   1.487   4.089  12.365  0.7264  0.9614 -0.0570
  378TMC3    C7 5660   1.701   4.128  12.220  0.7717 -0.7693  0.3395
  378TMC3    C8 5661   1.236   4.089  12.311 -0.4997  0.0905 -0.0653
  378TMC3    O1 5662   1.722   4.139  12.342 -0.0034  0.3482  0.4640
  378TMC3    O2 5663   1.115   4.117  12.292  0.7171 -0.2990 -0.2408
  379MPD2     C 5664   1.841   2.616  16.449  0.6661  1.0304  0.2575
  379MPD2    C1 5665   1.726   2.556  16.512 -0.5218  0.0963 -0.6267
  379MPD2    C2 5666   1.739   2.499  16.639 -0.6380 -0.0725  0.1954
  379MPD2    C3 5667   1.869   2.501  16.699 -0.4858  0.4604  0.9903
  379MPD2    C4 5668   1.971   2.568  16.631 -0.4141 -0.2557 -0.3905
  379MPD2    C5 5669   1.962   2.620  16.513  0.4571 -0.5517 -0.1134
  379MPD2     H 5670   1.656   2.448  16.687 -1.4727 -1.7277 -2.9463
  379MPD2    H1 5671   2.065   2.586  16.682  0.6817 -3.6161 -1.2174
  379MPD2    H2 5672   1.823   2.674  16.359  3.2657 -1.9708 -2.2262
  379MPD2    H3 5673   2.050   2.674  16.482  1.4514 -0.2210  3.2417
  379MPD2     N 5674   1.909   2.467  16.822  0.5503  0.2534  0.3803
  379MPD2    H5 5675   2.006   2.487  16.845  0.3864  2.6969 -1.0352
  379MPD2    N1 5676   1.605   2.534  16.442  0.2957 -0.4092 -0.2536
  379MPD2    H7 5677   1.599   2.544  16.342 -0.0927 -0.1042 -0.2010
  380TMC3    C1 5678   1.375   2.483  16.412 -0.2362  0.5092  0.1477
  380TMC3    C2 5679   1.386   2.411  16.296  0.0286  0.1486  0.0466
  380TMC3    C3 5680   1.283   2.403  16.204 -0.6944 -0.2088  0.2673
  380TMC3    C4 5681   1.266   2.552  16.445 -0.0865  0.9995 -0.2469
  380TMC3    C5 5682   1.162   2.554  16.355 -0.2851  0.4348  0.1100
  380TMC3    C6 5683   1.164   2.464  16.239 -0.8429 -0.2255  0.5413
  380TMC3     C 5684   1.489   2.508  16.505 -1.0903  0.0532  0.1976
  380TMC3     O 5685   1.460   2.495  16.625 -0.6320  0.2532  0.9609
  380TMC3     H 5686   1.487   2.378  16.271  0.3548  0.0154  1.5087
  380TMC3    H1 5687   1.267   2.618  16.532  0.8070  0.2445  0.3219
  380TMC3    H2 5688   1.087   2.462  16.163  0.9569  1.1478 -1.3358
  380TMC3    C7 5689   1.122   2.686  16.325  0.1762 -0.4057 -0.1652
  380TMC3    C8 5690   1.302   2.375  16.062 -0.0889  0.5831 -0.4465
  380TMC3    O1 5691   1.171   2.779  16.389  0.5347 -0.8231 -0.1051
  380TMC3    O2 5692   1.208   2.394  15.987  0.1635  0.2126  0.3039
  381TMC3    C1 5693   1.061   3.940  16.383 -0.5364  0.4564  0.1616
  381TMC3    C2 5694   1.182   4.007  16.379 -1.0235 -0.6010  0.2394
  381TMC3    C3 5695   1.202   4.081  16.483 -0.9683  0.1066  0.5504
  381TMC3    C4 5696   0.992   3.924  16.498 -0.2463 -0.0122  0.2123
  381TMC3    C5 5697   1.036   3.988  16.610 -0.6524  0.0260 -0.7949
  381TMC3    C6 5698   1.139   4.071  16.603  0.7761  0.4624  0.0541
  381TMC3     C 5699   1.010   3.888  16.258  0.2426  0.4574  0.0705
  381TMC3     O 5700   1.094   3.879  16.170  0.3393 -0.1687  0.3411
  381TMC3     H 5701   1.245   4.018  16.291 -0.2382  2.3270  1.1668
  381TMC3    H1 5702   0.909   3.857  16.517  0.6157 -1.4371 -1.0938
  381TMC3    H2 5703   1.172   4.122  16.693  2.7606 -0.1261 -0.3467
  381TMC3    C7 5704   1.011   3.914  16.736 -0.6741  0.5436 -0.7036
  381TMC3    C8 5705   1.342   4.118  16.511 -0.5240  0.3283 -0.0084
  381TMC3    O1 5706   1.008   3.791  16.726  0.7952 -0.1617 -0.2115
  381TMC3    O2 5707   1.427   4.052  16.445 -0.3700  0.1361 -0.0152
  382MPD2     C 5708   0.611   1.764  17.357  0.6740  0.0222  0.5660
  382MPD2    C1 5709   0.559   1.741  17.487 -0.3627  0.2690  0.4553
  382MPD2    C2 5710   0.494   1.629  17.528 -0.0396  0.0887 -0.0355
  382MPD2    C3 5711   0.486   1.522  17.444  0.1491  0.1548 -0.3904
  382MPD2    C4 5712   0.533   1.542  17.316  0.0298  0.5643  0.1756
  382MPD2    C5 5713   0.596   1.658  17.276  0.5316 -0.4832 -0.3403
  382MPD2     H 5714   0.447   1.640  17.625 -0.3929  1.2226 -0.3319
  382MPD2    H1 5715   0.519   1.463  17.243  0.0498  0.7770 -0.0583
  382MPD2    H2 5716   0.685   1.836  17.323  0.2116  2.1608  4.0825
  382MPD2    H3 5717   0.649   1.655  17.182  0.7444  0.0841 -0.2371
  382MPD2     N 5718   0.426   1.403  17.482  0.4364  0.3001 -0.2416
  382MPD2    H5 5719   0.431   1.329  17.412  0.7925 -0.6047  0.7334
  382MPD2    N1 5720   0.577   1.840  17.590  0.4109 -0.1049 -0.4321
  382MPD2    H7 5721   0.516   1.825  17.670  1.0227 -1.2690 -0.1877
  383TMC3    C1 5722   0.315   1.245  17.625  0.0007 -0.1166  0.5105
  383TMC3    C2 5723   0.245   1.171  17.528 -0.1024 -0.2498 -0.8982
  383TMC3    C3 5724   0.233   1.036  17.552  0.3145 -0.1937 -0.0658
  383TMC3    C4 5725   0.360   1.178   0.052  0.2107  1.2359  0.2212
  383TMC3    C5 5726   0.346   1.041   0.069 -0.3269 -0.1148  0.6093
  383TMC3    C6 5727   0.281   0.970  17.664 -0.2678 -0.4491  0.7129
  383TMC3     C 5728   0.361   1.382  17.607  0.8116  0.7726 -0.1262
  383TMC3     O 5729   0.382   1.440   0.020  0.1815  0.0872 -0.6376
  383TMC3     H 5730   0.211   1.223  17.439 -2.6142  1.5483  1.1365
  383TMC3    H1 5731   0.419   1.232   0.124 -2.5119  0.4283  3.0535
  383TMC3    H2 5732   0.253   0.867  17.683  0.0832 -0.9155 -1.2259
  383TMC3    C7 5733   0.407   0.972   0.175  0.3178  0.2804 -0.1691
  383TMC3    C8 5734   0.144   0.969  17.470 -0.1798  0.6405  0.0359
  383TMC3    O1 5735   0.399   0.850   0.161 -0.1527 -0.2269 -0.1202
  383TMC3    O2 5736   0.064   1.041  17.409  0.0551  0.0494 -0.0689
  384MPD2     C 5737   1.990   1.856  12.120  0.3608  0.3501  0.2902
  384MPD2    C1 5738   2.012   1.801  12.241 -0.4362 -0.4890  0.1896
  384MPD2    C2 5739   2.031   1.668  12.254  0.3784 -0.1816 -0.4246
  384MPD2    C3 5740   2.056   1.590  12.141  0.3847  0.0022 -0.1647
  384MPD2    C4 5741   2.046   1.650  12.018  1.1579  0.4549  0.3232
  384MPD2    C5 5742   2.017   1.787  12.008  0.1598  0.5330  0.5027
  384MPD2     H 5743   2.028   1.619  12.351  0.7680  0.0068 -0.3173
  384MPD2    H1 5744   2.054   1.601  11.922  1.9069 -1.2145  1.2385
  384MPD2    H2 5745   1.981   1.964  12.107  0.8127 -0.0523 -3.3734
  384MPD2    H3 5746   2.023   1.832  11.910  0.3387  2.7716  1.5488
  384MPD2     N 5747   2.085   1.450  12.146  0.2668  0.1629  0.3256
  384MPD2    H5 5748   2.107   1.397  12.063  1.1528 -1.5694  1.6539
  384MPD2    N1 5749   2.014   1.863  12.363  0.4426  0.1499 -0.0333
  384MPD2    H7 5750   2.027   1.801  12.442 -1.8756 -0.5817 -0.1990
  385TMC3    C1 5751   2.139   1.237  12.256 -0.8128 -0.0619 -0.1289
  385TMC3    C2 5752   2.264   1.217  12.196 -0.8457 -0.0221  0.3742
  385TMC3    C3 5753   2.357   1.139  12.263  0.8952  0.1282  0.3841
  385TMC3    C4 5754   2.115   1.179  12.374  0.1596 -0.0570  0.4235
  385TMC3    C5 5755   2.211   1.106  12.451 -0.3345 -0.2211 -0.9941
  385TMC3    C6 5756   2.332   1.094  12.392 -0.2015 -0.1470  0.2914
  385TMC3     C 5757   2.083   1.374  12.262 -0.3620 -0.3161  0.6879
  385TMC3     O 5758   2.039   1.403  12.372 -0.1153 -0.1350 -0.2213
  385TMC3     H 5759   2.285   1.266  12.102 -1.9770 -0.9130 -0.3489
  385TMC3    H1 5760   2.015   1.191  12.414 -0.6277  1.7526 -2.0664
  385TMC3    H2 5761   2.400   1.026  12.443  1.4802  0.9380 -0.5106
  385TMC3    C7 5762   2.212   1.150  12.588 -0.3459  0.7058  0.7383
  385TMC3    C8 5763   2.445   1.053  12.181 -0.1451  0.3156  0.2442
  385TMC3    O1 5764   2.311   1.118  12.652  0.4205  0.2816 -0.4963
  385TMC3    O2 5765   2.544   1.014  12.240 -0.2058  0.0659  0.4365
  386TMC3    C1 5766   2.786   4.495  11.939  0.1852 -0.4069 -0.2723
  386TMC3    C2 5767   2.769   4.434  11.818 -0.6459 -0.1384  0.1018
  386TMC3    C3 5768   2.674   4.488  11.734 -0.0041 -0.7823  0.2502
  386TMC3    C4 5769   2.715   4.606  11.976  0.2920 -0.6026  0.0468
  386TMC3    C5 5770   2.626   4.653  11.889 -0.1546 -0.1249  0.1908
  386TMC3    C6 5771   2.614   4.610  11.763  0.0581  0.1383  0.3112
  386TMC3     C 5772   2.851   4.423  12.047  0.4515 -0.2031  0.0350
  386TMC3     O 5773   2.890   4.485  12.146 -0.2664 -0.6060  0.5007
  386TMC3     H 5774   2.813   4.340  11.786 -1.1811 -0.4916  0.3898
  386TMC3    H1 5775   2.731   4.646  12.076  1.0943  0.5596 -0.5399
  386TMC3    H2 5776   2.563   4.671  11.690  0.3089  0.7436  0.6450
  386TMC3    C7 5777   2.502   4.689  11.946 -0.9030 -1.1760 -0.0180
  386TMC3    C8 5778   2.609   4.421  11.623 -0.2442  0.4451  0.4685
  386TMC3    O1 5779   2.513   0.027  12.053 -0.1383 -0.2969 -0.1333
  386TMC3    O2 5780   2.488   4.453  11.606  0.0296  0.0704 -0.4574
  387MPD2     C 5781   4.178   0.050  10.113  0.3542 -0.6543  0.0156
  387MPD2    C1 5782   4.316   0.045  10.084  0.4347  0.0794 -0.5299
  387MPD2    C2 5783   4.374   4.656  10.033 -0.6878  0.1089  0.4051
  387MPD2    C3 5784   4.307   4.536  10.032 -0.4665 -0.3019 -0.4431
  387MPD2    C4 5785   4.171   4.536  10.064  0.1078 -0.1341 -0.0166
  387MPD2    C5 5786   4.113   4.652  10.107 -0.3926  0.3948 -0.2745
  387MPD2     H 5787   4.481   4.656  10.012 -0.7914  0.4542 -0.1436
  387MPD2    H1 5788   4.116   4.443  10.069 -1.1063  0.6299  0.7025
  387MPD2    H2 5789   4.127   0.140  10.146  1.0742 -0.3336  0.2499
  387MPD2    H3 5790   4.007   4.671  10.120 -0.4165 -0.3880  0.6356
  387MPD2     N 5791   4.382   4.426   9.982 -0.0161  0.5084 -0.4012
  387MPD2    H5 5792   4.479   4.442   9.956 -0.1317 -0.7144 -1.5704
  387MPD2    N1 5793   4.395   0.154  10.093 -0.2445 -0.0458 -0.3471
  387MPD2    H7 5794   4.490   0.145  10.059 -0.3851  1.3972 -1.1370
  388TMC3    C1 5795   4.494   0.303  10.236 -0.1959 -0.3264 -0.6621
  388TMC3    C2 5796   4.489   0.425  10.297 -0.1286 -1.1606  0.3138
  388TMC3    C3 5797   4.602   0.475  10.351  0.1277  0.2996  0.2317
  388TMC3    C4 5798   4.601   0.217  10.239  0.5799  0.0909  0.7783
  388TMC3    C5 5799   4.714   0.281  10.291 -0.4312  0.4473 -0.1536
  388TMC3    C6 5800   4.715   0.399  10.356 -0.2352 -0.1185  0.1258
  388TMC3     C 5801   4.368   0.264  10.173 -0.6794  1.2084  0.5289
  388TMC3     O 5802   4.263   0.313  10.212 -0.1971 -0.0953  0.0974
  388TMC3     H 5803   4.408   0.496  10.290  0.7221 -0.2329 -0.2287
  388TMC3    H1 5804   4.603   0.121  10.189 -0.3035 -0.6537  2.1816
  388TMC3    H2 5805   0.090   0.436  10.389 -0.2341 -0.7197  0.7908
  388TMC3    C7 5806   0.107   0.195  10.294  0.2123  0.3929  0.0907
  388TMC3    C8 5807   4.585   0.560  10.466 -0.1492  0.1990 -0.4580
  388TMC3    O1 5808   0.190   0.211  10.382 -0.4537  0.0648  0.0365
  388TMC3    O2 5809   4.488   0.632  10.471 -0.5395 -0.4894 -0.8442
  389MPD2     C 5810   4.368   2.814  10.934  0.4387 -0.5827  0.4054
  389MPD2    C1 5811   4.252   2.747  10.921 -0.6565  0.3002  0.2376
  389MPD2    C2 5812   4.202   2.674  11.029  0.3511  0.2531  0.5241
  389MPD2    C3 5813   4.273   2.659  11.147  0.0978 -0.0823  0.5923
  389MPD2    C4 5814   4.393   2.722  11.153  0.4257  0.7858 -0.0138
  389MPD2    C5 5815   4.441   2.793  11.047  0.1909 -0.1486 -0.7027
  389MPD2     H 5816   4.100   2.638  11.020  0.1634  0.5214  1.6624
  389MPD2    H1 5817   4.454   2.720  11.243 -2.7174  0.3939  2.0959
  389MPD2    H2 5818   4.414   2.880  10.861 -0.2859  0.2771  0.7249
  389MPD2    H3 5819   4.537   2.843  11.047  0.4567 -0.6392  0.8702
  389MPD2     N 5820   4.236   2.584  11.262 -0.3965 -1.0246 -0.2557
  389MPD2    H5 5821   4.301   2.576  11.339  0.3703 -1.9416 -0.9941
  389MPD2    N1 5822   4.171   2.771  10.804 -0.6260  0.3735 -0.4970
  389MPD2    H7 5823   4.201   2.836  10.732 -0.2288 -0.0694 -0.7341
  390TMC3    C1 5824   4.109   2.449  11.410  0.9115  0.4414 -0.2843
  390TMC3    C2 5825   4.019   2.345  11.412 -0.5012  0.5755  0.9969
  390TMC3    C3 5826   3.980   2.308  11.530 -0.2409 -0.6452 -0.1767
  390TMC3    C4 5827   4.154   2.516  11.514  0.2624  0.1761  0.2523
  390TMC3    C5 5828   4.111   2.472  11.634  0.2039 -0.0070 -0.5046
  390TMC3    C6 5829   4.016   2.373  11.646 -0.1957  0.0305  0.3720
  390TMC3     C 5830   4.125   2.508  11.270  0.3543 -0.0774  0.0768
  390TMC3     O 5831   4.041   2.484  11.189  0.1111 -0.1021 -0.6405
  390TMC3     H 5832   3.973   2.305  11.322 -1.1415  1.0722  1.1092
  390TMC3    H1 5833   4.229   2.594  11.509  0.4682 -0.2334 -2.7428
  390TMC3    H2 5834   3.998   2.313  11.735 -1.9431 -0.9734 -0.6781
  390TMC3    C7 5835   4.156   2.541  11.753 -0.6428  0.3241  0.7249
  390TMC3    C8 5836   3.862   2.227  11.536  0.1976  0.0431 -0.2520
  390TMC3    O1 5837   4.252   2.614  11.758  0.3133 -0.1001  0.2921
  390TMC3    O2 5838   3.847   2.136  11.451  0.2135 -0.3790 -0.5910
  391MPD2     C 5839   3.102   3.925  11.479 -0.4739 -0.4293 -0.0142
  391MPD2    C1 5840   3.217   3.996  11.448 -0.2612  0.0409 -1.1190
  391MPD2    C2 5841   3.238   4.037  11.316 -0.3486  0.8618  0.6766
  391MPD2    C3 5842   3.142   4.029  11.222 -0.2194 -0.4013  0.0012
  391MPD2    C4 5843   3.037   3.947  11.245 -0.3402 -0.2518  0.9216
  391MPD2    C5 5844   3.021   3.897  11.372  0.2511 -0.1338 -0.3529
  391MPD2     H 5845   3.325   4.095  11.287  0.3914 -0.6009 -0.0671
  391MPD2    H1 5846   2.967   3.914  11.169 -0.9567  0.2292  1.2847
  391MPD2    H2 5847   3.077   3.901  11.581  1.8499  0.3010  0.7404
  391MPD2    H3 5848   2.938   3.828  11.385 -0.3753  0.4035 -1.4377
  391MPD2     N 5849   3.160   4.106  11.102  0.1195 -0.4914  0.2364
  391MPD2    H5 5850   3.249   4.155  11.095 -0.1104  0.3683  3.3397
  391MPD2    N1 5851   3.303   4.031  11.553  0.9335  0.1914  0.4711
  391MPD2    H7 5852   3.282   3.989  11.642 -0.6039 -0.5173 -0.2308
  392TMC3    C1 5853   3.106   4.213  10.899  0.0768  0.1557  0.0494
  392TMC3    C2 5854   3.050   4.200  10.776  0.1820 -0.3197  0.4227
  392TMC3    C3 5855   3.082   4.286  10.670  0.1341  0.4120  0.1125
  392TMC3    C4 5856   3.212   4.296  10.923 -0.5127  0.3419  0.3760
  392TMC3    C5 5857   3.244   4.385  10.814 -0.3415  0.6113 -0.3095
  392TMC3    C6 5858   3.175   4.386  10.695  0.6824 -0.9702  0.9469
  392TMC3     C 5859   3.077   4.105  10.992 -0.4143  0.3978  0.5294
  392TMC3     O 5860   2.971   4.051  10.969  0.2227  0.2896  0.3775
  392TMC3     H 5861   2.986   4.116  10.753  0.8385 -0.2518 -1.6327
  392TMC3    H1 5862   3.249   4.315  11.023 -0.1288  0.9866  0.1129
  392TMC3    H2 5863   3.180   4.456  10.612 -1.6442 -2.1855 -0.2113
  392TMC3    C7 5864   3.349   4.482  10.842  0.3515 -0.9372 -0.1765
  392TMC3    C8 5865   2.978   4.300  10.575  0.8461 -0.6342  0.6864
  392TMC3    O1 5866   3.443   4.448  10.916 -0.3577 -0.0293 -0.8257
  392TMC3    O2 5867   2.971   4.220  10.486 -0.0624 -0.0765 -0.5463
  393TMC3    C1 5868   2.036   2.422  10.587 -0.0600  0.1062 -0.3846
  393TMC3    C2 5869   1.898   2.422  10.613 -0.6519  0.3937  0.6330
  393TMC3    C3 5870   1.858   2.363  10.733  0.0298 -0.2852  0.4307
  393TMC3    C4 5871   2.131   2.358  10.664  0.3689 -0.2025  0.6903
  393TMC3    C5 5872   2.082   2.289  10.774  0.2467  0.2108 -0.7288
  393TMC3    C6 5873   1.952   2.309  10.816 -0.2768  0.4553  0.5720
  393TMC3     C 5874   2.077   2.510  10.482 -0.6510  0.3656 -0.0746
  393TMC3     O 5875   1.998   2.596  10.443 -0.0626 -0.2419 -0.1248
  393TMC3     H 5876   1.830   2.468  10.543  1.3472 -0.6934 -2.0349
  393TMC3    H1 5877   2.235   2.353  10.635 -0.0232 -1.5774 -0.5100
  393TMC3    H2 5878   1.925   2.264  10.911  2.6190  2.4504  2.3202
  393TMC3    C7 5879   2.169   2.209  10.858 -0.3094 -0.3944  0.0738
  393TMC3    C8 5880   1.723   2.360  10.784 -0.9019 -0.1229  0.0569
  393TMC3    O1 5881   2.115   2.158  10.958 -0.7087 -0.3933 -0.4059
  393TMC3    O2 5882   1.708   2.339  10.907  0.2594  0.1080 -0.0548
  394TMC3    C1 5883   4.023   2.734  10.633  0.1416 -0.1677 -0.6796
  394TMC3    C2 5884   3.909   2.676  10.586 -1.0487  0.6612  0.1648
  394TMC3    C3 5885   3.852   2.740  10.476 -0.1901  0.3640  0.0378
  394TMC3    C4 5886   4.091   2.832  10.562  0.2842 -0.0566  0.1109
  394TMC3    C5 5887   4.038   2.878  10.448 -0.2286 -0.3661 -0.1108
  394TMC3    C6 5888   3.922   2.831  10.395  0.5619 -0.3586 -0.0323
  394TMC3     C 5889   4.068   2.693  10.765  0.2418 -0.2024 -0.1828
  394TMC3     O 5890   4.013   2.595  10.811  0.5394 -0.5093  0.1220
  394TMC3     H 5891   3.837   2.619  10.644 -0.5565  0.2675  0.3865
  394TMC3    H1 5892   4.187   2.872  10.594 -0.4456  1.0886  0.8599
  394TMC3    H2 5893   3.873   2.873  10.308  1.6679  0.8506 -0.0615
  394TMC3    C7 5894   4.098   2.996  10.389 -0.5754 -0.2932 -0.5734
  394TMC3    C8 5895   3.750   2.668  10.410  0.1803 -0.5187 -0.3875
  394TMC3    O1 5896   4.031   3.057  10.305 -0.1910  0.2804  0.1340
  394TMC3    O2 5897   3.636   2.710  10.422  0.2828  0.3691 -0.3530
  395TMC3    C1 5898   3.535   0.087  15.477 -0.4281  0.2503  0.1724
  395TMC3    C2 5899   3.419   0.136  15.426  0.2919  0.4320  0.6066
  395TMC3    C3 5900   3.419   0.251  15.359  0.5840 -0.7601 -0.4965
  395TMC3    C4 5901   3.652   0.161  15.458  0.8472  0.2507 -0.6795
  395TMC3    C5 5902   3.643   0.281  15.393  0.3328  0.3794  0.2202
  395TMC3    C6 5903   3.525   0.338  15.345  0.5396 -0.0626  0.9783
  395TMC3     C 5904   3.518   0.027  15.607  0.3123 -0.2609 -0.9637
  395TMC3     O 5905   3.402   0.028  15.650 -0.0149 -0.3320 -0.4127
  395TMC3     H 5906   3.323   0.097  15.456  1.4452  0.4246  4.2482
  395TMC3    H1 5907   3.747   0.122  15.495  0.5550 -1.2045 -1.4608
  395TMC3    H2 5908   3.535   0.416  15.270  2.7508 -1.4452 -0.1737
  395TMC3    C7 5909   3.760   0.353  15.369 -1.0269  0.3273  0.3049
  395TMC3    C8 5910   3.323   0.265  15.251 -0.3327  0.2457  0.0278
  395TMC3    O1 5911   3.752   0.472  15.375 -0.5183  0.0093  0.1229
  395TMC3    O2 5912   3.308   0.381  15.217  0.0377  0.2253  0.7737
  396MPD2     C 5913   3.111   1.252   0.156  0.1563  0.2284 -0.3707
  396MPD2    C1 5914   3.245   1.262   0.130 -0.1617 -0.4289  0.2919
  396MPD2    C2 5915   3.292   1.356   0.035  0.6970 -0.2018 -0.1960
  396MPD2    C3 5916   3.199   1.426  17.642  0.6832  0.0068  0.1522
  396MPD2    C4 5917   3.062   1.400  17.664  0.0090  0.3918  0.3165
  396MPD2    C5 5918   3.023   1.320   0.084 -0.2387 -0.5292 -0.9045
  396MPD2     H 5919   3.398   1.377   0.024  1.0632 -1.5970  0.6796
  396MPD2    H1 5920   2.988   1.439  17.596 -1.8691 -1.4945  1.2869
  396MPD2    H2 5921   3.075   1.185   0.233  0.2282  0.5588 -0.0512
  396MPD2    H3 5922   2.919   1.295   0.103 -0.2122 -0.5627 -0.8030
  396MPD2     N 5923   3.238   1.528  17.552  0.3141  0.8999  0.4304
  396MPD2    H5 5924   3.329   1.574  17.552  0.4960  0.5393 -0.6192
  396MPD2    N1 5925   3.329   1.167   0.192  0.5928  0.7661 -0.1781
  396MPD2    H7 5926   3.283   1.089   0.238  0.6718  1.5887  1.2935
  397TMC3    C1 5927   3.516   1.038   0.262 -0.1174 -0.6119 -0.3652
  397TMC3    C2 5928   3.607   0.963   0.192 -0.0666  0.0709 -0.4318
  397TMC3    C3 5929   3.576   0.830   0.160  0.3617  0.0559  0.5741
  397TMC3    C4 5930   3.409   0.970   0.323  0.2328  0.0468  0.2006
  397TMC3    C5 5931   3.380   0.837   0.289  0.6689  0.1288 -0.0846
  397TMC3    C6 5932   3.461   0.771   0.201 -0.3806 -0.6582 -0.5806
  397TMC3     C 5933   3.469   1.157   0.192 -0.4110  0.3152  0.4158
  397TMC3     O 5934   3.555   1.226   0.130  0.3376 -0.5806  0.2839
  397TMC3     H 5935   3.665   1.022   0.123  2.0887 -1.3686  0.1320
  397TMC3    H1 5936   3.342   1.023   0.390  2.3856  0.3866  2.1032
  397TMC3    H2 5937   3.442   0.667   0.175 -1.0430 -0.7108  0.1075
  397TMC3    C7 5938   3.284   0.771   0.380 -0.9547  0.8757 -0.1595
  397TMC3    C8 5939   3.641   0.774   0.039  1.0421 -0.3481 -0.3928
  397TMC3    O1 5940   3.218   0.678   0.330 -0.0376 -0.2578 -0.1309
  397TMC3    O2 5941   3.573   0.708  17.642 -0.0904 -0.4634 -0.4105
  398MPD2     C 5942   1.846   2.290   0.672  0.0887 -0.0601  0.4350
  398MPD2    C1 5943   1.933   2.192   0.690  0.3484  0.1146 -0.1354
  398MPD2    C2 5944   2.041   2.183   0.609 -0.6724 -0.1205 -0.2813
  398MPD2    C3 5945   2.062   2.283   0.508  0.1615  0.1603 -0.7698
  398MPD2    C4 5946   1.970   2.382   0.496 -0.4524  0.2904 -0.4261
  398MPD2    C5 5947   1.861   2.381   0.571  0.4086  0.2003  0.2238
  398MPD2     H 5948   2.117   2.110   0.633 -1.1944 -0.5200  0.1605
  398MPD2    H1 5949   1.969   2.463   0.424  1.7805 -0.3842 -1.2122
  398MPD2    H2 5950   1.752   2.303   0.725 -0.4327  0.0633 -0.5134
  398MPD2    H3 5951   1.781   2.454   0.561 -1.5442 -2.0452 -0.6395
  398MPD2     N 5952   2.176   2.284   0.424 -0.2590  0.5524 -0.4442
  398MPD2    H5 5953   2.243   2.209   0.440 -0.6137  0.9416  2.8670
  398MPD2    N1 5954   1.922   2.099   0.795 -0.1711 -0.4645 -0.3266
  398MPD2    H7 5955   2.002   2.037   0.800 -1.1947 -1.8957 -1.6826
  399TMC3    C1 5956   1.850   1.991   0.994 -0.0319 -0.5575 -0.1706
  399TMC3    C2 5957   1.977   1.949   1.013 -0.5221  0.4508 -0.3889
  399TMC3    C3 5958   1.994   1.845   1.105  0.0183 -0.3819  0.2299
  399TMC3    C4 5959   1.741   1.932   1.053  0.1208  0.3558 -0.1611
  399TMC3    C5 5960   1.765   1.837   1.150 -0.0044 -0.2234 -0.4191
  399TMC3    C6 5961   1.890   1.791   1.177  0.3094  0.3734  0.5673
  399TMC3     C 5962   1.822   2.089   0.893  0.1750 -0.5759  0.0099
  399TMC3     O 5963   1.710   2.143   0.895  0.0801 -0.0665 -0.6713
  399TMC3     H 5964   2.058   2.016   0.986 -0.9165  1.0264 -0.1489
  399TMC3    H1 5965   1.643   1.978   1.048 -0.3383 -0.0657  4.4048
  399TMC3    H2 5966   1.912   1.702   1.236 -0.1270 -1.2623 -1.7472
  399TMC3    C7 5967   1.656   1.748   1.193 -0.2852 -0.5222  1.0762
  399TMC3    C8 5968   2.132   1.818   1.141  0.3845 -0.4835  0.0098
  399TMC3    O1 5969   1.685   1.664   1.279 -0.8748  0.5176  0.4413
  399TMC3    O2 5970   2.214   1.838   1.049  0.3275 -0.9788  0.2487
  400TMC3    C1 5971   0.329   0.876  17.066  0.0721 -0.6391  0.4861
  400TMC3    C2 5972   0.205   0.822  17.024 -0.0296  0.6317  0.1912
  400TMC3    C3 5973   0.102   0.907  17.013  0.5055  0.3671  0.0997
  400TMC3    C4 5974   0.342   1.012  17.101  0.1118  0.1110 -0.3388
  400TMC3    C5 5975   0.229   1.093  17.085 -0.1134  0.3208  0.4449
  400TMC3    C6 5976   0.110   1.039  17.049  0.2877  0.2412  0.0890
  400TMC3     C 5977   0.407   0.791  17.157  0.7014  0.0358  0.1721
  400TMC3     O 5978   0.401   0.669  17.136 -0.0209 -0.4536  0.3380
  400TMC3     H 5979   0.200   0.714  17.027  2.9960  0.4586 -0.7775
  400TMC3    H1 5980   0.436   1.066  17.111  0.1619 -0.2425  1.1044
  400TMC3    H2 5981   0.028   1.109  17.033 -0.5508 -0.8893 -0.5329
  400TMC3    C7 5982   0.237   1.227  17.135 -0.4458 -0.2935  0.4645
  400TMC3    C8 5983   4.702   0.842  16.998 -0.5933  0.5779  0.1207
  400TMC3    O1 5984   0.350   1.280  17.136  0.1515  0.0047 -0.6399
  400TMC3    O2 5985   4.606   0.906  17.043 -0.3578 -0.2706  0.3272
  401MPD2     C 5986   3.403   0.119   0.225 -0.0806  0.1085 -0.4476
  401MPD2    C1 5987   3.348   0.080   0.345 -0.3633  0.2474  0.2495
  401MPD2    C2 5988   3.336   4.664   0.367  0.3545 -0.5888  0.3485
  401MPD2    C3 5989   3.398   4.570   0.290  0.1736 -0.3738 -0.1134
  401MPD2    C4 5990   3.460   4.611   0.175 -0.7519 -0.3931 -0.0022
  401MPD2    C5 5991   3.453   0.020   0.142  0.0575 -0.7843 -1.1574
  401MPD2     H 5992   3.297   4.633   0.463  0.3337 -2.3542 -0.2306
  401MPD2    H1 5993   3.503   4.541   0.104  4.4229  2.0030  0.7468
  401MPD2    H2 5994   3.415   0.221   0.191 -0.0094  0.3893  0.4445
  401MPD2    H3 5995   3.502   0.053   0.051  0.7567 -0.7391 -0.7683
  401MPD2     N 5996   3.397   4.432   0.335 -0.3801  0.3847 -0.1829
  401MPD2    H5 5997   3.348   4.409   0.421  1.1769  0.3000  0.6735
  401MPD2    N1 5998   3.291   0.160   0.443  0.2397  0.1200 -0.0853
  401MPD2    H7 5999   3.244   0.109   0.517  1.5608 -1.2731 -0.2272
  402TMC3    C1 6000   3.419   4.199   0.326 -0.5176 -0.7612 -0.7650
  402TMC3    C2 6001   3.385   4.195   0.462 -0.4108 -0.3644 -0.3605
  402TMC3    C3 6002   3.340   4.076   0.510  0.3700 -0.4123 -0.5471
  402TMC3    C4 6003   3.417   4.077   0.247  0.1858 -0.8356  0.2590
  402TMC3    C5 6004   3.386   3.962   0.304 -0.2023  0.5870 -0.2745
  402TMC3    C6 6005   3.342   3.960   0.435  0.0390  0.1329  0.3977
  402TMC3     C 6006   3.453   4.326   0.263 -0.3224  0.3627 -0.6459
  402TMC3     O 6007   3.518   4.328   0.161  0.1246 -0.3294 -0.1608
  402TMC3     H 6008   3.409   4.279   0.526  1.3000 -0.7129 -0.5438
  402TMC3    H1 6009   3.427   4.080   0.139  0.4897  2.2714  0.3674
  402TMC3    H2 6010   3.304   3.866   0.473  0.8147  0.4174  1.8707
  402TMC3    C7 6011   3.463   3.843   0.273 -0.1295 -0.4423  0.0149
  402TMC3    C8 6012   3.327   4.057   0.656 -0.3722  0.8512  0.0479
  402TMC3    O1 6013   3.492   3.824   0.155 -0.0628 -0.6973 -0.6055
  402TMC3    O2 6014   3.341   3.942   0.693  0.5740  0.0862  0.3898
  403MPD2     C 6015   1.584   2.205  13.198 -0.3511  0.4190 -0.1066
  403MPD2    C1 6016   1.624   2.140  13.311  0.1698  0.5062  0.5815
  403MPD2    C2 6017   1.687   2.213  13.407 -0.6841 -0.1553 -0.3424
  403MPD2    C3 6018   1.721   2.341  13.384 -0.0701  0.2536  0.5974
  403MPD2    C4 6019   1.673   2.413  13.273  0.6778 -0.4669  0.3481
  403MPD2    C5 6020   1.601   2.340  13.185  0.4342 -0.1218  0.9067
  403MPD2     H 6021   1.725   2.156  13.491 -1.4317  2.2422  1.6131
  403MPD2    H1 6022   1.683   2.520  13.259 -1.0692 -0.5081 -1.2597
  403MPD2    H2 6023   1.526   2.149  13.126 -0.3724 -0.1202  0.3278
  403MPD2    H3 6024   1.562   2.393  13.098  0.9930  0.4926  1.0329
  403MPD2     N 6025   1.822   2.397  13.464  0.0029 -0.1512 -0.0184
  403MPD2    H5 6026   1.861   2.331  13.531  1.4440  2.1887  1.4751
  403MPD2    N1 6027   1.581   2.008  13.319  0.4946 -0.5979  0.1059
  403MPD2    H7 6028   1.535   1.966  13.239 -0.5024 -0.5893  0.6784
  404TMC3    C1 6029   1.578   1.780  13.372 -0.0217  0.0334  0.7146
  404TMC3    C2 6030   1.571   1.685  13.472  0.5459  0.1955 -0.3672
  404TMC3    C3 6031   1.593   1.552  13.446  0.7047  0.2552 -0.3516
  404TMC3    C4 6032   1.625   1.738  13.250  0.7547 -0.1499 -0.6784
  404TMC3    C5 6033   1.652   1.610  13.231 -0.4477 -0.4488  0.3358
  404TMC3    C6 6034   1.634   1.506  13.323  0.0769  1.4697 -0.5982
  404TMC3     C 6035   1.611   1.911  13.417 -0.4820  0.0238  0.0596
  404TMC3     O 6036   1.687   1.915  13.514 -0.2708  0.2523 -0.6023
  404TMC3     H 6037   1.545   1.726  13.569 -1.1143 -0.1447 -0.6712
  404TMC3    H1 6038   1.654   1.811  13.175  0.1412  0.0026 -0.7636
  404TMC3    H2 6039   1.671   1.405  13.308 -2.2218  0.6744 -0.9953
  404TMC3    C7 6040   1.674   1.571  13.094  0.5431 -0.2119 -0.1671
  404TMC3    C8 6041   1.620   1.464  13.560 -0.0137  0.5526 -0.2102
  404TMC3    O1 6042   1.730   1.462  13.087  0.1726 -0.0522 -0.0359
  404TMC3    O2 6043   1.678   1.358  13.541  0.7257  0.5457  0.3636
  405MPD2     C 6044   1.925   2.846  14.302 -0.0183 -0.8074  0.0500
  405MPD2    C1 6045   1.901   2.747  14.206  0.4996 -0.3902  0.5998
  405MPD2    C2 6046   1.781   2.756  14.135 -0.5440 -0.6609  0.4534
  405MPD2    C3 6047   1.680   2.846  14.155 -0.0791 -0.0250 -0.6470
  405MPD2    C4 6048   1.706   2.947  14.250  0.2380  0.0210  0.0549
  405MPD2    C5 6049   1.830   2.947  14.314  0.0518  0.1872  0.4631
  405MPD2     H 6050   1.761   2.681  14.060  0.9341 -2.4914  1.8781
  405MPD2    H1 6051   1.635   3.027  14.266 -0.9252 -0.3804 -2.9670
  405MPD2    H2 6052   2.019   2.858  14.353 -0.8319 -0.0019  1.3588
  405MPD2    H3 6053   1.860   3.040  14.360 -0.3566  0.7171 -0.3473
  405MPD2     N 6054   1.559   2.811  14.092  0.6552  0.2455 -0.5549
  405MPD2    H5 6055   1.560   2.741  14.019  4.2805 -0.5422  0.2642
  405MPD2    N1 6056   1.992   2.647  14.197 -0.1037 -0.4418  0.2809
  405MPD2    H7 6057   2.070   2.646  14.261  0.5973 -0.3258 -0.5761
  406TMC3    C1 6058   1.089   2.749  14.095 -0.0833  0.8580 -0.2356
  406TMC3    C2 6059   1.102   2.665  13.987  0.3728 -0.3812  0.9343
  406TMC3    C3 6060   1.225   2.642  13.938 -0.0238 -0.3718 -0.3620
  406TMC3    C4 6061   1.197   2.820  14.142  0.6520 -0.1404 -0.1701
  406TMC3    C5 6062   1.323   2.795  14.089 -0.0198 -0.8367  0.0346
  406TMC3    C6 6063   1.340   2.704  13.983 -0.0700 -0.5828 -0.4587
  406TMC3     C 6064   0.959   2.765  14.155  0.4100  1.3891 -0.2619
  406TMC3     O 6065   0.855   2.767  14.088  0.5784  0.2791 -0.2957
  406TMC3     H 6066   1.025   2.600  13.947 -0.4097  1.0394  0.1304
  406TMC3    H1 6067   1.191   2.882  14.231  0.7657 -0.0024 -0.2582
  406TMC3    H2 6068   1.432   2.674  13.935  0.2897  2.1074 -1.4335
  406TMC3    C7 6069   1.442   2.865  14.138  0.6038 -0.3753 -0.0656
  406TMC3    C8 6070   1.254   2.513  13.877 -0.0369  0.0948  0.3430
  406TMC3    O1 6071   1.426   2.921  14.242  0.6213 -0.5282 -0.2948
  406TMC3    O2 6072   1.180   2.464  13.788 -0.4756 -0.2387 -0.2045
  407MPD2     C 6073   3.681   4.468  10.081  0.2530  0.0091 -0.6125
  407MPD2    C1 6074   3.806   4.408  10.078  0.1490 -0.3890  0.4793
  407MPD2    C2 6075   3.856   4.355  10.192  0.3407  0.6817  0.7208
  407MPD2    C3 6076   3.794   4.372  10.318  0.3256 -0.1223 -0.0226
  407MPD2    C4 6077   3.667   4.430  10.317  0.1600  0.0859  0.1177
  407MPD2    C5 6078   3.618   4.479  10.201  0.2163  0.1831  0.3027
  407MPD2     H 6079   3.957   4.315  10.191 -0.0025 -0.1513 -0.6972
  407MPD2    H1 6080   3.621   4.451  10.413 -1.9807 -0.0915 -0.8526
  407MPD2    H2 6081   3.637   4.495   9.985 -1.5214  0.4941  0.3457
  407MPD2    H3 6082   3.513   4.509  10.202  0.7967  2.3445 -2.6581
  407MPD2     N 6083   3.849   4.346  10.444  0.2578  0.2012  0.8108
  407MPD2    H5 6084   3.785   4.375  10.517 -2.0468  0.3524 -1.3031
  407MPD2    N1 6085   3.887   4.397   9.961 -0.2791 -0.8334 -0.4319
  407MPD2    H7 6086   3.965   4.337   9.986 -1.2980 -2.4027 -1.0495
  408TMC3    C1 6087   3.983   4.443   9.755 -0.2017  0.0823  0.1023
  408TMC3    C2 6088   4.049   4.318   9.751  0.6775 -0.5343  0.7202
  408TMC3    C3 6089   4.146   4.298   9.655 -0.4746 -0.5453  0.3422
  408TMC3    C4 6090   4.002   4.534   9.659  0.3392  0.1708 -0.1871
  408TMC3    C5 6091   4.110   4.512   9.577  0.5024  0.2198  0.5740
  408TMC3    C6 6092   4.190   4.400   9.574  0.2184 -0.7602  0.0888
  408TMC3     C 6093   3.872   4.470   9.846 -0.6177 -0.1575  0.5544
  408TMC3     O 6094   3.800   4.563   9.821  0.3642 -0.1463  0.0014
  408TMC3     H 6095   4.036   4.251   9.834 -1.7524 -0.7205  0.1848
  408TMC3    H1 6096   3.957   4.632   9.667 -1.0390 -0.4991  0.1662
  408TMC3    H2 6097   4.260   4.389   9.492 -0.1051 -1.5837 -0.0748
  408TMC3    C7 6098   4.174   4.631   9.507  0.5650  0.5636  0.8905
  408TMC3    C8 6099   4.234   4.179   9.662 -0.4114  0.2634  0.0883
  408TMC3    O1 6100   4.298   4.620   9.493 -0.0324  0.2724 -0.0941
  408TMC3    O2 6101   4.168   4.079   9.695 -0.5931 -0.3032  0.1842
  409MPD2     C 6102   3.685   0.099  17.416 -0.6284 -0.1071  0.5914
  409MPD2    C1 6103   3.794   0.131  17.494 -0.2811 -0.6124  0.4955
  409MPD2    C2 6104   3.858   0.255  17.478 -0.1180 -0.0950 -0.0536
  409MPD2    C3 6105   3.817   0.338  17.372 -0.5415  1.1864  0.4654
  409MPD2    C4 6106   3.698   0.317  17.308 -0.5297 -0.2284 -0.0355
  409MPD2    C5 6107   3.632   0.199  17.331  0.4280 -0.0916  0.5345
  409MPD2     H 6108   3.943   0.278  17.541  2.0520 -3.4855 -1.7285
  409MPD2    H1 6109   3.658   0.388  17.237  0.4908 -0.3898 -0.7675
  409MPD2    H2 6110   3.625   0.012  17.442  0.7368 -1.4860 -0.8954
  409MPD2    H3 6111   3.546   0.177  17.267  1.4702  0.7285 -1.1257
  409MPD2     N 6112   3.888   0.454  17.330 -0.1217  0.3375  0.3690
  409MPD2    H5 6113   3.840   0.507  17.257 -1.4300  1.8484  2.3253
  409MPD2    N1 6114   3.834   0.045  17.600 -0.3078 -0.4815  0.3846
  409MPD2    H7 6115   3.915   0.072  17.656 -0.2999  0.5803 -0.1489
  410TMC3    C1 6116   4.068   0.593  17.294 -0.2451  0.3456 -1.2084
  410TMC3    C2 6117   4.177   0.652  17.348  0.2012  0.0865 -0.0580
  410TMC3    C3 6118   4.234   0.753  17.272 -0.1589  0.3662 -0.0846
  410TMC3    C4 6119   4.020   0.619  17.168  0.2488  0.5501  0.5188
  410TMC3    C5 6120   4.082   0.720  17.096  0.1425  0.1609 -0.1703
  410TMC3    C6 6121   4.188   0.792  17.146 -0.7580 -0.4745 -0.1313
  410TMC3     C 6122   4.013   0.497  17.375  0.3672 -0.0230 -0.2523
  410TMC3     O 6123   4.077   0.441  17.461  0.6371 -0.4307 -0.6259
  410TMC3     H 6124   4.209   0.643  17.451  0.9504  0.9480 -0.2197
  410TMC3    H1 6125   3.945   0.552  17.127  2.4906 -2.2833  1.0360
  410TMC3    H2 6126   4.244   0.863  17.087  1.1104 -3.2410 -1.6842
  410TMC3    C7 6127   4.014   0.755  16.968 -0.2425 -0.5756  0.7666
  410TMC3    C8 6128   4.373   0.782  17.292 -0.1018  0.3756  0.2182
  410TMC3    O1 6129   3.947   0.666  16.917 -0.6485  0.6772  0.3777
  410TMC3    O2 6130   4.414   0.892  17.265  0.2192  0.0227  0.9310
  411MPD2     C 6131   4.340   1.042  14.903  0.3762 -0.3951 -0.5272
  411MPD2    C1 6132   4.210   1.071  14.857  0.0374  0.5642 -0.3074
  411MPD2    C2 6133   4.121   0.962  14.863 -0.0798  0.2038 -0.0700
  411MPD2    C3 6134   4.161   0.841  14.925  0.3788 -0.0546 -0.0090
  411MPD2    C4 6135   4.291   0.823  14.964  0.0697  0.6566  0.5175
  411MPD2    C5 6136   4.379   0.925  14.961  0.7766  0.1273 -0.3544
  411MPD2     H 6137   4.020   0.966  14.824 -0.1942  0.6126  0.2624
  411MPD2    H1 6138   4.317   0.737  15.024 -1.2789 -0.2849 -0.2672
  411MPD2    H2 6139   4.417   1.117  14.893 -1.1825  1.2629 -0.0328
  411MPD2    H3 6140   4.481   0.908  14.993  0.9922  0.6186 -0.7891
  411MPD2     N 6141   4.073   0.738  14.954  0.4531  0.3752 -0.4284
  411MPD2    H5 6142   4.112   0.651  14.988  0.7004  0.3768 -0.7067
  411MPD2    N1 6143   4.181   1.202  14.811 -1.0705 -0.0824  0.5159
  411MPD2    H7 6144   4.248   1.277  14.827  0.6363 -1.0494 -2.1930
  412TMC3    C1 6145   3.862   0.626  14.968 -0.5449 -0.1336 -0.2095
  412TMC3    C2 6146   3.744   0.624  15.036  0.4574  0.0055 -0.9273
  412TMC3    C3 6147   3.678   0.505  15.036  0.1346  0.2953  0.1418
  412TMC3    C4 6148   3.905   0.521  14.896  0.0967  0.1771 -0.2651
  412TMC3    C5 6149   3.839   0.399  14.906  0.7294 -0.5394  0.2586
  412TMC3    C6 6150   3.731   0.392  14.983  0.7597  0.5354 -0.2828
  412TMC3     C 6151   3.931   0.750  14.955 -0.3748 -0.3680  0.0703
  412TMC3     O 6152   3.868   0.851  14.981 -0.3426 -0.3730 -0.0859
  412TMC3     H 6153   3.693   0.713  15.070 -0.6907 -0.6525 -0.8918
  412TMC3    H1 6154   3.981   0.538  14.821  0.1833  0.6372 -0.0724
  412TMC3    H2 6155   3.673   0.302  15.000  1.1794  0.9879  3.7062
  412TMC3    C7 6156   3.832   0.318  14.781 -0.0876  0.4013  0.3200
  412TMC3    C8 6157   3.536   0.519  15.012 -0.1883 -0.3830 -0.2508
  412TMC3    O1 6158   3.730   0.248  14.769  0.4084 -0.3001  0.4593
  412TMC3    O2 6159   3.474   0.599  15.082  0.1047 -0.1569 -0.5862
  413MPD2     C 6160   0.925   4.187  15.741 -0.5713  0.2540 -0.3670
  413MPD2    C1 6161   0.869   4.117  15.636  0.4267  0.3326  0.8498
  413MPD2    C2 6162   0.953   4.058  15.545  1.2109 -0.2362 -0.3856
  413MPD2    C3 6163   1.087   4.071  15.557  0.4289 -0.5703  0.1768
  413MPD2    C4 6164   1.143   4.162  15.647  0.5671 -0.6473 -0.5828
  413MPD2    C5 6165   1.059   4.209  15.737 -0.4040 -0.4653  0.2562
  413MPD2     H 6166   0.911   4.005  15.460  0.2004  1.5160 -0.9777
  413MPD2    H1 6167   1.250   4.173  15.664  0.6109 -1.7541 -0.1503
  413MPD2    H2 6168   0.868   4.235  15.820 -1.1007 -0.4041 -0.3510
  413MPD2    H3 6169   1.106   4.267  15.816  1.3185 -0.8276 -0.4951
  413MPD2     N 6170   1.155   3.988  15.472 -0.4277  0.2504 -1.1483
  413MPD2    H5 6171   1.101   3.915  15.426 -1.1710  1.1823 -1.7460
  413MPD2    N1 6172   0.730   4.105  15.620  0.5471 -0.0882  0.4776
  413MPD2    H7 6173   0.698   4.044  15.545 -1.2787  0.1198  1.0883
  414TMC3    C1 6174   1.314   3.888  15.347 -1.3398 -0.7986  0.0802
  414TMC3    C2 6175   1.287   3.759  15.377  0.0902  0.2702 -0.1267
  414TMC3    C3 6176   1.320   3.663  15.290  0.1757 -0.5760  0.0508
  414TMC3    C4 6177   1.382   3.921  15.228 -0.0805 -0.0978  0.3843
  414TMC3    C5 6178   1.403   3.826  15.137 -0.4367  0.0058  0.0256
  414TMC3    C6 6179   1.373   3.699  15.171 -0.7490  0.0896 -0.2813
  414TMC3     C 6180   1.285   3.998  15.439  0.0448 -0.9206 -0.5539
  414TMC3     O 6181   1.369   4.085  15.450 -0.2165  0.2430 -0.7073
  414TMC3     H 6182   1.246   3.748  15.477  0.2278 -1.0156 -0.2203
  414TMC3    H1 6183   1.403   4.027  15.215 -1.1946 -0.0989 -1.4539
  414TMC3    H2 6184   1.431   3.625  15.118 -0.9690 -0.0173 -0.3730
  414TMC3    C7 6185   1.521   3.844  15.058  0.6852  0.4678 -0.7713
  414TMC3    C8 6186   1.362   3.530  15.331 -0.0361  0.0326  0.0385
  414TMC3    O1 6187   1.605   3.922  15.098 -0.0472 -0.1574 -0.0771
  414TMC3    O2 6188   1.326   3.443  15.255 -0.0140  0.0042  0.5317
  415TMC3    C1 6189   1.419   1.398  10.921 -1.3040  0.1894  0.4147
  415TMC3    C2 6190   1.495   1.504  10.951 -0.4138 -0.5129  0.1155
  415TMC3    C3 6191   1.627   1.496  10.910  0.2258 -0.3440  0.2487
  415TMC3    C4 6192   1.452   1.304  10.836 -0.5071 -0.4423 -0.5651
  415TMC3    C5 6193   1.581   1.297  10.804  0.7113  0.3463  0.4396
  415TMC3    C6 6194   1.672   1.399  10.832 -0.4797  0.3724 -0.3668
  415TMC3     C 6195   1.275   1.430  10.900  0.0399  0.1584  0.1509
  415TMC3     O 6196   1.229   1.411  10.787  0.0170 -0.5378  0.3407
  415TMC3     H 6197   1.454   1.585  11.012 -0.7454  0.2037 -1.0568
  415TMC3    H1 6198   1.389   1.223  10.803  2.7785 -2.4012 -2.0032
  415TMC3    H2 6199   1.777   1.379  10.815 -0.6109 -1.1973  0.6261
  415TMC3    C7 6200   1.628   1.178  10.744  0.4154  0.2140  0.2294
  415TMC3    C8 6201   1.717   1.610  10.919  0.2423  0.0316  0.2241
  415TMC3    O1 6202   1.729   1.138  10.791  0.0059 -0.1609  0.0848
  415TMC3    O2 6203   1.687   1.692  11.007 -0.0019 -0.6041  0.6448
  416MPD2     C 6204   3.471   0.529  12.094  0.5343 -0.2549  0.5680
  416MPD2    C1 6205   3.426   0.583  11.975  0.1509  0.2818 -0.3510
  416MPD2    C2 6206   3.393   0.491  11.871 -0.0949  0.4917 -0.5054
  416MPD2    C3 6207   3.418   0.362  11.888 -0.3929  0.0576 -0.3204
  416MPD2    C4 6208   3.479   0.316  12.000  0.1719 -0.1971 -0.6085
  416MPD2    C5 6209   3.509   0.398  12.102 -0.0912  0.3625  0.7817
  416MPD2     H 6210   3.363   0.528  11.773  2.3299 -1.0376 -1.8272
  416MPD2    H1 6211   3.488   0.211  12.023  0.2914  0.2391  1.3559
  416MPD2    H2 6212   3.487   0.587  12.184  1.8478  0.4347 -0.1143
  416MPD2    H3 6213   3.545   0.359  12.197 -2.8101 -0.8278  1.3459
  416MPD2     N 6214   3.391   0.266  11.783  0.2860  1.0725 -0.3313
  416MPD2    H5 6215   3.432   0.173  11.794  0.0354  1.1358  1.1962
  416MPD2    N1 6216   3.413   0.716  11.971  0.0187  0.2545  0.2299
  416MPD2    H7 6217   3.449   0.756  12.057  1.0592 -0.1571 -0.0139
  417TMC3    C1 6218   3.339   0.942  11.910 -0.0926 -0.2667  0.1105
  417TMC3    C2 6219   3.332   0.979  12.044  0.6246  0.4678 -0.1621
  417TMC3    C3 6220   3.282   1.104  12.070 -0.5715 -0.0075 -0.0570
  417TMC3    C4 6221   3.301   1.025  11.807  0.1887 -0.4956 -1.2276
  417TMC3    C5 6222   3.227   1.134  11.847  0.0457  0.0760 -0.3841
  417TMC3    C6 6223   3.212   1.169  11.977 -0.3713 -0.4780 -0.2275
  417TMC3     C 6224   3.347   0.794  11.875  0.2885  0.1961 -0.3401
  417TMC3     O 6225   3.296   0.750  11.773 -0.1090 -0.1579  0.0696
  417TMC3     H 6226   3.348   0.899  12.116  1.7006 -0.0673 -0.9765
  417TMC3    H1 6227   3.284   0.994  11.705  0.1376  2.0956 -2.0174
  417TMC3    H2 6228   3.157   1.256  12.010  0.8044 -0.0936  0.6719
  417TMC3    C7 6229   3.138   1.178  11.740 -0.0917 -0.8410  0.4482
  417TMC3    C8 6230   3.307   1.162  12.204  0.2427  0.0172  0.4926
  417TMC3    O1 6231   3.196   1.186  11.630  0.3218  0.0619  0.1324
  417TMC3    O2 6232   3.238   1.255  12.243  0.1372 -0.2982 -0.3451
  418TMC3    C1 6233   2.528   2.257   0.242  0.3476 -0.6448 -0.4505
  418TMC3    C2 6234   2.395   2.265   0.238 -0.4201  0.8788 -0.6175
  418TMC3    C3 6235   2.348   2.367   0.303  0.4963 -0.0667  0.2943
  418TMC3    C4 6236   2.606   2.354   0.302  0.0661 -0.1161  0.4804
  418TMC3    C5 6237   2.555   2.457   0.378  0.6532 -0.5584  0.0448
  418TMC3    C6 6238   2.419   2.462   0.364  0.2799  0.7594 -0.3357
  418TMC3     C 6239   2.587   2.149   0.169  0.3125  0.1433 -0.3410
  418TMC3     O 6240   2.663   2.186   0.084  0.0396 -0.7682  0.6834
  418TMC3     H 6241   2.326   2.203   0.183  0.8813 -0.0206 -1.2407
  418TMC3    H1 6242   2.713   2.335   0.302 -0.1206 -1.1351 -2.0342
  418TMC3    H2 6243   2.366   2.546   0.407  0.1321  0.0820  0.7940
  418TMC3    C7 6244   2.608   2.469   0.511  0.4015  0.3195  0.2846
  418TMC3    C8 6245   2.207   2.381   0.334  0.7636 -0.0178 -0.6927
  418TMC3    O1 6246   2.524   2.438   0.596  0.0237  0.1037 -0.0576
  418TMC3    O2 6247   2.153   2.489   0.321 -0.0046 -0.0972  0.7015
  419MPD2     C 6248   0.853   0.411  12.417  0.7513 -0.0277 -0.4756
  419MPD2    C1 6249   0.787   0.528  12.447  0.0130  0.1954 -0.7296
  419MPD2    C2 6250   0.772   0.572  12.574 -0.2297  0.3263 -0.2388
  419MPD2    C3 6251   0.811   0.497  12.683 -0.3558 -0.5602  0.2999
  419MPD2    C4 6252   0.871   0.370  12.664  0.0671 -0.3068 -0.5582
  419MPD2    C5 6253   0.893   0.341  12.527  0.0692  0.3277 -0.2573
  419MPD2     H 6254   0.719   0.664  12.598 -0.5129  0.3654 -1.0073
  419MPD2    H1 6255   0.899   0.306  12.747  0.1431  0.0390 -0.3187
  419MPD2    H2 6256   0.877   0.368  12.321 -0.1367  0.1275 -0.7743
  419MPD2    H3 6257   0.949   0.250  12.508 -0.0051 -0.0954  1.5144
  419MPD2     N 6258   0.773   0.550  12.808  0.0354  0.3745 -0.6061
  419MPD2    H5 6259   0.722   0.637  12.817  1.0445  0.7639  1.4264
  419MPD2    N1 6260   0.739   0.612  12.347 -0.2513 -0.1502 -0.3744
  419MPD2    H7 6261   0.714   0.704  12.380  1.0454 -0.4054  1.3352
  420TMC3    C1 6262   0.772   0.602  13.033  0.6381 -0.0869 -0.0316
  420TMC3    C2 6263   0.742   0.727  12.989  0.2662  0.2778  0.7647
  420TMC3    C3 6264   0.751   0.823  13.091  0.0837  0.2792 -0.1302
  420TMC3    C4 6265   0.839   0.582  13.149  0.4353 -0.2398 -0.5720
  420TMC3    C5 6266   0.866   0.682  13.240 -0.3383 -0.1032  0.1763
  420TMC3    C6 6267   0.814   0.806  13.209 -0.1298  0.2570  0.3284
  420TMC3     C 6268   0.819   0.507  12.930  0.6175 -0.4108 -0.5329
  420TMC3     O 6269   0.869   0.401  12.961  0.5954  0.2240  0.1571
  420TMC3     H 6270   0.678   0.738  12.902  0.9780  2.0802  0.4752
  420TMC3    H1 6271   0.852   0.480  13.184  0.8245 -1.4457 -4.2481
  420TMC3    H2 6272   0.828   0.887  13.280 -1.9836  0.0300  0.9747
  420TMC3    C7 6273   0.895   0.649  13.379  0.0115  0.2357  0.1946
  420TMC3    C8 6274   0.705   0.953  13.054 -0.3574  0.3442  0.8719
  420TMC3    O1 6275   0.849   0.543  13.426 -0.3941  0.2300 -0.2032
  420TMC3    O2 6276   0.604   0.950  12.981 -0.2276 -0.3815 -0.3305
  421TMC3    C1 6277   1.981   2.561  13.537  0.4038 -0.1649 -0.4924
  421TMC3    C2 6278   1.982   2.685  13.591 -0.3508  0.1419 -0.1409
  421TMC3    C3 6279   2.063   2.702  13.697 -0.1274 -0.4071  0.3075
  421TMC3    C4 6280   2.060   2.462  13.581 -0.0752 -0.0955 -0.1127
  421TMC3    C5 6281   2.152   2.489  13.677 -0.4294  0.3002  0.1567
  421TMC3    C6 6282   2.163   2.611  13.737 -0.0144  0.2747  0.4533
  421TMC3     C 6283   1.879   2.527  13.442 -0.6729  0.6711  0.1791
  421TMC3     O 6284   1.852   2.619  13.364  1.0433  1.0048 -0.0791
  421TMC3     H 6285   1.922   2.765  13.548  0.5772 -0.0492 -1.8108
  421TMC3    H1 6286   2.062   2.365  13.533 -1.5555 -0.8801  1.4116
  421TMC3    H2 6287   2.222   2.625  13.826  0.4998 -0.0640  0.1678
  421TMC3    C7 6288   2.260   2.395  13.713  0.5052 -0.1331  0.1232
  421TMC3    C8 6289   2.027   2.809  13.784  0.3847  0.2853  0.7971
  421TMC3    O1 6290   2.369   2.437  13.751  0.2927 -0.4803  0.0567
  421TMC3    O2 6291   1.919   2.857  13.763 -0.3301 -0.5699 -0.0906
  422TMC3    C1 6292   4.519   3.487  12.900 -0.1155  0.2032  1.4294
  422TMC3    C2 6293   4.474   3.613  12.919  0.4556  0.7005 -0.3017
  422TMC3    C3 6294   4.349   3.631  12.966 -0.2706 -0.2563 -0.0542
  422TMC3    C4 6295   4.444   3.378  12.919  0.1397  0.8579 -0.0812
  422TMC3    C5 6296   4.316   3.394  12.971  0.4521 -0.1183  0.2979
  422TMC3    C6 6297   4.267   3.519  12.987  0.2079  0.3576 -0.3645
  422TMC3     C 6298   4.642   3.474  12.821  0.2921 -0.2125 -0.0544
  422TMC3     O 6299   4.668   3.567  12.742  0.1714 -0.0893 -0.0512
  422TMC3     H 6300   4.541   3.697  12.909  1.9598 -0.0551  3.4880
  422TMC3    H1 6301   4.484   3.280  12.897 -2.1396  0.0206 -0.5519
  422TMC3    H2 6302   4.164   3.539  13.014  0.4124 -0.2900  0.8899
  422TMC3    C7 6303   4.241   3.272  12.988  0.4595 -0.2735 -0.6337
  422TMC3    C8 6304   4.294   3.765  12.959  0.0172  0.1454 -1.0057
  422TMC3    O1 6305   4.282   3.177  12.917  0.5606 -0.4167 -0.1107
  422TMC3    O2 6306   4.375   3.856  12.963  0.0051  0.0332  0.6814
  423MPD2     C 6307   0.928   0.183   0.987  0.0166 -0.5141  0.2315
  423MPD2    C1 6308   1.014   0.086   1.017 -0.3317  0.2126 -0.3646
  423MPD2    C2 6309   1.028   4.691   0.936 -0.1139 -0.2379  0.0691
  423MPD2    C3 6310   0.958   4.688   0.815  0.6397 -0.4444  0.0532
  423MPD2    C4 6311   0.875   0.074   0.786  0.0364 -0.4102  0.0448
  423MPD2    C5 6312   0.851   0.172   0.879 -0.8022 -0.9739 -0.6957
  423MPD2     H 6313   1.109   4.624   0.962  0.9898 -0.1671 -3.1537
  423MPD2    H1 6314   0.815   0.077   0.695 -0.6649 -0.8951  0.4905
  423MPD2    H2 6315   0.912   0.273   1.046  1.5717 -0.4856  0.6126
  423MPD2    H3 6316   0.779   0.250   0.856  0.1989 -0.3962 -1.8592
  423MPD2     N 6317   0.978   4.589   0.718 -0.0714  0.9714 -0.4511
  423MPD2    H5 6318   0.927   4.608   0.632 -1.3208  0.4156  0.1718
  423MPD2    N1 6319   1.099   0.095   1.127 -0.0915 -0.0480 -0.6115
  423MPD2    H7 6320   1.138   0.008   1.163 -0.4586 -0.3647 -0.9801
  424TMC3    C1 6321   1.157   0.180   1.336 -0.4935  0.1487  0.2026
  424TMC3    C2 6322   1.195   0.054   1.379 -0.4226  0.3078 -0.0258
  424TMC3    C3 6323   1.231   0.038   1.509  0.8492  0.4182 -0.0051
  424TMC3    C4 6324   1.181   0.290   1.421  0.7084  0.4871 -0.2243
  424TMC3    C5 6325   1.220   0.266   1.554  0.8676  0.7841 -0.3302
  424TMC3    C6 6326   1.248   0.144   1.598  0.0929 -0.1760  0.1818
  424TMC3     C 6327   1.107   0.204   1.202  0.4127  0.2622 -0.2615
  424TMC3     O 6328   1.092   0.323   1.168 -0.2496 -0.1962  0.0370
  424TMC3     H 6329   1.176   4.691   1.314 -0.6784  0.9893 -0.8273
  424TMC3    H1 6330   1.155   0.387   1.381  1.8137  1.9905  2.6986
  424TMC3    H2 6331   1.293   0.133   1.696  0.9314 -0.9317 -0.2878
  424TMC3    C7 6332   1.238   0.384   1.638 -1.2994  0.6002  0.1812
  424TMC3    C8 6333   1.274   4.633   1.562  0.6473  0.9141 -0.2509
  424TMC3    O1 6334   1.229   0.488   1.575 -0.0462  0.3022  0.5019
  424TMC3    O2 6335   1.253   4.621   1.686  0.8134 -0.2658  0.4899
  425MPD2     C 6336   0.010   3.796  17.605 -0.1919  0.5779  0.2064
  425MPD2    C1 6337   4.613   3.739  17.571 -0.4261 -0.1010 -0.3604
  425MPD2    C2 6338   4.490   3.776  17.629 -0.5314  1.6549  0.1101
  425MPD2    C3 6339   4.499   3.857   0.053  0.1685  0.9227 -0.0676
  425MPD2    C4 6340   4.617   3.918   0.086  0.3226 -0.5608  0.7313
  425MPD2    C5 6341   0.011   3.889   0.018  0.7159 -0.7352 -0.1127
  425MPD2     H 6342   4.395   3.729  17.607  1.1300  0.0067 -3.4688
  425MPD2    H1 6343   4.624   3.979   0.176 -2.4858  0.3293  0.3754
  425MPD2    H2 6344   0.101   3.756  17.561 -0.4216 -1.2006  1.3517
  425MPD2    H3 6345   0.105   3.937   0.040  0.4630 -0.1040 -0.4207
  425MPD2     N 6346   4.386   3.866   0.131  0.1922 -0.4528  0.1081
  425MPD2    H5 6347   4.315   3.802   0.098  0.8672 -0.5953 -1.0841
  425MPD2    N1 6348   4.624   3.633  17.483  0.6171  0.1565  0.0257
  425MPD2    H7 6349   4.720   3.613  17.457  0.9855  0.6345  1.0295
  426TMC3    C1 6350   4.580   3.403  17.431 -1.1485 -0.3016 -0.1364
  426TMC3    C2 6351   4.495   3.323  17.366 -0.3483  0.0487  0.4722
  426TMC3    C3 6352   4.497   3.190  17.391  0.2218 -0.2138  0.2438
  426TMC3    C4 6353   4.677   3.348  17.519 -0.0174  0.5060 -0.2158
  426TMC3    C5 6354   4.681   3.218  17.534  0.2944 -0.1721 -0.0901
  426TMC3    C6 6355   4.598   3.131  17.467 -0.2371 -0.1907  0.2777
  426TMC3     C 6356   4.534   3.535  17.461  0.2788 -0.3943 -0.2918
  426TMC3     O 6357   4.418   3.543  17.498  0.1348 -0.0451 -0.5896
  426TMC3     H 6358   4.418   3.369  17.305  1.6385  1.1443 -1.2503
  426TMC3    H1 6359   0.006   3.414  17.589  0.7500 -1.7914  1.3903
  426TMC3    H2 6360   4.588   3.026  17.492  0.0134  0.0109  1.2177
  426TMC3    C7 6361   0.007   3.171  17.661  0.8292  0.7111  0.2313
  426TMC3    C8 6362   4.407   3.095  17.332 -0.0631 -0.0802  0.2087
  426TMC3    O1 6363   0.073   3.067  17.665 -0.0124  0.6214  0.2016
  426TMC3    O2 6364   4.456   2.982  17.326  0.1298  0.6777  0.1683
  427MPD2     C 6365   3.235   0.910  14.978 -0.2160  0.2517  0.2107
  427MPD2    C1 6366   3.220   0.976  15.096  0.0892  0.4630 -0.2928
  427MPD2    C2 6367   3.088   1.017  15.129 -0.4226 -0.1175 -0.6213
  427MPD2    C3 6368   2.976   1.005  15.046  0.0731 -0.0923  0.0030
  427MPD2    C4 6369   3.001   0.951  14.921 -0.4309  0.1450 -0.7732
  427MPD2    C5 6370   3.132   0.913  14.883  0.1321  0.4724  0.0649
  427MPD2     H 6371   3.077   1.064  15.226 -2.8212  0.0751 -0.9928
  427MPD2    H1 6372   2.928   0.943  14.841  1.0901  2.1400 -2.3731
  427MPD2    H2 6373   3.331   0.878  14.940 -0.9605  0.0862 -1.5273
  427MPD2    H3 6374   3.156   0.895  14.779 -1.5298 -1.8041  0.0759
  427MPD2     N 6375   2.845   1.050  15.087 -0.1029  0.4693 -0.6801
  427MPD2    H5 6376   2.765   1.029  15.028  1.0377  1.7808 -2.7092
  427MPD2    N1 6377   3.325   0.993  15.190  0.1935 -0.3502 -0.4119
  427MPD2    H7 6378   3.292   1.028  15.279  0.6836  0.3103 -0.4814
  428TMC3    C1 6379   3.521   0.975  15.303  0.7445  0.0071  0.3527
  428TMC3    C2 6380   3.448   0.966  15.412 -0.4319  0.6666 -0.0285
  428TMC3    C3 6381   3.507   0.997  15.532 -0.1349  0.1649  0.4845
  428TMC3    C4 6382   3.654   1.010  15.304  0.0023  0.5002 -0.0283
  428TMC3    C5 6383   3.707   1.032  15.432 -0.6165  0.0867 -0.0280
  428TMC3    C6 6384   3.635   1.042  15.547  0.0605  0.4296 -0.5092
  428TMC3     C 6385   3.455   0.957  15.177  0.5286  0.1768 -0.3293
  428TMC3     O 6386   3.528   0.930  15.080  0.0649  0.7699  0.3200
  428TMC3     H 6387   3.348   0.923  15.410  0.3097 -1.0331 -0.2348
  428TMC3    H1 6388   3.713   1.006  15.213 -0.1590 -1.0238 -0.0756
  428TMC3    H2 6389   3.689   1.030  15.641 -1.7374  0.1124  0.4831
  428TMC3    C7 6390   3.854   1.044  15.462 -0.7208 -0.2160  0.2104
  428TMC3    C8 6391   3.433   0.981  15.655  0.1736 -0.5363  0.4344
  428TMC3    O1 6392   3.894   1.038  15.576 -0.1144  0.4037 -0.4265
  428TMC3    O2 6393   3.357   0.887  15.661 -0.1354 -0.1836 -0.5225
  429MPD2     C 6394   4.404   1.070   0.708 -0.3282  0.1188  0.3743
  429MPD2    C1 6395   4.439   1.011   0.590  0.6092  0.3026 -0.6811
  429MPD2    C2 6396   4.430   1.086   0.472  0.0692 -0.6454 -0.1984
  429MPD2    C3 6397   4.386   1.219   0.476  0.2883  0.8318 -0.2296
  429MPD2    C4 6398   4.371   1.282   0.594 -0.3243  0.2814  0.1038
  429MPD2    C5 6399   4.377   1.202   0.709 -0.2695  0.2856  0.4784
  429MPD2     H 6400   4.458   1.039   0.378 -0.3148  1.4573 -1.3645
  429MPD2    H1 6401   4.355   1.390   0.595  1.7223  0.5860 -1.0719
  429MPD2    H2 6402   4.419   1.034   0.809 -3.4104 -0.0708  0.7721
  429MPD2    H3 6403   4.360   1.248   0.806 -0.3269 -0.8191  0.9858
  429MPD2     N 6404   4.399   1.293   0.356 -0.3330 -0.6534  0.2385
  429MPD2    H5 6405   4.443   1.239   0.283  1.2901  0.9594  0.0171
  429MPD2    N1 6406   4.476   0.875   0.578 -0.2271 -0.0055  0.4669
  429MPD2    H7 6407   4.507   0.848   0.485  0.5295 -1.1976  1.0611
  430TMC3    C1 6408   4.343   1.444   0.180  0.4122  0.1266 -0.0443
  430TMC3    C2 6409   4.242   1.511   0.122 -0.0551 -0.0164  0.0185
  430TMC3    C3 6410   4.264   1.555  17.681 -1.0141  0.4784  0.0922
  430TMC3    C4 6411   4.465   1.427   0.128 -1.0396  0.3200  0.0920
  430TMC3    C5 6412   4.485   1.489   0.010 -0.0356 -0.1068 -0.7557
  430TMC3    C6 6413   4.385   1.537  17.620 -1.0742 -0.5083  0.4548
  430TMC3     C 6414   4.327   1.402   0.314 -1.2700  0.2919 -0.0918
  430TMC3     O 6415   4.255   1.461   0.389 -0.2069  0.1289  0.5756
  430TMC3     H 6416   4.146   1.523   0.171  0.0010  0.9143 -0.1061
  430TMC3    H1 6417   4.550   1.383   0.179 -1.6410 -0.0080  0.8011
  430TMC3    H2 6418   4.396   1.554  17.514 -2.2980 -2.2010  0.0611
  430TMC3    C7 6419   4.603   1.454  17.633 -0.0484 -0.2082  0.2714
  430TMC3    C8 6420   4.148   1.620  17.618 -0.0784  0.1778  0.1873
  430TMC3    O1 6421   4.636   1.338  17.633 -0.6435 -0.4728 -0.2130
  430TMC3    O2 6422   4.063   1.647   0.007  0.8973  0.3021 -0.0081
  431MPD2     C 6423   0.585   1.345  12.539 -0.7762 -0.0024 -0.2288
  431MPD2    C1 6424   0.666   1.354  12.429  0.0496 -0.3116  0.0440
  431MPD2    C2 6425   0.648   1.260  12.327 -0.2687 -0.8017  0.5509
  431MPD2    C3 6426   0.550   1.161  12.354  0.1704 -0.3905  0.1611
  431MPD2    C4 6427   0.473   1.158  12.463  0.0046 -0.0453  0.4252
  431MPD2    C5 6428   0.487   1.250  12.554  0.0399 -0.4043  0.2505
  431MPD2     H 6429   0.723   1.241  12.251  0.8740  1.5068  1.0786
  431MPD2    H1 6430   0.391   1.087  12.464  1.4285 -1.7027 -1.2757
  431MPD2    H2 6431   0.596   1.427  12.609 -1.6282  0.4602 -0.6427
  431MPD2    H3 6432   0.442   1.242  12.652 -1.5587  4.2871 -0.1061
  431MPD2     N 6433   0.524   1.049  12.270 -0.1693  0.3357 -0.3624
  431MPD2    H5 6434   0.476   0.974  12.321 -1.0062  0.4995 -0.9049
  431MPD2    N1 6435   0.764   1.453  12.415  0.0885 -0.3501  0.6539
  431MPD2    H7 6436   0.810   1.456  12.325 -1.1112  0.5365  0.0846
  432TMC3    C1 6437   0.574   0.896  12.099  0.1919 -0.2973 -0.2029
  432TMC3    C2 6438   0.584   0.893  11.962  0.1722  0.6702 -0.4957
  432TMC3    C3 6439   0.663   0.791  11.914  0.5381 -0.1835  0.0234
  432TMC3    C4 6440   0.618   0.803  12.186 -0.1161  0.0723  0.2052
  432TMC3    C5 6441   0.688   0.698  12.130  0.5651 -0.9928  0.4022
  432TMC3    C6 6442   0.713   0.692  11.997  0.1453 -0.3156 -0.7238
  432TMC3     C 6443   0.567   1.035  12.146 -0.2123  0.0744 -0.0099
  432TMC3     O 6444   0.602   1.122  12.065 -0.1716  0.8124  0.9035
  432TMC3     H 6445   0.544   0.973  11.901 -0.4022 -1.6737 -3.2000
  432TMC3    H1 6446   0.613   0.816  12.293 -2.6866 -1.4087  0.2775
  432TMC3    H2 6447   0.747   0.602  11.947  1.5808 -1.5060  2.3607
  432TMC3    C7 6448   0.748   0.592  12.211 -0.5486  0.1304  0.2588
  432TMC3    C8 6449   0.715   0.811  11.778 -0.0971  0.1122  0.0610
  432TMC3    O1 6450   0.794   0.492  12.160 -0.2613  1.1491 -0.2807
  432TMC3    O2 6451   0.664   0.903  11.711  0.1631  0.0570  0.6979
  433MPD2     C 6452   4.465   0.020  11.310 -0.2929 -0.0398 -0.6549
  433MPD2    C1 6453   4.369   4.636  11.325  0.9987  0.7696 -1.8661
  433MPD2    C2 6454   4.306   4.619  11.446 -0.3372  0.2922 -0.5819
  433MPD2    C3 6455   4.332   4.700  11.555 -0.5184  0.2783  0.6369
  433MPD2    C4 6456   4.425   0.078  11.537 -0.2716  0.2509  0.0326
  433MPD2    C5 6457   4.486   0.096  11.419 -0.1948  0.6714 -0.0487
  433MPD2     H 6458   4.226   4.547  11.461  1.4046 -1.5300 -0.0382
  433MPD2    H1 6459   4.462   0.133  11.622 -2.3812  1.7025 -0.0069
  433MPD2    H2 6460   4.520   0.041  11.219  0.8274 -1.8090 -0.3840
  433MPD2    H3 6461   4.554   0.180  11.418  0.2769  0.2849 -0.4591
  433MPD2     N 6462   4.300   4.652  11.680 -0.6311 -0.1126 -0.6969
  433MPD2    H5 6463   4.276   4.554  11.693  1.3965 -0.4414  0.5674
  433MPD2    N1 6464   4.341   4.551  11.222 -0.5982  0.2742  0.0121
  433MPD2    H7 6465   4.401   4.563  11.141 -0.8770  2.8577  0.1884
  434TMC3    C1 6466   4.240   4.362  11.136 -0.1838  0.6117  0.1507
  434TMC3    C2 6467   4.350   4.283  11.148  0.4011  1.3659  0.1368
  434TMC3    C3 6468   4.364   4.167  11.075 -0.4302  1.1404 -0.4224
  434TMC3    C4 6469   4.138   4.321  11.056 -0.9810  0.4010 -0.1326
  434TMC3    C5 6470   4.149   4.199  10.986  0.1289  0.3718  0.2208
  434TMC3    C6 6471   4.268   4.128  10.984 -0.6665  0.2353  0.1192
  434TMC3     C 6472   4.221   4.483  11.218 -0.0978 -0.7189 -0.4076
  434TMC3     O 6473   4.103   4.502  11.251  0.2063 -0.6560 -0.3890
  434TMC3     H 6474   4.422   4.299  11.228 -0.2336  1.3388  0.7179
  434TMC3    H1 6475   4.052   4.386  11.049 -0.8818  0.4443 -1.0431
  434TMC3    H2 6476   4.275   4.033  10.931  0.5480  0.0442  0.6201
  434TMC3    C7 6477   4.038   4.150  10.909  0.0833  0.6656 -0.0460
  434TMC3    C8 6478   4.447   4.067  11.146 -0.2178 -0.3334  0.9326
  434TMC3    O1 6479   3.927   4.199  10.935  0.1126  0.1032 -0.0557
  434TMC3    O2 6480   4.467   4.085  11.266 -0.1527  0.5244 -0.7160
  435MPD2     C 6481   1.558   0.003  15.539  0.2908  0.0728 -0.2159
  435MPD2    C1 6482   1.496   4.717  15.662 -0.0575 -0.1473  0.2420
  435MPD2    C2 6483   1.547   4.640  15.762  0.7130 -0.8455 -0.2921
  435MPD2    C3 6484   1.653   4.556  15.731  0.2378  0.3574 -0.5398
  435MPD2    C4 6485   1.707   4.556  15.604  0.0511  0.0491 -0.5918
  435MPD2    C5 6486   1.658   4.632  15.504 -0.4764 -0.8996 -1.3910
  435MPD2     H 6487   1.509   4.644  15.864  0.6748  0.4566 -0.3536
  435MPD2    H1 6488   1.782   4.480  15.584  1.2104  1.2618 -0.8378
  435MPD2    H2 6489   1.521   0.072  15.464  0.9931  1.0057  0.2983
  435MPD2    H3 6490   1.695   4.632  15.402  1.2851 -0.9171 -0.7538
  435MPD2     N 6491   1.699   4.465  15.832  0.4926 -0.1864 -0.0118
  435MPD2    H5 6492   1.657   4.474  15.924 -0.4473  1.9876 -0.6633
  435MPD2    N1 6493   1.384   0.067  15.692 -0.5660 -0.2093 -0.0983
  435MPD2    H7 6494   1.362   0.077  15.790  2.7006 -1.0593  0.7301
  436TMC3    C1 6495   1.032   0.187  15.837 -0.2205 -0.0967 -0.3345
  436TMC3    C2 6496   1.150   0.133  15.790  0.3088  0.0553 -0.5677
  436TMC3    C3 6497   1.200   0.200  15.680  0.2469 -0.3208  0.2452
  436TMC3    C4 6498   0.972   0.297  15.780 -0.3989  0.2517  0.4210
  436TMC3    C5 6499   1.041   0.368  15.687 -0.6921  0.2370 -0.6141
  436TMC3    C6 6500   1.152   0.313  15.629 -0.3817  0.0756 -0.0140
  436TMC3     C 6501   0.977   0.126  15.953  0.7121 -0.0664 -0.1443
  436TMC3     O 6502   0.999   0.007  15.958 -0.4230 -0.1239  0.1425
  436TMC3     H 6503   1.187   0.045  15.842  0.3475  0.8030  0.6631
  436TMC3    H1 6504   0.886   0.346  15.824 -0.4760  0.0324  0.5143
  436TMC3    H2 6505   1.200   0.352  15.539 -0.6522  0.9548  0.2212
  436TMC3    C7 6506   0.970   0.475  15.618  0.0097 -0.1238 -0.1313
  436TMC3    C8 6507   1.310   0.149  15.604  0.2593  0.1104 -0.0612
  436TMC3    O1 6508   0.854   0.460  15.594  0.2754 -0.2467 -0.5300
  436TMC3    O2 6509   1.306   0.157  15.480 -0.1507 -0.5291 -0.0542
  437TMC3    C1 6510   4.627   1.683  13.362  0.1508 -0.5849 -0.2245
  437TMC3    C2 6511   4.546   1.763  13.447  0.0715 -0.5349 -0.1186
  437TMC3    C3 6512   4.484   1.868  13.378  0.1498 -0.6040 -0.4658
  437TMC3    C4 6513   4.642   1.712  13.226  0.5607 -0.3497  0.1063
  437TMC3    C5 6514   4.590   1.820  13.172  0.1328 -0.0184  0.1562
  437TMC3    C6 6515   4.506   1.893  13.246 -0.4424  0.1579 -0.6029
  437TMC3     C 6516   4.664   1.556  13.418  0.4171 -0.4433  0.1253
  437TMC3     O 6517   4.618   1.523  13.525 -0.3143  0.3645  0.2884
  437TMC3     H 6518   4.528   1.731  13.549  0.4692 -0.1305  0.0783
  437TMC3    H1 6519   0.003   1.668  13.172 -1.2991 -0.8583 -2.2815
  437TMC3    H2 6520   4.462   1.976  13.193 -1.8489 -0.0413  0.2697
  437TMC3    C7 6521   4.643   1.894  13.060 -0.3702 -0.0165 -0.4843
  437TMC3    C8 6522   4.383   1.958  13.430  0.0785  0.0231  0.0729
  437TMC3    O1 6523   4.570   1.975  13.007 -0.1574  0.0347  0.3656
  437TMC3    O2 6524   4.335   2.044  13.359  0.2942 -0.2788 -0.4457
  438MPD2     C 6525   1.945   2.653  17.134  0.6340 -0.5908 -0.6631
  438MPD2    C1 6526   2.055   2.595  17.201  0.3822 -0.1118  0.5661
  438MPD2    C2 6527   2.030   2.553  17.329  0.6059  0.1789 -0.2986
  438MPD2    C3 6528   1.908   2.578  17.394  1.1990  0.0872 -1.0802
  438MPD2    C4 6529   1.805   2.640  17.326  0.0050 -0.3870 -0.6831
  438MPD2    C5 6530   1.826   2.672  17.196 -0.0252  0.2742 -0.0402
  438MPD2     H 6531   2.106   2.498  17.383 -0.3061 -1.4971 -0.7471
  438MPD2    H1 6532   1.709   2.663  17.371 -0.1369 -2.7177  0.1964
  438MPD2    H2 6533   1.951   2.687  17.032  1.1067  0.2786 -0.3397
  438MPD2    H3 6534   1.745   2.707  17.132  1.1911  1.9931 -0.6378
  438MPD2     N 6535   1.888   2.532  17.528  0.1934  0.7241  0.2945
  438MPD2    H5 6536   1.799   2.556  17.571 -0.0771 -0.7411  0.5352
  438MPD2    N1 6537   2.185   2.602  17.149  0.4256  0.2101  0.8090
  438MPD2    H7 6538   2.260   2.583  17.214  0.3950 -2.7747 -0.0079
  439TMC3    C1 6539   2.338   2.620  16.972  0.6984 -0.3819 -0.6660
  439TMC3    C2 6540   2.365   2.586  16.840 -0.7361 -0.2050 -0.2634
  439TMC3    C3 6541   2.497   2.562  16.811  0.9626  0.0525  0.9537
  439TMC3    C4 6542   2.435   2.624  17.070 -0.2819 -0.3261  0.5392
  439TMC3    C5 6543   2.560   2.592  17.034  0.4520 -0.5076 -1.0879
  439TMC3    C6 6544   2.593   2.557  16.908  0.0003 -0.3215  0.0040
  439TMC3     C 6545   2.205   2.603  17.007  0.1895 -0.2846  0.6393
  439TMC3     O 6546   2.117   2.587  16.919  0.7224  1.0723 -0.2096
  439TMC3     H 6547   2.284   2.581  16.768 -0.8265  0.4361 -0.2067
  439TMC3    H1 6548   2.415   2.669  17.167 -1.0756  0.0421  0.2046
  439TMC3    H2 6549   2.693   2.520  16.889  0.0626 -0.2344  0.1677
  439TMC3    C7 6550   2.669   2.578  17.137  0.0999  0.7234  0.0627
  439TMC3    C8 6551   2.526   2.469  16.707 -0.3971 -0.3227 -1.1085
  439TMC3    O1 6552   2.779   2.541  17.094 -0.1104 -0.4384 -0.0710
  439TMC3    O2 6553   2.604   2.377  16.727 -0.5273  0.5993 -0.3696
  440MPD2     C 6554   1.157   3.101  14.882  0.3307 -0.2831  0.5854
  440MPD2    C1 6555   1.157   3.132  15.013  0.0452  0.5926 -0.3930
  440MPD2    C2 6556   1.232   3.054  15.100  0.2066  0.2337  0.3913
  440MPD2    C3 6557   1.299   2.941  15.054  0.2193 -0.6923 -0.4128
  440MPD2    C4 6558   1.289   2.906  14.918 -0.3838 -0.3344  0.0044
  440MPD2    C5 6559   1.206   2.980  14.836  0.0750  0.0873  0.5127
  440MPD2     H 6560   1.243   3.083  15.204 -1.6587 -2.3979  1.3225
  440MPD2    H1 6561   1.337   2.818  14.879 -1.3650 -0.8894  0.0561
  440MPD2    H2 6562   1.103   3.162  14.811  0.8806 -3.0941 -2.2112
  440MPD2    H3 6563   1.192   2.957  14.731  1.9004  0.5127  0.1709
  440MPD2     N 6564   1.382   2.876  15.149  0.2125 -0.1056 -0.1612
  440MPD2    H5 6565   1.405   2.920  15.238  0.4984 -0.7423  0.0814
  440MPD2    N1 6566   1.085   3.241  15.064  0.0006  0.6598  0.1464
  440MPD2    H7 6567   1.094   3.255  15.164 -1.7358  1.5345  0.1886
  441TMC3    C1 6568   1.543   2.741  15.236  0.3590 -0.0914  1.6417
  441TMC3    C2 6569   1.583   2.856  15.297 -0.0851 -0.4017  0.2145
  441TMC3    C3 6570   1.622   2.841  15.429  0.1481 -0.3800 -0.7946
  441TMC3    C4 6571   1.539   2.614  15.288  0.7126  0.0081  0.5477
  441TMC3    C5 6572   1.581   2.603  15.419 -0.1778  0.6177 -0.0859
  441TMC3    C6 6573   1.624   2.714  15.488  0.5230 -0.0015  0.7931
  441TMC3     C 6574   1.462   2.766  15.121 -0.0600  1.0144 -0.4452
  441TMC3     O 6575   1.478   2.697  15.021  0.7676  0.0814 -0.2048
  441TMC3     H 6576   1.585   2.950  15.244 -0.5655  0.4533  1.7022
  441TMC3    H1 6577   1.496   2.534  15.228 -0.9592  2.1295 -1.1008
  441TMC3    H2 6578   1.670   2.704  15.585 -0.0437  2.2019  1.2875
  441TMC3    C7 6579   1.596   2.469  15.484  0.3246 -0.7863 -0.4400
  441TMC3    C8 6580   1.649   2.959  15.511  0.7252 -0.2645 -0.0393
  441TMC3    O1 6581   1.659   2.382  15.427 -0.2663 -0.0630  0.0133
  441TMC3    O2 6582   1.709   2.946  15.620 -0.3076 -0.4527  0.9518
  442MPD2     C 6583   4.146   3.635  16.446  0.1453  0.1608 -0.2069
  442MPD2    C1 6584   4.077   3.577  16.551 -0.2024  0.5030 -0.5665
  442MPD2    C2 6585   4.064   3.439  16.555  0.1564 -0.5445 -0.5682
  442MPD2    C3 6586   4.134   3.365  16.455  0.2026  0.2564 -0.6397
  442MPD2    C4 6587   4.197   3.429  16.354  0.0875 -0.3142 -0.2334
  442MPD2    C5 6588   4.202   3.566  16.350  0.4673 -0.3104 -0.0380
  442MPD2     H 6589   3.999   3.396  16.630  0.5560  0.7382  0.5012
  442MPD2    H1 6590   4.241   3.369  16.275  2.1598 -1.1040  1.5345
  442MPD2    H2 6591   4.168   3.741  16.443 -0.1379  0.1702 -1.9270
  442MPD2    H3 6592   4.260   3.610  16.269  0.3514  1.6474  0.9447
  442MPD2     N 6593   4.108   3.227  16.441  0.3850  0.4137  0.2267
  442MPD2    H5 6594   4.161   3.183  16.365  2.5601  1.3482  1.1941
  442MPD2    N1 6595   4.008   3.664  16.636  0.6823 -0.4900 -0.6609
  442MPD2    H7 6596   4.014   3.761  16.606  1.5257 -0.0634  0.9234
  443TMC3    C1 6597   3.857   3.729  16.806 -0.0115  0.2067 -0.6726
  443TMC3    C2 6598   3.796   3.815  16.720  0.0072  0.4464  0.2698
  443TMC3    C3 6599   3.671   3.857  16.758  0.2772 -0.6899  0.6015
  443TMC3    C4 6600   3.797   3.695  16.924 -0.0642  0.2867 -0.4664
  443TMC3    C5 6601   3.686   3.753  16.970 -0.4592 -1.2954  0.0912
  443TMC3    C6 6602   3.617   3.833  16.886  0.2891  0.0083  0.1189
  443TMC3     C 6603   3.948   3.626  16.755 -0.9675  0.1187 -0.0885
  443TMC3     O 6604   3.958   3.524  16.821 -0.2678 -0.2425  0.5694
  443TMC3     H 6605   3.827   3.821  16.616 -0.1127  1.0773  0.2707
  443TMC3    H1 6606   3.843   3.625  16.993  0.7845 -0.6381 -1.9642
  443TMC3    H2 6607   3.513   3.858  16.904  0.7804  0.5613  2.1774
  443TMC3    C7 6608   3.614   3.697  17.077  0.1233 -0.9796 -0.0703
  443TMC3    C8 6609   3.585   3.795  16.657  0.4988 -0.0849 -0.4943
  443TMC3    O1 6610   3.641   3.577  17.096  0.2915  0.5264 -0.2339
  443TMC3    O2 6611   3.518   3.701  16.699 -0.1267 -0.3023  0.5266
  444MPD2     C 6612   4.606   2.851   0.073 -0.0234 -0.4088 -0.5240
  444MPD2    C1 6613   4.542   2.798  17.654  0.0186  0.0279 -0.4502
  444MPD2    C2 6614   4.606   2.721  17.557  0.1564  0.9523 -0.2094
  444MPD2    C3 6615   0.017   2.693  17.573 -0.5889  0.2333 -0.3705
  444MPD2    C4 6616   0.084   2.738  17.682  0.6170 -0.5276  1.2631
  444MPD2    C5 6617   0.017   2.814   0.085 -0.8024  0.9089 -0.2478
  444MPD2     H 6618   4.542   2.685  17.478  1.1155 -0.7432 -0.2042
  444MPD2    H1 6619   0.189   2.721   0.015  1.1635  0.2047 -0.9083
  444MPD2    H2 6620   4.559   2.906   0.154  0.3637  1.2590 -1.4304
  444MPD2    H3 6621   0.079   2.853   0.164  1.8286 -2.0987 -0.8648
  444MPD2     N 6622   0.073   2.616  17.474 -0.3223 -0.2945  0.1129
  444MPD2    H5 6623   0.016   2.607  17.391 -0.3956 -0.7671  0.2158
  444MPD2    N1 6624   4.408   2.818  17.631  0.3154  0.2190  0.3851
  444MPD2    H7 6625   4.362   2.754  17.568  1.2589  0.6079 -0.6865
  445TMC3    C1 6626   0.228   2.488  17.362  0.4882  0.0745  0.7780
  445TMC3    C2 6627   0.119   2.444  17.299  0.5592  0.3335  0.3131
  445TMC3    C3 6628   0.136   2.403  17.167  0.1821 -0.5185  0.6604
  445TMC3    C4 6629   0.355   2.489  17.307  0.1793 -0.0474  0.4281
  445TMC3    C5 6630   0.366   2.439  17.180 -0.2170 -0.2077 -0.2239
  445TMC3    C6 6631   0.256   2.397  17.109 -0.5473 -0.7398 -0.1552
  445TMC3     C 6632   0.196   2.576  17.474  0.1137  0.1588  0.4306
  445TMC3     O 6633   0.287   2.614  17.546 -0.1242  0.3335  0.7315
  445TMC3     H 6634   0.036   2.415  17.363 -0.4973  0.6272 -0.9210
  445TMC3    H1 6635   0.436   2.541  17.356  0.9437 -0.3923 -0.4807
  445TMC3    H2 6636   0.270   2.357  17.010  1.6967  0.1787 -0.2033
  445TMC3    C7 6637   0.490   2.432  17.110 -0.2266  0.8582  0.2750
  445TMC3    C8 6638   0.032   2.347  17.093  0.3738  0.2669  0.2842
  445TMC3    O1 6639   0.489   2.396  16.993  0.3933  0.4298  0.4272
  445TMC3    O2 6640   0.061   2.252  17.021 -0.0555 -0.1161  0.4443
  446MPD2     C 6641   4.167   3.788  11.656  0.1384 -0.7080 -0.5755
  446MPD2    C1 6642   4.185   3.831  11.525  0.4396 -0.2389  0.4135
  446MPD2    C2 6643   4.289   3.915  11.492 -0.1347  0.1599  0.5818
  446MPD2    C3 6644   4.387   3.954  11.580 -0.0615 -0.0766 -0.2473
  446MPD2    C4 6645   4.373   3.914  11.713 -0.4829 -0.0384  0.2987
  446MPD2    C5 6646   4.262   3.834  11.745  0.3008 -0.1299 -0.2465
  446MPD2     H 6647   4.294   3.941  11.387 -2.8227 -1.7195 -0.0374
  446MPD2    H1 6648   4.437   3.947  11.794 -0.2835  1.3739 -0.4352
  446MPD2    H2 6649   4.086   3.723  11.687  0.0061 -0.7073 -0.9176
  446MPD2    H3 6650   4.254   3.814  11.852  1.8608 -0.7970 -0.2681
  446MPD2     N 6651   4.500   4.020  11.521 -0.2406 -0.3293  0.0217
  446MPD2    H5 6652   4.490   4.064  11.430  1.4926 -4.5260 -2.1797
  446MPD2    N1 6653   4.088   3.789  11.427  0.3767  0.0190  0.4679
  446MPD2    H7 6654   4.096   3.822  11.331 -2.5463 -1.6853 -0.3644
  447TMC3    C1 6655   0.005   4.088  11.500 -0.4404  0.3114  0.0367
  447TMC3    C2 6656   4.701   4.189  11.410 -0.3505 -0.2503  0.1223
  447TMC3    C3 6657   0.078   4.222  11.318  0.8098  0.2246  0.2783
  447TMC3    C4 6658   0.124   4.020  11.501 -0.0216 -0.1794  0.2902
  447TMC3    C5 6659   0.224   4.055  11.411  0.5298  0.4863 -0.4798
  447TMC3    C6 6660   0.200   4.153  11.314  0.0504 -0.1774 -0.8510
  447TMC3     C 6661   4.623   4.036  11.582  0.6053 -0.0201 -0.2066
  447TMC3     O 6662   4.655   3.974  11.680 -0.1658 -0.1591  0.6489
  447TMC3     H 6663   4.602   4.232  11.398 -0.1122  0.5207  0.9257
  447TMC3    H1 6664   0.141   3.938  11.570 -0.5383 -1.1061 -0.6810
  447TMC3    H2 6665   0.270   4.184  11.238 -0.7464 -0.5334 -1.7219
  447TMC3    C7 6666   0.334   3.960  11.389 -0.1065 -0.0687 -0.3397
  447TMC3    C8 6667   0.027   4.285  11.203 -0.1107 -0.0283 -0.0923
  447TMC3    O1 6668   0.369   3.901  11.493  0.5013  0.5380  0.3192
  447TMC3    O2 6669   4.662   4.370  11.219 -0.3155 -0.2101  0.2473
  448TMC3    C1 6670   2.565   4.134  17.268  0.1205 -0.0292  0.2536
  448TMC3    C2 6671   2.527   4.009  17.217  0.2877  0.0243  0.0667
  448TMC3    C3 6672   2.625   3.923  17.191  0.3091  0.2885 -0.2816
  448TMC3    C4 6673   2.698   4.164  17.296  0.0440  0.4331 -0.7331
  448TMC3    C5 6674   2.787   4.065  17.278  0.4988  0.1877 -0.5371
  448TMC3    C6 6675   2.759   3.948  17.210  0.6303  0.2219 -0.6814
  448TMC3     C 6676   2.460   4.204  17.333  0.5999 -0.7163 -0.2205
  448TMC3     O 6677   2.353   4.146  17.342 -0.3538  0.4527  0.2063
  448TMC3     H 6678   2.428   3.975  17.189 -0.0948  0.1894  1.2146
  448TMC3    H1 6679   2.732   4.259  17.336  0.0116  1.1533 -2.4444
  448TMC3    H2 6680   2.832   3.872  17.185  1.5171  1.5250 -2.0954
  448TMC3    C7 6681   2.891   4.063  17.380  0.2565 -0.6241  0.8841
  448TMC3    C8 6682   2.605   3.780  17.157 -0.0937 -0.0268 -0.1229
  448TMC3    O1 6683   2.916   4.172  17.432 -0.0734  0.4224  0.3963
  448TMC3    O2 6684   2.674   3.701  17.218  0.4964  0.2385  0.6080
  449MPD2     C 6685   4.256   2.049  14.191 -0.2011  0.4081  0.5746
  449MPD2    C1 6686   4.155   2.134  14.148 -0.4620 -0.5577  0.4582
  449MPD2    C2 6687   4.028   2.098  14.167  0.1279  0.2490 -0.3109
  449MPD2    C3 6688   3.996   1.981  14.247  0.2593  0.2869 -0.1867
  449MPD2    C4 6689   4.099   1.904  14.300 -0.0889 -0.3466 -0.2089
  449MPD2    C5 6690   4.223   1.939  14.266 -0.9328 -0.2828  0.2000
  449MPD2     H 6691   3.948   2.156  14.123  0.8631  1.4333 -0.0970
  449MPD2    H1 6692   4.084   1.822  14.369  1.0305  1.6115  2.3515
  449MPD2    H2 6693   4.361   2.057  14.166  0.5293  0.9622  3.8584
  449MPD2    H3 6694   4.311   1.880  14.290 -2.3569 -1.7156  1.8941
  449MPD2     N 6695   3.861   1.930  14.242 -0.2476  0.3675  0.2010
  449MPD2    H5 6696   3.798   1.980  14.179 -1.1622 -0.8238  0.1777
  449MPD2    N1 6697   4.176   2.247  14.068  0.0899  0.1059  0.2240
  449MPD2    H7 6698   4.089   2.294  14.043 -0.1352 -2.0723 -3.1059
  450TMC3    C1 6699   4.248   2.393  13.899  0.4851 -0.4599  0.4767
  450TMC3    C2 6700   4.261   2.356  13.767  0.1997 -0.0704 -0.0171
  450TMC3    C3 6701   4.180   2.415  13.677 -0.4711  0.5920  0.8865
  450TMC3    C4 6702   4.137   2.463  13.931 -0.5227  0.8488 -0.5299
  450TMC3    C5 6703   4.043   2.507  13.845  0.7956  0.4819 -0.4100
  450TMC3    C6 6704   4.076   2.499  13.715  0.2109  0.3639  0.0522
  450TMC3     C 6705   4.284   2.278  13.984 -0.0017  0.9201  0.1210
  450TMC3     O 6706   4.381   2.207  13.961  0.1488  0.0424  0.3908
  450TMC3     H 6707   4.343   2.288  13.748 -0.0033 -0.2204 -0.3576
  450TMC3    H1 6708   4.121   2.491  14.035 -0.7086 -1.0466 -0.0446
  450TMC3    H2 6709   4.006   2.536  13.640  1.6963  1.4187 -0.8261
  450TMC3    C7 6710   3.914   2.460  13.886  0.6272  0.8022  0.6776
  450TMC3    C8 6711   4.231   2.443  13.537 -1.0245 -0.9937  0.2121
  450TMC3    O1 6712   3.901   2.395  13.990 -0.1625 -0.1665 -0.2268
  450TMC3    O2 6713   4.162   2.511  13.458  0.8655 -0.2991  0.1934
  451MPD2     C 6714   1.011   2.382   2.450  0.6726 -0.4534 -0.2786
  451MPD2    C1 6715   0.988   2.300   2.344  0.3177  0.0205  0.3327
  451MPD2    C2 6716   1.052   2.176   2.340 -0.4092 -0.3918  0.4682
  451MPD2    C3 6717   1.138   2.139   2.448 -0.1287 -0.1481 -0.1704
  451MPD2    C4 6718   1.158   2.221   2.560  0.1726 -0.1052 -0.2185
  451MPD2    C5 6719   1.102   2.344   2.547  0.8491  0.1049  0.3557
  451MPD2     H 6720   1.043   2.105   2.259  0.8109  2.8134 -2.4523
  451MPD2    H1 6721   1.224   2.188   2.640  1.1176 -2.1249 -1.8066
  451MPD2    H2 6722   0.963   2.478   2.459 -2.8818 -2.1749 -0.7969
  451MPD2    H3 6723   1.112   2.411   2.631  1.6493 -1.0821  1.2099
  451MPD2     N 6724   1.175   1.998   2.451  0.2995  0.5120  0.0544
  451MPD2    H5 6725   1.135   1.940   2.378  1.5537  1.3348 -1.2911
  451MPD2    N1 6726   0.902   2.343   2.239 -0.5915 -0.6306 -0.0414
  451MPD2    H7 6727   0.852   2.428   2.262  1.0251  0.1543  0.4908
  452TMC3    C1 6728   1.266   1.791   2.540  0.0854  0.2994  0.4532
  452TMC3    C2 6729   1.348   1.734   2.632 -0.2097  0.1784 -0.1853
  452TMC3    C3 6730   1.362   1.597   2.632  0.6779  0.7428 -0.5087
  452TMC3    C4 6731   1.196   1.722   2.449 -0.3249  1.0790  0.2419
  452TMC3    C5 6732   1.205   1.589   2.457  0.1077 -0.6979 -0.0758
  452TMC3    C6 6733   1.290   1.522   2.535 -0.1225  0.3445 -0.5444
  452TMC3     C 6734   1.260   1.942   2.546  0.3051 -0.0832  0.1670
  452TMC3     O 6735   1.330   2.006   2.621  0.4145  0.0421 -0.2094
  452TMC3     H 6736   1.411   1.798   2.692  0.8731 -0.6845 -0.3981
  452TMC3    H1 6737   1.135   1.771   2.374  0.0134  1.9624  0.5392
  452TMC3    H2 6738   1.308   1.415   2.540  1.4399  0.6422  0.4349
  452TMC3    C7 6739   1.155   1.516   2.345 -0.9134  0.3937 -0.3056
  452TMC3    C8 6740   1.420   1.522   2.748 -0.1941  0.8230 -0.6107
  452TMC3    O1 6741   1.150   1.569   2.235 -0.5404 -0.3938 -0.0515
  452TMC3    O2 6742   1.411   1.403   2.745 -0.4094 -0.0134 -0.3397
  453TMC3    C1 6743   2.201   2.235  11.772 -0.1018  0.1117 -0.5628
  453TMC3    C2 6744   2.096   2.165  11.822  0.2774  0.6228 -0.0648
  453TMC3    C3 6745   2.003   2.112  11.733 -0.0820  0.3389 -0.4150
  453TMC3    C4 6746   2.227   2.258  11.632  0.0461 -0.5256 -0.0641
  453TMC3    C5 6747   2.129   2.193  11.553 -0.0421 -0.3043 -0.3837
  453TMC3    C6 6748   2.014   2.132  11.599 -0.2411 -0.0608  0.5001
  453TMC3     C 6749   2.299   2.304  11.854  0.9361 -0.0737 -0.0723
  453TMC3     O 6750   2.366   2.391  11.801 -0.0428  0.1398  0.0162
  453TMC3     H 6751   2.078   2.140  11.926 -0.4008  0.2156 -0.2807
  453TMC3    H1 6752   2.313   2.310  11.593 -0.5488  1.6613  1.5477
  453TMC3    H2 6753   1.937   2.099  11.530  0.6640 -0.9491 -0.0743
  453TMC3    C7 6754   2.114   2.259  11.426  0.1680 -0.2832 -0.5124
  453TMC3    C8 6755   1.897   2.026  11.787  0.7245  0.7669  0.7858
  453TMC3    O1 6756   2.002   2.274  11.376  0.5209  0.4148  0.4908
  453TMC3    O2 6757   1.872   1.927  11.719  0.2495  0.3809  0.6941
  454MPD2     C 6758   0.187   3.061  16.605  0.5132 -0.3524  0.3681
  454MPD2    C1 6759   0.175   2.936  16.544 -0.6833 -0.2293 -0.1381
  454MPD2    C2 6760   0.109   2.835  16.612  0.5541  0.2180  0.2225
  454MPD2    C3 6761   0.043   2.864  16.733 -0.3442 -0.1618  0.3443
  454MPD2    C4 6762   0.060   2.988  16.791  0.6544 -0.1620 -1.1002
  454MPD2    C5 6763   0.127   3.084  16.729  0.0856  0.4032 -0.1752
  454MPD2     H 6764   0.090   2.739  16.566  0.9100  0.2806 -0.0485
  454MPD2    H1 6765   4.718   3.009  16.876  1.4291  1.3694 -0.9131
  454MPD2    H2 6766   0.235   3.146  16.558  2.3745 -0.7325  1.5711
  454MPD2    H3 6767   0.136   3.180  16.779  0.8453  1.0937 -1.6628
  454MPD2     N 6768   4.683   2.769  16.797  0.5575  0.2147 -0.5913
  454MPD2    H5 6769   4.618   2.797  16.870  0.2539 -1.8497 -0.0873
  454MPD2    N1 6770   0.247   2.914  16.423  0.0374  0.7788 -0.1813
  454MPD2    H7 6771   0.278   2.995  16.372 -1.1092  1.2624 -0.1069
  455TMC3    C1 6772   4.578   2.573  16.803 -0.2856 -0.2273 -1.0152
  455TMC3    C2 6773   4.504   2.627  16.900 -0.7610 -0.5194 -0.6919
  455TMC3    C3 6774   4.369   2.626  16.903  0.2468 -0.0201 -0.7019
  455TMC3    C4 6775   4.505   2.532  16.691 -0.5125 -0.3778 -0.2430
  455TMC3    C5 6776   4.369   2.544  16.686 -0.6381  0.1260  0.3541
  455TMC3    C6 6777   4.300   2.583  16.794 -0.4616 -0.7863  0.2462
  455TMC3     C 6778   4.696   2.635  16.781  0.3203 -0.0658  1.1821
  455TMC3     O 6779   0.062   2.571  16.723  0.2256 -1.1296  0.4163
  455TMC3     H 6780   4.549   2.652  16.996  1.7419 -1.2072 -1.6895
  455TMC3    H1 6781   4.563   2.490  16.610 -0.5570  2.3053 -1.6480
  455TMC3    H2 6782   4.193   2.572  16.800 -0.6373  0.0408 -1.3691
  455TMC3    C7 6783   4.287   2.463  16.586  0.0829 -0.2034  0.3568
  455TMC3    C8 6784   4.298   2.694  17.014  0.2191 -0.8058 -0.0456
  455TMC3    O1 6785   4.169   2.444  16.612 -0.2181  0.2080 -0.8194
  455TMC3    O2 6786   4.360   2.689  17.121 -0.6877  0.0520 -0.0014
  456MPD2     C 6787   2.960   2.570  16.563 -0.3692  0.3869 -0.0221
  456MPD2    C1 6788   2.983   2.514  16.686 -0.7034  0.1492 -0.1357
  456MPD2    C2 6789   2.938   2.585  16.795 -0.0245 -0.8869  0.0122
  456MPD2    C3 6790   2.865   2.704  16.776 -0.2995 -0.5411 -0.5736
  456MPD2    C4 6791   2.843   2.753  16.649  0.7587  0.2912  0.9701
  456MPD2    C5 6792   2.885   2.678  16.550 -0.1112 -0.5228  0.6994
  456MPD2     H 6793   2.961   2.553  16.896  1.8774  0.9131  0.1527
  456MPD2    H1 6794   2.784   2.841  16.626  2.1374  1.4116  1.7636
  456MPD2    H2 6795   2.989   2.515  16.474  0.1238 -1.0587  1.0214
  456MPD2    H3 6796   2.867   2.707  16.447 -0.5963  1.6084  1.3800
  456MPD2     N 6797   2.843   2.780  16.894 -0.4653  0.0306  0.0193
  456MPD2    H5 6798   2.881   2.751  16.984  1.0464 -2.3763 -1.3980
  456MPD2    N1 6799   3.056   2.393  16.677 -0.0761 -0.3612  0.4795
  456MPD2    H7 6800   3.093   2.360  16.588 -0.5395  0.7631 -0.1225
  457TMC3    C1 6801   2.761   2.963  17.027 -0.1302  0.0714  0.2418
  457TMC3    C2 6802   2.653   3.050  17.052  0.2183  0.0686  0.2472
  457TMC3    C3 6803   2.661   3.122  17.166 -0.1339  1.2951  0.3400
  457TMC3    C4 6804   2.874   2.952  17.102 -0.2226 -0.3268  0.2826
  457TMC3    C5 6805   2.864   3.015  17.219  0.3096  0.5472  0.8576
  457TMC3    C6 6806   2.767   3.107  17.250 -0.3221  0.6449 -0.0883
  457TMC3     C 6807   2.766   2.900  16.898  0.0211 -0.4812  0.5630
  457TMC3     O 6808   2.701   2.952  16.807  0.0968 -0.4274 -0.2984
  457TMC3     H 6809   2.566   3.050  16.987  0.2522 -2.2313  0.2313
  457TMC3    H1 6810   2.962   2.891  17.086 -0.3921 -0.4913 -0.0307
  457TMC3    H2 6811   2.746   3.136  17.352 -0.8988  1.7756 -0.5250
  457TMC3    C7 6812   2.960   2.988  17.325  0.7884  0.6788 -0.3237
  457TMC3    C8 6813   2.601   3.251  17.169 -0.3195  0.1545  0.2129
  457TMC3    O1 6814   3.007   2.875  17.334 -0.0183  0.1238  0.6572
  457TMC3    O2 6815   2.655   3.332  17.241 -0.1148 -0.1406  0.2267
  458MPD2     C 6816   0.281   2.042  12.742 -0.2613  0.4892  0.0131
  458MPD2    C1 6817   0.339   1.955  12.833 -0.0625  0.5002 -0.6649
  458MPD2    C2 6818   0.265   1.894  12.934 -0.1295 -0.7152  0.0631
  458MPD2    C3 6819   0.130   1.921  12.935 -0.1908  1.0410 -0.0293
  458MPD2    C4 6820   0.071   2.004  12.837  0.0144  0.1051 -0.9755
  458MPD2    C5 6821   0.151   2.073  12.744  0.6194  0.2059 -0.5076
  458MPD2     H 6822   0.306   1.817  12.998  0.7749 -0.1509  0.1481
  458MPD2    H1 6823   4.686   2.026  12.835 -0.0306  0.0151  0.3142
  458MPD2    H2 6824   0.331   2.100  12.666  0.2422 -1.8567 -1.4438
  458MPD2    H3 6825   0.092   2.127  12.670  0.8023  0.1727 -0.6791
  458MPD2     N 6826   0.052   1.864  13.038 -0.3039  0.4846 -0.0803
  458MPD2    H5 6827   0.099   1.797  13.099 -1.6084 -0.7168 -0.3759
  458MPD2    N1 6828   0.479   1.934  12.823  0.4620 -0.2102 -0.4084
  458MPD2    H7 6829   0.524   1.993  12.754  1.8372  1.2256  1.7203
  459TMC3    C1 6830   0.706   1.839  12.854  0.3867  0.5320 -0.9648
  459TMC3    C2 6831   0.758   1.924  12.762 -0.5487 -0.0223  0.5517
  459TMC3    C3 6832   0.896   1.944  12.769 -0.3178 -0.3969 -0.0848
  459TMC3    C4 6833   0.773   1.800  12.963  0.1721  0.5285 -0.1720
  459TMC3    C5 6834   0.903   1.839  12.976  0.2798  0.0729 -0.3638
  459TMC3    C6 6835   0.969   1.914  12.881  0.4156  0.4605  0.5639
  459TMC3     C 6836   0.562   1.842  12.881  0.2026 -0.0495 -0.2821
  459TMC3     O 6837   0.515   1.745  12.938 -0.2794 -0.2203  0.2210
  459TMC3     H 6838   0.700   1.964  12.680 -0.2364 -1.4527 -0.3510
  459TMC3    H1 6839   0.729   1.739  13.041  0.3418  1.8207  0.9197
  459TMC3    H2 6840   1.072   1.942  12.897  1.0435  0.4278 -3.4691
  459TMC3    C7 6841   0.974   1.766  13.077 -0.7485  0.0360 -0.1058
  459TMC3    C8 6842   0.958   2.006  12.651 -0.1696 -0.0916  0.4839
  459TMC3    O1 6843   0.916   1.744  13.181  0.2121 -0.0708  0.7992
  459TMC3    O2 6844   0.887   2.013  12.548  0.0878  0.4919 -0.2993
  460MPD2     C 6845   0.092   4.142  10.870 -0.8385 -0.0800  0.1717
  460MPD2    C1 6846   0.024   4.223  10.960 -0.8658 -0.6597  0.0998
  460MPD2    C2 6847   4.632   4.301  10.921 -0.1237 -0.8271 -0.4871
  460MPD2    C3 6848   4.583   4.276  10.796 -0.2271  0.4538  0.4811
  460MPD2    C4 6849   4.656   4.198  10.708  0.0545 -0.1450 -0.0256
  460MPD2    C5 6850   0.053   4.138  10.741  0.0884 -0.3170 -0.5327
  460MPD2     H 6851   4.573   4.352  10.996  0.7066 -1.6931  0.7695
  460MPD2    H1 6852   4.626   4.174  10.606  0.4680  0.5925 -0.3163
  460MPD2    H2 6853   0.192   4.105  10.892 -1.5993 -2.1707  0.0857
  460MPD2    H3 6854   0.106   4.086  10.662  0.2418 -1.4701  0.3287
  460MPD2     N 6855   4.455   4.331  10.768 -0.1553  0.1890  0.1008
  460MPD2    H5 6856   4.421   4.410  10.821  0.6249  1.1060 -0.7686
  460MPD2    N1 6857   0.079   4.224  11.091 -0.1721  0.2390  0.6042
  460MPD2    H7 6858   0.150   4.153  11.110  0.5366 -0.2780 -3.9783
  461TMC3    C1 6859   4.255   4.345  10.649  0.0070 -0.2088  0.0294
  461TMC3    C2 6860   4.150   4.268  10.605 -0.0186  0.1105  0.0523
  461TMC3    C3 6861   4.022   4.309  10.594 -0.3377  0.3113 -0.2853
  461TMC3    C4 6862   4.245   4.482  10.674 -0.2990 -0.3056  0.4166
  461TMC3    C5 6863   4.116   4.523  10.656  0.1741  0.0932 -0.2880
  461TMC3    C6 6864   4.003   4.441  10.631  0.8250  0.7677 -0.6534
  461TMC3     C 6865   4.382   4.280  10.664 -0.7203 -0.3727 -0.2536
  461TMC3     O 6866   4.395   4.169  10.602  0.1966  0.9110 -0.0943
  461TMC3     H 6867   4.173   4.168  10.570  0.2527  1.0341 -2.4001
  461TMC3    H1 6868   4.330   4.548  10.686 -0.4495 -0.4861  2.4604
  461TMC3    H2 6869   3.905   4.484  10.645  0.6651  0.5587 -1.1325
  461TMC3    C7 6870   4.097   4.661  10.616  1.5006 -0.8265 -0.1721
  461TMC3    C8 6871   3.967   4.279  10.467  0.0364  0.7651 -0.2163
  461TMC3    O1 6872   4.166   0.035  10.649 -0.0744  0.6452  0.1840
  461TMC3    O2 6873   4.025   4.213  10.383  0.0841  0.3834 -0.7522
  462TMC3    C1 6874   0.226   0.866   0.727 -0.4184 -0.2360  0.2550
  462TMC3    C2 6875   0.342   0.814   0.702 -0.2406 -0.0286  0.6195
  462TMC3    C3 6876   0.400   0.737   0.794 -0.3715 -0.5377 -0.3170
  462TMC3    C4 6877   0.144   0.828   0.832 -0.3409 -0.1033  0.7148
  462TMC3    C5 6878   0.195   0.741   0.920  0.2580 -0.5684  0.8822
  462TMC3    C6 6879   0.329   0.706   0.909  0.7662 -0.2829 -0.7380
  462TMC3     C 6880   0.164   0.939   0.619 -0.4783 -0.3729  0.5206
  462TMC3     O 6881   0.133   1.057   0.640 -0.6989  0.3599  0.0682
  462TMC3     H 6882   0.393   0.846   0.612 -0.7668  2.4881  1.2036
  462TMC3    H1 6883   0.043   0.867   0.840 -0.1650  0.7731 -1.2364
  462TMC3    H2 6884   0.371   0.626   0.969 -0.5741 -1.2932 -1.1504
  462TMC3    C7 6885   0.094   0.643   0.961  0.5466  0.3276 -1.2807
  462TMC3    C8 6886   0.504   0.651   0.767  0.6979 -0.1127 -0.5730
  462TMC3    O1 6887   4.696   0.675   0.947  0.4251 -0.4114 -0.3525
  462TMC3    O2 6888   0.589   0.624   0.852  0.3730 -0.3102  0.3575
  463MPD2     C 6889   0.853   4.064   2.369 -0.3007 -0.1661 -0.0427
  463MPD2    C1 6890   0.888   4.194   2.341  0.3261 -0.6171 -0.2832
  463MPD2    C2 6891   1.021   4.226   2.341  0.0815 -0.7612 -0.1698
  463MPD2    C3 6892   1.118   4.128   2.365  0.1609  0.2379  0.1027
  463MPD2    C4 6893   1.084   4.000   2.400  0.4487  0.5803 -0.2961
  463MPD2    C5 6894   0.948   3.963   2.386  0.2098 -0.1961  0.4415
  463MPD2     H 6895   1.052   4.327   2.315 -1.8357  0.0318  0.6563
  463MPD2    H1 6896   1.160   3.926   2.422 -0.0035  0.9892  2.6049
  463MPD2    H2 6897   0.747   4.041   2.376 -0.6111  1.1244 -0.4521
  463MPD2    H3 6898   0.916   3.863   2.413  3.6109 -1.0600  1.2195
  463MPD2     N 6899   1.255   4.154   2.352 -0.2816  0.5572 -0.1590
  463MPD2    H5 6900   1.320   4.081   2.378 -0.4480  0.3071 -0.4511
  463MPD2    N1 6901   0.802   4.307   2.328 -0.3382 -0.0582 -0.1188
  463MPD2    H7 6902   0.843   4.393   2.294  2.7749 -1.2934  0.5245
  464TMC3    C1 6903   0.613   4.445   2.297  0.4023 -0.3720  0.6262
  464TMC3    C2 6904   0.694   4.535   2.240 -0.5314  0.0068 -0.6039
  464TMC3    C3 6905   0.647   4.663   2.240 -0.6526  0.2581 -0.4014
  464TMC3    C4 6906   0.484   4.470   2.333  0.4093 -0.1126 -0.4912
  464TMC3    C5 6907   0.439   4.598   2.324  0.2782 -0.3483 -0.2304
  464TMC3    C6 6908   0.519   4.691   2.281  0.5393  0.2368 -0.6169
  464TMC3     C 6909   0.663   4.309   2.316  0.0413 -0.7890 -0.7623
  464TMC3     O 6910   0.584   4.214   2.337  0.2064 -0.5923  0.2577
  464TMC3     H 6911   0.785   4.511   2.186  0.9966 -0.4686  2.1757
  464TMC3    H1 6912   0.421   4.393   2.378 -0.4046  1.7989  1.6131
  464TMC3    H2 6913   0.468   0.065   2.274  2.5952  1.3481 -0.3286
  464TMC3    C7 6914   0.301   4.611   2.288 -0.0586  0.3748  0.6867
  464TMC3    C8 6915   0.736   0.048   2.189  0.5915 -0.5517 -0.3638
  464TMC3    O1 6916   0.242   4.714   2.310 -0.0079 -0.5406 -0.6768
  464TMC3    O2 6917   0.828   0.023   2.112 -0.3010  0.2614 -0.2162
  465MPD2     C 6918   2.206   2.990  16.819  0.1619  0.0208  0.1105
  465MPD2    C1 6919   2.113   2.940  16.902  0.5864  0.8236 -0.1381
  465MPD2    C2 6920   1.984   2.903  16.852  0.2691  0.4959 -0.3000
  465MPD2    C3 6921   1.969   2.919  16.716 -0.1702 -0.5592  0.4799
  465MPD2    C4 6922   2.074   2.956  16.631  0.1041  0.1406  0.2191
  465MPD2    C5 6923   2.189   3.001  16.683  1.0375 -0.5809 -1.0942
  465MPD2     H 6924   1.901   2.876  16.915 -0.1897 -0.2612 -1.2249
  465MPD2    H1 6925   2.066   2.958  16.523 -0.4938 -3.0439  0.1871
  465MPD2    H2 6926   2.305   3.018  16.853 -0.6899  1.5531  1.3295
  465MPD2    H3 6927   2.271   3.034  16.621  0.9338  0.5120 -0.6462
  465MPD2     N 6928   1.838   2.912  16.659  0.3975  0.0595  0.1556
  465MPD2    H5 6929   1.778   2.845  16.706  0.0080  0.1624 -0.1910
  465MPD2    N1 6930   2.128   2.938  17.042  0.0766  0.0584  0.5099
  465MPD2    H7 6931   2.044   2.920  17.096 -0.6834 -0.2295 -0.7916
  466TMC3    C1 6932   1.443   2.893  16.567 -0.1581  0.2299  0.3554
  466TMC3    C2 6933   1.386   2.986  16.485  0.4785  0.0763 -0.1448
  466TMC3    C3 6934   1.462   3.055  16.399 -0.3354  0.2081 -0.7078
  466TMC3    C4 6935   1.579   2.877  16.569  0.0045 -0.1069 -0.8500
  466TMC3    C5 6936   1.666   2.957  16.495  0.6961  1.1166 -0.7969
  466TMC3    C6 6937   1.604   3.050  16.407  0.1176  0.1488 -0.1035
  466TMC3     C 6938   1.371   2.844  16.683  0.2917 -0.1764 -0.1630
  466TMC3     O 6939   1.431   2.830  16.788  0.1978 -0.1855  0.2885
  466TMC3     H 6940   1.285   3.018  16.511  0.8439  1.4543 -0.4044
  466TMC3    H1 6941   1.620   2.792  16.622 -3.0599 -0.2574  1.2627
  466TMC3    H2 6942   1.659   3.120  16.344  0.6289 -0.7439 -0.6517
  466TMC3    C7 6943   1.797   2.989  16.552  0.2720  0.6812 -0.1576
  466TMC3    C8 6944   1.414   3.182  16.361 -0.7922 -0.2286 -0.4104
  466TMC3    O1 6945   1.852   3.072  16.492  0.3134 -0.0649 -0.3457
  466TMC3    O2 6946   1.345   3.191  16.258  0.1093 -0.0146  0.2590
  467TMC3    C1 6947   2.726   1.138  13.926  0.1336 -0.3169 -0.1010
  467TMC3    C2 6948   2.673   1.239  13.852 -0.0006  0.0346 -0.5817
  467TMC3    C3 6949   2.538   1.236  13.825  0.5138  0.3217 -0.0473
  467TMC3    C4 6950   2.647   1.035  13.970  0.1415  0.5956  0.3700
  467TMC3    C5 6951   2.513   1.032  13.943  0.2629 -0.4272 -0.0059
  467TMC3    C6 6952   2.453   1.136  13.874 -0.4583 -0.0109 -0.4626
  467TMC3     C 6953   2.871   1.147  13.931  0.5150 -0.5271 -0.3063
  467TMC3     O 6954   2.927   1.252  13.892  0.0353 -0.3759  0.2915
  467TMC3     H 6955   2.741   1.309  13.805  2.1908 -1.5847  0.2210
  467TMC3    H1 6956   2.694   0.949  14.016 -1.7174 -1.7498 -2.0747
  467TMC3    H2 6957   2.349   1.137  13.845 -0.1213  1.8242 -1.6241
  467TMC3    C7 6958   2.435   0.916  14.000  0.6604 -0.4100  0.3859
  467TMC3    C8 6959   2.507   1.297  13.693 -0.1612 -0.1559  0.6665
  467TMC3    O1 6960   2.500   0.825  14.048  0.8348  0.1768  0.1971
  467TMC3    O2 6961   2.565   1.405  13.672 -0.0452 -0.3902  0.1698
  468MPD2     C 6962   1.743   3.830  10.771  0.0192  0.0943  0.5841
  468MPD2    C1 6963   1.876   3.810  10.780 -0.7477  0.2971  0.0597
  468MPD2    C2 6964   1.919   3.688  10.736 -0.2198 -0.1610  0.8240
  468MPD2    C3 6965   1.849   3.582  10.696  0.7733 -0.3505 -0.1292
  468MPD2    C4 6966   1.713   3.602  10.691 -0.3964  0.1644  0.1900
  468MPD2    C5 6967   1.664   3.730  10.723  0.0240 -0.1016  1.0570
  468MPD2     H 6968   2.019   3.662  10.768 -0.8045 -0.2380  2.5629
  468MPD2    H1 6969   1.641   3.524  10.670 -0.0087  0.6133 -2.7723
  468MPD2    H2 6970   1.699   3.928  10.782  0.9337  0.6253 -0.4864
  468MPD2    H3 6971   1.559   3.747  10.701  0.3233 -0.6105 -0.7785
  468MPD2     N 6972   1.889   3.449  10.698  0.2982  0.2371 -0.9568
  468MPD2    H5 6973   1.816   3.379  10.692 -0.4836  0.8379  1.6633
  468MPD2    N1 6974   1.965   3.908  10.839 -0.3108  0.0777 -0.4986
  468MPD2    H7 6975   2.064   3.887  10.844 -0.0902  1.7261  2.0902
  469TMC3    C1 6976   2.029   4.116  10.926  0.4801  0.0853  0.4394
  469TMC3    C2 6977   2.137   4.070  10.995  0.2364  0.0984  0.3520
  469TMC3    C3 6978   2.209   4.154  11.077  0.6857  1.1965  0.0279
  469TMC3    C4 6979   2.011   4.252  10.919  0.1704 -0.3614 -0.2447
  469TMC3    C5 6980   2.078   4.328  11.007  0.0256  0.0198  0.3925
  469TMC3    C6 6981   2.179   4.286  11.091  0.2157 -0.4335  0.1672
  469TMC3     C 6982   1.924   4.028  10.880 -0.2626  1.3195  0.0233
  469TMC3     O 6983   1.818   4.078  10.896 -0.7006 -0.6307 -0.5276
  469TMC3     H 6984   2.162   3.965  10.984  0.5629  0.1818  0.2899
  469TMC3    H1 6985   1.929   4.288  10.858  0.6982  1.6623  0.2401
  469TMC3    H2 6986   2.247   4.361  11.131  0.1160  1.2465 -2.8124
  469TMC3    C7 6987   2.030   4.463  11.021  0.1940 -0.0363  0.8515
  469TMC3    C8 6988   2.339   4.113  11.116  0.0667  0.6554  0.5436
  469TMC3    O1 6989   1.940   4.495  10.940 -0.1760 -0.3620  0.4299
  469TMC3    O2 6990   2.396   4.018  11.055  0.2316  0.1196  0.8643
  470TMC3    C1 6991   3.879   1.202   1.288 -0.5173  0.3654  0.6473
  470TMC3    C2 6992   3.968   1.310   1.308 -0.1898 -0.0047  0.2988
  470TMC3    C3 6993   3.937   1.391   1.412 -0.5525 -0.5554  0.5195
  470TMC3    C4 6994   3.785   1.180   1.381  0.0207 -0.4194  0.3883
  470TMC3    C5 6995   3.767   1.262   1.495  0.1692 -0.2288 -0.3739
  470TMC3    C6 6996   3.838   1.381   1.505  0.5600 -0.5677 -0.1942
  470TMC3     C 6997   3.894   1.112   1.174 -0.8117  0.3584  0.6866
  470TMC3     O 6998   3.969   1.141   1.082 -0.3930  0.2810 -0.6230
  470TMC3     H 6999   4.049   1.327   1.238 -1.3064  1.6046 -0.5932
  470TMC3    H1 7000   3.701   1.116   1.357 -1.4784  1.2500  1.1545
  470TMC3    H2 7001   3.821   1.462   1.575 -2.1494 -0.7438 -0.6537
  470TMC3    C7 7002   3.658   1.237   1.585 -0.4367  0.6261 -0.4171
  470TMC3    C8 7003   4.021   1.509   1.430  0.5365  0.3506  0.7190
  470TMC3    O1 7004   3.568   1.164   1.543 -0.2734 -0.1143 -1.0613
  470TMC3    O2 7005   3.971   1.612   1.469 -0.1476 -0.5153  0.0236
  471MPD2     C 7006   3.837   1.755  17.231 -0.5597 -0.2031 -0.5900
  471MPD2    C1 7007   3.961   1.724  17.179 -0.6820 -0.4878  0.1818
  471MPD2    C2 7008   4.066   1.685  17.267 -0.2246  0.7562  0.9505
  471MPD2    C3 7009   4.051   1.687  17.400  0.1878 -0.5106 -0.6025
  471MPD2    C4 7010   3.934   1.745  17.453 -0.8192  0.0679  0.1733
  471MPD2    C5 7011   3.826   1.764  17.368 -0.3380 -0.4320  0.2578
  471MPD2     H 7012   4.160   1.642  17.234  0.5347  2.1524  1.2781
  471MPD2    H1 7013   3.914   1.751  17.559 -1.8768 -1.1270  0.0368
  471MPD2    H2 7014   3.749   1.772  17.170 -0.0624  1.7199 -0.7613
  471MPD2    H3 7015   3.729   1.785  17.411  0.3040 -0.2149  1.5943
  471MPD2     N 7016   4.153   1.635  17.480 -0.1340 -0.2697 -0.0324
  471MPD2    H5 7017   4.228   1.592  17.427  0.0926 -1.2238  1.0613
  471MPD2    N1 7018   3.986   1.699  17.037  0.1572 -0.7126  0.1340
  471MPD2    H7 7019   4.079   1.669  17.010 -0.1108  0.1911 -1.7986
  472TMC3    C1 7020   3.934   1.673  16.808 -0.3969 -0.8174  0.0666
  472TMC3    C2 7021   3.847   1.694  16.705 -0.4534 -1.3119 -0.0087
  472TMC3    C3 7022   3.869   1.621  16.586  0.1156 -0.0838  0.3293
  472TMC3    C4 7023   4.043   1.590  16.796 -0.0464 -0.3325  0.7473
  472TMC3    C5 7024   4.044   1.504  16.686  0.2335 -0.9171  0.0985
  472TMC3    C6 7025   3.965   1.524  16.578  0.6766  0.1123 -0.5043
  472TMC3     C 7026   3.888   1.713  16.936 -0.4666  0.4431 -0.0426
  472TMC3     O 7027   3.767   1.746  16.943  0.4756  0.1425  0.9024
  472TMC3     H 7028   3.754   1.744  16.728 -0.4766 -1.4313  0.1550
  472TMC3    H1 7029   4.112   1.573  16.878  2.1726 -0.5546 -1.1751
  472TMC3    H2 7030   3.974   1.468  16.486 -1.7228  0.2105 -0.8079
  472TMC3    C7 7031   4.076   1.364  16.711  0.2405  0.5322  0.8492
  472TMC3    C8 7032   3.751   1.571  16.521  0.4857 -0.0540 -0.4406
  472TMC3    O1 7033   4.143   1.356  16.812 -0.2584 -0.7864  0.0279
  472TMC3    O2 7034   3.691   1.642  16.443 -0.3546  0.1680 -0.0601
  473MPD2     C 7035   4.611   3.562  14.296  0.1935  0.0293  0.1698
  473MPD2    C1 7036   4.528   3.664  14.253 -0.7611  0.2509  0.3659
  473MPD2    C2 7037   4.491   3.764  14.348 -0.6228 -0.1366  0.4881
  473MPD2    C3 7038   4.533   3.758  14.484  0.0928 -0.0876  0.2245
  473MPD2    C4 7039   4.622   3.659  14.522 -0.5580 -0.2904  0.7382
  473MPD2    C5 7040   4.654   3.561  14.428  0.7409 -0.3372 -0.5044
  473MPD2     H 7041   4.426   3.840  14.306  0.0343  1.2078  1.8752
  473MPD2    H1 7042   4.660   3.645  14.623 -0.0546 -0.6235  0.4990
  473MPD2    H2 7043   4.640   3.476  14.237  1.4950 -0.0720  0.9706
  473MPD2    H3 7044   0.005   3.487  14.461 -0.1363 -1.1121 -0.3488
  473MPD2     N 7045   4.498   3.856  14.584  0.1057  0.4692 -0.5821
  473MPD2    H5 7046   4.534   3.838  14.678 -0.9504  1.0803 -0.0596
  473MPD2    N1 7047   4.471   3.673  14.121  0.0269 -0.3738 -0.4293
  473MPD2    H7 7048   4.417   3.758  14.110  0.3866 -0.2002 -0.8822
  474TMC3    C1 7049   4.444   4.072  14.655  1.1474  0.3840 -0.1217
  474TMC3    C2 7050   4.348   4.167  14.685 -0.6529  0.0919  0.3128
  474TMC3    C3 7051   4.374   4.272  14.777 -0.2831 -0.1733  0.1460
  474TMC3    C4 7052   4.557   4.072  14.733  0.3075 -0.6778 -0.0364
  474TMC3    C5 7053   4.581   4.164  14.827  0.2433 -0.2817  0.2615
  474TMC3    C6 7054   4.490   4.269  14.849  0.8377 -0.4674 -0.6314
  474TMC3     C 7055   4.420   3.970  14.560 -0.0799  0.1353  0.2550
  474TMC3     O 7056   4.352   3.998  14.464 -0.1044  0.2356  0.0158
  474TMC3     H 7057   4.263   4.172  14.618 -0.1952 -1.7628 -0.4084
  474TMC3    H1 7058   4.637   3.998  14.728 -0.4915 -1.5587  0.1012
  474TMC3    H2 7059   4.513   4.353  14.914 -0.5760  0.6126 -1.5363
  474TMC3    C7 7060   0.005   4.177  14.866 -0.5880 -0.0120 -1.0684
  474TMC3    C8 7061   4.289   4.384  14.794 -0.7093  0.7699 -0.2418
  474TMC3    O1 7062   0.087   4.122  14.794 -0.4100  0.2283 -0.2929
  474TMC3    O2 7063   4.168   4.359  14.796  0.5433 -0.3060 -0.2244
  475MPD2     C 7064   2.614   1.968  10.967  0.0064  0.4139  0.7802
  475MPD2    C1 7065   2.610   1.995  10.836  0.1671 -0.3581 -0.5935
  475MPD2    C2 7066   2.505   2.067  10.782 -0.9672 -0.1815 -0.1423
  475MPD2    C3 7067   2.402   2.110  10.866 -0.8024  0.6960 -0.4300
  475MPD2    C4 7068   2.406   2.078  11.001 -0.5143  0.0366  0.3838
  475MPD2    C5 7069   2.515   2.010  11.050 -0.6201  0.1956  0.3685
  475MPD2     H 7070   2.503   2.094  10.677  1.3452  0.2344 -0.0748
  475MPD2    H1 7071   2.320   2.105  11.061  0.4706 -0.9633  2.2550
  475MPD2    H2 7072   2.682   1.891  11.003  1.4232  2.0710  1.6501
  475MPD2    H3 7073   2.526   1.971  11.151 -1.8140  3.4138  1.7461
  475MPD2     N 7074   2.292   2.182  10.803 -0.1441  0.5692 -0.1736
  475MPD2    H5 7075   2.299   2.203  10.704 -2.5854 -3.6428 -1.2151
  475MPD2    N1 7076   2.715   1.941  10.751 -0.8119 -0.0371  0.4147
  475MPD2    H7 7077   2.791   1.897  10.803  0.6106  1.5521 -0.3340
  476TMC3    C1 7078   2.834   1.870  10.559  0.0962  0.2082  0.2617
  476TMC3    C2 7079   2.820   1.834  10.430 -0.0383  0.7662 -1.1927
  476TMC3    C3 7080   2.928   1.794  10.357  0.5257 -0.1634 -0.1968
  476TMC3    C4 7081   2.951   1.870  10.627  0.1002 -0.3910  0.2238
  476TMC3    C5 7082   3.059   1.823  10.553 -0.2168  0.0344  0.6251
  476TMC3    C6 7083   3.047   1.778  10.423  0.2186  0.3813 -0.0226
  476TMC3     C 7084   2.725   1.950  10.615  0.1605  0.4963  0.3897
  476TMC3     O 7085   2.648   2.004  10.535  0.0073 -0.4072 -0.3993
  476TMC3     H 7086   2.721   1.834  10.386 -0.0416 -0.3334 -1.1863
  476TMC3    H1 7087   2.959   1.918  10.724 -1.4120 -0.3359  0.3236
  476TMC3    H2 7088   3.135   1.744  10.369  1.6131 -0.2707  2.6289
  476TMC3    C7 7089   3.198   1.850  10.598 -0.2299  0.7398  0.1010
  476TMC3    C8 7090   2.899   1.713  10.241 -0.3281  0.3661  0.0940
  476TMC3    O1 7091   3.285   1.827  10.514  0.0882  0.1290  0.4628
  476TMC3    O2 7092   2.818   1.753  10.160  0.0367 -0.3248  0.1464
  477MPD2     C 7093   0.262   3.052  11.928  0.0489  0.4745  0.0074
  477MPD2    C1 7094   0.324   3.175  11.948  0.4297  0.2140 -0.0278
  477MPD2    C2 7095   0.435   3.182  12.020 -0.3235 -0.3604  0.2269
  477MPD2    C3 7096   0.499   3.072  12.070 -1.4169 -0.1803  0.2928
  477MPD2    C4 7097   0.452   2.945  12.042 -0.0669  0.4344  0.6862
  477MPD2    C5 7098   0.330   2.938  11.970 -0.6728 -0.0817  0.3098
  477MPD2     H 7099   0.478   3.281  12.028 -1.3785  0.0770  0.6288
  477MPD2    H1 7100   0.491   2.855  12.089  0.3599  0.2918  0.0728
  477MPD2    H2 7101   0.163   3.046  11.884  0.4173  0.1894 -0.7767
  477MPD2    H3 7102   0.280   2.842  11.960  0.7160 -0.8569  0.8158
  477MPD2     N 7103   0.606   3.096  12.161 -0.0204 -0.2073  0.3688
  477MPD2    H5 7104   0.631   3.188  12.196 -0.7129 -0.2944  1.0849
  477MPD2    N1 7105   0.263   3.285  11.892  0.3216 -0.3625 -0.0729
  477MPD2    H7 7106   0.170   3.265  11.857 -0.3353  2.8871 -0.2264
  478TMC3    C1 7107   0.218   3.498  11.797  0.7350 -0.0216  0.1908
  478TMC3    C2 7108   0.095   3.507  11.860  0.0625  0.6244  0.6269
  478TMC3    C3 7109   0.016   3.614  11.819 -0.4003  0.0638 -0.4491
  478TMC3    C4 7110   0.234   3.557  11.676  0.1906  0.6553  0.4540
  478TMC3    C5 7111   0.131   3.629  11.622 -0.6799  0.8069  0.3037
  478TMC3    C6 7112   0.026   3.674  11.697 -0.1544 -0.8278 -0.4922
  478TMC3     C 7113   0.318   3.410  11.871  0.0885  0.3998 -0.0802
  478TMC3     O 7114   0.431   3.452  11.898  0.0324  0.1735  0.1332
  478TMC3     H 7115   0.082   3.453  11.953 -1.4239  0.1311  0.1381
  478TMC3    H1 7116   0.311   3.541  11.602  3.4023  2.2025  3.4793
  478TMC3    H2 7117   4.681   3.757  11.673 -0.8922 -0.9877  1.0316
  478TMC3    C7 7118   0.136   3.646  11.472  0.2553 -0.8077  0.2572
  478TMC3    C8 7119   4.661   3.673  11.932  0.4749  0.4318  0.4785
  478TMC3    O1 7120   0.230   3.589  11.414  0.0135  0.6757  0.4943
  478TMC3    O2 7121   4.635   3.593  12.019 -0.1400 -0.3932 -0.0886
  479MPD2     C 7122   4.084   1.205  15.241 -0.7693 -0.2532  0.3141
  479MPD2    C1 7123   4.041   1.151  15.357 -0.4158 -0.4232 -0.2168
  479MPD2    C2 7124   4.126   1.163  15.466 -0.0011  0.2865 -0.1752
  479MPD2    C3 7125   4.242   1.241  15.473 -0.2555  0.2343 -0.2501
  479MPD2    C4 7126   4.279   1.292  15.351 -0.0124  0.4450 -0.9261
  479MPD2    C5 7127   4.203   1.266  15.232  0.5038  0.2202  0.5995
  479MPD2     H 7128   4.089   1.119  15.558 -0.9872  0.4465 -0.4945
  479MPD2    H1 7129   4.368   1.352  15.336  0.4177 -0.2273 -1.0580
  479MPD2    H2 7130   4.014   1.207  15.158  0.7658 -2.0577 -1.0035
  479MPD2    H3 7131   4.224   1.308  15.135  1.5472 -1.2271  0.1860
  479MPD2     N 7132   4.311   1.281  15.592  0.1895  0.3822  0.1404
  479MPD2    H5 7133   4.404   1.316  15.570 -0.1225  0.0419 -1.7084
  479MPD2    N1 7134   3.918   1.084  15.354  0.2890 -0.0863  0.1807
  479MPD2    H7 7135   3.865   1.094  15.269  1.2087 -0.2244 -0.4052
  480TMC3    C1 7136   4.011   1.156  15.944 -0.3653  0.5572  0.0565
  480TMC3    C2 7137   3.897   1.207  15.885 -0.3543  0.8257  0.1119
  480TMC3    C3 7138   3.917   1.290  15.773 -0.2888 -0.6568 -0.4634
  480TMC3    C4 7139   4.136   1.173  15.891 -0.3709  0.2073  0.5274
  480TMC3    C5 7140   4.149   1.243  15.769  0.6937  0.2060  0.2180
  480TMC3    C6 7141   4.042   1.316  15.714 -0.4589  0.3384  0.0925
  480TMC3     C 7142   3.995   1.060  16.052  0.2835  0.5946 -0.4737
  480TMC3     O 7143   4.088   0.985  16.074 -0.5093  0.2344  0.1130
  480TMC3     H 7144   3.800   1.181  15.925  0.7569 -2.6035  0.5620
  480TMC3    H1 7145   4.222   1.120  15.931 -0.1299 -1.1389 -1.7985
  480TMC3    H2 7146   4.060   1.385  15.633 -0.8857 -1.8340 -1.8390
  480TMC3    C7 7147   4.281   1.242  15.722 -0.2777  0.2164 -0.3161
  480TMC3    C8 7148   3.789   1.318  15.702 -0.5591 -0.9438  0.6214
  480TMC3    O1 7149   4.368   1.223  15.803 -0.0693 -0.3153  0.6112
  480TMC3    O2 7150   3.679   1.275  15.747 -0.7376  0.1372 -0.2098
  481MPD2     C 7151   0.834   0.884  14.635  0.3632  0.2983 -0.1088
  481MPD2    C1 7152   0.826   0.753  14.633  0.2573  0.0184  0.0900
  481MPD2    C2 7153   0.875   0.678  14.738  0.0524  0.0862 -0.1001
  481MPD2    C3 7154   0.931   0.737  14.851  0.1706  0.0234 -0.2199
  481MPD2    C4 7155   0.952   0.871  14.843  0.7900  0.2277 -0.0734
  481MPD2    C5 7156   0.896   0.947  14.742  0.1358 -0.0804  0.3496
  481MPD2     H 7157   0.866   0.570  14.741 -0.9839  0.1598 -0.5949
  481MPD2    H1 7158   1.002   0.916  14.927  0.6189 -0.9608  0.6595
  481MPD2    H2 7159   0.801   0.942  14.549  0.6277  2.7735  1.4734
  481MPD2    H3 7160   0.913   1.054  14.741  2.8620 -0.4775  2.0058
  481MPD2     N 7161   0.970   0.665  14.964 -0.3613 -0.2077 -0.3062
  481MPD2    H5 7162   1.046   0.707  15.017  0.4609  1.4873 -2.8155
  481MPD2    N1 7163   0.785   0.695  14.511 -0.4044  0.3551  0.1043
  481MPD2    H7 7164   0.772   0.755  14.431  0.4348 -0.2183 -0.4645
  482TMC3    C1 7165   0.775   0.537  14.347  0.9200 -0.3725  0.0841
  482TMC3    C2 7166   0.694   0.430  14.307  0.8039  0.0523  0.5441
  482TMC3    C3 7167   0.673   0.422  14.171  0.8812  0.1832  1.0555
  482TMC3    C4 7168   0.842   0.616  14.266  0.2192  0.1246 -0.3814
  482TMC3    C5 7169   0.833   0.591  14.128 -0.1792  0.2596 -0.1732
  482TMC3    C6 7170   0.755   0.484  14.078 -0.5069 -0.6396  0.5272
  482TMC3     C 7171   0.770   0.565  14.489 -0.6682  0.2021 -0.0323
  482TMC3     O 7172   0.761   0.474  14.570  0.4212 -0.0793  0.4583
  482TMC3     H 7173   0.629   0.375  14.372 -0.4648  2.0591  0.9892
  482TMC3    H1 7174   0.895   0.702  14.305 -0.2323  0.3805 -0.3349
  482TMC3    H2 7175   0.743   0.465  13.972 -2.7890 -1.3317  0.9235
  482TMC3    C7 7176   0.918   0.667  14.042 -0.5785  0.0118  0.6523
  482TMC3    C8 7177   0.565   0.335  14.125 -0.1254 -0.2918 -0.3202
  482TMC3    O1 7178   0.987   0.743  14.102 -0.8804  0.3688  0.0667
  482TMC3    O2 7179   0.540   0.236  14.193 -0.0464  0.3366  0.6966
  483TMC3    C1 7180   3.205   0.334   0.544  0.6435 -0.2016 -0.5444
  483TMC3    C2 7181   3.273   0.411   0.629  0.5580  0.1933  0.1573
  483TMC3    C3 7182   3.262   0.396   0.758 -0.0477 -0.0957 -0.3765
  483TMC3    C4 7183   3.116   0.243   0.594 -0.9413  0.0070 -0.6958
  483TMC3    C5 7184   3.102   0.220   0.729  0.3523 -0.3116 -0.0865
  483TMC3    C6 7185   3.171   0.308   0.802  0.1081  0.4194 -0.5137
  483TMC3     C 7186   3.271   0.293   0.423  0.5272 -0.6439  0.5773
  483TMC3     O 7187   3.329   0.374   0.351 -0.5589  0.0073  0.4700
  483TMC3     H 7188   3.348   0.479   0.591  1.2211 -0.5239  0.2045
  483TMC3    H1 7189   3.058   0.173   0.534 -2.2537  0.0898  0.4723
  483TMC3    H2 7190   3.160   0.301   0.910 -0.8247  2.1660 -0.5089
  483TMC3    C7 7191   3.146   0.094   0.774  0.0498  0.1856 -0.9707
  483TMC3    C8 7192   3.398   0.388   0.817 -0.6680 -0.2065 -0.0148
  483TMC3    O1 7193   3.232   0.043   0.707 -0.1512  0.2299 -0.0990
  483TMC3    O2 7194   3.489   0.379   0.740  0.3088 -0.2097 -0.0302
  484MPD2     C 7195   1.145   2.146  12.465  0.4448  0.6045  0.0007
  484MPD2    C1 7196   1.186   2.082  12.582 -0.1809 -0.3461  0.4131
  484MPD2    C2 7197   1.316   2.075  12.621 -0.4965 -0.5026 -0.2101
  484MPD2    C3 7198   1.414   2.114  12.536 -0.1617 -0.5940  0.1570
  484MPD2    C4 7199   1.375   2.171  12.415  0.1655 -0.4283 -0.2842
  484MPD2    C5 7200   1.243   2.198  12.384 -0.0727 -0.5648  0.3560
  484MPD2     H 7201   1.346   2.026  12.713  0.5451 -2.7389 -1.7481
  484MPD2    H1 7202   1.452   2.204  12.347  0.8219  0.6990  0.9930
  484MPD2    H2 7203   1.039   2.145  12.443  0.2667  0.9272  0.8411
  484MPD2    H3 7204   1.213   2.240  12.288  0.4405  0.5721  0.6976
  484MPD2     N 7205   1.552   2.108  12.561 -0.1791  0.0324  0.6006
  484MPD2    H5 7206   1.619   2.126  12.486  0.7904 -2.2406  0.9178
  484MPD2    N1 7207   1.093   2.017  12.667 -0.3722  0.5195  0.0185
  484MPD2    H7 7208   1.132   1.982  12.754 -0.1586  1.7799  0.4291
  485TMC3    C1 7209   1.756   2.024  12.653 -0.0086  0.1306  0.6704
  485TMC3    C2 7210   1.812   1.923  12.726 -0.2917  0.4784  0.3858
  485TMC3    C3 7211   1.935   1.867  12.715 -0.2612  0.2446  1.0513
  485TMC3    C4 7212   1.827   2.080  12.554 -0.1509 -0.3881  0.4913
  485TMC3    C5 7213   1.947   2.010  12.527 -0.1630  1.1722  0.2753
  485TMC3    C6 7214   2.009   1.915  12.614 -1.0603  0.7467 -0.1011
  485TMC3     C 7215   1.614   2.045  12.666 -0.2601 -0.6093 -0.1497
  485TMC3     O 7216   1.557   1.997  12.763  0.0970 -0.2134 -0.6679
  485TMC3     H 7217   1.743   1.871  12.791 -0.2588  0.3038  0.2814
  485TMC3    H1 7218   1.784   2.132  12.469  2.6481  1.7041  0.3278
  485TMC3    H2 7219   2.102   1.867  12.585 -1.9455  0.1790 -2.0448
  485TMC3    C7 7220   1.975   1.992  12.384 -0.4579  0.2245  0.1216
  485TMC3    C8 7221   1.933   1.722  12.702  0.0107  0.3224  0.1434
  485TMC3    O1 7222   1.964   2.080  12.300 -0.5619 -0.3250 -0.0469
  485TMC3    O2 7223   1.953   1.685  12.583  0.1601  0.2742 -0.5375
  486MPD2     C 7224   4.297   1.369  13.444  0.5455 -0.4817 -0.2400
  486MPD2    C1 7225   4.181   1.310  13.389  0.0184 -0.3686  0.0974
  486MPD2    C2 7226   4.077   1.394  13.371  0.9236  0.3463  0.1033
  486MPD2    C3 7227   4.073   1.530  13.394  0.2198  0.1541  0.3210
  486MPD2    C4 7228   4.188   1.591  13.444 -0.2030  0.4642  0.3401
  486MPD2    C5 7229   4.297   1.509  13.459  1.0817 -0.7271  0.3056
  486MPD2     H 7230   3.981   1.355  13.341  1.3471  0.5444 -1.5300
  486MPD2    H1 7231   4.189   1.698  13.459 -1.3259  0.7942 -1.9312
  486MPD2    H2 7232   4.388   1.313  13.460  2.2203  2.1459 -0.6669
  486MPD2    H3 7233   4.391   1.553  13.491  2.0010 -0.9197 -2.0723
  486MPD2     N 7234   3.951   1.593  13.369  0.4636  0.2965  0.0680
  486MPD2    H5 7235   3.873   1.542  13.328 -0.2867  0.2548  1.5464
  486MPD2    N1 7236   4.177   1.171  13.361 -0.3256 -0.2203 -0.5513
  486MPD2    H7 7237   4.257   1.118  13.394  0.9857  2.6064  0.7555
  487TMC3    C1 7238   4.089   0.955  13.326 -0.0465  0.7356 -0.0551
  487TMC3    C2 7239   4.032   0.871  13.232 -0.4310  0.2192 -0.1550
  487TMC3    C3 7240   4.019   0.741  13.267  0.1151 -0.0821  0.5005
  487TMC3    C4 7241   4.096   0.923  13.459 -0.1920  0.1683  0.2405
  487TMC3    C5 7242   4.087   0.790  13.488 -0.4156  0.3909 -0.3337
  487TMC3    C6 7243   4.059   0.693  13.392  0.1908 -0.2320 -0.1868
  487TMC3     C 7244   4.083   1.102  13.294 -0.0193  0.1467 -0.2066
  487TMC3     O 7245   3.984   1.138  13.235 -0.1448  0.1949  0.2686
  487TMC3     H 7246   3.976   0.906  13.146  0.2850 -0.8989 -1.0886
  487TMC3    H1 7247   4.119   0.995  13.537 -0.5577  0.7905 -0.2288
  487TMC3    H2 7248   4.018   0.599  13.426  1.7952 -0.2366  1.7493
  487TMC3    C7 7249   4.009   0.775  13.608  0.3294  0.6285  0.0055
  487TMC3    C8 7250   3.880   0.709  13.252  0.4870 -0.5577  0.2251
  487TMC3    O1 7251   4.040   0.684  13.681 -0.1729  0.3986 -0.2776
  487TMC3    O2 7252   3.796   0.801  13.256 -0.2332  0.2985  0.0661
  488MPD2     C 7253   3.638   2.804  16.828  0.1284 -0.0443 -0.3556
  488MPD2    C1 7254   3.614   2.940  16.833 -0.2207 -0.1795  0.0509
  488MPD2    C2 7255   3.607   2.998  16.959  0.2856 -0.0233  0.1829
  488MPD2    C3 7256   3.611   2.920  17.075 -0.2939 -0.3738 -0.0473
  488MPD2    C4 7257   3.610   2.782  17.066  0.5027  0.1657 -0.0458
  488MPD2    C5 7258   3.642   2.731  16.944  0.8264  0.0371 -0.2649
  488MPD2     H 7259   3.604   3.106  16.971  2.3570 -0.0205  0.5213
  488MPD2    H1 7260   3.595   2.716  17.151 -3.1448  1.2687  0.1682
  488MPD2    H2 7261   3.636   2.747  16.736  1.4092 -1.4870  0.5177
  488MPD2    H3 7262   3.663   2.625  16.945  0.8304  0.0258 -1.4158
  488MPD2     N 7263   3.587   2.986  17.191 -0.2268 -0.1080 -0.8645
  488MPD2    H5 7264   3.579   3.088  17.189  3.8655  0.1991 -1.7834
  488MPD2    N1 7265   3.607   3.018  16.718  0.7411  0.0683  0.2726
  488MPD2    H7 7266   3.583   3.116  16.725  2.3863  0.5015 -0.4211
  489TMC3    C1 7267   3.537   3.028  17.423  0.8025 -0.8239  0.2874
  489TMC3    C2 7268   3.487   3.145  17.383 -0.2980  1.1886 -0.1001
  489TMC3    C3 7269   3.455   3.243  17.476 -0.5036  0.4678  0.6084
  489TMC3    C4 7270   3.591   3.017  17.550  0.4506 -0.0003 -0.3007
  489TMC3    C5 7271   3.570   3.123  17.638 -0.0200 -0.2811  0.2349
  489TMC3    C6 7272   3.508   3.241  17.604 -0.3094 -0.4828 -0.2220
  489TMC3     C 7273   3.572   2.936  17.321  0.5516  0.6477 -0.0098
  489TMC3     O 7274   3.593   2.823  17.363 -0.0977 -0.3539  0.5613
  489TMC3     H 7275   3.432   3.145  17.290  0.3961 -1.4884 -0.5106
  489TMC3    H1 7276   3.619   2.918  17.585  0.2251 -0.0676 -0.3079
  489TMC3    H2 7277   3.481   3.320  17.672 -0.7533 -0.1566 -0.7755
  489TMC3    C7 7278   3.666   3.130   0.071 -0.2682 -0.3791  0.1213
  489TMC3    C8 7279   3.402   3.370  17.419 -0.0120 -0.4392  0.1357
  489TMC3    O1 7280   3.675   3.246   0.115  0.4413  0.1660 -0.1911
  489TMC3    O2 7281   3.352   3.362  17.303 -0.4107 -0.5842  0.1372
  490MPD2     C 7282   4.352   2.597   0.284  0.3802  0.4815 -0.5424
  490MPD2    C1 7283   4.362   2.470   0.343  0.0701 -0.0748 -0.6001
  490MPD2    C2 7284   4.432   2.460   0.469  0.8741 -0.7579 -0.2312
  490MPD2    C3 7285   4.480   2.571   0.533 -0.7496  0.0093 -0.4399
  490MPD2    C4 7286   4.471   2.692   0.468  0.8457 -0.1055  0.8446
  490MPD2    C5 7287   4.405   2.707   0.345  0.4159  0.1521 -0.1663
  490MPD2     H 7288   4.445   2.359   0.506 -2.9174 -1.1359  0.0643
  490MPD2    H1 7289   4.517   2.782   0.509  1.7875 -0.2066  0.0079
  490MPD2    H2 7290   4.295   2.616   0.194  1.1780 -0.9350 -1.3611
  490MPD2    H3 7291   4.376   2.806   0.311 -0.7210 -0.0886  0.1031
  490MPD2     N 7292   4.552   2.564   0.650  0.2542  0.1528 -0.5686
  490MPD2    H5 7293   4.579   2.652   0.694 -0.9352  0.4433 -0.4427
  490MPD2    N1 7294   4.325   2.351   0.276  0.6864 -0.2592  0.2252
  490MPD2    H7 7295   4.350   2.264   0.320  0.1309 -0.7678 -0.4544
  491TMC3    C1 7296   4.195   2.220   0.126  1.2425 -0.2104 -0.5115
  491TMC3    C2 7297   4.249   2.107   0.183  0.2225 -0.2590 -0.0851
  491TMC3    C3 7298   4.189   1.988   0.151  0.6596 -0.5946 -0.2379
  491TMC3    C4 7299   4.104   2.216   0.026  0.2551 -0.0537  0.8955
  491TMC3    C5 7300   4.057   2.088  17.681 -0.2125 -0.7303  0.5670
  491TMC3    C6 7301   4.086   1.985   0.071  0.0052 -0.4870 -0.5050
  491TMC3     C 7302   4.265   2.346   0.151  0.2638  0.1778  0.3534
  491TMC3     O 7303   4.241   2.438   0.079  0.3765 -0.4328 -0.2105
  491TMC3     H 7304   4.326   2.119   0.258 -2.3670  3.1916  2.0345
  491TMC3    H1 7305   4.067   2.310  17.673  1.5464 -1.2333 -2.9853
  491TMC3    H2 7306   4.038   1.890   0.051 -0.5846 -1.2031  4.4117
  491TMC3    C7 7307   3.925   2.081  17.620 -1.3534 -0.2725 -0.2341
  491TMC3    C8 7308   4.193   1.881   0.247  0.7392 -0.1894  0.4401
  491TMC3    O1 7309   3.857   1.977  17.635 -0.3792  0.4076  0.6130
  491TMC3    O2 7310   4.084   1.842   0.278  0.3469 -0.3101  0.0140
  492MPD2     C 7311   0.369   2.182  11.442  0.0874  0.4341 -0.3875
  492MPD2    C1 7312   0.239   2.162  11.393 -0.4676  0.4011 -0.8972
  492MPD2    C2 7313   0.146   2.103  11.479  0.3291 -0.0678 -0.1524
  492MPD2    C3 7314   0.177   2.067  11.607  0.0376  0.4539  0.1875
  492MPD2    C4 7315   0.299   2.096  11.660  0.5886 -0.0884 -0.1362
  492MPD2    C5 7316   0.390   2.150  11.574  0.1126 -0.8951 -0.9329
  492MPD2     H 7317   0.052   2.074  11.434  0.2554  0.5425 -0.3913
  492MPD2    H1 7318   0.317   2.088  11.767  0.4153  0.1841 -0.0884
  492MPD2    H2 7319   0.452   2.223  11.385  0.4560 -0.4032 -0.4559
  492MPD2    H3 7320   0.489   2.178  11.606  0.2485 -1.3603 -0.9420
  492MPD2     N 7321   0.078   2.003  11.694 -0.3925 -0.4415  0.1628
  492MPD2    H5 7322   0.100   1.974  11.789 -0.2892 -1.5134 -0.1968
  492MPD2    N1 7323   0.212   2.212  11.263  0.4429 -0.1088  0.0348
  492MPD2    H7 7324   0.295   2.245  11.214  0.7342  0.2487  0.7727
  493TMC3    C1 7325   0.096   2.233  11.058 -0.6113 -0.1713 -0.0481
  493TMC3    C2 7326   0.182   2.335  11.020 -0.1066 -0.7442 -0.1999
  493TMC3    C3 7327   0.172   2.386  10.889 -0.8621  0.0467 -0.4013
  493TMC3    C4 7328   0.002   2.186  10.963 -0.2606  0.0667  0.3517
  493TMC3    C5 7329   0.000   2.240  10.840 -0.5296  0.2020 -0.3341
  493TMC3    C6 7330   0.083   2.339  10.799  0.1015  0.1110  0.1107
  493TMC3     C 7331   0.098   2.180  11.190 -0.9015 -0.1063  0.1968
  493TMC3     O 7332   4.717   2.120  11.227 -0.5414 -0.7110 -0.3066
  493TMC3     H 7333   0.251   2.382  11.090  1.3845  1.6259 -3.2623
  493TMC3    H1 7334   4.649   2.113  10.991 -1.4327  1.7438  1.6024
  493TMC3    H2 7335   0.088   2.381  10.700  1.4728  2.2562  1.0941
  493TMC3    C7 7336   4.625   2.183  10.741 -0.1156  0.3575 -0.2487
  493TMC3    C8 7337   0.284   2.459  10.822 -0.7571  0.3397  0.3303
  493TMC3    O1 7338   4.546   2.102  10.785  0.1165  0.2061  1.0592
  493TMC3    O2 7339   0.393   2.432  10.865  0.5555  0.6268 -0.1715
  494TMC3    C1 7340   0.626   4.462   0.975 -0.8953  0.3566 -0.2168
  494TMC3    C2 7341   0.652   4.341   1.042 -0.6051  0.0994 -0.2415
  494TMC3    C3 7342   0.683   4.233   0.971  0.0421 -0.2620 -0.7744
  494TMC3    C4 7343   0.647   4.475   0.839  0.2164  0.3855  0.3024
  494TMC3    C5 7344   0.690   4.360   0.773  0.5291  1.0004 -0.4158
  494TMC3    C6 7345   0.710   4.240   0.833 -0.2335 -0.2615  0.5176
  494TMC3     C 7346   0.633   4.579   1.052 -0.5865 -0.3708  0.1089
  494TMC3     O 7347   0.688   4.569   1.161 -0.6323 -0.1549  0.2437
  494TMC3     H 7348   0.639   4.331   1.149  2.2170  1.2003  0.2077
  494TMC3    H1 7349   0.643   4.571   0.788  2.5198 -0.4498 -1.4770
  494TMC3    H2 7350   0.728   4.152   0.772  0.6986 -0.5090  1.1595
  494TMC3    C7 7351   0.658   4.346   0.638  0.5069  0.3767 -0.1958
  494TMC3    C8 7352   0.663   4.108   1.037  0.2182 -0.4568 -0.1309
  494TMC3    O1 7353   0.728   4.269   0.579  0.0107 -0.0089 -0.1708
  494TMC3    O2 7354   0.645   4.106   1.158 -0.4891  0.3356  0.1593
  495TMC3    C1 7355   4.023   1.373  14.752 -0.0497  0.6956 -0.8661
  495TMC3    C2 7356   3.923   1.391  14.667  0.6745  0.0653 -0.0365
  495TMC3    C3 7357   3.800   1.424  14.716  0.0677 -0.4136 -0.1442
  495TMC3    C4 7358   4.020   1.419  14.886 -0.0880 -0.4153 -0.4694
  495TMC3    C5 7359   3.895   1.456  14.934  0.0669 -0.2049 -0.2836
  495TMC3    C6 7360   3.782   1.459  14.850 -0.4737  0.4614  0.4234
  495TMC3     C 7361   4.053   1.233  14.763 -0.4292  0.4452  0.3570
  495TMC3     O 7362   3.954   1.167  14.759  0.2274  0.1968  0.4678
  495TMC3     H 7363   3.941   1.339  14.574 -2.0337  0.2098 -0.6280
  495TMC3    H1 7364   4.116   1.423  14.936 -0.9002 -2.4404  1.2522
  495TMC3    H2 7365   3.684   1.485  14.888  0.3289 -0.4318  3.1332
  495TMC3    C7 7366   3.881   1.468  15.077  0.6487 -0.2372 -0.0345
  495TMC3    C8 7367   3.687   1.396  14.623  0.3418 -0.1108 -0.0200
  495TMC3    O1 7368   3.980   1.487  15.143 -0.4478 -0.0498  0.0375
  495TMC3    O2 7369   3.577   1.391  14.670  0.5366 -0.6146  0.0571
  496MPD2     C 7370   0.806   1.314  15.467  0.5166  0.2860  0.0220
  496MPD2    C1 7371   0.849   1.224  15.561 -1.3528 -0.0202 -0.4068
  496MPD2    C2 7372   0.808   1.233  15.692 -0.1628 -0.3748 -0.9684
  496MPD2    C3 7373   0.712   1.323  15.721  0.0587  0.5971 -0.7932
  496MPD2    C4 7374   0.655   1.404  15.628 -0.2789 -0.2615 -0.2297
  496MPD2    C5 7375   0.702   1.400  15.498 -0.2931 -0.0504 -0.2476
  496MPD2     H 7376   0.862   1.175  15.766  1.4335  1.2341 -0.8658
  496MPD2    H1 7377   0.574   1.471  15.653  0.6747  0.7992  0.0225
  496MPD2    H2 7378   0.848   1.305  15.368 -0.3554 -1.9118 -0.1696
  496MPD2    H3 7379   0.656   1.461  15.421 -0.6136 -0.8762 -0.7100
  496MPD2     N 7380   0.680   1.367  15.856 -0.2009  0.7271  0.2279
  496MPD2    H5 7381   0.619   1.447  15.866 -0.6840 -0.0129  3.2098
  496MPD2    N1 7382   0.955   1.142  15.525 -0.0681 -0.0598  0.0210
  496MPD2    H7 7383   1.007   1.153  15.438 -0.5620 -1.0030 -0.3949
  497TMC3    C1 7384   0.694   1.390  16.094  0.0709 -0.0123 -0.0105
  497TMC3    C2 7385   0.590   1.481  16.090 -0.6632 -0.3378  0.1830
  497TMC3    C3 7386   0.525   1.521  16.204 -0.1681 -0.0896 -0.0863
  497TMC3    C4 7387   0.741   1.343  16.210 -0.3868  0.2767  0.7794
  497TMC3    C5 7388   0.673   1.384  16.323  0.5151  0.2815  0.0735
  497TMC3    C6 7389   0.562   1.465  16.322 -0.6108 -1.0195 -0.2359
  497TMC3     C 7390   0.738   1.322  15.970 -0.0854 -0.1990  0.2233
  497TMC3     O 7391   0.814   1.229  15.984  0.5534 -0.2015 -0.0223
  497TMC3     H 7392   0.558   1.526  15.997  0.0050  3.7295  1.9025
  497TMC3    H1 7393   0.821   1.271  16.216 -0.0387  0.7957  2.2878
  497TMC3    H2 7394   0.523   1.490  16.420 -1.6006 -2.2738 -0.3069
  497TMC3    C7 7395   0.694   1.312  16.445  0.4740 -0.2132  0.1552
  497TMC3    C8 7396   0.453   1.649  16.202  0.3666  0.0300 -0.0250
  497TMC3    O1 7397   0.596   1.283  16.515 -0.2358  0.8847  0.1783
  497TMC3    O2 7398   0.470   1.723  16.104  0.5989  0.4079 -0.4269
  498MPD2     C 7399   2.128   1.860  10.731 -0.3760 -0.3638  0.1164
  498MPD2    C1 7400   2.067   1.794  10.626  0.4751  0.4434  0.4383
  498MPD2    C2 7401   1.954   1.725  10.656  0.4130 -0.2170 -0.2871
  498MPD2    C3 7402   1.900   1.710  10.783 -0.2324  0.1345  0.5447
  498MPD2    C4 7403   1.964   1.774  10.889  0.2115 -0.1572  0.6861
  498MPD2    C5 7404   2.072   1.856  10.857 -0.6172 -0.1254 -0.5120
  498MPD2     H 7405   1.911   1.673  10.571 -0.8514 -1.7743  1.3184
  498MPD2    H1 7406   1.940   1.765  10.994 -0.0017  1.5617  0.7819
  498MPD2    H2 7407   2.230   1.894  10.717 -0.4197 -0.9140 -1.5244
  498MPD2    H3 7408   2.124   1.905  10.938  0.1999  0.9098 -1.6637
  498MPD2     N 7409   1.787   1.624  10.802  0.0958 -0.3309 -0.5480
  498MPD2    H5 7410   1.755   1.565  10.726 -1.6029  0.4152 -0.4023
  498MPD2    N1 7411   2.121   1.782  10.493  0.0068  0.0749  0.2031
  498MPD2    H7 7412   2.069   1.723  10.430  1.9478 -3.5461  1.9957
  499TMC3    C1 7413   2.275   1.775  10.325  0.3205 -0.5503  0.2440
  499TMC3    C2 7414   2.214   1.663  10.281 -0.5185  0.2576 -0.4975
  499TMC3    C3 7415   2.257   1.606  10.168 -0.0218  0.3405 -0.0385
  499TMC3    C4 7416   2.384   1.830  10.257 -0.0643  0.1067 -0.2915
  499TMC3    C5 7417   2.407   1.781  10.136  0.1358 -0.1465  0.0336
  499TMC3    C6 7418   2.354   1.660  10.091  0.1031 -0.9624  0.2706
  499TMC3     C 7419   2.237   1.833  10.451  0.7088 -0.4846  0.2605
  499TMC3     O 7420   2.309   1.923  10.499  1.3786 -0.0459 -0.4925
  499TMC3     H 7421   2.140   1.607  10.338 -1.2198  1.9711  0.3031
  499TMC3    H1 7422   2.430   1.916  10.306  0.9685 -0.0781 -0.9210
  499TMC3    H2 7423   2.399   1.603  10.010 -0.3777 -0.0238 -0.6609
  499TMC3    C7 7424   2.499   1.854  10.053 -0.6801 -0.0525 -0.0829
  499TMC3    C8 7425   2.230   1.467  10.150 -0.4141 -0.4341  0.5104
  499TMC3    O1 7426   2.536   1.960  10.096 -0.1471  0.1896 -0.2485
  499TMC3    O2 7427   2.316   1.391  10.116 -0.2562  0.2716 -0.3607
  500MPD2     C 7428   3.852   3.022  10.780  0.4856 -0.3470 -0.0573
  500MPD2    C1 7429   3.869   3.107  10.670 -0.1168  0.6406 -0.6827
  500MPD2    C2 7430   3.774   3.112  10.570 -0.5148 -0.6323  0.4743
  500MPD2    C3 7431   3.654   3.039  10.579 -0.2135  0.0877 -0.5815
  500MPD2    C4 7432   3.639   2.957  10.686  0.3430 -0.1505  0.0389
  500MPD2    C5 7433   3.741   2.939  10.776 -0.2897  0.3559  0.5931
  500MPD2     H 7434   3.800   3.180  10.489 -2.9812  0.2169  0.4099
  500MPD2    H1 7435   3.555   2.889  10.695  0.8540 -0.7074  0.6055
  500MPD2    H2 7436   3.931   3.006  10.853  3.4238 -1.0989 -3.3968
  500MPD2    H3 7437   3.739   2.855  10.844 -0.5136  0.0287  0.1819
  500MPD2     N 7438   3.544   3.056  10.489  0.2571  0.1979 -0.1881
  500MPD2    H5 7439   3.455   3.011  10.510  0.2302  1.3746  2.2675
  500MPD2    N1 7440   3.986   3.184  10.652  0.1294 -0.3691 -0.1149
  500MPD2    H7 7441   3.982   3.259  10.584  1.8346  1.0417  1.3582
  501TMC3    C1 7442   4.206   3.246  10.682 -0.2305  0.1350 -0.2716
  501TMC3    C2 7443   4.167   3.374  10.640 -0.2329  0.0359 -0.6004
  501TMC3    C3 7444   4.269   3.461  10.617 -0.3764 -0.9370 -0.0462
  501TMC3    C4 7445   4.338   3.206  10.703 -0.1517  0.3961 -0.3692
  501TMC3    C5 7446   4.436   3.297  10.666  0.3570 -0.2205  0.0518
  501TMC3    C6 7447   4.404   3.428  10.630  0.3182 -0.6387  1.0472
  501TMC3     C 7448   4.099   3.155  10.718  1.0177 -0.2431 -0.5430
  501TMC3     O 7449   4.137   3.055  10.777 -0.1469  0.3874  0.6697
  501TMC3     H 7450   4.068   3.415  10.654  0.6113  1.1778  1.9066
  501TMC3    H1 7451   4.365   3.104  10.730 -3.1954  0.6331  3.3322
  501TMC3    H2 7452   4.480   3.499  10.599  0.0714  0.0981  2.1461
  501TMC3    C7 7453   4.568   3.260  10.702  0.2531  0.4611  0.3348
  501TMC3    C8 7454   4.242   3.604  10.618  0.0792 -0.6194 -0.7893
  501TMC3    O1 7455   4.593   3.142  10.693 -0.0422 -0.1563 -0.8451
  501TMC3    O2 7456   4.331   3.670  10.667 -0.0428 -0.9508  0.2459
  502TMC3    C1 7457   2.848   1.919  15.379 -0.3758 -0.4451  0.5280
  502TMC3    C2 7458   2.882   1.956  15.256  0.2821  0.2578 -0.0205
  502TMC3    C3 7459   2.806   2.056  15.198  0.1245  0.8119  0.5489
  502TMC3    C4 7460   2.732   1.956  15.440 -0.3675 -0.5153  0.1613
  502TMC3    C5 7461   2.653   2.049  15.379  0.9263 -0.1580  0.6411
  502TMC3    C6 7462   2.697   2.111  15.260 -0.9073 -0.3927  0.1817
  502TMC3     C 7463   2.941   1.844  15.461  0.7800 -0.0490  0.0979
  502TMC3     O 7464   3.033   1.784  15.400  0.2944  0.6180  0.0908
  502TMC3     H 7465   2.986   1.952  15.223  0.0231 -1.4224 -0.6304
  502TMC3    H1 7466   2.696   1.899  15.525  0.1269 -1.0507  0.0106
  502TMC3    H2 7467   2.648   2.197  15.217 -0.7324 -0.7756 -0.7735
  502TMC3    C7 7468   2.535   2.091  15.445  0.2470 -0.3907  0.5709
  502TMC3    C8 7469   2.873   2.147  15.107 -0.2833  0.4599  0.1867
  502TMC3    O1 7470   2.509   2.035  15.554 -0.1578  0.4965 -0.4263
  502TMC3    O2 7471   2.833   2.262  15.102 -0.3435 -0.3883 -0.2471
  503MPD2     C 7472   0.549   2.955  17.464 -1.0394  0.3397  0.6058
  503MPD2    C1 7473   0.672   2.995  17.510  0.0358 -0.3523  0.4783
  503MPD2    C2 7474   0.761   2.901  17.560 -0.3356 -0.7512 -0.0290
  503MPD2    C3 7475   0.731   2.764  17.561 -0.0296  0.3654 -0.3376
  503MPD2    C4 7476   0.601   2.732  17.526 -0.0900  0.2283  0.1596
  503MPD2    C5 7477   0.514   2.823  17.473 -0.1501 -0.3277 -0.0795
  503MPD2     H 7478   0.858   2.942  17.590 -0.1434  0.4400 -2.3310
  503MPD2    H1 7479   0.565   2.629  17.532 -1.0483  0.5213 -0.6304
  503MPD2    H2 7480   0.474   3.025  17.429 -0.7902  1.0948  1.5692
  503MPD2    H3 7481   0.416   2.790  17.439  0.3973 -1.1209 -0.8684
  503MPD2     N 7482   0.823   2.663  17.602  0.5414 -0.3928  0.7418
  503MPD2    H5 7483   0.790   2.567  17.603 -1.0518  0.1409 -0.4881
  503MPD2    N1 7484   0.718   3.129  17.516  0.1435  0.4775 -0.4103
  503MPD2    H7 7485   0.806   3.146  17.563 -0.1230  0.8737 -0.0519
  504TMC3    C1 7486   0.999   2.563   0.028 -0.5598  0.4029  0.0509
  504TMC3    C2 7487   0.984   2.541   0.162 -0.7719 -0.0545  0.0749
  504TMC3    C3 7488   1.091   2.510   0.235  0.3250  0.2124 -0.1078
  504TMC3    C4 7489   1.127   2.548  17.662 -0.0582 -0.3214  0.0813
  504TMC3    C5 7490   1.228   2.499   0.049  0.3100 -0.1569  0.1677
  504TMC3    C6 7491   1.212   2.481   0.182 -0.4514  0.1907 -0.0493
  504TMC3     C 7492   0.947   2.685  17.661 -0.0024 -0.6374 -0.1233
  504TMC3     O 7493   1.001   2.791  17.682 -0.3952  0.2479  0.2685
  504TMC3     H 7494   0.895   2.585   0.208 -2.3638 -1.7290 -1.4153
  504TMC3    H1 7495   1.140   2.569  17.556  1.3505  1.1641  0.5517
  504TMC3    H2 7496   1.296   2.445   0.240 -0.7552 -1.8419 -0.8617
  504TMC3    C7 7497   1.346   2.448  17.667  0.1811  0.2234  0.2716
  504TMC3    C8 7498   1.065   2.439   0.355  0.6993 -0.8498 -0.1946
  504TMC3    O1 7499   1.384   2.505  17.566 -0.1461 -0.0420  0.5299
  504TMC3    O2 7500   0.968   2.371   0.360 -0.1375  0.5440 -0.2894
  505MPD2     C 7501   1.031   1.281  10.025 -0.1600 -0.1580  0.2832
  505MPD2    C1 7502   0.962   1.185  10.087 -0.2243  0.3645  0.3090
  505MPD2    C2 7503   0.858   1.221  10.178 -0.2857 -0.3000 -0.0714
  505MPD2    C3 7504   0.837   1.359  10.208 -0.3397 -0.6658 -1.1126
  505MPD2    C4 7505   0.911   1.449  10.147 -0.0281 -0.6790 -0.3254
  505MPD2    C5 7506   1.004   1.415  10.054  0.6688  0.5569  0.1272
  505MPD2     H 7507   0.800   1.146  10.231 -0.4774  0.9202  1.4543
  505MPD2    H1 7508   0.897   1.556  10.163  1.1244 -0.4680 -0.6779
  505MPD2    H2 7509   1.119   1.271   9.962 -1.9735 -0.7250 -2.1329
  505MPD2    H3 7510   1.065   1.492  10.007  1.0452  0.1398 -0.0681
  505MPD2     N 7511   0.757   1.402  10.313 -0.7644  0.3341  0.3987
  505MPD2    H5 7512   0.758   1.501  10.334 -3.9820  0.3288  0.5461
  505MPD2    N1 7513   0.995   1.051  10.054  0.6133 -0.7950 -0.3646
  505MPD2    H7 7514   1.080   1.042  10.000  1.3124 -0.0893  0.6173
  506TMC3    C1 7515   1.006   0.817  10.091 -0.1836 -0.0020  0.5967
  506TMC3    C2 7516   1.128   0.835  10.147 -0.3020 -0.3268 -0.4155
  506TMC3    C3 7517   1.183   0.722  10.198 -0.6521 -0.0965 -0.1171
  506TMC3    C4 7518   0.926   0.713  10.128  0.1998  0.0551 -0.0292
  506TMC3    C5 7519   0.974   0.616  10.211  0.6494 -0.1506 -0.5464
  506TMC3    C6 7520   1.114   0.609  10.223  0.0077 -0.1346 -0.3737
  506TMC3     C 7521   0.926   0.940  10.091  0.2775  0.1928  1.5381
  506TMC3     O 7522   0.819   0.933  10.152 -0.3782  0.0265  0.1470
  506TMC3     H 7523   1.190   0.922  10.125 -1.9494  1.0410  0.3856
  506TMC3    H1 7524   0.824   0.701  10.094  0.1654  1.6522 -0.4955
  506TMC3    H2 7525   1.167   0.529  10.275 -2.5091 -2.1732 -0.9475
  506TMC3    C7 7526   0.907   0.611  10.342 -1.0863  0.0573  0.6726
  506TMC3    C8 7527   1.309   0.727  10.269  0.0991 -0.1711  1.0629
  506TMC3    O1 7528   0.944   0.528  10.426 -0.1099 -0.1439  0.3639
  506TMC3    O2 7529   1.372   0.624  10.283 -0.2758  0.5447  0.1389
  507TMC3    C1 7530   1.944   2.292  14.312 -0.6000  1.1015  0.0722
  507TMC3    C2 7531   1.911   2.200  14.217  0.8771  0.5637 -0.7033
  507TMC3    C3 7532   1.972   2.208  14.089  0.4048  0.0831 -0.2263
  507TMC3    C4 7533   2.018   2.398  14.279  0.7724  0.0022  0.1983
  507TMC3    C5 7534   2.062   2.428  14.154 -0.8818  0.3707  0.0287
  507TMC3    C6 7535   2.049   2.326  14.061  0.4106  0.0115 -0.7486
  507TMC3     C 7536   1.824   2.327  14.397  0.8120 -0.1681 -0.3625
  507TMC3     O 7537   1.738   2.240  14.410  0.4503 -0.0490 -0.2672
  507TMC3     H 7538   1.848   2.117  14.245  1.4297  0.2537 -0.3794
  507TMC3    H1 7539   2.035   2.475  14.354 -0.1324  0.0473  0.3557
  507TMC3    H2 7540   2.076   2.343  13.958  1.6327 -0.0784 -0.4463
  507TMC3    C7 7541   2.005   2.549  14.102  0.5485 -0.7629 -0.5539
  507TMC3    C8 7542   1.888   2.174  13.979  0.4081 -0.4263 -0.4216
  507TMC3    O1 7543   1.939   2.537  13.996 -0.0434  0.0721 -0.1684
  507TMC3    O2 7544   1.931   2.163  13.869  0.3954 -0.3857 -0.6472
  508MPD2     C 7545   2.459   4.648  16.317 -0.4392  0.2190  0.3705
  508MPD2    C1 7546   2.594   4.654  16.292  0.3655  0.0049  0.4489
  508MPD2    C2 7547   2.642   4.651  16.161 -0.0445  0.2986  0.3471
  508MPD2    C3 7548   2.553   4.637  16.053  0.0634  0.2276  0.5388
  508MPD2    C4 7549   2.419   4.627  16.079  0.2264 -0.6363  0.0562
  508MPD2    C5 7550   2.381   4.631  16.206 -0.1584 -0.0309 -0.8906
  508MPD2     H 7551   2.749   4.658  16.150 -0.1634  0.7469 -0.5170
  508MPD2    H1 7552   2.343   4.619  16.003  0.2401 -0.1835 -0.0069
  508MPD2    H2 7553   2.415   4.665  16.415  0.0457 -0.0521  0.6356
  508MPD2    H3 7554   2.273   4.627  16.218 -0.1084 -2.1382 -1.2722
  508MPD2     N 7555   2.607   4.639  15.920  0.0895 -0.1705 -0.5969
  508MPD2    H5 7556   2.702   4.674  15.914  0.3260 -0.6030  0.6819
  508MPD2    N1 7557   2.673   4.671  16.409  0.5141 -0.4227  0.8000
  508MPD2    H7 7558   2.613   4.681  16.491 -0.1810  2.1049 -0.0006
  509TMC3    C1 7559   2.505   0.245  15.649 -0.4897 -0.1404 -0.2926
  509TMC3    C2 7560   2.634   0.295  15.672 -0.0964 -0.2292 -0.6062
  509TMC3    C3 7561   2.734   0.216  15.704 -0.4337 -0.0392  0.2289
  509TMC3    C4 7562   2.473   0.118  15.672  0.1689 -0.3806 -0.3448
  509TMC3    C5 7563   2.576   0.034  15.713  0.4919  0.3701 -0.1601
  509TMC3    C6 7564   2.704   0.088  15.738 -0.7385 -0.6466  0.1557
  509TMC3     C 7565   2.400   0.345  15.642 -0.2673 -0.4599  0.8173
  509TMC3     O 7566   2.305   0.314  15.715 -0.1607  0.0539  0.5073
  509TMC3     H 7567   2.658   0.398  15.645 -1.1604 -0.2467 -1.6421
  509TMC3    H1 7568   2.376   0.071  15.658  0.3776 -0.0025 -3.0083
  509TMC3    H2 7569   2.785   0.022  15.768  0.6233  1.2288  0.5967
  509TMC3    C7 7570   2.525   4.659  15.808  0.7429  0.0466  0.2834
  509TMC3    C8 7571   2.821   0.271  15.804  0.0767 -0.4489  0.3782
  509TMC3    O1 7572   2.412   4.616  15.783 -0.2989  0.2328 -0.4205
  509TMC3    O2 7573   2.881   0.194  15.874 -0.3156  0.1873  0.0600
  510MPD2     C 7574   0.652   1.697  14.365  0.5986  0.0601 -0.3583
  510MPD2    C1 7575   0.698   1.719  14.494 -0.6801  0.1695  0.5358
  510MPD2    C2 7576   0.833   1.739  14.508 -0.2452  0.3156 -0.6619
  510MPD2    C3 7577   0.920   1.752  14.402  0.1918  0.0685  0.4999
  510MPD2    C4 7578   0.871   1.753  14.272  0.3549 -0.2977  0.6775
  510MPD2    C5 7579   0.733   1.727  14.258 -0.3869  0.4731  0.0134
  510MPD2     H 7580   0.871   1.728  14.609 -1.1281 -3.2769 -0.6978
  510MPD2    H1 7581   0.932   1.781  14.187  2.5280  1.1023  2.6920
  510MPD2    H2 7582   0.546   1.705  14.347  0.6831  0.8417 -0.5152
  510MPD2    H3 7583   0.694   1.708  14.159  0.5333  1.7987 -0.5959
  510MPD2     N 7584   1.059   1.770  14.427  0.6240 -0.5518  0.0275
  510MPD2    H5 7585   1.089   1.778  14.524 -3.2144 -0.4190  1.1880
  510MPD2    N1 7586   0.607   1.708  14.599  0.3201 -0.0630 -0.3765
  510MPD2    H7 7587   0.532   1.645  14.574  0.3482 -0.5353  0.7242
  511TMC3    C1 7588   0.557   1.682  14.831  0.4305  0.0095 -0.0664
  511TMC3    C2 7589   0.548   1.741  14.953 -0.0598 -0.7175 -0.5046
  511TMC3    C3 7590   0.501   1.667  15.053 -0.1159  0.0680  0.4425
  511TMC3    C4 7591   0.518   1.550  14.801 -0.4080  0.5632 -0.0929
  511TMC3    C5 7592   0.474   1.481  14.904 -0.4096 -0.2226 -0.7171
  511TMC3    C6 7593   0.453   1.541  15.028 -0.0274  0.0033  0.3001
  511TMC3     C 7594   0.621   1.756  14.727 -0.2676 -0.4924  0.2426
  511TMC3     O 7595   0.683   1.852  14.765  0.0885 -0.2950 -0.0804
  511TMC3     H 7596   0.568   1.845  14.975  0.1709 -0.8219 -0.2178
  511TMC3    H1 7597   0.549   1.501  14.709 -1.8648 -0.2328 -0.1615
  511TMC3    H2 7598   0.412   1.480  15.107  2.1934 -1.6994  0.1618
  511TMC3    C7 7599   0.433   1.339  14.885  0.1759 -0.7051  0.1476
  511TMC3    C8 7600   0.455   1.736  15.167  1.2742  0.0290  0.1589
  511TMC3    O1 7601   0.445   1.300  14.773  0.0169 -0.3123 -0.3352
  511TMC3    O2 7602   0.433   1.858  15.164  0.0536 -0.0500  0.3772
  512TMC3    C1 7603   3.949   0.508  14.276 -0.1836  0.1278  0.3838
  512TMC3    C2 7604   4.081   0.502  14.312  0.9398  0.0287 -0.3696
  512TMC3    C3 7605   4.172   0.452  14.223  0.4110 -0.5265  0.2456
  512TMC3    C4 7606   3.909   0.465  14.157  0.1214 -0.6909 -0.2513
  512TMC3    C5 7607   4.005   0.413  14.072  0.0515 -0.2940 -0.3209
  512TMC3    C6 7608   4.138   0.408  14.102  0.4450  0.4877 -0.2135
  512TMC3     C 7609   3.846   0.523  14.375  0.4115 -0.1758 -0.0277
  512TMC3     O 7610   3.739   0.464  14.359 -0.0735  0.1423  0.1934
  512TMC3     H 7611   4.111   0.541  14.409  1.6352 -1.5100  0.0425
  512TMC3    H1 7612   3.804   0.453  14.132 -0.3083  1.5572  0.5225
  512TMC3    H2 7613   4.216   0.384  14.030  1.2261  0.9684  0.4774
  512TMC3    C7 7614   3.954   0.371  13.939 -0.7839 -0.8343  0.4619
  512TMC3    C8 7615   4.310   0.479  14.249  0.1056 -0.5821 -0.2791
  512TMC3    O1 7616   3.853   0.427  13.919 -0.2663  0.0888 -0.0766
  512TMC3    O2 7617   4.341   0.462  14.367  0.2398  0.1707  0.7263
  513MPD2     C 7618   1.122   0.415  13.143  1.1775  0.5339 -0.1093
  513MPD2    C1 7619   1.189   0.528  13.094  0.2565 -0.3025  0.4494
  513MPD2    C2 7620   1.269   0.607  13.179 -0.2657 -0.3852 -0.2532
  513MPD2    C3 7621   1.270   0.583  13.318 -0.4373 -0.0087  0.0370
  513MPD2    C4 7622   1.196   0.474  13.364  1.2012 -0.0620  0.3884
  513MPD2    C5 7623   1.124   0.398  13.274  0.1791  0.2717 -0.7870
  513MPD2     H 7624   1.320   0.697  13.148 -0.4505 -0.5350 -1.0015
  513MPD2    H1 7625   1.189   0.449  13.470  0.0060  1.3107  0.6362
  513MPD2    H2 7626   1.065   0.347  13.081  0.1429  2.1427 -0.9028
  513MPD2    H3 7627   1.066   0.319  13.320 -0.2518  2.3739  2.2641
  513MPD2     N 7628   1.337   0.674  13.405  0.3041  0.1633  0.0320
  513MPD2    H5 7629   1.376   0.758  13.363 -0.1360 -0.4667 -1.6072
  513MPD2    N1 7630   1.176   0.554  12.953  0.2461 -0.3734  0.2380
  513MPD2    H7 7631   1.143   0.476  12.898 -0.8519  1.9326 -2.3594
  514TMC3    C1 7632   1.246   0.662  12.755  0.0193 -0.6365 -0.2795
  514TMC3    C2 7633   1.234   0.532  12.701  0.5512  0.2521  0.5158
  514TMC3    C3 7634   1.328   0.491  12.609  0.4195  0.4485  0.2626
  514TMC3    C4 7635   1.348   0.743  12.716 -0.0324 -0.2464  0.0529
  514TMC3    C5 7636   1.451   0.694  12.637 -0.1537 -1.0533  0.1566
  514TMC3    C6 7637   1.431   0.574  12.573  0.3449 -0.3089  0.1507
  514TMC3     C 7638   1.243   0.664  12.897  0.5414  0.3122  0.2134
  514TMC3     O 7639   1.314   0.752  12.942 -0.0397 -0.1577 -0.3236
  514TMC3     H 7640   1.144   0.474  12.715  0.7087 -0.0009  0.4721
  514TMC3    H1 7641   1.347   0.849  12.738 -0.3142 -0.4457  0.9957
  514TMC3    H2 7642   1.502   0.547  12.496 -0.6651 -1.5225 -0.3493
  514TMC3    C7 7643   1.576   0.686  12.696 -0.4672  1.0736 -0.1465
  514TMC3    C8 7644   1.291   0.383  12.521 -0.1376 -0.7727 -0.1626
  514TMC3    O1 7645   1.665   0.625  12.642  0.7647  0.7199  0.1056
  514TMC3    O2 7646   1.221   0.294  12.572 -0.2068 -0.0246  0.3986
  515MPD2     C 7647   4.244   2.373  15.109 -0.5896 -0.3806  0.5133
  515MPD2    C1 7648   4.272   2.410  14.986 -1.1283  0.2041 -0.4382
  515MPD2    C2 7649   4.341   2.529  14.957  0.1993  0.3115 -0.1707
  515MPD2    C3 7650   4.381   2.612  15.065 -0.1003 -0.7621  0.2525
  515MPD2    C4 7651   4.351   2.562  15.191  0.4880  1.0242 -0.2603
  515MPD2    C5 7652   4.289   2.444  15.219 -0.4733  0.4348  0.3034
  515MPD2     H 7653   4.363   2.550  14.853 -2.6555  1.2713 -0.5812
  515MPD2    H1 7654   4.377   2.628  15.273 -0.1280 -0.8043  1.3886
  515MPD2    H2 7655   4.205   2.275  15.137 -1.4043  0.4051  2.1456
  515MPD2    H3 7656   4.255   2.422  15.320  0.9275  1.9390  1.1196
  515MPD2     N 7657   4.450   2.735  15.054  0.2811 -0.0986  0.2567
  515MPD2    H5 7658   4.476   2.783  15.140 -2.3136 -0.9145  1.5052
  515MPD2    N1 7659   4.234   2.332  14.872 -0.3653  0.6198 -0.2078
  515MPD2    H7 7660   4.261   2.364  14.780  1.7819 -0.9859 -0.1412
  516TMC3    C1 7661   4.131   2.162  14.749  0.1473  0.1238  0.2610
  516TMC3    C2 7662   4.078   2.251  14.661 -0.0589  0.5172 -0.4010
  516TMC3    C3 7663   3.994   2.198  14.561  0.5798 -0.4622 -0.2580
  516TMC3    C4 7664   4.112   2.027  14.739  0.1039  0.1002 -0.9405
  516TMC3    C5 7665   4.023   1.976  14.648  0.7508 -0.5995  0.2237
  516TMC3    C6 7666   3.951   2.071  14.575  0.3152  0.0566 -0.7339
  516TMC3     C 7667   4.189   2.201  14.878  0.2992  0.2876 -0.7592
  516TMC3     O 7668   4.194   2.120  14.968  0.4988 -0.0314 -0.0095
  516TMC3     H 7669   4.099   2.356  14.676 -2.6477  1.1200 -0.8374
  516TMC3    H1 7670   4.157   1.970  14.819  1.4541 -1.4633 -2.8222
  516TMC3    H2 7671   3.885   2.033  14.498  2.1246 -3.2223 -0.6911
  516TMC3    C7 7672   3.945   1.866  14.702  0.6125  0.5767  0.2876
  516TMC3    C8 7673   3.958   2.284  14.452  0.6141  0.1437 -0.4743
  516TMC3    O1 7674   4.012   1.779  14.756  0.1434  0.0600 -0.0270
  516TMC3    O2 7675   3.873   2.249  14.372 -0.3473 -0.2242  0.3614
  517MPD2     C 7676   3.763   4.343   0.432 -0.5547 -0.7459 -0.1039
  517MPD2    C1 7677   3.890   4.324   0.454 -0.8267  0.2315 -0.3943
  517MPD2    C2 7678   3.967   4.408   0.543 -0.4991  0.0763  0.3098
  517MPD2    C3 7679   3.900   4.507   0.613 -0.3463 -0.3564 -0.3685
  517MPD2    C4 7680   3.768   4.528   0.583 -0.1484  0.1717  0.3026
  517MPD2    C5 7681   3.702   4.452   0.494 -0.4513  0.2080  0.6375
  517MPD2     H 7682   4.073   4.392   0.559 -0.2409  2.5841  1.0245
  517MPD2    H1 7683   3.711   4.601   0.640 -0.3630 -0.0076  0.3159
  517MPD2    H2 7684   3.705   4.274   0.372  1.0946 -1.9408 -0.3072
  517MPD2    H3 7685   3.596   4.473   0.488 -0.1290  1.6428 -0.2051
  517MPD2     N 7686   3.965   4.602   0.700  0.7702  0.2544 -0.2328
  517MPD2    H5 7687   3.902   4.675   0.734  1.4571  1.1272 -0.8246
  517MPD2    N1 7688   3.966   4.221   0.386 -0.4198 -0.0008  0.0291
  517MPD2    H7 7689   4.066   4.218   0.402 -0.4264 -0.3666  0.0010
  518TMC3    C1 7690   4.017   4.023   0.277  0.4578  0.5929  0.5672
  518TMC3    C2 7691   3.973   3.896   0.247 -0.3538 -0.3933  0.5079
  518TMC3    C3 7692   4.056   3.791   0.243  0.0091  0.4255 -0.2337
  518TMC3    C4 7693   4.152   4.048   0.288 -0.4580 -0.2129  0.0309
  518TMC3    C5 7694   4.229   3.939   0.289  0.3136 -0.3829  0.2522
  518TMC3    C6 7695   4.188   3.813   0.267 -0.6044  0.3453 -0.0653
  518TMC3     C 7696   3.916   4.120   0.312 -0.2455  0.1990  0.4387
  518TMC3     O 7697   3.799   4.095   0.272  0.7552  0.4741  0.3377
  518TMC3     H 7698   3.867   3.884   0.232 -0.6055  0.2043  1.8399
  518TMC3    H1 7699   4.187   4.151   0.285 -0.9670  0.0028  1.5340
  518TMC3    H2 7700   4.256   3.731   0.281  2.0675  2.6365  0.4524
  518TMC3    C7 7701   4.362   3.959   0.232 -0.2015  0.1839  0.1421
  518TMC3    C8 7702   4.035   3.673   0.157  0.5457  0.0561 -0.1681
  518TMC3    O1 7703   4.408   4.072   0.249 -0.6121 -0.0391 -0.0485
  518TMC3    O2 7704   4.124   3.589   0.164  0.5840 -0.0024  0.3864
  519MPD2     C 7705   0.639   2.577  14.568  0.2886  0.2274  0.3790
  519MPD2    C1 7706   0.623   2.571  14.429 -0.5162  0.7933  0.3795
  519MPD2    C2 7707   0.699   2.490  14.349  0.5051  0.0818 -0.1330
  519MPD2    C3 7708   0.814   2.434  14.401  0.6761  0.0102 -0.0825
  519MPD2    C4 7709   0.833   2.449  14.537 -0.6386  0.0162 -1.1631
  519MPD2    C5 7710   0.749   2.510  14.619 -0.5158 -0.4781 -0.5713
  519MPD2     H 7711   0.679   2.484  14.242 -0.2573  1.0879 -0.0440
  519MPD2    H1 7712   0.919   2.403  14.584 -0.9521  0.4718 -0.1400
  519MPD2    H2 7713   0.577   2.636  14.635 -0.8928  1.1592 -1.5514
  519MPD2    H3 7714   0.770   2.524  14.725  2.0435  1.0462 -1.2866
  519MPD2     N 7715   0.906   2.349  14.327 -0.0763 -0.4782  0.3887
  519MPD2    H5 7716   0.984   2.310  14.378  0.1142 -2.6391 -1.5203
  519MPD2    N1 7717   0.506   2.640  14.385 -0.0392  0.2227 -0.4528
  519MPD2    H7 7718   0.448   2.690  14.451 -1.1645 -0.1442 -1.1523
  520TMC3    C1 7719   0.965   2.184  14.155 -0.5845  0.2644  0.5463
  520TMC3    C2 7720   0.895   2.107  14.071 -0.4447 -0.0670 -0.4433
  520TMC3    C3 7721   0.963   2.014  13.991  0.2234  0.0392 -0.0634
  520TMC3    C4 7722   1.103   2.192  14.154 -0.8713  0.0742  0.5492
  520TMC3    C5 7723   1.169   2.098  14.070  0.3714  0.1454 -0.4664
  520TMC3    C6 7724   1.101   2.010  13.992 -0.0676 -0.3913  0.0308
  520TMC3     C 7725   0.878   2.297  14.204 -0.3040 -0.2126 -0.0873
  520TMC3     O 7726   0.795   2.345  14.126  0.0011  0.1932 -0.2890
  520TMC3     H 7727   0.788   2.121  14.071 -0.5473 -0.7181  2.3660
  520TMC3    H1 7728   1.154   2.249  14.231 -0.5189  0.0076  0.3639
  520TMC3    H2 7729   1.154   1.943  13.925 -0.1679 -0.3809 -0.0593
  520TMC3    C7 7730   1.312   2.065  14.093 -0.3838  0.3552  0.5222
  520TMC3    C8 7731   0.890   1.914  13.904 -0.6908 -0.1891  0.9631
  520TMC3    O1 7732   1.362   2.097  14.198 -0.1082 -0.6058  0.0973
  520TMC3    O2 7733   0.968   1.828  13.858  0.1494  1.1401 -0.5599
  521MPD2     C 7734   1.674   0.920  17.631  0.3876 -0.8377 -0.1492
  521MPD2    C1 7735   1.609   0.809  17.597  0.5348  0.5910 -0.0556
  521MPD2    C2 7736   1.669   0.717  17.519  0.2844 -0.1872 -0.0315
  521MPD2    C3 7737   1.795   0.739  17.475  0.3423 -0.3459 -0.0338
  521MPD2    C4 7738   1.866   0.850  17.506  0.2108 -0.2206 -0.3287
  521MPD2    C5 7739   1.802   0.936  17.584 -0.0222  0.3318  0.2899
  521MPD2     H 7740   1.614   0.626  17.497 -0.5133  0.3698 -0.3296
  521MPD2    H1 7741   1.969   0.874  17.484  0.6478 -0.6948  1.1842
  521MPD2    H2 7742   1.633   0.995   0.012 -1.1712 -0.7133 -1.2179
  521MPD2    H3 7743   1.861   1.022  17.613  0.7470  0.3941 -1.4666
  521MPD2     N 7744   1.854   0.633  17.403 -0.5245  0.0183  1.1780
  521MPD2    H5 7745   1.785   0.567  17.369 -2.2818  1.6004  1.6494
  521MPD2    N1 7746   1.476   0.796  17.631 -0.2014  0.0522  0.1746
  521MPD2    H7 7747   1.436   0.877  17.678  1.2211  0.2522  1.0483
  522TMC3    C1 7748   2.023   0.494  17.311 -0.2118 -0.2462 -0.8957
  522TMC3    C2 7749   2.149   0.455  17.330  0.2348  0.1330 -0.0077
  522TMC3    C3 7750   2.195   0.344  17.261 -0.3807  0.1755  0.5739
  522TMC3    C4 7751   1.937   0.429  17.232  0.1117  0.3841  0.2522
  522TMC3    C5 7752   1.981   0.315  17.169 -0.4031 -0.4132  0.0470
  522TMC3    C6 7753   2.112   0.270  17.177  0.3236  0.5810 -0.3489
  522TMC3     C 7754   1.986   0.621  17.373 -0.0167 -0.3977 -0.6048
  522TMC3     O 7755   2.080   0.691  17.415 -0.4616  0.3057 -0.0706
  522TMC3     H 7756   2.217   0.514  17.391  0.8250 -1.3412  0.7784
  522TMC3    H1 7757   1.850   0.486  17.200  1.4228  0.8890 -2.3544
  522TMC3    H2 7758   2.145   0.177  17.131  0.3211  0.2620  0.2999
  522TMC3    C7 7759   1.885   0.226  17.114 -0.3480 -0.0599 -0.7476
  522TMC3    C8 7760   2.322   0.291  17.315  0.5450 -0.1694  0.2952
  522TMC3    O1 7761   1.928   0.126  17.065 -0.0267  0.6699 -0.7208
  522TMC3    O2 7762   2.355   0.331  17.427  0.2816 -0.3891 -0.0289
  523MPD2     C 7763   3.861   0.043  10.345  0.8644 -0.7327  0.5334
  523MPD2    C1 7764   3.960   0.056  10.439  0.1795 -0.7693  0.1506
  523MPD2    C2 7765   4.014   0.189  10.452  0.5839  0.1103  0.9761
  523MPD2    C3 7766   3.963   0.294  10.386  0.1296 -0.2733 -0.7264
  523MPD2    C4 7767   3.868   0.275  10.282  0.2802  0.2095 -0.3307
  523MPD2    C5 7768   3.815   0.144  10.272 -0.3805  0.8674 -0.5104
  523MPD2     H 7769   4.094   0.206  10.523  2.4262 -0.4311 -0.9845
  523MPD2    H1 7770   3.816   0.353  10.228 -0.6522 -1.2474 -1.5372
  523MPD2    H2 7771   3.824   4.664  10.326 -1.7528  0.4128 -0.4475
  523MPD2    H3 7772   3.740   0.109  10.202  0.4216 -1.0321 -0.4173
  523MPD2     N 7773   4.004   0.427  10.399  0.7338  0.6160  0.6904
  523MPD2    H5 7774   3.974   0.488  10.324  1.6184 -0.0872 -0.2352
  523MPD2    N1 7775   4.010   4.664  10.515  0.8974 -0.0615  0.2550
  523MPD2    H7 7776   3.967   4.581  10.476  0.5877  0.0759  0.2943
  524TMC3    C1 7777   4.108   0.614  10.468 -0.6067  0.2547  0.1076
  524TMC3    C2 7778   4.106   0.698  10.578 -0.5526 -0.0701 -0.4644
  524TMC3    C3 7779   4.184   0.806  10.579  0.4203 -0.4894  0.4673
  524TMC3    C4 7780   4.150   0.664  10.343 -0.2086  0.6712  0.0068
  524TMC3    C5 7781   4.222   0.785  10.350  1.1058 -0.4371 -0.2095
  524TMC3    C6 7782   4.233   0.862  10.466 -0.3071 -0.1000  0.5108
  524TMC3     C 7783   4.099   0.476  10.486 -0.4837 -0.0114  0.4813
  524TMC3     O 7784   4.124   0.430  10.596 -0.3583  0.1286 -0.7834
  524TMC3     H 7785   4.083   0.648  10.672  2.0924 -2.0568 -0.8627
  524TMC3    H1 7786   4.162   0.599  10.258 -0.5657  1.4174 -0.6085
  524TMC3    H2 7787   4.294   0.952  10.464 -0.4568 -0.0505 -1.4726
  524TMC3    C7 7788   4.314   0.826  10.237 -0.2031  0.2682  0.3700
  524TMC3    C8 7789   4.175   0.904  10.685  0.5609  0.1383  0.1219
  524TMC3    O1 7790   4.375   0.738  10.178 -0.1484 -0.1231 -0.1405
  524TMC3    O2 7791   4.214   1.017  10.662  0.1598 -0.1714 -0.4354
  525MPD2     C 7792   2.217   1.939  14.316 -0.3099 -0.1816 -0.6331
  525MPD2    C1 7793   2.269   1.996  14.432 -0.2084  0.8977  0.0731
  525MPD2    C2 7794   2.350   2.105  14.425 -0.5090  0.6651 -0.0738
  525MPD2    C3 7795   2.373   2.174  14.306 -0.2095  0.0811 -0.3441
  525MPD2    C4 7796   2.321   2.120  14.196  0.1636  0.1402  0.2232
  525MPD2    C5 7797   2.245   2.004  14.197  0.4294 -0.0428 -0.5984
  525MPD2     H 7798   2.400   2.151  14.510  0.1612 -0.7502  0.3040
  525MPD2    H1 7799   2.321   2.171  14.100  0.8105  0.6264  0.4836
  525MPD2    H2 7800   2.147   1.857  14.319  1.7260 -1.9133 -0.5168
  525MPD2    H3 7801   2.205   1.962  14.105  1.1591  0.1815 -1.0237
  525MPD2     N 7802   2.424   2.307  14.300  0.4611  0.3744  0.3994
  525MPD2    H5 7803   2.426   2.350  14.208  0.7181  0.0224  0.2403
  525MPD2    N1 7804   2.257   1.941  14.559  0.3065 -0.1780 -0.4092
  525MPD2    H7 7805   2.270   1.996  14.643 -1.6028 -0.9472  0.4060
  526TMC3    C1 7806   2.222   1.780  14.728  0.0382  0.2619  0.6151
  526TMC3    C2 7807   2.152   1.859  14.820  0.4261 -0.0267 -0.4541
  526TMC3    C3 7808   2.128   1.809  14.948 -0.4411 -0.5791 -0.0666
  526TMC3    C4 7809   2.265   1.658  14.764 -0.5821  0.1702 -0.0160
  526TMC3    C5 7810   2.246   1.612  14.890 -0.2685  0.5399 -0.1113
  526TMC3    C6 7811   2.173   1.680  14.980 -0.6152 -0.1500 -0.0947
  526TMC3     C 7812   2.235   1.814  14.586 -0.3855  1.0260  0.0017
  526TMC3     O 7813   2.243   1.717  14.513 -0.1717 -0.3452  0.3902
  526TMC3     H 7814   2.111   1.956  14.797 -2.4618 -0.8555  1.2387
  526TMC3    H1 7815   2.320   1.597  14.693  0.1901  2.1807 -1.1418
  526TMC3    H2 7816   2.162   1.637  15.079 -2.9915  0.9976  0.1365
  526TMC3    C7 7817   2.338   1.518  14.953 -0.0693  0.2700  0.0425
  526TMC3    C8 7818   2.053   1.895  15.049 -0.3669  0.6784  0.7427
  526TMC3    O1 7819   2.357   1.518  15.070 -0.3729  0.1925 -0.0519
  526TMC3    O2 7820   2.000   1.995  15.010 -0.9412  0.2178  0.2875
  527MPD2     C 7821   1.257   0.626   2.084  1.0991 -0.3938 -0.3864
  527MPD2    C1 7822   1.275   0.491   2.110  0.3857 -0.2526  0.1039
  527MPD2    C2 7823   1.257   0.409   2.004 -0.6643  0.2415  0.3142
  527MPD2    C3 7824   1.224   0.449   1.877  0.6923  0.5849 -0.4301
  527MPD2    C4 7825   1.205   0.589   1.850 -0.8340  0.4077  0.1343
  527MPD2    C5 7826   1.223   0.668   1.960  0.6605  0.0543  0.6415
  527MPD2     H 7827   1.270   0.301   2.015 -0.0534  0.1738 -1.1819
  527MPD2    H1 7828   1.215   0.628   1.749  0.2633 -2.2287 -0.7729
  527MPD2    H2 7829   1.280   0.708   2.152 -0.1684 -0.7735  0.4945
  527MPD2    H3 7830   1.201   0.773   1.950  0.8057  0.3668  3.6532
  527MPD2     N 7831   1.229   0.356   1.772  0.1675 -0.1718 -0.2477
  527MPD2    H5 7832   1.222   0.258   1.798 -0.3854 -0.4167 -1.3149
  527MPD2    N1 7833   1.313   0.446   2.238 -0.0472 -0.6249  0.4307
  527MPD2    H7 7834   1.310   0.346   2.252  0.2038 -1.1206 -3.0224
  528TMC3    C1 7835   1.398   0.436   2.455  0.9073 -0.0390 -0.3869
  528TMC3    C2 7836   1.487   0.508   2.529 -0.2096  0.0688  0.1747
  528TMC3    C3 7837   1.564   0.433   2.610 -0.3630 -0.4031  0.2912
  528TMC3    C4 7838   1.383   0.302   2.451  0.3674  0.2028 -0.5430
  528TMC3    C5 7839   1.462   0.229   2.538  0.2857 -0.0922 -0.1535
  528TMC3    C6 7840   1.549   0.298   2.623  0.1611 -0.0981  0.2235
  528TMC3     C 7841   1.343   0.522   2.352  0.1396  0.1319 -0.4570
  528TMC3     O 7842   1.340   0.643   2.372 -0.2169 -0.4413 -0.5315
  528TMC3     H 7843   1.512   0.612   2.509 -0.5484  0.3492  1.2246
  528TMC3    H1 7844   1.313   0.250   2.386  0.6082  0.5869 -1.1087
  528TMC3    H2 7845   1.605   0.244   2.698 -0.0993 -0.1997  0.3442
  528TMC3    C7 7846   1.420   0.092   2.570  0.0553 -0.0430 -0.3607
  528TMC3    C8 7847   1.664   0.497   2.682 -0.2118  0.1769  0.4062
  528TMC3    O1 7848   1.318   0.052   2.521 -0.0431  0.2556 -0.1936
  528TMC3    O2 7849   1.645   0.618   2.692  0.2936  0.3113 -0.8383
  529MPD2     C 7850   3.134   3.346   1.016  0.0333  0.0209 -0.0325
  529MPD2    C1 7851   3.024   3.268   0.998 -0.1189 -0.6249  0.0157
  529MPD2    C2 7852   2.961   3.274   0.870 -0.8491  0.1316 -0.1447
  529MPD2    C3 7853   3.018   3.350   0.769 -0.2135  0.1719  0.6509
  529MPD2    C4 7854   3.131   3.430   0.791  0.4988 -0.2671 -0.0393
  529MPD2    C5 7855   3.196   3.414   0.916  0.6697  0.6476 -0.8156
  529MPD2     H 7856   2.869   3.219   0.854 -0.3833 -0.8863  0.6141
  529MPD2    H1 7857   3.174   3.491   0.712 -3.1812  3.0353  0.4593
  529MPD2    H2 7858   3.194   3.349   1.107  0.2711  0.2234 -0.1963
  529MPD2    H3 7859   3.290   3.463   0.936 -0.9817  2.7599  1.6852
  529MPD2     N 7860   2.973   3.355   0.637  0.1238 -0.7899 -0.4236
  529MPD2    H5 7861   3.027   3.418   0.579 -0.1299 -0.2239 -0.0462
  529MPD2    N1 7862   2.964   3.185   1.101 -0.1989  0.1955  0.3055
  529MPD2    H7 7863   2.880   3.136   1.073 -0.2909  1.5412 -1.7072
  530TMC3    C1 7864   2.914   3.095   1.316 -0.2240  0.6471 -0.2988
  530TMC3    C2 7865   2.964   3.032   1.423 -0.2952 -1.0197 -0.2372
  530TMC3    C3 7866   2.877   2.965   1.503  0.0362  1.0811 -0.0857
  530TMC3    C4 7867   2.785   3.093   1.288  0.7627  0.0678  0.4695
  530TMC3    C5 7868   2.695   3.027   1.375 -1.0229 -0.5810  0.2440
  530TMC3    C6 7869   2.742   2.958   1.482  0.2086 -0.9615 -0.3289
  530TMC3     C 7870   3.002   3.184   1.240  0.3614 -0.1835  0.0062
  530TMC3     O 7871   3.080   3.253   1.307 -0.4053  0.8982 -0.5238
  530TMC3     H 7872   3.072   3.036   1.432 -0.5085  0.1531  2.0003
  530TMC3    H1 7873   2.736   3.155   1.214  0.1553 -1.4969 -0.4378
  530TMC3    H2 7874   2.676   2.905   1.550  1.6919 -0.6389  1.3627
  530TMC3    C7 7875   2.559   3.007   1.318  0.5989 -0.4789 -0.4796
  530TMC3    C8 7876   2.922   2.936   1.634  0.8122 -0.2121 -0.4716
  530TMC3    O1 7877   2.555   3.033   1.199 -0.2364  0.5487 -0.2388
  530TMC3    O2 7878   2.828   2.941   1.719  0.4046 -0.1918 -0.1377
  531MPD2     C 7879   1.854   0.666  13.120  0.3879  0.6663  0.5881
  531MPD2    C1 7880   1.741   0.742  13.151  0.1106  0.1288 -1.4486
  531MPD2    C2 7881   1.647   0.765  13.050  0.0848 -0.3007  0.2250
  531MPD2    C3 7882   1.670   0.713  12.921  0.1473  0.3790 -1.0634
  531MPD2    C4 7883   1.784   0.648  12.891 -0.0911 -0.4173 -0.2018
  531MPD2    C5 7884   1.878   0.627  12.989 -0.6124  0.5571 -0.6243
  531MPD2     H 7885   1.553   0.814  13.074  0.1690 -0.6966  1.3591
  531MPD2    H1 7886   1.817   0.605  12.797  0.4111 -1.1609  0.3151
  531MPD2    H2 7887   1.927   0.648  13.198 -0.8900 -0.9471  1.4235
  531MPD2    H3 7888   1.974   0.580  12.975 -1.0360 -0.4038 -0.2963
  531MPD2     N 7889   1.569   0.733  12.826 -0.0618 -0.5655  0.1891
  531MPD2    H5 7890   1.486   0.778  12.863 -0.1523  0.3982 -1.2165
  531MPD2    N1 7891   1.725   0.783  13.283  0.4406  0.0344  0.1283
  531MPD2    H7 7892   1.781   0.739  13.355  1.2274  1.5809  0.4606
  532TMC3    C1 7893   1.601   0.875  13.468 -0.4498 -0.5806  0.5054
  532TMC3    C2 7894   1.463   0.857  13.485  0.4299 -0.9855  0.8710
  532TMC3    C3 7895   1.420   0.778  13.592  0.3853  0.4636 -0.1355
  532TMC3    C4 7896   1.687   0.820  13.555 -0.1506  0.0101  0.6398
  532TMC3    C5 7897   1.640   0.775  13.675  0.1033 -0.0070  0.2693
  532TMC3    C6 7898   1.509   0.739  13.691 -0.4500 -1.3662  0.0044
  532TMC3     C 7899   1.632   0.880  13.324 -0.0604  0.2185  0.5214
  532TMC3     O 7900   1.557   0.953  13.261 -0.0358  0.1232 -0.5227
  532TMC3     H 7901   1.392   0.913  13.425 -0.1869 -0.2335  2.3096
  532TMC3    H1 7902   1.791   0.843  13.532  0.0428 -1.3704  0.0999
  532TMC3    H2 7903   1.486   0.685  13.782 -0.3571  0.6132  1.1967
  532TMC3    C7 7904   1.729   0.709  13.768  0.2395  1.0076  0.0651
  532TMC3    C8 7905   1.336   0.671  13.543 -0.2702  0.1598  0.0725
  532TMC3    O1 7906   1.688   0.705  13.884 -0.0973 -0.0990  0.3305
  532TMC3    O2 7907   1.291   0.586  13.618 -0.1604 -0.0291  0.9571
  533TMC3    C1 7908   2.513   2.509  14.373 -0.0077  0.0407  0.6093
  533TMC3    C2 7909   2.606   2.566  14.454  0.0688 -0.5399 -0.1739
  533TMC3    C3 7910   2.603   2.689  14.492  0.1018  0.3446  0.0925
  533TMC3    C4 7911   2.415   2.587  14.322 -0.0851 -0.0768  0.0288
  533TMC3    C5 7912   2.403   2.717  14.367 -0.2388  0.0527  0.3336
  533TMC3    C6 7913   2.499   2.773  14.450  0.0983  0.0534  0.3578
  533TMC3     C 7914   2.494   2.371  14.403 -0.5744  0.1727  0.8647
  533TMC3     O 7915   2.537   2.326  14.511  0.5210 -0.1154  0.1088
  533TMC3     H 7916   2.690   2.502  14.478 -0.5557 -1.9966 -1.8949
  533TMC3    H1 7917   2.338   2.545  14.258  1.0284 -1.7383 -0.2081
  533TMC3    H2 7918   2.505   2.877  14.476 -2.1842  0.3479 -0.2678
  533TMC3    C7 7919   2.270   2.741  14.414  0.5650 -0.1599 -0.9143
  533TMC3    C8 7920   2.733   2.743  14.533  0.4574  0.2506 -0.1314
  533TMC3    O1 7921   2.188   2.649  14.405 -0.3497  0.0802  0.3571
  533TMC3    O2 7922   2.833   2.671  14.519  0.2671  0.4539 -0.3686
  534MPD2     C 7923   0.028   4.545   2.196  0.4499  0.2070 -0.4408
  534MPD2    C1 7924   0.130   4.469   2.165 -0.0817 -0.0783 -0.7200
  534MPD2    C2 7925   0.112   4.350   2.101 -0.6568 -0.0992  0.5036
  534MPD2    C3 7926   4.707   4.311   2.064 -0.2449  0.1843 -0.3120
  534MPD2    C4 7927   4.603   4.396   2.088  0.1718  0.0497 -0.3862
  534MPD2    C5 7928   4.626   4.509   2.161 -0.1971  0.0756  0.1311
  534MPD2     H 7929   0.199   4.294   2.070  0.5083  1.1993  1.4352
  534MPD2    H1 7930   4.503   4.370   2.057 -0.6234  2.3450  0.3193
  534MPD2    H2 7931   0.041   4.644   2.238  1.3660  0.9083 -2.3568
  534MPD2    H3 7932   4.543   4.577   2.179 -1.1563 -1.4298  1.4204
  534MPD2     N 7933   4.680   4.204   1.982 -0.2867  0.5820 -0.2100
  534MPD2    H5 7934   4.589   4.204   1.936  0.0911  0.1214 -0.9661
  534MPD2    N1 7935   0.264   4.509   2.201  0.5336  0.2321  0.0303
  534MPD2    H7 7936   0.337   4.440   2.191 -0.6599 -1.1712  0.9961
  535TMC3    C1 7937   4.708   4.004   1.864 -0.7219 -0.5572  0.3323
  535TMC3    C2 7938   4.576   3.986   1.879 -0.7143 -0.5277 -0.4440
  535TMC3    C3 7939   4.532   3.893   1.794  0.4046  0.0876 -1.1614
  535TMC3    C4 7940   0.067   3.953   1.762 -0.7147  0.0089  0.0541
  535TMC3    C5 7941   0.010   3.860   1.676  0.0607  0.0709 -0.4588
  535TMC3    C6 7942   4.600   3.826   1.695 -0.4579  0.2500 -0.9740
  535TMC3     C 7943   0.052   4.106   1.941 -0.5059 -0.3113 -0.5245
  535TMC3     O 7944   0.171   4.091   1.967  0.3145 -0.0811  0.0614
  535TMC3     H 7945   4.525   4.011   1.971  1.0193 -0.6138  0.5408
  535TMC3    H1 7946   0.168   3.994   1.762  0.8871 -3.9389 -1.2173
  535TMC3    H2 7947   4.559   3.751   1.629  0.1881 -2.4080  1.6436
  535TMC3    C7 7948   0.062   3.845   1.546 -0.1862 -0.1926 -0.1472
  535TMC3    C8 7949   4.387   3.876   1.784  0.1158  0.5274 -0.2857
  535TMC3    O1 7950   0.019   3.752   1.479 -0.0314 -1.0268  0.0209
  535TMC3    O2 7951   4.354   3.806   1.690 -0.3182 -0.2104  0.4020
  536MPD2     C 7952   3.407   1.753  16.758  0.4573  0.4280  0.4796
  536MPD2    C1 7953   3.289   1.786  16.816 -0.1505 -0.3760  0.0881
  536MPD2    C2 7954   3.171   1.787  16.743 -1.0747 -0.0548  0.1503
  536MPD2    C3 7955   3.171   1.754  16.613 -0.8736 -0.1834  0.4178
  536MPD2    C4 7956   3.296   1.719  16.554 -0.5851  0.5913  0.5456
  536MPD2    C5 7957   3.408   1.721  16.624  0.3485  1.0493  0.0768
  536MPD2     H 7958   3.090   1.842  16.789 -0.2254 -0.2855  1.9021
  536MPD2    H1 7959   3.304   1.681  16.452 -0.0008 -1.2798  1.2859
  536MPD2    H2 7960   3.500   1.743  16.812  0.9546 -2.1767 -0.8452
  536MPD2    H3 7961   3.501   1.696  16.574 -0.0796  1.0634 -0.7209
  536MPD2     N 7962   3.056   1.766  16.530  0.2149 -0.7099  0.2997
  536MPD2    H5 7963   3.073   1.747  16.432  0.7642 -1.6806  0.5885
  536MPD2    N1 7964   3.284   1.812  16.958 -0.9605 -0.1656 -0.3556
  536MPD2    H7 7965   3.373   1.815  17.007 -0.2053  0.3404 -1.7505
  537TMC3    C1 7966   3.226   1.789  17.169  0.3080 -0.5582  0.6555
  537TMC3    C2 7967   3.301   1.890  17.223 -0.3861  0.3896  0.4394
  537TMC3    C3 7968   3.328   1.891  17.362 -0.7394 -0.0197  0.7550
  537TMC3    C4 7969   3.190   1.682  17.245  0.4755 -0.0021 -1.2847
  537TMC3    C5 7970   3.220   1.681  17.376 -0.6753 -0.2722 -0.6587
  537TMC3    C6 7971   3.279   1.786  17.438  0.3646 -0.8484  0.4192
  537TMC3     C 7972   3.176   1.807  17.038  0.3419 -0.1081  0.1535
  537TMC3     O 7973   3.070   1.752  17.022 -0.4853  0.1386 -0.4832
  537TMC3     H 7974   3.331   1.974  17.161 -0.6774 -0.8314 -1.3837
  537TMC3    H1 7975   3.116   1.615  17.202  1.7537 -0.9715 -1.9866
  537TMC3    H2 7976   3.294   1.788  17.545  1.9571 -0.4295  0.1904
  537TMC3    C7 7977   3.161   1.572  17.445  0.0777 -0.1806 -0.5422
  537TMC3    C8 7978   3.426   1.973  17.421 -0.3652 -0.3752 -0.3840
  537TMC3    O1 7979   3.075   1.510  17.385  0.3245  0.2041  0.1882
  537TMC3    O2 7980   3.474   1.928  17.524  0.0843 -0.4552 -0.4529
  538TMC3    C1 7981   0.287   0.052  11.292  0.0037  0.1335 -0.1917
  538TMC3    C2 7982   0.408   0.059  11.234  0.2764  0.5715 -0.6155
  538TMC3    C3 7983   0.418   0.103  11.105  0.0481 -0.2578 -0.5561
  538TMC3    C4 7984   0.182   0.113  11.233 -0.0652  0.5139 -0.1849
  538TMC3    C5 7985   0.204   0.175  11.115  0.1513  0.5869 -0.2972
  538TMC3    C6 7986   0.313   0.158  11.035  0.2599  1.5739  0.6374
  538TMC3     C 7987   0.259   4.677  11.395 -0.1830  0.1483 -0.4665
  538TMC3     O 7988   0.151   4.679  11.453 -0.4521 -0.1204  0.2420
  538TMC3     H 7989   0.499   0.029  11.285 -1.0214  1.0244  1.9476
  538TMC3    H1 7990   0.082   0.116  11.273 -0.1979 -0.1574 -0.4640
  538TMC3    H2 7991   0.326   0.204  10.938  0.3847  1.7451  0.7350
  538TMC3    C7 7992   0.083   0.231  11.048  0.3085 -0.3157  0.5495
  538TMC3    C8 7993   0.551   0.125  11.052 -0.3120  0.2331  0.2666
  538TMC3    O1 7994   0.004   0.275  11.125  0.1180 -0.4811  0.0503
  538TMC3    O2 7995   0.639   0.142  11.137  0.6467  0.7018 -0.1781
  539MPD2     C 7996   4.616   3.846  12.161 -0.0429  0.1743 -0.3730
  539MPD2    C1 7997   4.608   3.890  12.026 -0.3085  0.0248 -0.6421
  539MPD2    C2 7998   4.585   4.027  12.005  0.5799 -0.3202  0.0338
  539MPD2    C3 7999   4.560   4.112  12.108  1.2966  0.0177  0.3137
  539MPD2    C4 8000   4.573   4.069  12.233 -0.7179  0.1503  0.1156
  539MPD2    C5 8001   4.613   3.935  12.262 -0.1519  0.4177  0.4214
  539MPD2     H 8002   4.597   4.078  11.910  1.0091  1.1357  0.8641
  539MPD2    H1 8003   4.556   4.136  12.317 -2.1415 -1.1791  0.8807
  539MPD2    H2 8004   4.646   3.745  12.186  0.9593  0.8234  0.9665
  539MPD2    H3 8005   4.634   3.903  12.363  0.6885 -1.6390 -0.4031
  539MPD2     N 8006   4.521   4.241  12.101  0.5605 -0.3745 -0.0842
  539MPD2    H5 8007   4.518   4.293  12.189 -2.1482  0.1716 -0.5187
  539MPD2    N1 8008   4.644   3.804  11.919  0.2214 -0.3446  0.2277
  539MPD2    H7 8009   4.671   3.841  11.829 -3.9674  0.1602 -0.7957
  540TMC3    C1 8010   4.423   4.445  12.005  0.9788 -0.0179 -0.5853
  540TMC3    C2 8011   4.391   4.516  11.894  1.0583 -0.4938 -0.0287
  540TMC3    C3 8012   4.303   4.618  11.906  0.2358  0.0166  0.4553
  540TMC3    C4 8013   4.368   4.477  12.125 -0.2951 -0.3387 -0.1669
  540TMC3    C5 8014   4.279   4.585  12.139 -0.9693 -0.1481 -0.5384
  540TMC3    C6 8015   4.254   4.656  12.028 -0.2445 -0.5967 -0.1244
  540TMC3     C 8016   4.478   4.310  11.988  0.5744 -0.9163  0.0965
  540TMC3     O 8017   4.492   4.280  11.871 -0.0757 -0.0174  0.2608
  540TMC3     H 8018   4.455   4.505  11.807  0.8710  2.7634 -0.5537
  540TMC3    H1 8019   4.379   4.415  12.213  0.5177  1.6911  1.1718
  540TMC3    H2 8020   4.188   0.020  12.026 -0.4171 -0.6687  2.4216
  540TMC3    C7 8021   4.159   4.552  12.218  0.0035  0.2176 -0.8390
  540TMC3    C8 8022   4.311   4.720  11.796  0.6214  0.0341  0.1069
  540TMC3    O1 8023   4.049   4.561  12.158 -0.2589 -0.2638  0.1879
  540TMC3    O2 8024   4.313   0.117  11.819 -0.0528 -0.1293 -0.5206
  541MPD2     C 8025   2.910   1.203  13.557  0.3910 -0.1455  0.3350
  541MPD2    C1 8026   3.015   1.128  13.499  0.4816 -0.2203 -0.2101
  541MPD2    C2 8027   3.091   1.189  13.400  0.2593  0.7511  0.1524
  541MPD2    C3 8028   3.055   1.310  13.349 -0.0512  0.0558  0.1791
  541MPD2    C4 8029   2.959   1.382  13.415 -0.9529 -0.0663  0.4128
  541MPD2    C5 8030   2.900   1.335  13.526 -0.4117  0.0694  0.3474
  541MPD2     H 8031   3.165   1.139  13.339  1.6104  1.0520  1.5340
  541MPD2    H1 8032   2.926   1.478  13.377  0.3014  0.7739  1.4537
  541MPD2    H2 8033   2.862   1.165  13.647  1.8351 -0.4911  0.9678
  541MPD2    H3 8034   2.826   1.396  13.576 -0.3907  0.7428 -0.4297
  541MPD2     N 8035   3.123   1.376  13.239 -0.0758  0.9172 -0.3156
  541MPD2    H5 8036   3.083   1.465  13.211  0.8751  2.1990  2.4261
  541MPD2    N1 8037   3.041   0.998  13.550  0.4901  0.2001 -0.0815
  541MPD2    H7 8038   2.964   0.956  13.602 -2.5663  4.8563 -0.7549
  542TMC3    C1 8039   3.259   1.412  13.045 -0.1348 -0.2477  0.1816
  542TMC3    C2 8040   3.292   1.352  12.926  0.5929 -0.4521  0.1099
  542TMC3    C3 8041   3.284   1.436  12.817 -0.2144 -0.0400 -0.7319
  542TMC3    C4 8042   3.217   1.544  13.055 -0.5605 -0.4864  0.3231
  542TMC3    C5 8043   3.212   1.629  12.945  0.5699  0.0256 -0.1672
  542TMC3    C6 8044   3.239   1.570  12.823  0.0112  0.2168  0.2364
  542TMC3     C 8045   3.223   1.323  13.153 -0.1213  0.2486 -0.9110
  542TMC3     O 8046   3.262   1.210  13.139  0.5231 -0.0030 -0.5921
  542TMC3     H 8047   3.339   1.256  12.912  1.1313  0.0957 -1.9063
  542TMC3    H1 8048   3.200   1.588  13.152 -2.4738  0.5617 -0.4868
  542TMC3    H2 8049   3.250   1.629  12.732  0.4554  1.6559  1.2280
  542TMC3    C7 8050   3.212   1.772  12.970 -0.1033  0.1308  1.0622
  542TMC3    C8 8051   3.325   1.378  12.686 -0.1275  0.5027  0.4406
  542TMC3    O1 8052   3.223   1.823  13.077 -0.6731 -0.1842 -0.1447
  542TMC3    O2 8053   3.269   1.428  12.588 -0.3892 -0.0147 -0.6047
  543TMC3    C1 8054   1.918   2.415   0.030  0.0029  0.4370 -0.7533
  543TMC3    C2 8055   1.971   2.300   0.076 -0.4115  0.2898 -0.6399
  543TMC3    C3 8056   1.909   2.233   0.179 -0.0806  0.4012 -0.3998
  543TMC3    C4 8057   1.802   2.469   0.089  0.3891 -0.1918 -0.2022
  543TMC3    C5 8058   1.732   2.397   0.178 -0.4569  0.8129 -0.3785
  543TMC3    C6 8059   1.785   2.283   0.223  0.1246 -0.4803 -0.1678
  543TMC3     C 8060   1.974   2.450  17.596 -0.4755 -0.4661  0.0235
  543TMC3     O 8061   2.063   2.377  17.550 -0.2893  0.1737  0.0452
  543TMC3     H 8062   2.063   2.256   0.040  0.6931  0.1735  2.4071
  543TMC3    H1 8063   1.766   2.565   0.055 -0.4245 -0.1872  0.6681
  543TMC3    H2 8064   1.730   2.228   0.298 -2.2767 -0.3281 -1.8210
  543TMC3    C7 8065   1.633   2.464   0.263  0.3978 -0.7452 -0.1949
  543TMC3    C8 8066   1.928   2.086   0.184  0.0390  0.2802  0.2077
  543TMC3    O1 8067   1.610   2.410   0.369  0.1299 -0.2200 -0.1276
  543TMC3    O2 8068   1.957   2.016   0.087 -0.4632 -0.2579 -0.3361
  544MPD2     C 8069   1.952   1.692   0.496  0.6138  0.0823  0.4968
  544MPD2    C1 8070   2.004   1.707   0.367  0.1468  0.0249 -0.0527
  544MPD2    C2 8071   1.964   1.819   0.292 -0.5377  0.2860 -0.2132
  544MPD2    C3 8072   1.898   1.913   0.357 -0.0120 -0.2459  0.0101
  544MPD2    C4 8073   1.859   1.904   0.486  0.0557  0.1826 -0.7257
  544MPD2    C5 8074   1.884   1.788   0.554 -0.3140  0.4853  0.3102
  544MPD2     H 8075   2.008   1.835   0.194 -0.6710 -2.4755 -0.7018
  544MPD2    H1 8076   1.804   1.981   0.540  0.0684 -0.3390  0.0227
  544MPD2    H2 8077   1.958   1.598   0.549 -1.5566 -0.9273 -1.0475
  544MPD2    H3 8078   1.834   1.779   0.650 -2.1082 -1.0778 -0.7970
  544MPD2     N 8079   1.872   2.039   0.298  0.2140  0.2993  0.4940
  544MPD2    H5 8080   1.839   2.107   0.366 -1.0484  0.2972 -0.1365
  544MPD2    N1 8081   2.088   1.603   0.310  0.1171 -0.0738  0.4755
  544MPD2    H7 8082   2.092   1.515   0.362  0.7068  0.3168  1.0875
  545TMC3    C1 8083   2.260   1.502   0.185 -0.1971 -0.6869  0.3377
  545TMC3    C2 8084   2.372   1.526   0.109  0.2114  0.2388  0.1351
  545TMC3    C3 8085   2.445   1.421   0.074  0.9878  0.6787  0.4864
  545TMC3    C4 8086   2.223   1.374   0.236 -0.1327  0.0960  0.2833
  545TMC3    C5 8087   2.304   1.274   0.197 -0.3412 -0.3376  0.5840
  545TMC3    C6 8088   2.407   1.294   0.117 -0.3190  0.7816 -0.2343
  545TMC3     C 8089   2.173   1.613   0.204  0.4899  0.4815  1.3941
  545TMC3     O 8090   2.199   1.707   0.128  0.1235 -0.7962 -0.4448
  545TMC3     H 8091   2.395   1.627   0.077  0.4101  0.2368  0.2662
  545TMC3    H1 8092   2.133   1.357   0.293 -0.7690 -0.5424 -0.9006
  545TMC3    H2 8093   2.477   1.214   0.096  0.4669  1.2704  0.5343
  545TMC3    C7 8094   2.312   1.165   0.282 -0.3272 -0.4489 -0.1175
  545TMC3    C8 8095   2.530   1.429  17.645 -0.2206  0.2130  0.0778
  545TMC3    O1 8096   2.204   1.119   0.314 -0.3097 -0.3195 -0.6535
  545TMC3    O2 8097   2.584   1.320  17.611 -0.6302  0.4886  0.1474
  546MPD2     C 8098   3.743   2.320   0.240  0.1856 -0.4900  0.1541
  546MPD2    C1 8099   3.690   2.351   0.116 -0.0834 -0.3290  0.6093
  546MPD2    C2 8100   3.771   2.437   0.038  0.2705 -0.9965 -0.1883
  546MPD2    C3 8101   3.893   2.490   0.084 -0.5144 -0.2023  0.3060
  546MPD2    C4 8102   3.939   2.447   0.201  0.3502  0.1394  0.0557
  546MPD2    C5 8103   3.861   2.368   0.277  0.2545  0.1210  0.6466
  546MPD2     H 8104   3.734   2.466  17.627  4.1521 -0.9668 -1.6296
  546MPD2    H1 8105   4.033   2.476   0.248 -0.1977  2.3345 -0.2008
  546MPD2    H2 8106   3.676   2.271   0.310  3.1978  1.6804  4.5148
  546MPD2    H3 8107   3.897   2.345   0.376  0.8083  0.9428  0.6372
  546MPD2     N 8108   3.977   2.580   0.012 -0.5030  0.1038  0.3612
  546MPD2    H5 8109   4.051   2.626   0.063 -0.4727  0.3098  0.1315
  546MPD2    N1 8110   3.557   2.304   0.079 -0.0337 -0.2667 -0.0143
  546MPD2    H7 8111   3.515   2.223   0.123 -0.2434  0.0756  0.4271
  547TMC3    C1 8112   3.350   2.284  17.641 -0.1510 -0.1154  0.4269
  547TMC3    C2 8113   3.249   2.348  17.579 -0.3722 -0.0089  0.8667
  547TMC3    C3 8114   3.135   2.276  17.545 -0.5436 -0.8180  0.0680
  547TMC3    C4 8115   3.336   2.159   0.006 -0.6245 -0.3776  0.0165
  547TMC3    C5 8116   3.208   2.099  17.679  0.3062  0.8512  0.0024
  547TMC3    C6 8117   3.112   2.154  17.601 -0.5719 -0.1508  0.7567
  547TMC3     C 8118   3.472   2.362  17.671 -0.2776 -0.3472 -0.4090
  547TMC3     O 8119   3.483   2.471  17.613 -0.0908  0.7734  0.3311
  547TMC3     H 8120   3.260   2.444  17.532 -2.6071  0.9623  2.3316
  547TMC3    H1 8121   3.411   2.110   0.066 -0.1631  0.2995 -0.0060
  547TMC3    H2 8122   3.013   2.111  17.587  0.4649 -2.0981 -0.5704
  547TMC3    C7 8123   3.167   1.982   0.069 -0.3901 -0.1659 -0.5264
  547TMC3    C8 8124   3.021   2.337  17.484  0.0553 -0.5655  0.9054
  547TMC3    O1 8125   3.095   1.912  17.685 -0.2578  0.9798 -0.1046
  547TMC3    O2 8126   2.952   2.279  17.402 -0.6470  0.0718 -0.5317
  548MPD2     C 8127   3.992   3.022  12.707 -0.1790  0.5631  0.3332
  548MPD2    C1 8128   3.938   2.899  12.733 -0.1208  0.0077  0.2670
  548MPD2    C2 8129   4.009   2.782  12.697 -0.7989 -0.5015  0.1585
  548MPD2    C3 8130   4.125   2.797  12.625  0.1805 -0.2170 -0.3392
  548MPD2    C4 8131   4.172   2.926  12.602  0.5998  0.0683  0.9838
  548MPD2    C5 8132   4.118   3.035  12.654 -0.8548  0.1089  0.5088
  548MPD2     H 8133   3.966   2.685  12.715 -0.0817 -0.6887  0.8534
  548MPD2    H1 8134   4.267   2.939  12.553 -0.2791  5.1633  0.5896
  548MPD2    H2 8135   3.936   3.109  12.739 -1.9439 -0.5183  0.1688
  548MPD2    H3 8136   4.172   3.129  12.645 -1.4958  0.4282 -0.0876
  548MPD2     N 8137   4.186   2.675  12.583  0.1279 -0.3432  0.2952
  548MPD2    H5 8138   4.143   2.586  12.607  0.6973 -0.7735 -0.2691
  548MPD2    N1 8139   3.814   2.890  12.795 -0.1355 -0.3553  0.2319
  548MPD2    H7 8140   3.775   2.983  12.801 -1.4080 -0.8482 -0.6043
  549TMC3    C1 8141   3.622   2.813  12.905  0.4129  0.2132  0.2277
  549TMC3    C2 8142   3.536   2.894  12.838  0.6714  0.1233 -0.2813
  549TMC3    C3 8143   3.408   2.924  12.893  0.0227  1.0416  0.5248
  549TMC3    C4 8144   3.581   2.743  13.014  0.2992  0.4226  0.3335
  549TMC3    C5 8145   3.459   2.772  13.066 -0.2527  0.0634  0.4643
  549TMC3    C6 8146   3.370   2.861  13.005  0.0550 -0.1041 -1.0081
  549TMC3     C 8147   3.749   2.780  12.840 -0.6613  0.4262  0.1226
  549TMC3     O 8148   3.788   2.664  12.856  0.3685  0.2423 -0.0736
  549TMC3     H 8149   3.565   2.907  12.734 -0.3830  2.8411 -0.2247
  549TMC3    H1 8150   3.646   2.662  13.046  0.1551 -0.3744 -1.3928
  549TMC3    H2 8151   3.277   2.889  13.054  0.3575  1.1169 -1.1323
  549TMC3    C7 8152   3.399   2.691  13.173  0.1444 -0.5631  0.6233
  549TMC3    C8 8153   3.301   2.953  12.803  0.2062  0.5517 -0.0887
  549TMC3    O1 8154   3.300   2.740  13.224 -0.7342  0.1292 -0.3594
  549TMC3    O2 8155   3.329   2.927  12.682 -0.7119  0.1026 -0.0974
  550TMC3    C1 8156   2.509   0.627  12.203  0.2736  0.1594 -0.1534
  550TMC3    C2 8157   2.474   0.668  12.325 -0.2254  0.0766 -0.1861
  550TMC3    C3 8158   2.345   0.717  12.337 -0.0897 -0.0513 -0.0224
  550TMC3    C4 8159   2.428   0.630  12.095 -0.3323 -0.2422  0.0620
  550TMC3    C5 8160   2.301   0.679  12.108 -0.8645 -0.2256 -0.3000
  550TMC3    C6 8161   2.258   0.729  12.228 -0.6179 -0.0545 -0.5795
  550TMC3     C 8162   2.651   0.596  12.186  0.2153  0.2570  0.4616
  550TMC3     O 8163   2.727   0.653  12.265 -0.1317 -0.2878 -0.4254
  550TMC3     H 8164   2.547   0.677  12.406 -1.2600  1.7269  0.5647
  550TMC3    H1 8165   2.459   0.582  12.003 -1.3046 -0.9226  0.0953
  550TMC3    H2 8166   2.160   0.776  12.232 -0.1974  0.6740  1.1794
  550TMC3    C7 8167   2.212   0.673  11.988  0.0870 -0.0513  0.3116
  550TMC3    C8 8168   2.289   0.750  12.469  0.5991  0.7586 -0.5712
  550TMC3    O1 8169   2.100   0.712  12.013 -0.8381 -0.1642 -0.4212
  550TMC3    O2 8170   2.186   0.821  12.466 -0.1027  0.7811 -0.6953
  551TMC3    C1 8171   0.155   3.357  13.611  0.2743 -0.2008  0.1229
  551TMC3    C2 8172   0.291   3.345  13.601 -0.1223  0.0791 -0.5499
  551TMC3    C3 8173   0.371   3.429  13.670 -0.3426 -0.2964 -0.7145
  551TMC3    C4 8174   0.094   3.453  13.692 -0.5617  0.2131 -0.3130
  551TMC3    C5 8175   0.178   3.537  13.756 -0.3209 -0.0298  0.2304
  551TMC3    C6 8176   0.314   3.531  13.737  0.5325  0.0958  0.4308
  551TMC3     C 8177   0.076   3.265  13.541 -0.4649  0.1725  0.0076
  551TMC3     O 8178   0.110   3.240  13.425 -0.0012 -0.3386  0.0576
  551TMC3     H 8179   0.343   3.269  13.544  1.8062 -0.1643  1.5454
  551TMC3    H1 8180   4.708   3.460  13.708 -0.7697 -1.3384 -0.9776
  551TMC3    H2 8181   0.381   3.594  13.796  0.4306 -0.4305  1.1104
  551TMC3    C7 8182   0.124   3.647  13.836 -0.1676 -0.2878 -1.0011
  551TMC3    C8 8183   0.494   3.464  13.607 -0.5154  0.1543  0.1652
  551TMC3    O1 8184   0.013   3.686  13.804 -0.1703  0.0128  0.4117
  551TMC3    O2 8185   0.589   3.419  13.671  0.0760 -0.0978  0.0791
  552MPD2     C 8186   1.609   0.479  14.191 -0.1490  0.4384  0.9242
  552MPD2    C1 8187   1.704   0.384  14.150 -0.2448  0.1705 -0.1832
  552MPD2    C2 8188   1.808   0.353  14.234 -0.6868 -0.0573 -0.2407
  552MPD2    C3 8189   1.812   0.409  14.362  0.3860  0.5206  0.4445
  552MPD2    C4 8190   1.709   0.485  14.409  0.5099 -0.4438  0.5604
  552MPD2    C5 8191   1.607   0.517  14.325 -0.4755 -0.1013  1.3368
  552MPD2     H 8192   1.889   0.287  14.201  1.0719  2.0670 -0.1595
  552MPD2    H1 8193   1.698   0.521  14.511 -0.0170 -0.3603  0.4715
  552MPD2    H2 8194   1.537   0.516  14.119  2.0972  2.4000 -0.2971
  552MPD2    H3 8195   1.533   0.587  14.362 -1.1254 -0.6829  1.1302
  552MPD2     N 8196   1.918   0.397  14.459  0.0380 -0.1921  0.4042
  552MPD2    H5 8197   1.901   0.431  14.553 -0.9609  1.7096 -0.4705
  552MPD2    N1 8198   1.704   0.319  14.025 -0.8073 -0.0110  0.5919
  552MPD2    H7 8199   1.783   0.259  14.003 -0.2777  1.1508 -0.6471
  553TMC3    C1 8200   1.629   0.268  13.801  0.3616  0.4960  0.6781
  553TMC3    C2 8201   1.603   0.341  13.683 -0.0359 -0.4352  1.1894
  553TMC3    C3 8202   1.594   0.280  13.560 -0.2307 -0.0505  0.6743
  553TMC3    C4 8203   1.645   0.134  13.795 -0.6837 -0.1191 -0.4980
  553TMC3    C5 8204   1.624   0.073  13.672 -0.1441  0.1830  0.0658
  553TMC3    C6 8205   1.582   0.144  13.557  0.0282  0.0133  0.1764
  553TMC3     C 8206   1.613   0.338  13.926 -0.4937  0.0605  0.4023
  553TMC3     O 8207   1.506   0.402  13.924  0.0757 -0.3992 -0.0118
  553TMC3     H 8208   1.591   0.448  13.696  1.5775 -0.6613  4.2619
  553TMC3    H1 8209   1.669   0.074  13.882  1.3759  1.9042  0.3301
  553TMC3    H2 8210   1.568   0.082  13.469  0.3917 -0.1211  0.2144
  553TMC3    C7 8211   1.662   4.660  13.661  0.1377  0.4305  0.0135
  553TMC3    C8 8212   1.681   0.341  13.461 -0.2795 -0.2492  0.2125
  553TMC3    O1 8213   1.569   4.581  13.646  0.2028  0.5366 -0.1786
  553TMC3    O2 8214   1.763   0.412  13.510  0.4811 -0.3472 -0.3073
  554TMC3    C1 8215   3.592   4.099  11.867 -0.0658  0.0375  0.9442
  554TMC3    C2 8216   3.489   4.074  11.775  0.0973  0.1596  0.6698
  554TMC3    C3 8217   3.490   4.151  11.654 -0.6693 -0.7899 -0.4624
  554TMC3    C4 8218   3.682   4.201  11.849 -0.0385  0.3730 -0.5192
  554TMC3    C5 8219   3.661   4.290  11.745  0.3120  0.2456 -0.1431
  554TMC3    C6 8220   3.569   4.259  11.647  0.7416  0.1973 -0.0991
  554TMC3     C 8221   3.611   3.986  11.958 -0.3464  0.2457 -0.6719
  554TMC3     O 8222   3.555   3.880  11.931 -0.2983 -0.5996  0.2462
  554TMC3     H 8223   3.438   3.979  11.778  2.9513 -1.4027  0.2215
  554TMC3    H1 8224   3.764   4.207  11.920  0.4950 -1.3331 -0.9900
  554TMC3    H2 8225   3.560   4.324  11.560  3.1478  0.3589 -0.2186
  554TMC3    C7 8226   3.771   4.369  11.692  0.5695 -0.2075 -0.2078
  554TMC3    C8 8227   3.400   4.132  11.541  0.3161  0.1161 -0.4747
  554TMC3    O1 8228   3.781   4.369  11.569  0.1115 -0.1181 -0.4165
  554TMC3    O2 8229   3.405   4.215  11.452  0.4909  0.7950  0.2147
  555TMC3    C1 8230   2.482   4.136  15.723 -0.4378 -0.2549 -0.0688
  555TMC3    C2 8231   2.453   4.161  15.855 -1.1546  0.3297  0.2783
  555TMC3    C3 8232   2.488   4.074  15.949 -0.1242 -0.4116  0.0575
  555TMC3    C4 8233   2.543   4.016  15.693 -0.3059 -0.0307 -0.1269
  555TMC3    C5 8234   2.574   3.930  15.794 -0.5894  0.0578  0.3884
  555TMC3    C6 8235   2.558   3.959  15.924 -0.4004 -0.1518  0.3975
  555TMC3     C 8236   2.541   4.257  15.667 -0.4577  0.1377 -0.5508
  555TMC3     O 8237   2.647   4.302  15.707  0.0958  0.0446  0.2424
  555TMC3     H 8238   2.416   4.257  15.890 -0.9449  0.3653  0.4019
  555TMC3    H1 8239   2.546   3.996  15.586  3.2053  0.0321 -0.0413
  555TMC3    H2 8240   2.592   3.887  15.998  1.5517  0.5429  0.1744
  555TMC3    C7 8241   2.591   3.783  15.771 -0.0455  0.4507 -1.0518
  555TMC3    C8 8242   2.468   4.116  16.090  1.2640  0.3862 -0.3266
  555TMC3    O1 8243   2.587   3.708  15.870 -0.0781 -0.3096  0.0404
  555TMC3    O2 8244   2.364   4.167  16.127 -0.0629  0.1837  0.1683
  556MPD2     C 8245   0.207   0.974  10.611  0.0214 -0.1552  0.8082
  556MPD2    C1 8246   0.268   0.870  10.671 -1.0439 -0.6176  0.5739
  556MPD2    C2 8247   0.342   0.781  10.600 -0.3099 -0.1709  0.4304
  556MPD2    C3 8248   0.345   0.785  10.467 -0.1748  0.7448 -0.2388
  556MPD2    C4 8249   0.290   0.898  10.406  1.2847 -0.2998 -0.4933
  556MPD2    C5 8250   0.214   0.986  10.471  0.2028  0.5487 -0.3597
  556MPD2     H 8251   0.410   0.712  10.649 -1.5013 -2.5210 -1.2701
  556MPD2    H1 8252   0.294   0.920  10.300 -1.2100  0.0259 -0.5070
  556MPD2    H2 8253   0.160   1.060  10.655  1.0406 -0.5528  2.6901
  556MPD2    H3 8254   0.176   1.071  10.416 -0.6387  0.5838  0.2728
  556MPD2     N 8255   0.408   0.681  10.405  0.1672  0.1386  0.1823
  556MPD2    H5 8256   0.439   0.603  10.462 -0.0926  0.6512  1.0339
  556MPD2    N1 8257   0.274   0.859  10.811  0.5718  0.2448  0.5556
  556MPD2    H7 8258   0.336   0.786  10.845  0.2000 -0.1687  0.3487
  557TMC3    C1 8259   0.485   0.550  10.224 -0.0984  0.5423 -0.3122
  557TMC3    C2 8260   0.405   0.482  10.137 -0.1012  0.1828  0.6332
  557TMC3    C3 8261   0.416   0.347  10.124 -0.7343 -0.2196 -0.2394
  557TMC3    C4 8262   0.566   0.476  10.315  0.2865  0.2122  0.3953
  557TMC3    C5 8263   0.578   0.342  10.292 -0.1162  0.4806 -0.0061
  557TMC3    C6 8264   0.503   0.273  10.202 -0.7990  0.4203  0.0293
  557TMC3     C 8265   0.431   0.673  10.271  0.4543 -0.5321 -0.1824
  557TMC3     O 8266   0.382   0.737  10.180 -0.3479 -0.0939  0.4513
  557TMC3     H 8267   0.348   0.544  10.069 -1.6546 -0.4825  1.3278
  557TMC3    H1 8268   0.620   0.529  10.393  0.4025  0.5764  0.0674
  557TMC3    H2 8269   0.507   0.165  10.192 -0.2959  0.6352 -2.1116
  557TMC3    C7 8270   0.628   0.256  10.405 -0.1614  0.3422 -0.5660
  557TMC3    C8 8271   0.331   0.296  10.018  0.9245  0.1720  0.4195
  557TMC3    O1 8272   0.600   0.136  10.410  0.4121  0.1647  0.0287
  557TMC3    O2 8273   0.243   0.376   9.975  0.0558 -0.5388 -0.1684
  558TMC3    C1 8274   3.424   3.122  10.296 -0.2816  0.1212 -1.1446
  558TMC3    C2 8275   3.317   3.061  10.350  0.0304 -0.0632  0.0469
  558TMC3    C3 8276   3.222   3.016  10.261 -0.1942  1.0916 -0.4211
  558TMC3    C4 8277   3.434   3.139  10.157  0.0182 -0.3054  0.4998
  558TMC3    C5 8278   3.336   3.085  10.078 -0.7190  0.2653 -0.7896
  558TMC3    C6 8279   3.230   3.016  10.124  0.7346 -0.0628 -0.4314
  558TMC3     C 8280   3.545   3.125  10.368  0.6516 -0.2002  0.3870
  558TMC3     O 8281   3.637   3.191  10.325 -0.4919  0.1484 -0.2393
  558TMC3     H 8282   3.307   3.066  10.458 -3.8605  2.0881 -0.4002
  558TMC3    H1 8283   3.512   3.199  10.113 -1.7413  2.5001  1.2615
  558TMC3    H2 8284   3.152   2.977  10.060  0.2176  1.4658 -0.7325
  558TMC3    C7 8285   3.389   3.053   9.951  0.5019 -0.5328  0.0009
  558TMC3    C8 8286   3.107   2.949  10.325  0.2756  0.3144 -0.0280
  558TMC3    O1 8287   3.466   3.136   9.904  0.0089  0.0403 -0.0725
  558TMC3    O2 8288   3.016   2.919  10.251 -0.5046  0.5865 -0.6661
  559MPD2     C 8289   3.418   4.039  10.721  0.9169 -0.2948  0.2255
  559MPD2    C1 8290   3.381   3.909  10.749  0.4416  0.5032 -0.2530
  559MPD2    C2 8291   3.454   3.840  10.843 -0.4307 -0.3481 -0.3204
  559MPD2    C3 8292   3.570   3.887  10.894  0.6832 -0.3512  0.4174
  559MPD2    C4 8293   3.603   4.013  10.864 -0.9196  0.2823 -0.4077
  559MPD2    C5 8294   3.521   4.095  10.783 -0.4678  0.3898 -0.1592
  559MPD2     H 8295   3.429   3.738  10.870  0.1197 -0.5193 -0.4548
  559MPD2    H1 8296   3.695   4.052  10.906 -0.3868 -0.1122 -1.2071
  559MPD2    H2 8297   3.359   4.097  10.651  1.0640 -1.5842 -0.9806
  559MPD2    H3 8298   3.549   4.195  10.752  0.0918 -0.4606 -2.3751
  559MPD2     N 8299   3.640   3.802  10.989 -0.3716  0.0832 -0.0044
  559MPD2    H5 8300   3.597   3.711  11.003  0.4782  0.1085  2.8870
  559MPD2    N1 8301   3.258   3.871  10.683  0.0480  0.3826  0.1855
  559MPD2    H7 8302   3.231   3.952  10.629  2.0257  2.3813  2.1592
  560TMC3    C1 8303   3.789   3.727  11.154  0.6472 -0.2877 -0.5863
  560TMC3    C2 8304   3.745   3.596  11.133  0.1667  0.4413  0.4223
  560TMC3    C3 8305   3.784   3.503  11.217  0.0060  0.1101  0.2139
  560TMC3    C4 8306   3.880   3.756  11.249 -0.3301 -0.4088  0.1267
  560TMC3    C5 8307   3.919   3.654  11.330 -0.0167 -0.6520 -0.3914
  560TMC3    C6 8308   3.860   3.527  11.321 -0.2030  0.2694 -0.6165
  560TMC3     C 8309   3.759   3.832  11.054  0.7645  0.3056 -0.2098
  560TMC3     O 8310   3.829   3.937  11.055  0.0049 -0.1035 -0.7261
  560TMC3     H 8311   3.691   3.568  11.043  0.2726  1.6678 -0.0234
  560TMC3    H1 8312   3.910   3.860  11.255 -0.5197 -0.3782  0.5034
  560TMC3    H2 8313   3.892   3.450  11.390  1.8878  2.3397  0.7478
  560TMC3    C7 8314   3.999   3.681  11.446 -0.1112 -0.1789 -0.5826
  560TMC3    C8 8315   3.748   3.366  11.175  0.3217 -0.4330  0.8104
  560TMC3    O1 8316   3.999   3.601  11.538 -0.5370 -0.4304  0.6335
  560TMC3    O2 8317   3.639   3.352  11.123  0.2510 -0.3381  0.6590
  561TMC3    C1 8318   1.469   2.723  11.528 -0.3959 -0.3106 -0.0554
  561TMC3    C2 8319   1.451   2.660  11.645  0.2143 -0.4670  0.4793
  561TMC3    C3 8320   1.563   2.610  11.701  0.2221 -0.2149 -0.4159
  561TMC3    C4 8321   1.589   2.741  11.472  0.0298 -0.0458 -0.5580
  561TMC3    C5 8322   1.701   2.679  11.534  0.0416  0.7917  0.2220
  561TMC3    C6 8323   1.687   2.614  11.654  0.3130  0.5576  0.2824
  561TMC3     C 8324   1.345   2.772  11.470 -0.5291  0.8937 -0.5308
  561TMC3     O 8325   1.253   2.787  11.550 -0.4100  0.0527 -0.6712
  561TMC3     H 8326   1.353   2.651  11.690 -1.0829  1.9671 -1.8371
  561TMC3    H1 8327   1.603   2.786  11.375  1.3772 -0.4148 -0.5401
  561TMC3    H2 8328   1.763   2.567  11.715  0.3668  1.9077  1.2764
  561TMC3    C7 8329   1.838   2.705  11.504 -0.5898  0.0032  0.3238
  561TMC3    C8 8330   1.548   2.587  11.842  0.0727  0.2857 -0.2055
  561TMC3    O1 8331   1.918   2.646  11.579  0.0104 -0.3347 -0.1569
  561TMC3    O2 8332   1.629   2.514  11.899  0.1432 -0.0154 -0.1347
  562TMC3    C1 8333   2.337   4.243  16.641 -0.0533  0.0200 -0.3863
  562TMC3    C2 8334   2.276   4.338  16.564  0.7617 -0.8355  0.3283
  562TMC3    C3 8335   2.237   4.290  16.446 -0.9545 -0.2615  0.6002
  562TMC3    C4 8336   2.348   4.108  16.606  0.7100 -0.5441  0.0861
  562TMC3    C5 8337   2.292   4.071  16.482  0.2726  0.3183 -0.4609
  562TMC3    C6 8338   2.232   4.159  16.398  0.4897 -0.7154  0.1515
  562TMC3     C 8339   2.402   4.279  16.759 -0.5175 -0.1591  0.0041
  562TMC3     O 8340   2.484   4.199  16.806  0.8314 -0.0978  0.3890
  562TMC3     H 8341   2.267   4.442  16.594  0.7473 -0.5776 -0.5834
  562TMC3    H1 8342   2.411   4.042  16.664  0.5730 -1.4104 -0.7517
  562TMC3    H2 8343   2.185   4.130  16.304  1.4927  0.2924 -0.6566
  562TMC3    C7 8344   2.286   3.928  16.444 -0.2290 -0.3719 -0.2690
  562TMC3    C8 8345   2.166   4.394  16.366  0.8620  0.8762  0.4398
  562TMC3    O1 8346   2.236   3.902  16.334  0.7148 -0.1807 -0.4713
  562TMC3    O2 8347   2.129   4.496  16.422 -0.0116 -0.1509  0.5242
  563MPD2     C 8348   4.463   0.881  16.068 -0.0195 -0.1077  1.0726
  563MPD2    C1 8349   4.474   0.988  16.158  0.1797  0.0656  0.0878
  563MPD2    C2 8350   4.599   1.001  16.210  0.8710  0.3064  0.2172
  563MPD2    C3 8351   4.698   0.907  16.195  0.3664  0.6768  0.2905
  563MPD2    C4 8352   4.681   0.799  16.114 -0.4459  0.4389  0.1767
  563MPD2    C5 8353   4.562   0.787  16.056 -0.1886  0.2690  0.3440
  563MPD2     H 8354   4.615   1.078  16.284  1.0374  3.3397 -3.0057
  563MPD2    H1 8355   0.041   0.733  16.087 -0.2882  0.4278  0.6848
  563MPD2    H2 8356   4.370   0.864  16.017  1.3153 -1.5869 -0.8566
  563MPD2    H3 8357   4.551   0.704  15.987  1.2287 -0.0726  0.5161
  563MPD2     N 8358   0.089   0.935  16.275  0.2183  0.2798  0.0448
  563MPD2    H5 8359   0.093   1.023  16.325  1.1967  0.3270 -0.1128
  563MPD2    N1 8360   4.362   1.063  16.199  0.3473 -0.5863  0.2177
  563MPD2    H7 8361   4.277   1.022  16.160 -1.9890  2.7935  1.7986
  564TMC3    C1 8362   4.286   1.092  16.404  0.4518 -0.5290 -0.5554
  564TMC3    C2 8363   4.184   1.009  16.369  0.1164  0.5649  0.0992
  564TMC3    C3 8364   4.166   0.899  16.455  0.5065  0.2451  0.0770
  564TMC3    C4 8365   4.366   1.062  16.511  0.5765  0.1894 -0.1442
  564TMC3    C5 8366   4.349   0.960  16.594  0.5460 -0.3129  0.3403
  564TMC3    C6 8367   4.245   0.874  16.566 -0.3821  0.4346  0.2578
  564TMC3     C 8368   4.360   1.157  16.296  0.3525 -0.0452  0.3577
  564TMC3     O 8369   4.443   1.246  16.318  0.1514  0.1966 -0.0120
  564TMC3     H 8370   4.130   1.030  16.277  0.2190  0.0894 -0.0695
  564TMC3    H1 8371   4.455   1.122  16.527  1.9235 -1.8985  0.2755
  564TMC3    H2 8372   4.221   0.794  16.634 -0.3339  0.8429  0.7595
  564TMC3    C7 8373   4.465   0.880  16.612 -0.3783  0.3104  0.1573
  564TMC3    C8 8374   4.092   0.778  16.406 -0.4584  0.3230  0.4038
  564TMC3    O1 8375   4.566   0.930  16.653 -0.1841  0.1589  0.0529
  564TMC3    O2 8376   4.083   0.690  16.491 -0.0650 -0.0712  0.3407
  565TMC3    C1 8377   0.386   2.765   9.946 -0.4633 -0.1019  0.5810
  565TMC3    C2 8378   0.382   2.641  10.003  0.1951 -0.3253 -0.1680
  565TMC3    C3 8379   0.298   2.544   9.955  0.1287 -0.4710 -0.3093
  565TMC3    C4 8380   0.300   2.802   9.850 -0.0114  0.1550  0.6375
  565TMC3    C5 8381   0.214   2.713   9.806  0.1634 -0.2357  0.6424
  565TMC3    C6 8382   0.221   2.577   9.848  0.3742 -0.2369  0.4652
  565TMC3     C 8383   0.504   2.842   9.976  0.6901  0.2238  0.2183
  565TMC3     O 8384   0.557   2.894   9.877  0.1298  0.2265  0.4196
  565TMC3     H 8385   0.463   2.616  10.071 -0.7148 -2.5581  0.0827
  565TMC3    H1 8386   0.309   2.907   9.824  1.6690  0.0149  0.6349
  565TMC3    H2 8387   0.133   2.517   9.829 -1.2996  3.2371 -2.8531
  565TMC3    C7 8388   0.142   2.740   9.682  0.4376 -0.1677  0.1779
  565TMC3    C8 8389   0.281   2.420  10.033  0.2085  0.2560 -0.0968
  565TMC3    O1 8390   0.082   2.646   9.638  0.2463  0.7002  0.6797
  565TMC3    O2 8391   0.317   2.426  10.151  0.0229  0.2762 -0.0254
  566MPD2     C 8392   2.222   3.859  14.254  0.0382 -0.5384 -1.4744
  566MPD2    C1 8393   2.331   3.810  14.191  0.2566  0.1512 -0.4694
  566MPD2    C2 8394   2.320   3.695  14.111 -0.4683  0.2265 -1.1528
  566MPD2    C3 8395   2.192   3.644  14.095  0.2337 -0.1157 -0.7315
  566MPD2    C4 8396   2.076   3.694  14.155 -0.0200 -0.5748  0.3538
  566MPD2    C5 8397   2.101   3.795  14.242 -0.0861 -0.0891  0.4627
  566MPD2     H 8398   2.396   3.649  14.050  0.2094  0.4838 -0.5011
  566MPD2    H1 8399   1.978   3.652  14.138  0.1890 -1.5424  1.5130
  566MPD2    H2 8400   2.231   3.945  14.319  0.5395 -2.0350  0.4453
  566MPD2    H3 8401   2.020   3.834  14.303  0.9434 -0.1379  1.8435
  566MPD2     N 8402   2.163   3.531  14.020  0.1881 -0.1849  0.2516
  566MPD2    H5 8403   2.065   3.513  14.003  0.2575 -0.0244 -0.3190
  566MPD2    N1 8404   2.450   3.885  14.205  0.3257 -0.1459 -0.0363
  566MPD2    H7 8405   2.437   3.975  14.250  0.9844 -0.3315  0.5232
  567TMC3    C1 8406   2.678   3.936  14.198  0.2727  0.4677  0.7771
  567TMC3    C2 8407   2.779   3.939  14.106  0.1442 -0.3652  0.3585
  567TMC3    C3 8408   2.859   4.046  14.102  0.7389  0.5200  0.2183
  567TMC3    C4 8409   2.662   4.045  14.282 -0.1927  0.7038 -0.6871
  567TMC3    C5 8410   2.754   4.147  14.286 -0.1128  0.6317 -0.4759
  567TMC3    C6 8411   2.846   4.151  14.189 -0.1674  0.2968 -0.6908
  567TMC3     C 8412   2.572   3.842  14.163 -0.4442 -0.3743  0.1142
  567TMC3     O 8413   2.600   3.746  14.095 -0.5385 -0.7652 -0.7539
  567TMC3     H 8414   2.797   3.852  14.045  1.4382  1.6123 -2.0999
  567TMC3    H1 8415   2.581   4.045  14.354 -0.8957  1.1640 -1.4868
  567TMC3    H2 8416   2.919   4.231  14.179 -0.1863  0.1595 -1.9523
  567TMC3    C7 8417   2.763   4.237  14.406  0.2703  0.0338 -0.0497
  567TMC3    C8 8418   2.860   4.089  13.958 -0.5304  0.3821  0.2075
  567TMC3    O1 8419   2.821   4.350  14.400  0.4445 -0.1230 -0.1047
  567TMC3    O2 8420   2.837   4.209  13.948 -0.1293 -0.1587  0.7907
  568MPD2     C 8421   4.474   4.047  16.666  0.0732  0.2950  0.4193
  568MPD2    C1 8422   4.519   4.133  16.765 -0.2123 -0.6259  0.8216
  568MPD2    C2 8423   4.521   4.268  16.727 -0.7805  0.2061  0.1329
  568MPD2    C3 8424   4.461   4.318  16.610 -0.4361  0.3732 -0.3405
  568MPD2    C4 8425   4.414   4.227  16.514 -0.2105  0.1320  0.1657
  568MPD2    C5 8426   4.426   4.090  16.544 -0.0295  0.5481  0.4345
  568MPD2     H 8427   4.562   4.343  16.794 -2.9864  0.3161  1.3855
  568MPD2    H1 8428   4.362   4.257  16.424  0.3891 -1.4525 -0.7147
  568MPD2    H2 8429   4.466   3.940  16.683 -1.6058  0.1429 -1.2919
  568MPD2    H3 8430   4.400   4.013  16.472 -1.9645 -0.8194  2.5924
  568MPD2     N 8431   4.443   4.459  16.599  0.2101 -0.6101  0.0918
  568MPD2    H5 8432   4.478   4.505  16.682  0.1739 -1.5437  0.6173
  568MPD2    N1 8433   4.557   4.075  16.887  0.0834  0.4263 -0.1946
  568MPD2    H7 8434   4.546   3.974  16.892 -1.1001  0.6912  2.2512
  569TMC3    C1 8435   4.386   4.676  16.498  0.0827 -0.3033  0.7525
  569TMC3    C2 8436   4.438   0.018  16.604  0.3644 -0.0921 -0.5704
  569TMC3    C3 8437   4.500   0.138  16.584 -0.5169  0.1616  0.3315
  569TMC3    C4 8438   4.374   0.006  16.370 -0.4136  0.6741  0.0500
  569TMC3    C5 8439   4.426   0.135  16.362  0.5978 -0.3639  0.2227
  569TMC3    C6 8440   4.490   0.205  16.463  0.6892  0.1625  0.1084
  569TMC3     C 8441   4.383   4.529  16.495 -0.5108  0.1546  0.5728
  569TMC3     O 8442   4.344   4.484  16.385  0.5948 -0.5503 -0.5508
  569TMC3     H 8443   4.466   4.685  16.693  2.5407  0.3563 -0.9881
  569TMC3    H1 8444   4.313   4.677  16.296 -1.6919  1.1696  0.7499
  569TMC3    H2 8445   4.514   0.310  16.446  0.4391  0.5125  1.9320
  569TMC3    C7 8446   4.385   0.218  16.254 -0.8161  0.4266 -0.1150
  569TMC3    C8 8447   4.472   0.233  16.690 -1.1145 -0.5816 -0.0491
  569TMC3    O1 8448   4.389   0.161  16.148 -0.1844  0.8123  0.2078
  569TMC3    O2 8449   4.382   0.199  16.768  0.2824 -0.4837 -0.5002
  570TMC3    C1 8450   3.623   3.078  16.501  0.1058  0.2110  0.0696
  570TMC3    C2 8451   3.702   3.064  16.393 -0.0527 -0.2088  0.3851
  570TMC3    C3 8452   3.694   3.160  16.290 -0.3118 -0.5106  0.2041
  570TMC3    C4 8453   3.528   3.172  16.503 -0.4935  0.4723  0.8330
  570TMC3    C5 8454   3.507   3.252  16.397  0.0176  0.8561  1.1015
  570TMC3    C6 8455   3.590   3.250  16.291 -0.9759 -0.2636 -0.3606
  570TMC3     C 8456   3.628   2.972  16.591 -0.5958 -0.7229  0.1943
  570TMC3     O 8457   3.644   2.861  16.542  0.6126  0.2180 -0.6888
  570TMC3     H 8458   3.779   2.988  16.390  1.0054  0.8814 -0.0985
  570TMC3    H1 8459   3.471   3.182  16.595 -0.2523  3.5587  0.6688
  570TMC3    H2 8460   3.585   3.323  16.212 -0.3453  1.1532  0.9141
  570TMC3    C7 8461   3.445   3.381  16.425  0.7360  0.6381 -0.3355
  570TMC3    C8 8462   3.800   3.177  16.201  0.1752 -0.5564 -0.5255
  570TMC3    O1 8463   3.410   3.405  16.539  0.0521 -0.1930 -0.0471
  570TMC3    O2 8464   3.833   3.296  16.194  0.5457 -0.0386 -0.7911
  571MPD2     C 8465   1.176   0.130   0.298  0.3147 -0.8557 -0.8386
  571MPD2    C1 8466   1.255   0.053   0.377 -0.3480 -0.0943 -0.6150
  571MPD2    C2 8467   1.284   0.083   0.510 -0.4525  0.4161 -0.6992
  571MPD2    C3 8468   1.228   0.191   0.565  0.0250 -0.1817  0.2797
  571MPD2    C4 8469   1.151   0.273   0.490 -0.1072  0.7317  0.2515
  571MPD2    C5 8470   1.121   0.245   0.356  0.8526  0.6593 -0.2032
  571MPD2     H 8471   1.346   0.012   0.563 -1.7721 -0.5364 -0.4355
  571MPD2    H1 8472   1.120   0.368   0.533 -0.8246  1.2843 -1.4693
  571MPD2    H2 8473   1.166   0.118   0.191  1.4400  0.8303 -1.1275
  571MPD2    H3 8474   1.066   0.320   0.301 -0.3849  0.9907  1.4691
  571MPD2     N 8475   1.258   0.233   0.697 -0.1323  0.4088 -0.2143
  571MPD2    H5 8476   1.202   0.313   0.727  0.9015  1.0116  0.0821
  571MPD2    N1 8477   1.322   4.671   0.320 -0.4302 -0.4280 -0.7696
  571MPD2    H7 8478   1.349   4.678   0.223  0.1651 -2.5765 -0.7598
  572TMC3    C1 8479   1.382   0.250   0.896 -0.4935  0.0090  0.3298
  572TMC3    C2 8480   1.436   0.190   1.003 -0.4610  0.3993 -0.0649
  572TMC3    C3 8481   1.481   0.263   1.113 -0.7390 -0.0714 -0.5248
  572TMC3    C4 8482   1.389   0.385   0.876 -0.0336  0.2813 -0.1445
  572TMC3    C5 8483   1.447   0.457   0.984  0.2060  0.0282  0.2327
  572TMC3    C6 8484   1.501   0.402   1.102  0.7767 -0.5582  0.4791
  572TMC3     C 8485   1.340   0.167   0.789  0.7704  0.3749  0.2818
  572TMC3     O 8486   1.393   0.057   0.795 -0.1022  0.7176  0.4105
  572TMC3     H 8487   1.427   0.083   1.018 -1.9068  0.8565  2.4516
  572TMC3    H1 8488   1.369   0.427   0.778 -0.1382 -2.5609 -1.3392
  572TMC3    H2 8489   1.557   0.461   1.175  1.4893  0.7154 -1.0962
  572TMC3    C7 8490   1.446   0.601   0.957 -1.2634  0.4116  0.4025
  572TMC3    C8 8491   1.556   0.189   1.213 -0.5280  0.3411  0.3371
  572TMC3    O1 8492   1.440   0.634   0.836  0.0972 -0.6023  0.0831
  572TMC3    O2 8493   1.584   0.075   1.188  0.6044  0.0916 -0.1983
  573MPD2     C 8494   2.860   1.439   1.435  0.3124  0.5546 -1.0077
  573MPD2    C1 8495   2.994   1.432   1.421 -0.5988  1.0446 -1.0558
  573MPD2    C2 8496   3.042   1.345   1.320 -0.7230  0.0637  0.1916
  573MPD2    C3 8497   2.949   1.275   1.241  0.1508  0.8791  0.9293
  573MPD2    C4 8498   2.814   1.278   1.266  0.0916 -0.4727 -0.0965
  573MPD2    C5 8499   2.771   1.354   1.372 -0.8783  0.1958 -0.2102
  573MPD2     H 8500   3.148   1.328   1.307 -1.0581 -2.4356  0.7077
  573MPD2    H1 8501   2.738   1.223   1.212 -0.9229 -1.9058  2.8229
  573MPD2    H2 8502   2.818   1.519   1.495  0.4334 -0.7268  0.7820
  573MPD2    H3 8503   2.665   1.361   1.395 -1.1248  0.3217 -1.3564
  573MPD2     N 8504   2.981   1.178   1.140 -0.9581 -0.2677  0.8431
  573MPD2    H5 8505   2.901   1.138   1.091  0.6973  0.2162 -2.2431
  573MPD2    N1 8506   3.070   1.516   1.496 -0.1784 -0.0433 -0.5308
  573MPD2    H7 8507   3.023   1.582   1.558  0.2359  0.1823 -0.4546
  574TMC3    C1 8508   3.093   1.097   0.954  0.8059 -0.7418 -0.3006
  574TMC3    C2 8509   2.977   1.027   0.920  0.4077 -0.0529  0.6026
  574TMC3    C3 8510   2.949   0.993   0.793  0.4749 -0.5390  0.3065
  574TMC3    C4 8511   3.180   1.131   0.856 -0.3411  0.7103  0.2104
  574TMC3    C5 8512   3.139   1.094   0.725  0.4466 -1.5256 -0.4307
  574TMC3    C6 8513   3.016   1.034   0.686 -0.1518  0.1797  0.1882
  574TMC3     C 8514   3.105   1.162   1.082  0.5740 -0.1334  0.0402
  574TMC3     O 8515   3.210   1.229   1.096  0.4795  0.0563 -0.0410
  574TMC3     H 8516   2.907   0.993   0.995 -1.0171  2.4167  0.4232
  574TMC3    H1 8517   3.274   1.177   0.882 -0.4583 -0.9307  3.4576
  574TMC3    H2 8518   2.992   0.996   0.587  1.7188 -2.3027  0.6808
  574TMC3    C7 8519   3.204   1.161   0.618  0.7221 -0.4392 -0.7477
  574TMC3    C8 8520   2.815   0.947   0.766 -0.2072 -0.0611 -0.6299
  574TMC3    O1 8521   3.138   1.189   0.519 -0.6998 -0.2450 -0.2245
  574TMC3    O2 8522   2.757   0.876   0.841 -0.3933 -0.0708  0.4548
  575TMC3    C1 8523   0.653   1.896  10.611  0.4487 -0.0390 -0.5334
  575TMC3    C2 8524   0.583   1.801  10.674  0.9405 -0.2177 -0.5865
  575TMC3    C3 8525   0.459   1.771  10.621  0.2943  0.1129 -0.6875
  575TMC3    C4 8526   0.609   1.955  10.498  0.2286 -0.4285 -0.2090
  575TMC3    C5 8527   0.490   1.911  10.447  0.7579  0.9173  0.5787
  575TMC3    C6 8528   0.414   1.818  10.503  0.0771  0.3259  0.0897
  575TMC3     C 8529   0.798   1.891  10.641 -0.3397 -0.3229 -0.8098
  575TMC3     O 8530   0.838   1.840  10.744 -0.0158  0.3002 -0.1707
  575TMC3     H 8531   0.621   1.753  10.764 -2.5921 -2.3643 -0.2172
  575TMC3    H1 8532   0.673   2.029  10.451 -0.2899 -0.0143 -0.2620
  575TMC3    H2 8533   0.317   1.800  10.459 -0.2039  0.7799  0.5388
  575TMC3    C7 8534   0.435   1.996  10.345 -0.6671 -0.4173  0.0576
  575TMC3    C8 8535   0.373   1.682  10.688 -0.5063 -0.2468  0.2479
  575TMC3    O1 8536   0.478   2.109  10.342  0.5266  0.2822 -0.2376
  575TMC3    O2 8537   0.284   1.633  10.617  0.3710  0.0212  0.0526
  576MPD2     C 8538   0.736   3.173  12.925  0.0865  0.3141  0.4794
  576MPD2    C1 8539   0.648   3.191  12.813  0.3334 -0.1446  0.4188
  576MPD2    C2 8540   0.533   3.276  12.834  1.1296 -0.0937 -0.5670
  576MPD2    C3 8541   0.510   3.335  12.956 -0.0468 -0.2634  0.0254
  576MPD2    C4 8542   0.590   3.308  13.058  0.3959 -0.7719  0.0878
  576MPD2    C5 8543   0.701   3.226  13.043 -0.2456  0.0135 -0.0009
  576MPD2     H 8544   0.476   3.303  12.746 -0.0866 -0.9942 -0.0587
  576MPD2    H1 8545   0.565   3.343  13.157 -0.2925  0.0434 -0.3715
  576MPD2    H2 8546   0.832   3.127  12.907 -0.2396 -0.5184  0.8505
  576MPD2    H3 8547   0.745   3.192  13.136 -0.0362  1.3529  0.3929
  576MPD2     N 8548   0.401   3.419  12.970 -0.0238 -0.0017  0.2495
  576MPD2    H5 8549   0.364   3.469  12.890  0.2478 -1.0061 -0.5156
  576MPD2    N1 8550   0.691   3.149  12.686 -0.5200  0.0939  0.2634
  576MPD2    H7 8551   0.646   3.200  12.610  0.5226  1.0292  0.2735
  577TMC3    C1 8552   0.824   3.026  12.518  0.5811  0.2908 -0.2921
  577TMC3    C2 8553   0.942   2.959  12.506 -0.5039 -0.8763 -0.2490
  577TMC3    C3 8554   0.995   2.936  12.377 -0.1734  0.4090  0.0045
  577TMC3    C4 8555   0.756   3.074  12.407  0.3730  0.2560 -0.3553
  577TMC3    C5 8556   0.803   3.041  12.284  0.1007  0.0964  0.1310
  577TMC3    C6 8557   0.915   2.961  12.271 -0.0348  0.7831  0.1325
  577TMC3     C 8558   0.793   3.058  12.657 -0.6419 -0.2166  0.2851
  577TMC3     O 8559   0.852   2.984  12.737  0.5273  0.0623  0.3275
  577TMC3     H 8560   1.000   2.924  12.591 -1.1288 -1.2451  0.0232
  577TMC3    H1 8561   0.658   3.118  12.414  0.3243  0.1690 -0.5034
  577TMC3    H2 8562   0.942   2.931  12.170  1.6570  0.5948  0.6300
  577TMC3    C7 8563   0.692   2.994  12.205 -0.1644  0.1341 -0.1032
  577TMC3    C8 8564   1.095   2.829  12.366 -0.2461 -0.2734 -0.0941
  577TMC3    O1 8565   0.704   2.880  12.162  0.0661 -0.2096  0.0163
  577TMC3    O2 8566   1.112   2.767  12.474  0.9092  0.0885  0.0849
  578MPD2     C 8567   3.253   4.287   0.922  0.0591 -0.2201  0.3720
  578MPD2    C1 8568   3.301   4.174   0.863 -0.3128  0.2576  0.8415
  578MPD2    C2 8569   3.352   4.073   0.946 -0.3485  0.5258  0.5031
  578MPD2    C3 8570   3.351   4.086   1.085 -0.1234  0.4912 -0.2997
  578MPD2    C4 8571   3.291   4.197   1.146  0.3314  0.2442 -0.2474
  578MPD2    C5 8572   3.239   4.292   1.059  0.5477  0.1398  0.5167
  578MPD2     H 8573   3.405   3.986   0.908 -0.5695  0.3462  0.6083
  578MPD2    H1 8574   3.276   4.220   1.251  1.7593 -0.8303  0.1850
  578MPD2    H2 8575   3.210   4.368   0.866  1.1220  0.4618  0.5439
  578MPD2    H3 8576   3.187   4.378   1.100  2.6641  2.8495 -2.5155
  578MPD2     N 8577   3.413   3.989   1.161  0.2250  0.1990  0.4006
  578MPD2    H5 8578   3.473   3.924   1.111  1.6346  0.7403  1.3797
  578MPD2    N1 8579   3.308   4.174   0.720 -0.3177  0.0372  0.4093
  578MPD2    H7 8580   3.295   4.262   0.672  1.4606 -1.4333 -2.7581
  579TMC3    C1 8581   3.520   3.898   1.354  0.1301  1.0676 -0.8512
  579TMC3    C2 8582   3.600   3.946   1.457  0.0101 -0.3307 -0.4561
  579TMC3    C3 8583   3.709   3.874   1.502 -1.1721  0.3204 -0.2836
  579TMC3    C4 8584   3.542   3.781   1.282  0.0209  1.1367  0.0982
  579TMC3    C5 8585   3.650   3.714   1.332 -0.2315  0.4988  0.8015
  579TMC3    C6 8586   3.733   3.757   1.435  0.4582 -0.4954 -0.1026
  579TMC3     C 8587   3.421   3.993   1.301  0.0049  0.0219  0.6625
  579TMC3     O 8588   3.370   4.074   1.378 -0.0621 -0.8978 -0.5555
  579TMC3     H 8589   3.579   4.046   1.492  1.2261  0.0802 -0.8711
  579TMC3    H1 8590   3.472   3.739   1.211  1.9020 -2.9856  0.6918
  579TMC3    H2 8591   3.814   3.691   1.462  0.5809 -0.2277  0.1830
  579TMC3    C7 8592   3.705   3.608   1.253 -0.6974  0.5495  0.3751
  579TMC3    C8 8593   3.754   3.897   1.639  0.0306 -0.7298 -0.3177
  579TMC3    O1 8594   3.827   3.601   1.253  0.2572  0.0822 -0.0094
  579TMC3    O2 8595   3.676   3.971   1.701  0.5659  0.2739  0.4060
  580TMC3    C1 8596   3.451   2.382  12.406 -0.1546  0.4782  0.4886
  580TMC3    C2 8597   3.566   2.423  12.345 -0.0242 -0.0852  0.7345
  580TMC3    C3 8598   3.675   2.395  12.422 -0.3654  0.2312  0.5275
  580TMC3    C4 8599   3.443   2.298  12.516 -0.4907 -0.6777 -0.7683
  580TMC3    C5 8600   3.558   2.260  12.573  0.3313 -0.5120  0.4439
  580TMC3    C6 8601   3.669   2.317  12.526  0.6078 -0.1312 -0.7713
  580TMC3     C 8602   3.321   2.427  12.358 -0.7349  0.1031  0.0376
  580TMC3     O 8603   3.222   2.377  12.411  0.0310  0.5918 -0.4457
  580TMC3     H 8604   3.569   2.491  12.260 -1.4454  0.1661  0.8876
  580TMC3    H1 8605   3.346   2.268  12.554 -0.1487 -0.8016  0.0101
  580TMC3    H2 8606   3.758   2.298  12.585  0.0525 -4.6099 -1.4296
  580TMC3    C7 8607   3.565   2.144  12.666  0.2689  0.1938  0.3769
  580TMC3    C8 8608   3.800   2.461  12.386 -0.4941 -0.0383  0.0294
  580TMC3    O1 8609   3.642   2.159  12.763  0.1375  0.1340 -0.4702
  580TMC3    O2 8610   3.875   2.483  12.481  0.1453 -0.6893  0.5666
  581MPD2     C 8611   1.188   1.845  15.056  0.7200  0.6334 -0.3309
  581MPD2    C1 8612   1.060   1.842  15.095 -0.2093  0.0115 -0.0993
  581MPD2    C2 8613   0.963   1.898  15.011  0.1410  0.0352  0.3363
  581MPD2    C3 8614   0.998   1.959  14.890  0.2907 -0.2963  0.7568
  581MPD2    C4 8615   1.131   1.960  14.852  0.2800 -0.2871 -0.1904
  581MPD2    C5 8616   1.226   1.891  14.930  0.2901  0.2426 -0.1168
  581MPD2     H 8617   0.855   1.898  15.027  0.0584 -0.1745 -0.2065
  581MPD2    H1 8618   1.171   2.005  14.762 -0.0398  0.4419  0.0279
  581MPD2    H2 8619   1.266   1.806  15.119 -0.1872 -0.1940  0.2661
  581MPD2    H3 8620   1.326   1.866  14.895 -0.5697 -1.6693 -1.2060
  581MPD2     N 8621   0.898   2.013  14.802 -0.2421  0.2114 -0.1774
  581MPD2    H5 8622   0.804   2.015  14.840 -0.3706 -0.7899 -0.4414
  581MPD2    N1 8623   1.028   1.789  15.220  0.4103  0.1272  0.2806
  581MPD2    H7 8624   1.103   1.760  15.282  1.5399  2.7731  0.1315
  582TMC3    C1 8625   0.904   1.740  15.417 -0.4857  0.8450 -0.3049
  582TMC3    C2 8626   1.013   1.737  15.499 -0.3740 -0.0383  0.5912
  582TMC3    C3 8627   0.995   1.719  15.635 -0.2874 -0.2351  0.6504
  582TMC3    C4 8628   0.781   1.714  15.465  0.0790 -0.0485 -0.2175
  582TMC3    C5 8629   0.767   1.702  15.604 -1.1183 -0.2388 -0.8895
  582TMC3    C6 8630   0.873   1.705  15.690  0.0535 -0.1829 -0.2192
  582TMC3     C 8631   0.906   1.789  15.276  0.2826 -0.4849 -0.8674
  582TMC3     O 8632   0.799   1.815  15.222 -0.2870  0.2313 -0.7404
  582TMC3     H 8633   1.114   1.754  15.465  0.2594 -4.0397  0.4555
  582TMC3    H1 8634   0.691   1.717  15.405  1.1094  0.5394 -1.7351
  582TMC3    H2 8635   0.858   1.684  15.795  1.9286 -0.7653 -0.0817
  582TMC3    C7 8636   0.637   1.731  15.662 -0.0257 -0.1612  0.0651
  582TMC3    C8 8637   1.108   1.753  15.724 -0.5036  0.3126 -0.0634
  582TMC3    O1 8638   0.606   1.665  15.760  0.2696  0.7862  0.2251
  582TMC3    O2 8639   1.227   1.734  15.690 -0.2592 -0.3974  0.3092
  583MPD2     C 8640   0.969   3.825  17.018 -0.2782 -0.3488 -0.6482
  583MPD2    C1 8641   0.976   3.959  16.976  0.4798  0.6570 -0.7011
  583MPD2    C2 8642   0.949   4.060  17.072 -0.1194 -0.4569  0.0330
  583MPD2    C3 8643   0.925   4.021  17.203  0.0274 -0.4029 -0.4707
  583MPD2    C4 8644   0.936   3.887  17.245 -0.3113  0.0954  0.2846
  583MPD2    C5 8645   0.962   3.790  17.151 -0.0771  1.0195 -0.3710
  583MPD2     H 8646   0.944   4.164  17.042 -0.1005 -0.2981  0.5853
  583MPD2    H1 8647   0.939   3.860  17.350  1.8879  1.2062  0.5124
  583MPD2    H2 8648   0.992   3.740  16.954  2.6998 -1.1707  1.5199
  583MPD2    H3 8649   0.985   3.689  17.182 -0.1255  0.8367 -0.9364
  583MPD2     N 8650   0.893   4.127  17.290  0.0234 -0.2252 -0.3356
  583MPD2    H5 8651   0.863   4.211  17.244  0.6692 -1.2053 -2.5590
  583MPD2    N1 8652   0.990   3.998  16.842  0.0606  0.3726 -0.2533
  583MPD2    H7 8653   0.979   4.097  16.821  0.9260  0.8197  1.4075
  584TMC3    C1 8654   0.858   4.246  17.482 -0.1494  0.4478  0.0503
  584TMC3    C2 8655   0.851   4.360  17.406 -0.5161  0.0772  0.1467
  584TMC3    C3 8656   0.829   4.475  17.475  0.2396 -0.8614  0.3385
  584TMC3    C4 8657   0.828   4.243  17.614  0.4360 -0.1493 -0.3673
  584TMC3    C5 8658   0.809   4.361  17.676  0.1056 -0.0892  0.3612
  584TMC3    C6 8659   0.800   4.473  17.608 -0.3103 -0.6511  0.4267
  584TMC3     C 8660   0.873   4.114  17.420 -0.4111  0.1021 -0.1468
  584TMC3     O 8661   0.890   4.023  17.491 -0.5377 -0.3311  0.7104
  584TMC3     H 8662   0.877   4.361  17.301 -0.7556  0.1991  0.0864
  584TMC3    H1 8663   0.856   4.152  17.665  1.0150  0.1400 -0.1691
  584TMC3    H2 8664   0.760   4.562  17.656  1.0802 -0.0734  0.5080
  584TMC3    C7 8665   0.758   4.348   0.125  0.4481 -0.7682 -0.3402
  584TMC3    C8 8666   0.838   4.598  17.399 -0.0240  0.3917 -0.3824
  584TMC3    O1 8667   0.775   4.244   0.185  0.3345 -0.9961  0.0006
  584TMC3    O2 8668   0.820   4.585  17.276 -0.2974 -0.6891 -0.0910
  585MPD2     C 8669   0.121   3.216   1.177  0.6048  0.0319  0.0554
  585MPD2    C1 8670   0.127   3.215   1.040  0.1837 -0.0973 -0.2866
  585MPD2    C2 8671   0.101   3.096   0.969 -0.2948 -0.0940 -0.5025
  585MPD2    C3 8672   0.092   2.974   1.038  0.2670 -1.2374  0.0231
  585MPD2    C4 8673   0.086   2.979   1.177 -0.0502  0.3982 -0.1961
  585MPD2    C5 8674   0.100   3.095   1.240 -0.4330 -0.7321 -0.0674
  585MPD2     H 8675   0.099   3.099   0.860 -0.4222  0.0649 -0.4965
  585MPD2    H1 8676   0.081   2.885   1.231 -2.0723 -0.2195 -1.4475
  585MPD2    H2 8677   0.140   3.308   1.231 -0.3502  0.0173  0.4101
  585MPD2    H3 8678   0.103   3.102   1.349 -0.5547  0.8337 -0.1605
  585MPD2     N 8679   0.079   2.857   0.964 -0.4260  0.2572  0.1426
  585MPD2    H5 8680   0.060   2.776   1.023  1.8492  0.0714  0.6166
  585MPD2    N1 8681   0.138   3.343   0.979  0.0766  0.7819 -0.4881
  585MPD2    H7 8682   0.130   3.423   1.041 -0.2082  0.2833  0.1221
  586TMC3    C1 8683   0.109   2.700   0.805 -0.1212  0.2492  0.0571
  586TMC3    C2 8684   0.220   2.650   0.743  0.3651 -0.4802 -0.2416
  586TMC3    C3 8685   0.226   2.513   0.722 -0.1761  1.0439 -0.2112
  586TMC3    C4 8686   4.718   2.623   0.821 -0.2398  0.1097 -0.2816
  586TMC3    C5 8687   0.004   2.491   0.781  0.2830 -0.5067  0.4865
  586TMC3    C6 8688   0.123   2.425   0.751 -0.3414 -0.2419 -0.6277
  586TMC3     C 8689   0.106   2.842   0.833  0.3306 -0.3112  0.2842
  586TMC3     O 8690   0.161   2.910   0.748  0.1379 -0.4332 -0.3658
  586TMC3     H 8691   0.304   2.718   0.738  0.7845 -0.9379  0.6362
  586TMC3    H1 8692   4.636   2.672   0.873  1.4114  2.2143  0.3446
  586TMC3    H2 8693   0.132   2.320   0.726  0.2592 -0.0992 -1.0085
  586TMC3    C7 8694   4.618   2.450   0.697  0.5320 -0.7600 -0.5948
  586TMC3    C8 8695   0.303   2.476   0.612  0.0900 -0.4357  0.5187
  586TMC3    O1 8696   4.647   2.346   0.640  0.0897  0.1940  0.0600
  586TMC3    O2 8697   0.343   2.363   0.624  0.2492  0.0005 -0.1346
  587TMC3    C1 8698   2.279   1.448  17.398  0.1638  0.3262  0.1202
  587TMC3    C2 8699   2.290   1.517  17.278 -0.2043  0.5505  0.0397
  587TMC3    C3 8700   2.359   1.464  17.176  0.1987  0.8427 -0.3035
  587TMC3    C4 8701   2.345   1.332  17.411 -0.4150 -0.0951 -0.0509
  587TMC3    C5 8702   2.409   1.280  17.306 -0.3000  0.6648  0.4540
  587TMC3    C6 8703   2.414   1.341  17.183  0.5050 -0.3987 -0.3343
  587TMC3     C 8704   2.155   1.465  17.475 -0.0323  0.4146 -0.4351
  587TMC3     O 8705   2.153   1.436  17.591 -0.1929 -0.7529  0.3169
  587TMC3     H 8706   2.229   1.604  17.260 -1.8253 -0.1843  1.8697
  587TMC3    H1 8707   2.338   1.278  17.505 -0.1582  1.4201  0.8342
  587TMC3    H2 8708   2.466   1.308  17.093  0.2539  3.3019 -1.8220
  587TMC3    C7 8709   2.482   1.162  17.333  0.5060  0.2119  0.2103
  587TMC3    C8 8710   2.372   1.540  17.056  0.0326  0.8758  0.1139
  587TMC3    O1 8711   2.443   1.087  17.426  0.5773  0.5475  0.4799
  587TMC3    O2 8712   2.383   1.478  16.952 -0.7211  0.3646 -0.0219
  588TMC3    C1 8713   4.458   4.207   9.989  0.2441  0.6079  0.1726
  588TMC3    C2 8714   4.448   4.078   9.947  0.0888 -0.0702 -0.5217
  588TMC3    C3 8715   4.557   3.994   9.950  0.4850 -0.3050 -1.0234
  588TMC3    C4 8716   4.575   4.257  10.020 -0.1010  0.1213  0.0770
  588TMC3    C5 8717   4.686   4.174  10.033  0.2253  0.0806  0.8807
  588TMC3    C6 8718   4.683   4.037  10.005  0.4029 -0.0465  0.3008
  588TMC3     C 8719   4.340   4.298   9.987 -0.4231 -0.7988 -0.1025
  588TMC3     O 8720   4.225   4.250   9.989 -0.3186 -0.7062  0.4818
  588TMC3     H 8721   4.348   4.052   9.915  0.0239  0.0479 -0.4175
  588TMC3    H1 8722   4.583   4.340  10.090 -2.5191 -0.3268  0.8656
  588TMC3    H2 8723   0.059   3.989  10.000  1.2871  1.8477 -0.7847
  588TMC3    C7 8724   0.086   4.234  10.085 -0.0502 -0.6672 -0.4663
  588TMC3    C8 8725   4.524   3.856   9.918 -0.0963 -0.0912  0.0743
  588TMC3    O1 8726   0.152   4.167  10.160 -0.2120  0.8429  0.4170
  588TMC3    O2 8727   4.409   3.830   9.897 -0.2699  0.1780  0.4476
  589TMC3    C1 8728   4.152   2.214   1.729 -0.3197 -0.0743  0.7021
  589TMC3    C2 8729   4.217   2.286   1.822  0.3491  0.7530  0.9625
  589TMC3    C3 8730   4.358   2.284   1.821 -0.3993  0.9566 -0.6376
  589TMC3    C4 8731   4.215   2.137   1.634  0.1688  0.9091 -0.4683
  589TMC3    C5 8732   4.353   2.130   1.637 -0.1024  0.4230  0.0467
  589TMC3    C6 8733   4.423   2.200   1.731 -0.1522  0.9137  0.0550
  589TMC3     C 8734   4.031   2.271   1.679 -0.5333  0.1807 -0.3111
  589TMC3     O 8735   4.005   2.244   1.561  0.6056  0.7277 -0.0095
  589TMC3     H 8736   4.165   2.364   1.877 -1.1070  1.5761 -1.5837
  589TMC3    H1 8737   4.166   2.085   1.553 -1.6728  1.2700  0.4206
  589TMC3    H2 8738   4.530   2.202   1.714 -0.0187  0.3335  0.8028
  589TMC3    C7 8739   4.414   2.003   1.586 -0.7414  0.3054  0.7866
  589TMC3    C8 8740   4.425   2.350   1.929  0.0871 -0.3379  0.7982
  589TMC3    O1 8741   4.535   1.998   1.574  0.3380  0.6214 -0.8320
  589TMC3    O2 8742   4.354   2.394   2.022  1.1251 -0.4523 -0.5005
  590MPD2     C 8743   3.450   4.482  16.711 -0.6275  0.5715 -0.0534
  590MPD2    C1 8744   3.386   4.591  16.637  0.2529  0.2421  0.0733
  590MPD2    C2 8745   3.459   4.678  16.563  0.1412 -0.2699  0.4559
  590MPD2    C3 8746   3.596   4.672  16.557  0.4209  0.3947  0.1747
  590MPD2    C4 8747   3.656   4.563  16.613 -0.9249  0.6157  0.0661
  590MPD2    C5 8748   3.584   4.474  16.699 -0.5005  0.2679  1.1016
  590MPD2     H 8749   3.406   0.039  16.516  1.3822 -0.1104 -0.6675
  590MPD2    H1 8750   3.763   4.548  16.617 -1.0565  0.0173  1.2844
  590MPD2    H2 8751   3.400   4.407  16.771  1.7150 -0.9677 -0.0235
  590MPD2    H3 8752   3.635   4.396  16.754  0.0848 -1.1350 -1.4454
  590MPD2     N 8753   3.664   0.054  16.488  0.1693 -0.7013 -0.0663
  590MPD2    H5 8754   3.614   0.137  16.455 -1.6680 -1.4108  0.9589
  590MPD2    N1 8755   3.243   4.605  16.641  0.1237  0.3406 -0.9241
  590MPD2    H7 8756   3.199   4.674  16.581 -1.7974  0.1548  0.2936
  591TMC3    C1 8757   3.847   0.178  16.406 -0.2729 -0.0944  0.3568
  591TMC3    C2 8758   3.939   0.156  16.314 -0.3980 -0.0802  0.1111
  591TMC3    C3 8759   3.955   0.247  16.216  0.2654 -0.6064  0.1291
  591TMC3    C4 8760   3.760   0.283  16.406  0.3199 -0.9929 -0.4387
  591TMC3    C5 8761   3.786   0.379  16.307  0.1500 -0.0161 -0.1747
  591TMC3    C6 8762   3.877   0.359  16.211 -0.8418 -0.3546  0.8851
  591TMC3     C 8763   3.809   0.060  16.480 -0.3790 -0.5890  0.4280
  591TMC3     O 8764   3.896   4.691  16.501  0.3809 -0.4148 -0.2534
  591TMC3     H 8765   4.001   0.067  16.326 -2.1886 -0.8360  3.8398
  591TMC3    H1 8766   3.687   0.302  16.483  0.2083 -0.8486 -0.5806
  591TMC3    H2 8767   3.889   0.426  16.126 -2.3527 -0.8024  0.3234
  591TMC3    C7 8768   3.732   0.513  16.334  0.7718  0.8561 -0.0202
  591TMC3    C8 8769   4.012   0.190  16.098 -0.1656  0.0627 -0.3906
  591TMC3    O1 8770   3.663   0.517  16.434 -0.0160  0.0811  0.1473
  591TMC3    O2 8771   4.064   0.076  16.106 -0.1816 -0.3774  0.3839
  592MPD2     C 8772   4.258   2.003  11.522  0.3693 -0.3386 -0.2730
  592MPD2    C1 8773   4.243   2.052  11.648 -0.1045 -0.1050  0.5381
  592MPD2    C2 8774   4.155   2.007  11.738 -0.1261  0.0340  0.8219
  592MPD2    C3 8775   4.061   1.906  11.703 -1.0085  0.0007 -0.2091
  592MPD2    C4 8776   4.080   1.860  11.574 -0.7645 -0.6951  0.5105
  592MPD2    C5 8777   4.173   1.906  11.486  0.5722  1.2656 -0.1529
  592MPD2     H 8778   4.147   2.048  11.838 -2.2938 -0.1650  0.7453
  592MPD2    H1 8779   4.028   1.779  11.524 -1.3570  1.6368 -2.6392
  592MPD2    H2 8780   4.330   2.046  11.453 -1.0329  1.5721 -0.5782
  592MPD2    H3 8781   4.187   1.875  11.383 -2.6512 -1.9483  0.3998
  592MPD2     N 8782   3.958   1.861  11.796  0.1243  0.0808 -0.3451
  592MPD2    H5 8783   3.943   1.914  11.881 -0.3757  0.3351 -0.5891
  592MPD2    N1 8784   4.326   2.164  11.678  0.7020 -0.3459 -0.0472
  592MPD2    H7 8785   4.377   2.201  11.599 -0.1370 -0.3896 -0.6049
  593TMC3    C1 8786   4.446   2.326  11.811  0.2003 -0.3036 -0.2544
  593TMC3    C2 8787   4.451   2.392  11.933  0.6552 -0.2058  0.4904
  593TMC3    C3 8788   4.577   2.455  11.965  0.2319 -0.3690  0.4697
  593TMC3    C4 8789   4.545   2.322  11.721 -0.3529  0.6535  0.1394
  593TMC3    C5 8790   4.653   2.401  11.748 -0.1549  1.1253 -0.2659
  593TMC3    C6 8791   4.666   2.470  11.865  0.4002 -0.5862  0.5294
  593TMC3     C 8792   4.351   2.210  11.806 -0.5639 -0.6278  0.2061
  593TMC3     O 8793   4.291   2.187  11.910  0.3056  0.1447  0.1739
  593TMC3     H 8794   4.375   2.389  12.010 -1.3284 -1.8265 -1.5408
  593TMC3    H1 8795   4.534   2.257  11.635 -0.6640  0.5265  0.2760
  593TMC3    H2 8796   0.016   2.551  11.879 -1.3315  1.0517 -0.1155
  593TMC3    C7 8797   0.032   2.420  11.642 -0.2857 -0.0308  0.2483
  593TMC3    C8 8798   4.584   2.544  12.080  0.4854  0.8123 -0.4235
  593TMC3    O1 8799   4.706   2.405  11.532 -0.1124  0.1468  0.2361
  593TMC3    O2 8800   4.493   2.613  12.122 -0.6521  0.9833 -0.0906
  594MPD2     C 8801   2.772   0.405  14.465  0.2956 -0.0137  0.6385
  594MPD2    C1 8802   2.664   0.490  14.440 -0.2196  0.4997  0.8845
  594MPD2    C2 8803   2.685   0.615  14.395 -0.0976  0.2754  0.1823
  594MPD2    C3 8804   2.813   0.656  14.369  0.2004  0.5146  0.4134
  594MPD2    C4 8805   2.922   0.573  14.385 -0.4585  0.8722 -0.7405
  594MPD2    C5 8806   2.898   0.451  14.426 -0.2640  0.4073  0.6554
  594MPD2     H 8807   2.594   0.672  14.382 -1.5406 -2.2699 -0.9058
  594MPD2    H1 8808   3.024   0.598  14.358  0.0482 -1.4122 -0.9186
  594MPD2    H2 8809   2.761   0.304  14.502  0.6570 -0.3850 -0.2536
  594MPD2    H3 8810   2.971   0.376  14.453 -0.3383  0.4008  0.8375
  594MPD2     N 8811   2.819   0.794  14.332 -0.3577 -0.2532 -0.2266
  594MPD2    H5 8812   2.734   0.846  14.315 -0.3187  0.0024  0.3820
  594MPD2    N1 8813   2.529   0.454  14.474  0.5718 -0.2026 -0.0132
  594MPD2    H7 8814   2.453   0.512  14.440 -0.8793 -2.1395 -0.1039
  595TMC3    C1 8815   3.090   1.166  14.410 -0.0666  0.0155 -0.0979
  595TMC3    C2 8816   3.049   1.072  14.319 -0.4306 -0.3218 -0.6418
  595TMC3    C3 8817   2.921   1.011  14.331 -0.3600  0.6032  0.3945
  595TMC3    C4 8818   3.018   1.185  14.522 -0.4722  0.9288 -0.0525
  595TMC3    C5 8819   2.892   1.137  14.529  0.4672 -0.1955 -0.1403
  595TMC3    C6 8820   2.842   1.047  14.437 -0.1657 -0.3953  0.4494
  595TMC3     C 8821   3.232   1.179  14.422 -0.4936 -0.4914  0.5405
  595TMC3     O 8822   3.278   1.159  14.535 -0.0197  0.4854  0.3616
  595TMC3     H 8823   3.118   1.032  14.246  4.1019 -0.4788  3.7461
  595TMC3    H1 8824   3.054   1.270  14.580 -0.5643  0.6347  0.4339
  595TMC3    H2 8825   2.767   0.981  14.480  0.2203 -0.7896  0.5129
  595TMC3    C7 8826   2.799   1.217  14.611 -0.0706 -0.0942 -0.0523
  595TMC3    C8 8827   2.934   0.865  14.311  0.3564  0.6392 -0.5935
  595TMC3    O1 8828   2.683   1.208  14.576  0.4583 -0.6390  0.1436
  595TMC3    O2 8829   3.050   0.829  14.307  0.5782  0.0886 -0.0879
  596MPD2     C 8830   1.709   3.649  17.041  0.1731 -0.4681 -0.1302
  596MPD2    C1 8831   1.693   3.767  16.976  0.1496 -0.0269 -0.7170
  596MPD2    C2 8832   1.684   3.775  16.837 -1.5839 -0.4379 -1.0288
  596MPD2    C3 8833   1.692   3.658  16.758  0.0272 -0.8338  0.0346
  596MPD2    C4 8834   1.702   3.538  16.822  0.4930 -0.4921  0.3349
  596MPD2    C5 8835   1.711   3.535  16.959 -0.7270  0.3328 -0.3828
  596MPD2     H 8836   1.684   3.875  16.797 -2.2610  0.7846  2.0282
  596MPD2    H1 8837   1.698   3.442  16.773  0.3203 -1.0971  1.5146
  596MPD2    H2 8838   1.719   3.630  17.147 -2.4755 -1.6128 -0.0878
  596MPD2    H3 8839   1.724   3.444  17.015 -3.1990  0.6380  0.6941
  596MPD2     N 8840   1.684   3.657  16.617 -0.5619 -0.5305 -0.0825
  596MPD2    H5 8841   1.690   3.567  16.572  0.6315 -0.1040 -0.7753
  596MPD2    N1 8842   1.699   3.889  17.037  0.1001  0.8949  0.3261
  596MPD2    H7 8843   1.696   3.972  16.979 -0.2626  0.0415 -0.8746
  597TMC3    C1 8844   1.672   4.045  17.208 -0.6324  0.5669  0.8292
  597TMC3    C2 8845   1.720   4.153  17.131  0.5705 -0.6729  0.0431
  597TMC3    C3 8846   1.679   4.284  17.167 -0.2162  0.3269 -0.7699
  597TMC3    C4 8847   1.592   4.061  17.318 -0.4359 -0.3249  0.0579
  597TMC3    C5 8848   1.565   4.195  17.354  0.3451  0.1884  0.4435
  597TMC3    C6 8849   1.620   4.307  17.289 -0.5125 -0.5120  0.4952
  597TMC3     C 8850   1.696   3.904  17.175  0.2183 -0.6760 -0.5049
  597TMC3     O 8851   1.680   3.820  17.263 -0.5039  0.1159 -0.4525
  597TMC3     H 8852   1.786   4.128  17.048 -0.4756 -1.1456 -0.6403
  597TMC3    H1 8853   1.543   3.980  17.371 -2.6392  0.0849 -1.3599
  597TMC3    H2 8854   1.592   4.408  17.317 -0.8736  0.1452 -2.2750
  597TMC3    C7 8855   1.457   4.223  17.445  0.0530 -0.4513 -0.5877
  597TMC3    C8 8856   1.733   4.397  17.084 -0.4316  0.8022  0.1024
  597TMC3    O1 8857   1.437   4.138  17.530  1.1036 -0.0507  0.1154
  597TMC3    O2 8858   1.725   4.503  17.138  0.0698 -0.1791  0.3597
  598TMC3    C1 8859   0.164   0.865  15.666  0.5296 -0.3471  0.0706
  598TMC3    C2 8860   0.074   0.789  15.729  0.1945 -0.7155 -0.1628
  598TMC3    C3 8861   4.718   0.719  15.644 -0.0657  0.3141  0.2902
  598TMC3    C4 8862   0.192   0.887  15.540  0.2951 -0.3195 -0.5658
  598TMC3    C5 8863   0.112   0.825  15.451 -0.0441  0.3977  0.5507
  598TMC3    C6 8864   0.018   0.735  15.504  0.3058  0.2868 -0.3459
  598TMC3     C 8865   0.259   0.938  15.741 -0.1911  0.8504  0.7535
  598TMC3     O 8866   0.377   0.922  15.712 -0.1909 -0.6682 -0.0137
  598TMC3     H 8867   0.066   0.783  15.837 -1.1167  1.0250 -0.1567
  598TMC3    H1 8868   0.279   0.943  15.507 -0.4572  1.9186  1.2830
  598TMC3    H2 8869   4.675   0.683  15.434 -0.2208  0.0744  0.2936
  598TMC3    C7 8870   0.098   0.863  15.318 -0.6988  0.2950 -0.0538
  598TMC3    C8 8871   4.646   0.602  15.691 -0.1771  0.4740  0.4693
  598TMC3    O1 8872   0.004   0.822  15.260  0.4022  0.6396  0.8131
  598TMC3    O2 8873   4.633   0.583  15.813  0.1095 -0.6421  0.3326
  599MPD2     C 8874   4.451   2.553  15.913 -0.2261  0.0568  0.0433
  599MPD2    C1 8875   4.503   2.626  16.014  0.4837 -0.6745  0.5969
  599MPD2    C2 8876   4.416   2.673  16.113  1.1221 -0.7869 -0.7531
  599MPD2    C3 8877   4.288   2.639  16.119 -0.4048  0.0954 -0.0799
  599MPD2    C4 8878   4.247   2.548  16.027  0.0325 -0.4169 -1.0741
  599MPD2    C5 8879   4.322   2.506  15.922  1.0557 -0.0018  0.1161
  599MPD2     H 8880   4.450   2.745  16.187 -1.3265 -0.1963 -0.2113
  599MPD2    H1 8881   4.149   2.507  16.049  0.5942 -0.6482  1.0384
  599MPD2    H2 8882   4.506   2.538  15.821 -1.1713 -2.6689 -0.0916
  599MPD2    H3 8883   4.280   2.451  15.839 -0.6810  0.6810  0.5584
  599MPD2     N 8884   4.190   2.681  16.218  0.6329  0.5163 -0.6822
  599MPD2    H5 8885   4.098   2.638  16.216  0.4460  0.7299  2.5002
  599MPD2    N1 8886   4.636   2.653  16.011 -0.0558 -0.0887  0.1225
  599MPD2    H7 8887   4.686   2.601  15.940  1.2627  0.7576  0.4241
  600TMC3    C1 8888   4.079   2.827  16.361 -0.2442  0.1620  0.2005
  600TMC3    C2 8889   4.032   2.737  16.455  0.2355 -0.0037  0.2844
  600TMC3    C3 8890   3.986   2.793  16.567  0.0713 -0.7414 -0.1998
  600TMC3    C4 8891   4.080   2.967  16.376 -0.4744  0.6185 -0.3313
  600TMC3    C5 8892   4.058   3.007  16.504  0.1173  0.7142 -0.6810
  600TMC3    C6 8893   4.001   2.926  16.597  0.8517  0.1283  0.0530
  600TMC3     C 8894   4.209   2.781  16.311 -0.3205 -0.2052  0.2947
  600TMC3     O 8895   4.301   2.862  16.320 -0.0007  0.3925 -0.0303
  600TMC3     H 8896   4.052   2.632  16.435  3.2137  0.6397 -0.2559
  600TMC3    H1 8897   4.124   3.025  16.296  0.3819  0.4949  0.0505
  600TMC3    H2 8898   3.981   2.961  16.698 -2.8755  1.7094 -1.2329
  600TMC3    C7 8899   4.045   3.148  16.533 -0.2247 -0.7213 -0.2973
  600TMC3    C8 8900   3.964   2.714  16.682 -0.2697 -0.7019  0.6913
  600TMC3    O1 8901   3.955   3.178  16.606  0.1503  0.2134 -0.4639
  600TMC3    O2 8902   4.031   2.750  16.778  0.0266  0.3929  0.0076
  601MPD2     C 8903   1.443   1.081   1.173  0.3547  0.0608 -0.0216
  601MPD2    C1 8904   1.461   1.042   1.038  1.0192 -0.1186  1.3697
  601MPD2    C2 8905   1.454   0.907   1.011  0.1251  0.2463  0.3823
  601MPD2    C3 8906   1.440   0.805   1.107  0.5495 -0.4295 -0.5408
  601MPD2    C4 8907   1.431   0.844   1.237 -0.3283 -0.2873 -0.7793
  601MPD2    C5 8908   1.427   0.981   1.266  0.2786  0.5517  0.1881
  601MPD2     H 8909   1.458   0.870   0.909  1.1801 -1.4013  1.0293
  601MPD2    H1 8910   1.415   0.774   1.318 -1.7814  0.8059 -0.1233
  601MPD2    H2 8911   1.449   1.183   1.208  1.6759  0.9310 -2.7314
  601MPD2    H3 8912   1.406   1.015   1.367 -0.7167  0.7298 -0.0776
  601MPD2     N 8913   1.443   0.665   1.073 -0.2990  0.4418 -0.7601
  601MPD2    H5 8914   1.441   0.603   1.153 -0.3397  0.4201 -0.7776
  601MPD2    N1 8915   1.475   1.131   0.933 -0.4394  0.0210  0.1096
  601MPD2    H7 8916   1.503   1.089   0.845 -2.1715 -0.3408 -0.2590
  602TMC3    C1 8917   1.503   1.333   0.812  0.0493 -0.2126  0.2163
  602TMC3    C2 8918   1.558   1.461   0.816  0.4130 -0.0444 -0.6825
  602TMC3    C3 8919   1.570   1.522   0.692 -0.4054 -0.2053 -0.1124
  602TMC3    C4 8920   1.462   1.267   0.700 -0.1733 -0.8494  0.4468
  602TMC3    C5 8921   1.460   1.341   0.587  0.3545  0.3020 -1.4317
  602TMC3    C6 8922   1.515   1.465   0.581 -0.5136  0.0080 -0.5141
  602TMC3     C 8923   1.497   1.265   0.945 -0.4433 -0.3576 -0.3740
  602TMC3     O 8924   1.509   1.333   1.042 -0.0086 -0.6182  0.3257
  602TMC3     H 8925   1.595   1.504   0.909  0.7737 -1.8188 -0.0104
  602TMC3    H1 8926   1.408   1.174   0.701 -2.7447  0.6196 -1.5391
  602TMC3    H2 8927   1.531   1.508   0.483 -0.4020 -0.9198 -0.9060
  602TMC3    C7 8928   1.392   1.289   0.473 -0.0420  0.3386 -0.5772
  602TMC3    C8 8929   1.576   1.662   0.702  0.8927 -0.7686 -0.2621
  602TMC3    O1 8930   1.403   1.169   0.440 -0.3536  0.7415 -0.4653
  602TMC3    O2 8931   1.631   1.718   0.797  0.0216  0.1913 -0.2201
  603TMC3    C1 8932   0.015   1.627  11.240 -0.5279  0.6900 -0.1235
  603TMC3    C2 8933   0.036   1.635  11.376 -0.7316  0.6607  0.2814
  603TMC3    C3 8934   0.140   1.716  11.423 -0.5811  0.5761  0.1362
  603TMC3    C4 8935   0.100   1.691  11.153 -0.5880 -0.5153  0.0677
  603TMC3    C5 8936   0.204   1.769  11.206 -0.6052  0.4267  0.4458
  603TMC3    C6 8937   0.234   1.778  11.339 -0.3355  0.6352 -0.2010
  603TMC3     C 8938   4.657   1.523  11.184 -0.0468  0.4000 -0.3772
  603TMC3     O 8939   4.637   1.522  11.066  0.4445  0.4567  0.5592
  603TMC3     H 8940   4.678   1.592  11.435 -0.8069  1.1974  0.5683
  603TMC3    H1 8941   0.096   1.669  11.047  1.6596  1.3702 -0.4172
  603TMC3    H2 8942   0.299   1.859  11.369  0.5915  0.6881 -2.3678
  603TMC3    C7 8943   0.259   1.876  11.129  1.1343  0.0462  0.1333
  603TMC3    C8 8944   0.164   1.703  11.569 -0.2511  0.8178 -0.2929
  603TMC3    O1 8945   0.346   1.948  11.177 -0.0694 -0.0755  0.1216
  603TMC3    O2 8946   0.077   1.646  11.633 -0.5084  0.6076  0.5375
  604MPD2     C 8947   0.831   0.124  16.444 -0.2045  0.2472  0.5607
  604MPD2    C1 8948   0.778   0.239  16.392 -0.0219  0.2287  0.6975
  604MPD2    C2 8949   0.811   0.266  16.257  0.8114  0.0887  0.0683
  604MPD2    C3 8950   0.891   0.179  16.184 -0.4366  0.1059 -0.9137
  604MPD2    C4 8951   0.940   0.064  16.244  0.2934  0.5061  0.3822
  604MPD2    C5 8952   0.904   0.042  16.372  0.5032 -0.2306  0.3783
  604MPD2     H 8953   0.784   0.357  16.205 -1.5861 -1.4344 -1.3456
  604MPD2    H1 8954   1.015   4.719  16.203  0.3324  0.2005  0.9495
  604MPD2    H2 8955   0.806   0.084  16.541  0.7470 -0.4744  0.5077
  604MPD2    H3 8956   0.933   4.669  16.417  1.1277 -0.5915 -0.7928
  604MPD2     N 8957   0.924   0.215  16.047 -0.3604  0.1067  0.1884
  604MPD2    H5 8958   0.904   0.312  16.025 -0.0245  0.5096  1.6003
  604MPD2    N1 8959   0.697   0.314  16.472  1.1153  0.3704  0.3543
  604MPD2    H7 8960   0.699   0.298  16.572  0.3381  0.3563  0.3726
  605TMC3    C1 8961   0.545   0.480  16.540 -0.1529  0.5927 -0.0947
  605TMC3    C2 8962   0.606   0.470  16.660 -0.1043  0.4072  0.2792
  605TMC3    C3 8963   0.550   0.539  16.763  0.0053  0.8342  0.1892
  605TMC3    C4 8964   0.436   0.555  16.526  0.0557 -0.1636 -0.5832
  605TMC3    C5 8965   0.380   0.626  16.632  0.5915 -0.0194 -0.5650
  605TMC3    C6 8966   0.436   0.619  16.754  0.8564 -0.3889 -0.2294
  605TMC3     C 8967   0.608   0.410  16.429  0.6283  0.3059 -0.3870
  605TMC3     O 8968   0.578   0.442  16.315 -0.2909 -0.0708 -0.2989
  605TMC3     H 8969   0.691   0.410  16.688  1.0082  1.8678 -0.0171
  605TMC3    H1 8970   0.409   0.571  16.422 -1.9839 -2.8902 -0.4729
  605TMC3    H2 8971   0.384   0.656  16.841 -0.5049  0.9482 -1.6180
  605TMC3    C7 8972   0.236   0.658  16.622 -0.4012  0.0545 -0.5017
  605TMC3    C8 8973   0.639   0.574  16.872  0.2617 -0.1480  0.5393
  605TMC3    O1 8974   0.185   0.701  16.722  0.3947  0.4460  0.0856
  605TMC3    O2 8975   0.715   0.490  16.912 -0.1464  0.2298 -0.2461
  606TMC3    C1 8976   2.098   3.583  17.240 -0.8284  0.4361 -0.8712
  606TMC3    C2 8977   2.157   3.548  17.361 -0.2894  0.4060 -0.3239
  606TMC3    C3 8978   2.129   3.427  17.407 -0.0063 -0.3378 -0.0090
  606TMC3    C4 8979   2.025   3.495  17.161 -0.6385 -0.8647 -0.0653
  606TMC3    C5 8980   2.000   3.371  17.214  0.2318 -0.1233 -0.3007
  606TMC3    C6 8981   2.049   3.343  17.339 -0.3190 -0.4309  0.1134
  606TMC3     C 8982   2.098   3.725  17.209 -0.5793  0.0866 -0.0620
  606TMC3     O 8983   2.125   3.802  17.303  0.6429 -0.0328 -0.1298
  606TMC3     H 8984   2.211   3.624  17.416 -2.4861  1.3398  0.5377
  606TMC3    H1 8985   1.985   3.518  17.063 -1.9665 -0.4540  0.5630
  606TMC3    H2 8986   2.042   3.246  17.385  0.8689 -0.6019 -0.0715
  606TMC3    C7 8987   1.931   3.279  17.130 -0.1230 -0.4491  0.1856
  606TMC3    C8 8988   2.208   3.383  17.524 -0.4298 -0.1023 -0.1392
  606TMC3    O1 8989   1.926   3.304  17.010 -0.3101 -0.2347  0.2320
  606TMC3    O2 8990   2.307   3.449  17.548  0.1961  0.6331  0.1263
  607MPD2     C 8991   4.095   1.493  11.878 -0.2082  0.4144 -0.1929
  607MPD2    C1 8992   4.138   1.600  11.962 -0.2534  0.1023  0.7550
  607MPD2    C2 8993   4.085   1.615  12.091 -0.0248  0.3620  0.4428
  607MPD2    C3 8994   4.006   1.519  12.146  0.2313  0.2870 -0.1930
  607MPD2    C4 8995   3.984   1.399  12.069  0.6514 -0.3109 -0.0808
  607MPD2    C5 8996   4.015   1.400  11.937 -0.2567  0.8352 -0.0980
  607MPD2     H 8997   4.118   1.698  12.153  0.0333 -0.6354  1.7589
  607MPD2    H1 8998   3.934   1.310  12.108  1.0000 -0.4458  0.0543
  607MPD2    H2 8999   4.126   1.493  11.775 -0.0515  0.0880 -0.1438
  607MPD2    H3 9000   3.983   1.327  11.864  1.5667  0.2421 -0.3252
  607MPD2     N 9001   3.978   1.529  12.284  0.0962  0.4457  0.4482
  607MPD2    H5 9002   4.016   1.609  12.334 -0.0705  0.4103  0.6333
  607MPD2    N1 9003   4.234   1.691  11.927  0.2558 -0.0756 -0.1453
  607MPD2    H7 9004   4.237   1.773  11.986 -0.8379 -1.0782  1.3004
  608TMC3    C1 9005   4.424   1.772  11.844  0.5419  0.1433  0.0521
  608TMC3    C2 9006   4.455   1.806  11.976 -0.4105 -0.0265 -0.2719
  608TMC3    C3 9007   4.551   1.906  11.988 -0.5151  0.7809  0.1358
  608TMC3    C4 9008   4.502   1.826  11.737 -0.3234 -0.7809 -0.1153
  608TMC3    C5 9009   4.593   1.918  11.765  0.0326 -0.4338  0.3623
  608TMC3    C6 9010   4.632   1.955  11.886  0.5117 -0.2103  0.2002
  608TMC3     C 9011   4.325   1.672  11.826  0.5191  0.3263  0.0888
  608TMC3     O 9012   4.331   1.600  11.728 -0.3647 -0.0674  0.3466
  608TMC3     H 9013   4.402   1.764  12.060  0.1486 -0.6406 -0.2224
  608TMC3    H1 9014   4.467   1.813  11.635 -0.0750 -0.7231 -0.2083
  608TMC3    H2 9015   4.705   2.031  11.909 -0.6700  1.2387 -0.8106
  608TMC3    C7 9016   4.668   1.983  11.661  0.1261 -0.1576 -0.7001
  608TMC3    C8 9017   4.577   1.952  12.121 -0.1887  0.1236  0.1429
  608TMC3    O1 9018   4.606   2.003  11.557 -0.5134 -0.0528 -0.0050
  608TMC3    O2 9019   4.687   1.999  12.148  0.2418  0.1037  0.0740
  609TMC3    C1 9020   3.044   1.266   9.550 -1.2897  0.0895  0.0934
  609TMC3    C2 9021   3.077   1.398   9.534  0.0465  0.5628 -0.2743
  609TMC3    C3 9022   3.189   1.433   9.467 -0.8786 -1.1485  0.5028
  609TMC3    C4 9023   3.130   1.168   9.514  0.2310 -0.2301 -0.0534
  609TMC3    C5 9024   3.248   1.210   9.455  0.2329 -0.4221 -0.0508
  609TMC3    C6 9025   3.276   1.337   9.426  0.7449  0.6319 -0.0146
  609TMC3     C 9026   2.906   1.233   9.596  0.0512 -0.3311 -0.1212
  609TMC3     O 9027   2.826   1.322   9.583  0.1008  0.1668  0.3041
  609TMC3     H 9028   3.011   1.478   9.565 -1.7403 -1.3912  0.9706
  609TMC3    H1 9029   3.098   1.064   9.516 -4.3632  1.2140 -0.1258
  609TMC3    H2 9030   3.367   1.363   9.374  0.5973  0.2415 -0.4702
  609TMC3    C7 9031   3.336   1.106   9.408 -1.1465  0.4722  0.0074
  609TMC3    C8 9032   3.211   1.572   9.440 -0.3150 -0.2112  0.6785
  609TMC3    O1 9033   3.274   1.012   9.365 -0.0294  0.2643 -0.2164
  609TMC3    O2 9034   3.112   1.638   9.413 -0.3342  0.3748  0.1759
  610TMC3    C1 9035   0.069   1.478  12.827 -0.3084 -0.1002 -0.0027
  610TMC3    C2 9036   0.088   1.574  12.732  0.5448 -0.2459  0.1348
  610TMC3    C3 9037   0.219   1.600  12.703 -0.3780  0.8476  0.4526
  610TMC3    C4 9038   0.161   1.406  12.895 -0.0367  0.0377 -0.7901
  610TMC3    C5 9039   0.289   1.445  12.870 -0.4179  0.2174  0.6902
  610TMC3    C6 9040   0.324   1.538  12.773  0.1803 -0.9523 -0.4899
  610TMC3     C 9041   4.664   1.478  12.899 -0.5493  0.6096 -0.1369
  610TMC3     O 9042   4.660   1.407  12.997  0.2471 -0.2723 -0.4605
  610TMC3     H 9043   0.010   1.617  12.670  0.6396 -1.1152 -0.5807
  610TMC3    H1 9044   0.137   1.341  12.978  3.0926  0.1518  0.2135
  610TMC3    H2 9045   0.428   1.566  12.766 -0.3861  1.0950 -0.6231
  610TMC3    C7 9046   0.401   1.366  12.927 -0.0856 -0.0570  0.0711
  610TMC3    C8 9047   0.246   1.703  12.606 -0.4211  0.0411  0.2964
  610TMC3    O1 9048   0.369   1.255  12.970 -0.1598 -0.2123 -0.1771
  610TMC3    O2 9049   0.146   1.758  12.560  0.2741 -0.4451 -0.0727
  611MPD2     C 9050   4.419   1.246  10.545 -0.1378 -0.4901 -0.2818
  611MPD2    C1 9051   4.326   1.343  10.502  0.1795  0.2350 -0.0244
  611MPD2    C2 9052   4.371   1.461  10.451  1.0548  0.3614  0.7294
  611MPD2    C3 9053   4.509   1.476  10.428  0.0704  0.6489  0.2491
  611MPD2    C4 9054   4.593   1.380  10.469 -0.2520  0.1169  0.8153
  611MPD2    C5 9055   4.553   1.267  10.531 -0.1583 -0.2663 -0.2751
  611MPD2     H 9056   4.312   1.545  10.418 -2.9351 -2.9206 -0.5314
  611MPD2    H1 9057   4.699   1.403  10.463 -0.0447 -1.0094  0.1999
  611MPD2    H2 9058   4.388   1.162  10.607 -0.4555  0.7478  1.2547
  611MPD2    H3 9059   4.627   1.199  10.572 -0.8393 -0.2736  0.9519
  611MPD2     N 9060   4.567   1.592  10.375 -0.2640 -0.4792 -0.2097
  611MPD2    H5 9061   4.665   1.612  10.397  0.4026 -3.2596 -0.6794
  611MPD2    N1 9062   4.190   1.304  10.523  0.2444  0.1118  0.8264
  611MPD2    H7 9063   4.183   1.223  10.583 -1.5838 -0.6417 -0.3987
  612TMC3    C1 9064   4.584   1.802  10.266 -0.3970 -0.0095 -0.7079
  612TMC3    C2 9065   4.673   1.840  10.358  0.0849 -0.2995 -0.4244
  612TMC3    C3 9066   4.710   1.970  10.346  0.3609  0.3430  0.0434
  612TMC3    C4 9067   4.525   1.885  10.174  0.0423  0.1404 -0.6244
  612TMC3    C5 9068   4.567   2.018  10.169 -0.2115 -0.6573  0.4239
  612TMC3    C6 9069   4.650   2.062  10.268  0.5780 -0.0439 -0.1885
  612TMC3     C 9070   4.503   1.687  10.305 -0.9967  0.0325  0.5263
  612TMC3     O 9071   4.389   1.693  10.259 -0.4177  0.3990 -0.2269
  612TMC3     H 9072   0.012   1.770  10.414 -1.1263 -1.8080 -1.0053
  612TMC3    H1 9073   4.448   1.845  10.108 -1.0900  1.3962 -0.0571
  612TMC3    H2 9074   4.659   2.168  10.288 -0.9559 -0.0937  0.7478
  612TMC3    C7 9075   4.505   2.120  10.081 -0.0816 -0.6899  0.3825
  612TMC3    C8 9076   0.088   2.025  10.439 -0.0942  0.0663  0.2672
  612TMC3    O1 9077   4.411   2.086  10.010  0.1009  0.7062  0.6237
  612TMC3    O2 9078   0.132   2.134  10.407  0.1076 -0.7081 -0.3571
  613MPD2     C 9079   3.204   3.889  17.156  0.2244  0.7620  0.0294
  613MPD2    C1 9080   3.142   3.873  17.029 -0.0682 -0.5807  0.0769
  613MPD2    C2 9081   3.064   3.770  16.998  0.0081  0.2233 -1.1208
  613MPD2    C3 9082   3.032   3.672  17.094  0.3867 -0.1644 -0.2734
  613MPD2    C4 9083   3.086   3.690  17.220 -0.1743 -1.0131 -0.5398
  613MPD2    C5 9084   3.165   3.793  17.255  0.0475  0.3222  0.5820
  613MPD2     H 9085   3.034   3.765  16.894 -0.0639  0.0158 -1.0905
  613MPD2    H1 9086   3.066   3.616  17.297 -0.2803  0.1538  0.5507
  613MPD2    H2 9087   3.258   3.978  17.186  0.5156  0.2561  1.0184
  613MPD2    H3 9088   3.198   3.804  17.357  3.0037  2.4904 -0.5915
  613MPD2     N 9089   2.960   3.561  17.066  0.3945 -0.9986 -0.2795
  613MPD2    H5 9090   2.972   3.481  17.127  0.2572 -0.1071  0.9205
  613MPD2    N1 9091   3.161   3.958  16.922 -0.5323 -0.2649  0.2799
  613MPD2    H7 9092   3.096   3.949  16.845 -0.6923  1.2399  0.2310
  614TMC3    C1 9093   3.265   4.097  16.779 -0.8729  0.6042 -0.6383
  614TMC3    C2 9094   3.295   4.001  16.689 -0.0271  0.2455 -0.4495
  614TMC3    C3 9095   3.228   3.972  16.570  0.6737  0.0973  0.2327
  614TMC3    C4 9096   3.149   4.165  16.747 -0.2612  0.0169 -0.2725
  614TMC3    C5 9097   3.081   4.140  16.630  0.1876  0.0511  0.1745
  614TMC3    C6 9098   3.119   4.047  16.539  0.0849  0.3556 -0.6846
  614TMC3     C 9099   3.264   4.048  16.913  0.7296 -0.1438  0.0379
  614TMC3     O 9100   3.359   4.064  16.985 -0.0668  0.0772  0.1528
  614TMC3     H 9101   3.375   3.935  16.722 -0.1119 -0.2910 -1.3131
  614TMC3    H1 9102   3.103   4.225  16.825 -1.2737  0.3187 -1.0807
  614TMC3    H2 9103   3.086   4.052  16.436  0.4084 -0.5757 -0.8251
  614TMC3    C7 9104   2.951   4.196  16.623 -0.6457 -0.5268  0.5747
  614TMC3    C8 9105   3.209   3.832  16.545 -0.4436  0.1471  0.5147
  614TMC3    O1 9106   2.926   4.286  16.701  0.1983  1.0136 -0.4718
  614TMC3    O2 9107   3.249   3.765  16.638  0.1392  1.0526 -0.0140
  615MPD2     C 9108   2.593   0.269  16.258  0.3984 -0.0160 -0.0809
  615MPD2    C1 9109   2.472   0.254  16.322 -0.0513  0.0822  0.6400
  615MPD2    C2 9110   2.356   0.253  16.241 -0.3002 -0.9192 -0.3898
  615MPD2    C3 9111   2.362   0.262  16.103 -0.9257 -0.0443  0.1058
  615MPD2    C4 9112   2.485   0.272  16.046  0.3948 -0.1595  0.4334
  615MPD2    C5 9113   2.593   0.263  16.117  0.1420 -0.0712 -0.1946
  615MPD2     H 9114   2.265   0.239  16.299  0.2054  0.0733  0.6448
  615MPD2    H1 9115   2.483   0.270  15.937  0.0056 -0.9722  0.4591
  615MPD2    H2 9116   2.688   0.276  16.309 -0.4896 -2.6903  1.9523
  615MPD2    H3 9117   2.688   0.266  16.065  0.0724  0.7143 -0.2749
  615MPD2     N 9118   2.249   0.255  16.024 -0.1066 -0.7700  0.4310
  615MPD2    H5 9119   2.254   0.272  15.925  2.9600 -0.1284  0.6989
  615MPD2    N1 9120   2.457   0.260  16.464 -0.4535  0.3364  0.5749
  615MPD2    H7 9121   2.365   0.268  16.504 -1.0461  1.1377 -0.9644
  616TMC3    C1 9122   2.508   0.298  16.690 -0.4348 -0.2441  0.1711
  616TMC3    C2 9123   2.610   0.335  16.773 -0.2112  0.3284 -0.1963
  616TMC3    C3 9124   2.588   0.429  16.870  0.7945  0.3939 -0.3561
  616TMC3    C4 9125   2.377   0.351  16.705  0.0873 -0.6994  0.0472
  616TMC3    C5 9126   2.358   0.435  16.810 -0.6072 -0.0765 -0.0131
  616TMC3    C6 9127   2.461   0.478  16.893  0.3729  0.5987  0.0755
  616TMC3     C 9128   2.557   0.276  16.555 -0.3117  0.8814 -0.5221
  616TMC3     O 9129   2.679   0.266  16.545  0.1831  0.3759  0.4699
  616TMC3     H 9130   2.709   0.290  16.775  0.3469  1.6245  1.2013
  616TMC3    H1 9131   2.294   0.318  16.643 -1.5136  1.7215  0.9109
  616TMC3    H2 9132   2.451   0.559  16.965  0.7998  0.6274  0.1053
  616TMC3    C7 9133   2.216   0.471  16.831 -0.4025  0.7581 -1.0438
  616TMC3    C8 9134   2.667   0.439  16.993 -0.2489  0.2318 -0.1014
  616TMC3    O1 9135   2.132   0.419  16.762 -0.1710  0.4116 -0.1286
  616TMC3    O2 9136   2.608   0.462  17.102  0.2535 -0.5903  0.5470
  617MPD2     C 9137   0.336   3.346  14.482 -0.0378 -0.1106  0.0067
  617MPD2    C1 9138   0.347   3.258  14.376 -0.1963 -0.6684 -0.1798
  617MPD2    C2 9139   0.246   3.162  14.351 -0.1143 -0.8415  0.4931
  617MPD2    C3 9140   0.136   3.160  14.431 -0.4315  0.8958 -0.8048
  617MPD2    C4 9141   0.127   3.243  14.544  0.1924 -0.1045  0.6049
  617MPD2    C5 9142   0.226   3.337  14.564 -0.3638 -0.5649  0.5643
  617MPD2     H 9143   0.246   3.100  14.263 -1.6970 -2.1294  1.3931
  617MPD2    H1 9144   0.043   3.240  14.612 -1.2451  0.9059 -1.1230
  617MPD2    H2 9145   0.419   3.413  14.503  0.8874 -1.3150  0.1840
  617MPD2    H3 9146   0.220   3.405  14.648  1.3254 -3.2547  2.8901
  617MPD2     N 9147   0.024   3.068  14.418 -0.4212 -0.1771  0.1222
  617MPD2    H5 9148   4.677   3.078  14.493 -1.6753  0.9631 -1.1701
  617MPD2    N1 9149   0.466   3.261  14.303 -0.1854  0.3307 -0.4464
  617MPD2    H7 9150   0.528   3.340  14.319  0.9132 -0.7116  0.5072
  618TMC3    C1 9151   0.633   3.177  14.159  0.2827 -0.1925 -0.3930
  618TMC3    C2 9152   0.664   3.099  14.057 -0.1205  0.0906  0.3603
  618TMC3    C3 9153   0.801   3.080  14.026 -0.1038  0.1030 -0.2594
  618TMC3    C4 9154   0.731   3.226  14.242 -0.4094  0.1014  0.1441
  618TMC3    C5 9155   0.866   3.201  14.222 -0.3045 -0.4894  0.3936
  618TMC3    C6 9156   0.899   3.121  14.114 -0.4297 -0.3015  0.8235
  618TMC3     C 9157   0.495   3.172  14.205  0.6875 -0.8135  0.0771
  618TMC3     O 9158   0.422   3.094  14.145 -0.1478  0.6449  0.0028
  618TMC3     H 9159   0.588   3.060  13.990 -0.6024 -0.3027  1.1285
  618TMC3    H1 9160   0.703   3.276  14.334  1.2526  0.7330  0.3155
  618TMC3    H2 9161   0.997   3.076  14.111 -0.8329 -1.0472 -1.4406
  618TMC3    C7 9162   0.962   3.233  14.332  0.1403 -0.9237 -0.7972
  618TMC3    C8 9163   0.830   3.011  13.902  0.5402 -0.3419  0.1762
  618TMC3    O1 9164   0.905   3.244  14.442 -0.0695 -0.3949  0.0899
  618TMC3    O2 9165   0.726   2.976  13.842  0.7910  0.5010  0.0866
  619MPD2     C 9166   2.381   4.581  13.608 -0.0329 -0.9459 -0.7507
  619MPD2    C1 9167   2.299   4.654  13.526 -0.0907 -0.2947  0.1413
  619MPD2    C2 9168   2.179   4.599  13.493  0.8038  0.1142 -0.5275
  619MPD2    C3 9169   2.151   4.468  13.519  0.0653 -0.0479 -0.2491
  619MPD2    C4 9170   2.226   4.397  13.601 -0.4251 -0.3900 -0.8626
  619MPD2    C5 9171   2.343   4.456  13.643  0.7808 -0.0253  0.0231
  619MPD2     H 9172   2.113   4.663  13.436  0.1251  1.8609  2.1925
  619MPD2    H1 9173   2.196   4.298  13.631  2.2360 -0.2794  2.3159
  619MPD2    H2 9174   2.475   4.620  13.645 -0.1730 -0.8950 -0.4526
  619MPD2    H3 9175   2.410   4.416  13.718 -0.8727 -1.1409  0.8953
  619MPD2     N 9176   2.028   4.416  13.483  0.5098 -0.0862  0.0323
  619MPD2    H5 9177   2.003   4.336  13.540 -1.4861  1.0145  0.6938
  619MPD2    N1 9178   2.323   0.059  13.478  0.4648 -0.3343 -0.5103
  619MPD2    H7 9179   2.243   0.105  13.437 -1.0669 -1.3127  1.4107
  620TMC3    C1 9180   2.428   0.256  13.457  0.5432 -0.7112 -0.2669
  620TMC3    C2 9181   2.355   0.277  13.340 -0.2806 -0.0622  0.3791
  620TMC3    C3 9182   2.328   0.409  13.311 -0.3632 -0.6152 -0.4977
  620TMC3    C4 9183   2.451   0.356  13.548  1.1298  0.1912 -0.8695
  620TMC3    C5 9184   2.418   0.488  13.520 -0.2227  0.1367  0.1325
  620TMC3    C6 9185   2.363   0.508  13.397  0.2891 -0.4757 -0.5971
  620TMC3     C 9186   2.436   0.125  13.508  0.5229 -0.3669 -0.4552
  620TMC3     O 9187   2.538   0.093  13.563 -0.0531  0.1590 -0.2788
  620TMC3     H 9188   2.321   0.198  13.273 -0.3483 -1.1623  1.7070
  620TMC3    H1 9189   2.492   0.338  13.647  0.6288  2.7175 -0.2095
  620TMC3    H2 9190   2.329   0.602  13.354 -2.6680 -0.9387  0.7072
  620TMC3    C7 9191   2.361   0.573  13.617 -0.0549  0.0585 -0.1360
  620TMC3    C8 9192   2.188   0.425  13.274  0.0614  0.0002  0.2291
  620TMC3    O1 9193   2.334   0.686  13.582  0.1356  0.1395 -0.7829
  620TMC3    O2 9194   2.117   0.500  13.342 -0.3029 -0.0248 -0.2808
  621MPD2     C 9195   2.713   0.197   9.536  0.4253 -0.0643 -0.2833
  621MPD2    C1 9196   2.625   0.154   9.631  0.6273 -0.2485 -0.3388
  621MPD2    C2 9197   2.626   0.221   9.758  0.4984 -1.0609  0.1999
  621MPD2    C3 9198   2.712   0.328   9.780 -1.2087 -0.0065 -0.1317
  621MPD2    C4 9199   2.798   0.367   9.685 -0.0966 -1.0208  0.2074
  621MPD2    C5 9200   2.797   0.300   9.566 -0.1883 -0.6109 -0.3417
  621MPD2     H 9201   2.561   0.194   9.841 -1.7007 -1.6959 -1.7327
  621MPD2    H1 9202   2.861   0.454   9.701 -2.7570  0.9399 -0.0992
  621MPD2    H2 9203   2.712   0.162   9.434  1.9090  1.3632 -0.7899
  621MPD2    H3 9204   2.861   0.344   9.490 -1.1587 -0.0508 -0.8241
  621MPD2     N 9205   2.722   0.384   9.907  0.0764 -0.6694 -0.4325
  621MPD2    H5 9206   2.683   0.342   9.991 -1.6593 -1.1144 -1.4447
  621MPD2    N1 9207   2.542   0.036   9.618 -0.2482  0.7952  0.0947
  621MPD2    H7 9208   2.476   0.027   9.695 -0.5676  0.0915 -0.2646
  622TMC3    C1 9209   2.469   4.547   9.515 -0.4037 -0.1333 -0.5093
  622TMC3    C2 9210   2.344   4.565   9.556 -0.2789  0.2072 -0.4124
  622TMC3    C3 9211   2.253   4.467   9.529  0.4709  0.1636 -0.2655
  622TMC3    C4 9212   2.512   4.447   9.444  0.5036  0.1224  0.5176
  622TMC3    C5 9213   2.421   4.348   9.415  0.0276  0.5738  0.5386
  622TMC3    C6 9214   2.288   4.357   9.457 -0.2246  0.8679  0.6486
  622TMC3     C 9215   2.558   4.666   9.512 -0.3504  0.3526 -0.2184
  622TMC3     O 9216   2.640   4.664   9.420  0.3536 -0.4492  0.0092
  622TMC3     H 9217   2.326   4.663   9.599  0.4431  0.0031  0.3666
  622TMC3    H1 9218   2.609   4.439   9.395 -0.0504 -0.5278 -0.4586
  622TMC3    H2 9219   2.222   4.273   9.444  0.7148 -0.1595  2.4910
  622TMC3    C7 9220   2.472   4.230   9.350  0.1877 -0.0667 -0.6520
  622TMC3    C8 9221   2.131   4.451   9.608 -0.5472  0.1787  0.3436
  622TMC3    O1 9222   2.589   4.195   9.365 -0.0365 -0.1704  0.0112
  622TMC3    O2 9223   2.084   4.337   9.609  0.4895 -0.1631 -0.1616
  623MPD2     C 9224   0.849   0.639  16.302 -0.3728  0.0788 -0.7471
  623MPD2    C1 9225   0.805   0.710  16.412 -0.8352  0.5333 -0.5005
  623MPD2    C2 9226   0.874   0.685  16.534  0.2475 -0.0143 -0.1781
  623MPD2    C3 9227   0.966   0.581  16.541 -0.4912  0.4086 -0.2939
  623MPD2    C4 9228   0.998   0.502  16.431 -0.1447 -0.3398  0.4120
  623MPD2    C5 9229   0.943   0.540  16.308 -0.0844  0.3780 -0.1026
  623MPD2     H 9230   0.841   0.732  16.626  3.1173 -0.3346  1.0160
  623MPD2    H1 9231   1.066   0.421  16.455  1.8884  1.3696  0.3985
  623MPD2    H2 9232   0.811   0.666  16.204 -0.1711 -0.3970 -0.9603
  623MPD2    H3 9233   0.979   0.492  16.218  0.8163 -0.0078  0.4543
  623MPD2     N 9234   1.022   0.537  16.665  0.4671  0.1357  0.5100
  623MPD2    H5 9235   1.083   0.456  16.669  1.4693  0.8586 -0.2806
  623MPD2    N1 9236   0.689   0.795  16.405 -0.5049  0.6168 -0.1773
  623MPD2    H7 9237   0.646   0.807  16.314  0.9309 -1.7528 -1.1517
  624TMC3    C1 9238   1.067   0.340  17.036 -0.4470  0.4275 -0.5721
  624TMC3    C2 9239   1.075   0.412  17.150 -1.0842  0.5130  0.2816
  624TMC3    C3 9240   1.072   0.544  17.140  0.0392 -0.9007  0.3082
  624TMC3    C4 9241   1.040   0.396  16.910 -0.6501 -0.2309  0.5720
  624TMC3    C5 9242   1.042   0.531  16.904  0.4147  0.6651  0.5024
  624TMC3    C6 9243   1.060   0.608  17.017  0.0991  0.2323 -0.0207
  624TMC3     C 9244   1.158   0.230  17.025 -0.3772 -0.6556  0.0643
  624TMC3     O 9245   1.133   0.143  16.940  0.0103 -0.0733  0.2497
  624TMC3     H 9246   1.092   0.361  17.244  1.0537 -0.9352 -0.8758
  624TMC3    H1 9247   1.051   0.338  16.819  0.7441 -1.4423  1.5105
  624TMC3    H2 9248   1.059   0.716  17.013  1.0981  0.2902  1.0393
  624TMC3    C7 9249   1.010   0.607  16.782 -0.1906 -0.2476  0.4358
  624TMC3    C8 9250   1.048   0.619  17.260 -0.3096 -0.0584 -0.4225
  624TMC3    O1 9251   0.995   0.726  16.802 -0.3135 -0.3497  0.0591
  624TMC3    O2 9252   1.107   0.579  17.360  0.1684 -0.6306  0.2469
  625MPD2     C 9253   1.852   2.132   1.331 -0.2713  0.0485  0.1190
  625MPD2    C1 9254   1.883   2.230   1.239 -0.3439 -0.3869  0.0566
  625MPD2    C2 9255   2.019   2.248   1.206  1.0010  0.0829  0.0752
  625MPD2    C3 9256   2.114   2.173   1.270  0.2473  0.2913  0.1117
  625MPD2    C4 9257   2.073   2.078   1.365 -0.6956 -0.4913  0.2691
  625MPD2    C5 9258   1.948   2.069   1.401  0.0426 -0.0723  0.2358
  625MPD2     H 9259   2.053   2.331   1.145  1.3402 -0.1244 -0.0162
  625MPD2    H1 9260   2.143   2.011   1.413 -0.2289  1.4555  2.3015
  625MPD2    H2 9261   1.752   2.102   1.360 -0.3394 -0.0450 -0.2137
  625MPD2    H3 9262   1.913   1.999   1.477 -0.1322  0.2222  0.4266
  625MPD2     N 9263   2.250   2.185   1.227 -0.3287  0.2284  0.0235
  625MPD2    H5 9264   2.260   2.255   1.154  0.1692 -0.0114 -0.1416
  625MPD2    N1 9265   1.785   2.313   1.177  0.1693 -0.5678  0.1862
  625MPD2    H7 9266   1.818   2.381   1.110  0.9110 -0.4545  0.6623
  626TMC3    C1 9267   1.581   2.434   1.178 -0.1073 -0.1022 -1.0365
  626TMC3    C2 9268   1.560   2.457   1.049 -0.3631  0.1070  0.7342
  626TMC3    C3 9269   1.486   2.568   1.017  1.4419  0.3168  0.2508
  626TMC3    C4 9270   1.544   2.516   1.279 -0.7505 -0.1334  0.5407
  626TMC3    C5 9271   1.470   2.628   1.241  0.0091  0.0607  0.1944
  626TMC3    C6 9272   1.440   2.660   1.110 -0.4818 -0.5980  0.1004
  626TMC3     C 9273   1.652   2.323   1.229  0.3646 -1.1621 -0.1640
  626TMC3     O 9274   1.588   2.256   1.315 -0.3236  0.0645 -0.2992
  626TMC3     H 9275   1.581   2.383   0.972 -1.4802  2.4697 -1.8202
  626TMC3    H1 9276   1.560   2.496   1.384  0.1239 -0.2316  0.3869
  626TMC3    H2 9277   1.371   2.738   1.081 -1.0180 -0.9424  0.4462
  626TMC3    C7 9278   1.398   2.682   1.358  0.4715  0.6797  0.4181
  626TMC3    C8 9279   1.415   2.568   0.891  0.3884  0.2459 -0.0628
  626TMC3    O1 9280   1.457   2.684   1.465  0.1547 -0.3742  0.2953
  626TMC3    O2 9281   1.396   2.670   0.823  0.2331  0.0808 -0.1759
  627MPD2     C 9282   0.381   1.887  14.195 -0.1602 -0.2940  0.3148
  627MPD2    C1 9283   0.353   1.928  14.322  0.3982 -0.7298  0.0904
  627MPD2    C2 9284   0.241   1.890  14.389 -0.2158  0.3092  0.0755
  627MPD2    C3 9285   0.148   1.812  14.330  0.2316  1.1055 -0.4377
  627MPD2    C4 9286   0.176   1.779  14.197 -0.3102  0.2361  0.4196
  627MPD2    C5 9287   0.288   1.808  14.134 -0.1065  0.1344 -1.0682
  627MPD2     H 9288   0.220   1.918  14.491  2.2887  0.5119  0.5319
  627MPD2    H1 9289   0.110   1.719  14.134 -2.4396  0.2721  2.6077
  627MPD2    H2 9290   0.463   1.926  14.136  0.0516 -3.3514 -1.4157
  627MPD2    H3 9291   0.311   1.766  14.037  1.3871  1.1090 -1.1385
  627MPD2     N 9292   0.030   1.778  14.408 -0.3701  0.8989  0.1170
  627MPD2    H5 9293   0.009   1.820  14.498 -2.8279 -0.6395  0.2576
  627MPD2    N1 9294   0.442   2.010  14.389 -0.7016  0.2514 -0.3748
  627MPD2    H7 9295   0.411   2.032  14.484 -1.9080 -0.7663 -0.5319
  628TMC3    C1 9296   0.629   2.129  14.460  0.0628 -0.0136  0.8388
  628TMC3    C2 9297   0.756   2.108  14.497  0.6147 -0.0559  0.3180
  628TMC3    C3 9298   0.792   2.125  14.629  0.0647  0.2293  0.9159
  628TMC3    C4 9299   0.545   2.191  14.549 -0.3243  0.2575  0.0903
  628TMC3    C5 9300   0.588   2.218  14.677  0.6759 -0.2351  0.0678
  628TMC3    C6 9301   0.708   2.181  14.720 -0.0233 -0.2475  0.3224
  628TMC3     C 9302   0.568   2.048  14.355 -0.0456  0.1744  0.9323
  628TMC3     O 9303   0.625   2.042  14.248 -0.0621 -0.6520  0.0253
  628TMC3     H 9304   0.823   2.044  14.440 -0.3526 -1.0642  0.3256
  628TMC3    H1 9305   0.453   2.229  14.507  1.0766  0.9952 -2.3410
  628TMC3    H2 9306   0.749   2.233  14.806 -0.5207 -0.1836  0.5166
  628TMC3    C7 9307   0.497   2.267  14.772  0.0935 -0.1445 -0.0309
  628TMC3    C8 9308   0.920   2.070  14.676  0.4956 -0.4996  0.5129
  628TMC3    O1 9309   0.527   2.257  14.887  0.5398 -0.4287 -0.5904
  628TMC3    O2 9310   1.019   2.077  14.606  0.1969 -0.4275  0.2713
  629MPD2     C 9311   3.098   0.500  17.258 -0.8045 -0.7710  0.7539
  629MPD2    C1 9312   3.113   0.551  17.130  0.2683  0.1207  0.5993
  629MPD2    C2 9313   3.013   0.541  17.035 -0.4317 -0.2382  1.1302
  629MPD2    C3 9314   2.896   0.485  17.070 -0.1142 -0.3453  0.6329
  629MPD2    C4 9315   2.875   0.438  17.199  0.2059 -0.3309  0.0971
  629MPD2    C5 9316   2.979   0.431  17.286  0.2993 -1.0590 -0.4306
  629MPD2     H 9317   3.036   0.573  16.934 -2.9153 -0.1142  0.5959
  629MPD2    H1 9318   2.785   0.383  17.223  0.9961 -1.4582  0.4742
  629MPD2    H2 9319   3.179   0.505  17.329  1.5227  1.1644 -2.0315
  629MPD2    H3 9320   2.984   0.361  17.369 -0.2512 -0.8780 -0.2454
  629MPD2     N 9321   2.803   0.457  16.971  0.1601  0.1218 -0.5469
  629MPD2    H5 9322   2.834   0.465  16.875  0.8286  0.5338 -0.3002
  629MPD2    N1 9323   3.233   0.614  17.105  0.1534  0.0265  0.3354
  629MPD2    H7 9324   3.285   0.643  17.187 -1.0617  0.4164  0.9713
  630TMC3    C1 9325   3.397   0.748  17.004  0.3010 -0.6551  0.1578
  630TMC3    C2 9326   3.424   0.832  16.902 -0.1274  0.4125 -0.6940
  630TMC3    C3 9327   3.543   0.894  16.901  0.4553  0.1740  0.1152
  630TMC3    C4 9328   3.491   0.703  17.089 -0.1702 -0.4714 -0.1133
  630TMC3    C5 9329   3.610   0.767  17.090 -0.2762 -0.8177  0.1450
  630TMC3    C6 9330   3.637   0.863  17.000  0.0278  0.2196  0.3092
  630TMC3     C 9331   3.271   0.672  16.985 -1.0213 -0.4456  0.4763
  630TMC3     O 9332   3.212   0.686  16.880 -0.3505 -0.2609 -0.3254
  630TMC3     H 9333   3.356   0.860  16.822  0.8442 -1.0985 -2.0486
  630TMC3    H1 9334   3.460   0.639  17.171  1.1193 -1.3412 -0.3019
  630TMC3    H2 9335   3.740   0.898  16.994  0.4380 -0.9140  0.6851
  630TMC3    C7 9336   3.693   0.741  17.203 -0.0431 -0.2074 -0.4374
  630TMC3    C8 9337   3.578   1.015  16.838  0.5336 -0.5177 -0.2334
  630TMC3    O1 9338   3.660   0.645  17.278  0.4080 -0.7278 -0.0505
  630TMC3    O2 9339   3.668   1.083  16.887 -0.2258  0.2319  0.3474
  631MPD2     C 9340   1.243   0.511  15.927  0.3964 -0.6405  0.1587
  631MPD2    C1 9341   1.323   0.545  15.827 -0.7769  0.1520  0.8673
  631MPD2    C2 9342   1.443   0.479  15.817 -0.6120 -0.3335 -0.2618
  631MPD2    C3 9343   1.476   0.381  15.897  0.3848  0.2018 -0.1370
  631MPD2    C4 9344   1.387   0.334  15.992  0.4577 -0.1259 -0.0453
  631MPD2    C5 9345   1.270   0.402  16.003 -0.4685  0.1382 -0.4549
  631MPD2     H 9346   1.508   0.510  15.736  1.6939 -2.0162  0.9330
  631MPD2    H1 9347   1.418   0.252  16.057 -0.1273 -1.1759 -1.0885
  631MPD2    H2 9348   1.146   0.557  15.944 -0.8657 -1.2158 -5.3734
  631MPD2    H3 9349   1.207   0.384  16.089 -0.7276 -2.6971 -1.2533
  631MPD2     N 9350   1.601   0.325  15.878  0.6146  0.1931  0.2410
  631MPD2    H5 9351   1.658   0.376  15.811 -1.6511 -0.6117 -2.2859
  631MPD2    N1 9352   1.291   0.667  15.753 -0.3889 -0.2091 -0.6963
  631MPD2    H7 9353   1.206   0.718  15.775  0.0517  0.0829  0.3042
  632TMC3    C1 9354   1.311   0.857  15.608 -0.2440  0.6505 -0.0000
  632TMC3    C2 9355   1.176   0.883  15.632  0.7422  0.2170  0.0013
  632TMC3    C3 9356   1.130   0.990  15.563  0.2864 -0.1219 -0.3162
  632TMC3    C4 9357   1.391   0.931  15.528 -0.1492  0.4328 -0.3065
  632TMC3    C5 9358   1.342   1.039  15.466  0.6622  0.0135  0.5505
  632TMC3    C6 9359   1.207   1.061  15.471 -0.0229  0.0219 -0.0612
  632TMC3     C 9360   1.369   0.729  15.658 -0.1110  0.2579 -0.4781
  632TMC3     O 9361   1.485   0.704  15.627  0.7848  0.4590 -0.0487
  632TMC3     H 9362   1.104   0.822  15.686 -3.3625  3.0789 -2.2850
  632TMC3    H1 9363   1.495   0.898  15.524 -0.4670 -0.7125  0.8496
  632TMC3    H2 9364   1.170   1.151  15.424  1.6289  0.2047 -0.9967
  632TMC3    C7 9365   1.416   1.077  15.344 -0.1311 -0.3200  0.8285
  632TMC3    C8 9366   1.000   1.035  15.605 -0.1176 -0.4186  0.6018
  632TMC3    O1 9367   1.351   1.076  15.242  0.0659 -0.1983 -0.5448
  632TMC3    O2 9368   0.958   0.994  15.715 -0.0663  0.0342 -0.0505
  633MPD2     C 9369   1.174   3.599  17.537 -0.1943  0.4101  0.2969
  633MPD2    C1 9370   1.176   3.543  17.414  0.0993  0.2760 -0.8241
  633MPD2    C2 9371   1.126   3.411  17.400  0.4849 -0.4221  0.0805
  633MPD2    C3 9372   1.081   3.344  17.513  0.3663 -0.1132 -0.7608
  633MPD2    C4 9373   1.075   3.404  17.634 -0.6420  0.6703  0.5706
  633MPD2    C5 9374   1.125   3.532  17.645 -0.8228 -0.1925  0.1572
  633MPD2     H 9375   1.136   3.366  17.302 -0.2383 -0.5937  0.0899
  633MPD2    H1 9376   1.021   3.365   0.032  2.4304 -0.9944  1.7259
  633MPD2    H2 9377   1.208   3.700  17.557  2.1634 -0.6910  1.8624
  633MPD2    H3 9378   1.118   3.592   0.048  4.0087  0.0011  0.4158
  633MPD2     N 9379   1.061   3.205  17.512  0.8932 -0.4475  0.1352
  633MPD2    H5 9380   1.059   3.171  17.608 -0.6644  0.9066  0.5810
  633MPD2    N1 9381   1.230   3.609  17.295 -0.0037 -0.6965 -0.7893
  633MPD2    H7 9382   1.233   3.557  17.208 -0.0420  0.0758 -1.2555
  634TMC3    C1 9383   1.323   3.786  17.169 -0.2906  0.0183 -0.1687
  634TMC3    C2 9384   1.342   3.691  17.071 -0.0632 -0.0168 -0.8055
  634TMC3    C3 9385   1.345   3.739  16.942 -0.2471  0.6582  0.3576
  634TMC3    C4 9386   1.321   3.921  17.148  0.6574 -0.0049 -0.0832
  634TMC3    C5 9387   1.310   3.959  17.018 -0.7618 -0.1331  0.0107
  634TMC3    C6 9388   1.323   3.873  16.922  0.0951 -1.2427  0.1141
  634TMC3     C 9389   1.271   3.742  17.295 -0.2163  0.0389  0.0887
  634TMC3     O 9390   1.261   3.825  17.384  0.9512  0.1553  0.0504
  634TMC3     H 9391   1.365   3.586  17.087  0.7783  0.3917  0.6510
  634TMC3    H1 9392   1.288   3.985  17.229  1.4027  1.1724 -0.7241
  634TMC3    H2 9393   1.289   3.900  16.823  0.2350 -2.0999 -0.1726
  634TMC3    C7 9394   1.307   4.099  16.981 -0.5622 -1.0192 -0.9950
  634TMC3    C8 9395   1.362   3.645  16.838 -0.1313 -1.0456 -0.5483
  634TMC3    O1 9396   1.341   4.130  16.867 -0.1731  0.0289  0.3259
  634TMC3    O2 9397   1.418   3.544  16.867  0.1471  0.0520  0.5077
  635TMC3    C1 9398   1.432   4.478   0.284 -0.0420  0.1992  0.0726
  635TMC3    C2 9399   1.505   4.533   0.181  0.4649 -0.5315  0.0435
  635TMC3    C3 9400   1.569   4.438   0.101  0.5643 -0.5796 -0.4606
  635TMC3    C4 9401   1.418   4.343   0.306 -0.1818 -0.3612  0.3824
  635TMC3    C5 9402   1.468   4.258   0.212  0.7580 -0.7164  0.1333
  635TMC3    C6 9403   1.541   4.301   0.103 -0.6438  0.2117  0.5705
  635TMC3     C 9404   1.373   4.563   0.386 -0.3438  0.2689  0.3128
  635TMC3     O 9405   1.340   4.514   0.497 -0.5298  0.1995 -0.7628
  635TMC3     H 9406   1.532   4.638   0.186  1.4539 -0.7802 -0.0775
  635TMC3    H1 9407   1.356   4.305   0.386 -2.1244 -0.2269 -1.0580
  635TMC3    H2 9408   1.564   4.230   0.024 -1.5673  0.1914  0.3230
  635TMC3    C7 9409   1.400   4.134   0.204  0.3490 -0.0932 -0.1694
  635TMC3    C8 9410   1.663   4.483   0.001 -0.6372  1.0975 -0.9848
  635TMC3    O1 9411   1.300   4.118   0.272 -0.2690  0.2950  0.6137
  635TMC3    O2 9412   1.677   4.605  17.663  0.1148 -0.2742  0.0515
  636MPD2     C 9413   2.304   3.629  16.436  0.7557  0.5715 -0.4738
  636MPD2    C1 9414   2.391   3.710  16.506  0.0280  0.6176  0.3162
  636MPD2    C2 9415   2.498   3.652  16.577  0.7968 -0.7758  0.6516
  636MPD2    C3 9416   2.522   3.512  16.565 -0.5008  0.6000  0.6253
  636MPD2    C4 9417   2.433   3.438  16.492 -0.1580  0.1924  0.0610
  636MPD2    C5 9418   2.331   3.498  16.423  0.0357 -0.4356 -0.4103
  636MPD2     H 9419   2.568   3.716  16.631  0.3420  1.0949 -0.9912
  636MPD2    H1 9420   2.445   3.330  16.490 -4.8048 -0.3030 -0.8478
  636MPD2    H2 9421   2.217   3.659  16.379  0.4365 -0.3460 -0.4679
  636MPD2    H3 9422   2.262   3.425  16.382  0.7985 -0.7179 -1.2023
  636MPD2     N 9423   2.618   3.458  16.656 -0.3908  0.0168  0.0991
  636MPD2    H5 9424   2.662   3.516  16.726 -0.6648 -0.2042  0.4581
  636MPD2    N1 9425   2.374   3.854  16.511  0.6702  0.3024  0.7619
  636MPD2    H7 9426   2.451   3.903  16.554  2.3929 -2.8836  1.3136
  637TMC3    C1 9427   2.750   3.292  16.765  0.6443  0.2615 -0.2933
  637TMC3    C2 9428   2.749   3.384  16.867  0.0580 -0.7268 -0.0087
  637TMC3    C3 9429   2.865   3.408  16.931 -0.1188  0.3419 -0.1890
  637TMC3    C4 9430   2.864   3.228  16.723  0.0176  0.4448  0.2636
  637TMC3    C5 9431   2.981   3.268  16.777  0.4972 -0.1829  0.3569
  637TMC3    C6 9432   2.973   3.343  16.891 -0.3434  0.5135  0.5764
  637TMC3     C 9433   2.663   3.326  16.656  0.5909  0.4615  0.5189
  637TMC3     O 9434   2.636   3.232  16.585 -0.2266  0.4471  0.2114
  637TMC3     H 9435   2.661   3.443  16.892  0.0618 -0.5979 -0.3000
  637TMC3    H1 9436   2.865   3.157  16.641  1.9848  0.0590  0.6182
  637TMC3    H2 9437   3.068   3.381  16.927  1.0204 -1.1259 -1.3175
  637TMC3    C7 9438   3.065   3.333  16.675 -0.2324 -0.3386 -0.2234
  637TMC3    C8 9439   2.883   3.549  16.954 -0.6550  0.3520  0.4160
  637TMC3    O1 9440   3.156   3.405  16.716  0.5619  0.5880 -0.5948
  637TMC3    O2 9441   2.840   3.635  16.880 -0.5159 -0.1161  0.0309
  638MPD2     C 9442   2.132   3.027  14.601 -0.4040 -0.7042  0.4683
  638MPD2    C1 9443   2.149   2.893  14.569 -0.8622 -0.2882  0.0546
  638MPD2    C2 9444   2.074   2.798  14.634 -0.0824  0.3395 -0.3317
  638MPD2    C3 9445   1.980   2.834  14.733 -0.9289  0.2919 -0.0191
  638MPD2    C4 9446   1.964   2.970  14.758 -0.0854 -0.2424 -0.8494
  638MPD2    C5 9447   2.036   3.064  14.697  0.5523 -0.2252  0.1757
  638MPD2     H 9448   2.102   2.694  14.616  3.2699  1.0279  0.9214
  638MPD2    H1 9449   1.896   3.001  14.836 -2.2128 -2.8536 -1.6542
  638MPD2    H2 9450   2.203   3.099  14.562  0.2657 -1.9193 -0.5194
  638MPD2    H3 9451   2.029   3.167  14.731  2.6879  0.0287 -0.1466
  638MPD2     N 9452   1.927   2.728  14.816 -0.4437 -0.3719  0.0428
  638MPD2    H5 9453   1.950   2.633  14.787 -0.5127 -0.0939 -0.9007
  638MPD2    N1 9454   2.259   2.857  14.485  1.1039 -0.4061  0.2467
  638MPD2    H7 9455   2.324   2.932  14.465  0.5663 -0.0082 -0.0054
  639TMC3    C1 9456   1.850   2.617  15.005 -0.2622 -0.1343  0.2680
  639TMC3    C2 9457   1.817   2.507  14.932 -0.5899 -0.9878  0.1845
  639TMC3    C3 9458   1.815   2.390  15.003  0.1952  0.1149  0.2438
  639TMC3    C4 9459   1.867   2.617  15.140 -0.2672 -0.6089 -0.1561
  639TMC3    C5 9460   1.861   2.494  15.203 -0.4547 -0.3929 -0.5679
  639TMC3    C6 9461   1.844   2.376  15.132 -0.0518  0.0776 -1.1203
  639TMC3     C 9462   1.865   2.743  14.935 -0.8407 -0.1401  0.0762
  639TMC3     O 9463   1.839   2.845  14.998 -0.7936 -0.2794  0.3215
  639TMC3     H 9464   1.808   2.506  14.824 -2.8396 -1.5762  0.3765
  639TMC3    H1 9465   1.897   2.704  15.198 -0.8622  0.0092 -0.7798
  639TMC3    H2 9466   1.849   2.276  15.173 -0.0779 -0.2000 -1.8087
  639TMC3    C7 9467   1.948   2.486  15.319  0.4349  0.1956  0.3108
  639TMC3    C8 9468   1.778   2.278  14.919 -0.6302 -0.0315 -0.3015
  639TMC3    O1 9469   1.929   2.565  15.411  0.0641 -0.0915  0.4667
  639TMC3    O2 9470   1.824   2.271  14.805 -0.1189  0.1763 -0.0840
  640MPD2     C 9471   3.938   1.238   9.987  0.8496  0.5292 -0.2663
  640MPD2    C1 9472   3.944   1.101   9.971  0.0713  0.2894  0.6227
  640MPD2    C2 9473   3.827   1.026   9.995  0.6162  0.7889  0.2789
  640MPD2    C3 9474   3.707   1.088  10.038  0.2943 -0.6942  0.2005
  640MPD2    C4 9475   3.717   1.224  10.065  0.4619 -0.5060 -0.0445
  640MPD2    C5 9476   3.830   1.298  10.031 -0.4389 -0.0685  0.2809
  640MPD2     H 9477   3.830   0.919   9.976  1.5756  0.9885 -0.7197
  640MPD2    H1 9478   3.629   1.284  10.085 -0.6859 -1.6548 -1.6028
  640MPD2    H2 9479   4.022   1.301   9.959 -0.4279  1.9953 -0.8056
  640MPD2    H3 9480   3.822   1.406  10.031  1.6018  0.0691  1.1102
  640MPD2     N 9481   3.577   1.032  10.055 -0.5114  0.0163  0.0529
  640MPD2    H5 9482   3.503   1.090  10.092 -1.6623  1.4219 -4.4722
  640MPD2    N1 9483   4.066   1.052   9.939 -0.6439  0.7031  0.2904
  640MPD2    H7 9484   4.131   1.116   9.896  0.7426 -0.6961  0.3130
  641TMC3    C1 9485   4.214   0.871   9.851  0.2836  0.1639 -0.9488
  641TMC3    C2 9486   4.210   0.740   9.819  0.4632  0.0715  0.2929
  641TMC3    C3 9487   4.275   0.697   9.713 -0.3852  0.1156  0.1028
  641TMC3    C4 9488   4.281   0.960   9.781 -0.1901  0.3504 -0.0671
  641TMC3    C5 9489   4.353   0.913   9.677  0.2237  0.0165  0.6671
  641TMC3    C6 9490   4.343   0.784   9.632  0.2677  0.0458 -0.6081
  641TMC3     C 9491   4.096   0.920   9.943 -0.6988 -0.9262 -0.2812
  641TMC3     O 9492   4.032   0.833   9.996  0.1815 -0.2237 -0.0586
  641TMC3     H 9493   4.156   0.671   9.883  1.0596 -1.7814 -1.1873
  641TMC3    H1 9494   4.304   1.059   9.820 -1.8858  0.5338  0.4747
  641TMC3    H2 9495   4.393   0.750   9.542  0.1256  0.7106 -0.9434
  641TMC3    C7 9496   4.450   0.988   9.596 -0.3731  0.1152 -0.5953
  641TMC3    C8 9497   4.236   0.576   9.642 -0.7667  0.1199  0.0728
  641TMC3    O1 9498   4.536   0.927   9.535 -0.5138  0.1820 -0.0685
  641TMC3    O2 9499   4.235   0.569   9.520 -0.5257  0.0438 -0.0221
  642TMC3    C1 9500   4.355   2.533  12.490  0.6033 -1.0830 -0.2414
  642TMC3    C2 9501   4.482   2.520  12.456  0.4277  0.7998  0.5819
  642TMC3    C3 9502   4.520   2.396  12.415 -0.6850  0.0707 -0.2286
  642TMC3    C4 9503   4.264   2.426  12.484 -0.7400  0.0603  0.4102
  642TMC3    C5 9504   4.302   2.308  12.429 -0.7660 -0.6179 -0.1718
  642TMC3    C6 9505   4.432   2.294  12.386 -0.2766  0.1363  0.3618
  642TMC3     C 9506   4.304   2.673  12.507 -0.2682  0.0718  0.4520
  642TMC3     O 9507   4.376   2.760  12.464  0.3089  0.2700 -0.5458
  642TMC3     H 9508   4.554   2.601  12.465  0.4715  0.5890  2.2134
  642TMC3    H1 9509   4.165   2.437  12.526 -0.5596 -1.4571  1.2176
  642TMC3    H2 9510   4.469   2.203  12.340  0.4175  1.2321 -1.2325
  642TMC3    C7 9511   4.204   2.203  12.402  0.3601 -0.1480  0.5452
  642TMC3    C8 9512   4.666   2.363  12.407 -0.4313 -0.5060 -0.6722
  642TMC3    O1 9513   4.209   2.156  12.288 -0.1949  0.3259  0.0756
  642TMC3    O2 9514   4.697   2.275  12.327 -0.0540 -0.0929  0.2462
  643TMC3    C1 9515   3.225   2.041   0.966  0.7363 -0.2649 -0.4092
  643TMC3    C2 9516   3.093   2.072   0.946  1.5570 -0.2458  0.5344
  643TMC3    C3 9517   3.018   1.984   0.877  0.0064 -0.5755  0.5130
  643TMC3    C4 9518   3.272   1.923   0.926 -0.5113 -0.0860  0.2074
  643TMC3    C5 9519   3.198   1.843   0.844  0.6581  0.1937 -0.5489
  643TMC3    C6 9520   3.065   1.869   0.840  0.3208 -0.1967 -0.5186
  643TMC3     C 9521   3.297   2.133   1.051 -0.1655  0.0219 -0.0411
  643TMC3     O 9522   3.241   2.236   1.075  0.2383 -0.1591  0.1954
  643TMC3     H 9523   3.052   2.170   0.966 -0.5396 -0.9780 -0.1683
  643TMC3    H1 9524   3.372   1.885   0.944  0.1715  0.5723 -2.1893
  643TMC3    H2 9525   3.003   1.824   0.763 -0.2635  0.4618 -0.4375
  643TMC3    C7 9526   3.261   1.851   0.712  0.4556 -0.1084 -0.7967
  643TMC3    C8 9527   2.949   2.039   0.765  0.0986 -0.2217  0.4172
  643TMC3    O1 9528   3.333   1.950   0.688  0.1650 -0.1772 -0.4149
  643TMC3    O2 9529   2.857   1.971   0.718 -0.0592  0.1088  0.5931
  644MPD2     C 9530   3.905   1.630  10.128 -0.3170  1.0613 -0.4103
  644MPD2    C1 9531   3.949   1.723  10.037  0.6022  0.5374 -1.1730
  644MPD2    C2 9532   3.875   1.831  10.004  0.5703  0.4296 -0.0338
  644MPD2    C3 9533   3.750   1.851  10.050  0.5186  0.3176 -0.4004
  644MPD2    C4 9534   3.704   1.757  10.148 -0.3520  0.2824 -0.1022
  644MPD2    C5 9535   3.780   1.645  10.187  0.2862  0.7157  0.9461
  644MPD2     H 9536   3.914   1.895   9.925 -0.7022 -0.5689 -1.4642
  644MPD2    H1 9537   3.608   1.769  10.197 -0.6274  2.2461 -1.1297
  644MPD2    H2 9538   3.967   1.544  10.148 -5.0068 -2.1306  0.5340
  644MPD2    H3 9539   3.753   1.577  10.267  1.9851  0.6604  1.4871
  644MPD2     N 9540   3.688   1.976  10.032 -0.4928 -0.0029  0.1817
  644MPD2    H5 9541   3.739   2.033   9.964  2.1211 -0.6722  1.5726
  644MPD2    N1 9542   4.071   1.698   9.973 -0.1349  0.5417  0.4440
  644MPD2    H7 9543   4.109   1.608   9.998 -2.1367 -0.3461  0.3216
  645TMC3    C1 9544   3.533   2.151  10.058  0.5775  0.1367  0.1525
  645TMC3    C2 9545   3.636   2.240  10.040  0.0177 -1.2602  0.1355
  645TMC3    C3 9546   3.606   2.369  10.008 -0.0647  0.0854 -0.4190
  645TMC3    C4 9547   3.400   2.192  10.060  0.2520  0.5778 -0.4958
  645TMC3    C5 9548   3.376   2.325  10.050 -0.4386 -0.2891 -0.4174
  645TMC3    C6 9549   3.478   2.411  10.019  0.8442  0.2071 -0.1016
  645TMC3     C 9550   3.571   2.015  10.093 -0.3153 -0.3999 -1.1856
  645TMC3     O 9551   3.482   1.957  10.147  0.1706  0.5774  0.0304
  645TMC3     H 9552   3.740   2.211  10.050  0.6975  0.1081 -2.9459
  645TMC3    H1 9553   3.320   2.120  10.071  0.2727  0.6115 -0.1196
  645TMC3    H2 9554   3.452   2.516  10.009 -2.6423 -0.7102 -0.6574
  645TMC3    C7 9555   3.243   2.373  10.027 -0.4710 -0.3765 -0.1411
  645TMC3    C8 9556   3.711   2.464  10.021  0.2426  0.7898 -0.7148
  645TMC3    O1 9557   3.229   2.458   9.937  0.1447  0.2958 -0.1791
  645TMC3    O2 9558   3.818   2.412  10.027  0.6479 -0.4257  0.5585
  646MPD2     C 9559   2.382   1.027  14.661 -0.0823  0.1185  0.3732
  646MPD2    C1 9560   2.340   1.098  14.771 -0.6324  0.0370  0.3752
  646MPD2    C2 9561   2.254   1.202  14.747 -0.9322 -0.7916 -0.0401
  646MPD2    C3 9562   2.216   1.232  14.617 -0.4254 -0.3503 -0.3142
  646MPD2    C4 9563   2.263   1.153  14.510 -0.0049  0.1624  0.1393
  646MPD2    C5 9564   2.349   1.044  14.531  0.7782  0.0288  0.2915
  646MPD2     H 9565   2.215   1.268  14.825  1.7153  0.2580  0.4032
  646MPD2    H1 9566   2.236   1.166  14.406 -0.3551  0.6975  0.2971
  646MPD2    H2 9567   2.460   0.955  14.681 -0.2998 -0.0672  0.5562
  646MPD2    H3 9568   2.383   0.983  14.448 -2.6293 -1.9940  0.4079
  646MPD2     N 9569   2.127   1.342  14.595  0.2081  1.0176 -0.1680
  646MPD2    H5 9570   2.079   1.380  14.676  3.7631  1.2939  1.7923
  646MPD2    N1 9571   2.412   1.093  14.898 -0.0173  0.6832  0.0513
  646MPD2    H7 9572   2.491   1.029  14.904 -1.2481 -0.9206 -0.7981
  647TMC3    C1 9573   2.456   1.110  15.134  0.3295 -0.7785  0.9146
  647TMC3    C2 9574   2.399   1.095  15.253  0.0655  0.3663 -0.0546
  647TMC3    C3 9575   2.490   1.092  15.362  0.4797  0.0353  0.4676
  647TMC3    C4 9576   2.590   1.132  15.106  0.5362 -0.4222 -0.4025
  647TMC3    C5 9577   2.670   1.141  15.220 -0.4960  0.3993 -0.4214
  647TMC3    C6 9578   2.616   1.132  15.347 -0.3749  0.3569 -0.7672
  647TMC3     C 9579   2.364   1.137  15.020 -0.0722 -0.4049  0.5987
  647TMC3     O 9580   2.249   1.165  15.055 -0.1041 -0.2273  0.2271
  647TMC3     H 9581   2.297   1.060  15.247 -0.0832  0.9688 -0.9838
  647TMC3    H1 9582   2.619   1.176  15.011 -1.6869 -1.7736 -1.7081
  647TMC3    H2 9583   2.674   1.138  15.439  0.5740 -0.0817 -1.3402
  647TMC3    C7 9584   2.812   1.114  15.209 -0.4677 -0.7275  0.4153
  647TMC3    C8 9585   2.479   0.963  15.437  0.3026  0.0670 -0.5083
  647TMC3    O1 9586   2.882   1.146  15.304 -0.0108 -0.2079 -0.5827
  647TMC3    O2 9587   2.575   0.908  15.492 -0.6271  0.2665 -0.1443
  648TMC3    C1 9588   1.631   3.738  16.385  0.2067 -0.0563 -0.5122
  648TMC3    C2 9589   1.632   3.616  16.331 -0.5104 -0.4253  0.4649
  648TMC3    C3 9590   1.603   3.600  16.200 -0.0294  0.0696 -0.5842
  648TMC3    C4 9591   1.611   3.853  16.306  0.7367  0.4895  0.6437
  648TMC3    C5 9592   1.564   3.833  16.182  0.3326 -0.1030  0.4098
  648TMC3    C6 9593   1.565   3.710  16.127  0.3873  0.2828 -0.4795
  648TMC3     C 9594   1.648   3.760  16.533 -0.2347 -1.2044 -0.0726
  648TMC3     O 9595   1.597   3.865  16.571 -1.1174  0.0358 -0.3185
  648TMC3     H 9596   1.650   3.524  16.385  1.8880 -1.2918 -1.7956
  648TMC3    H1 9597   1.636   3.942  16.363  1.7074 -0.7145  2.1156
  648TMC3    H2 9598   1.568   3.684  16.022 -0.3800 -1.3442 -0.1036
  648TMC3    C7 9599   1.543   3.946  16.094 -0.3895  0.5356 -0.3478
  648TMC3    C8 9600   1.615   3.476  16.129  0.0581  0.2607  0.1744
  648TMC3    O1 9601   1.552   3.925  15.975 -0.3225 -0.1462 -0.4895
  648TMC3    O2 9602   1.537   3.447  16.040  0.1320  0.1185 -0.2584
  649TMC3    C1 9603   0.981   4.477  13.035 -0.4278  0.4535  0.5309
  649TMC3    C2 9604   1.093   4.401  13.016  0.3825 -0.3244 -0.3004
  649TMC3    C3 9605   1.126   4.303  13.112  0.0796 -0.3063 -0.1748
  649TMC3    C4 9606   0.905   4.454  13.151 -0.4447 -0.7689 -1.0171
  649TMC3    C5 9607   0.944   4.360  13.246 -0.1114 -0.0454  0.6800
  649TMC3    C6 9608   1.041   4.275  13.214 -0.0122  0.0823  0.0666
  649TMC3     C 9609   0.924   4.553  12.924  0.2406  0.1397  0.0736
  649TMC3     O 9610   0.817   4.601  12.940  0.5852 -0.5943 -0.2835
  649TMC3     H 9611   1.158   4.417  12.931  0.4031 -3.8548 -0.9365
  649TMC3    H1 9612   0.822   4.521  13.163  1.7796  1.6887  0.5451
  649TMC3    H2 9613   1.061   4.194  13.283 -0.5343  1.0273  1.3065
  649TMC3    C7 9614   0.845   4.337  13.346  0.2734 -0.6234  0.8811
  649TMC3    C8 9615   1.257   4.240  13.121 -0.3493  0.3066 -0.0086
  649TMC3    O1 9616   0.730   4.373  13.327 -0.1943 -0.1751 -0.2614
  649TMC3    O2 9617   1.271   4.158  13.217 -0.1067  0.3795  0.3996
  650TMC3    C1 9618   3.807   1.760  13.343  0.4583  0.3010  0.4532
  650TMC3    C2 9619   3.785   1.894  13.339  0.4946  0.0069  0.8342
  650TMC3    C3 9620   3.668   1.947  13.294 -0.6436  0.0990 -0.2775
  650TMC3    C4 9621   3.717   1.672  13.293 -0.1000 -0.1540  0.0392
  650TMC3    C5 9622   3.611   1.731  13.233 -0.4893 -0.0192  0.1545
  650TMC3    C6 9623   3.579   1.863  13.241  0.0379  0.0793  0.5245
  650TMC3     C 9624   3.938   1.726  13.378 -0.2815  0.1897  0.6350
  650TMC3     O 9625   4.015   1.815  13.408  0.1429 -0.3574  0.0491
  650TMC3     H 9626   3.835   1.961  13.408 -3.6309  3.7130  0.2240
  650TMC3    H1 9627   3.726   1.565  13.277 -0.4708 -0.0383 -0.9829
  650TMC3    H2 9628   3.491   1.897  13.188  0.4024  0.3952  0.1219
  650TMC3    C7 9629   3.592   1.670  13.103  0.5685 -0.4390 -0.2278
  650TMC3    C8 9630   3.636   2.091  13.309  0.3084  0.1655 -0.3018
  650TMC3    O1 9631   3.597   1.551  13.086  0.2072 -0.1682  0.4818
  650TMC3    O2 9632   3.726   2.172  13.286  0.2005  0.8465 -0.2298
  651MPD2     C 9633   2.587   3.045  10.468  0.1170 -0.4697  0.3312
  651MPD2    C1 9634   2.530   3.165  10.522  1.1709  0.6361 -0.1818
  651MPD2    C2 9635   2.598   3.285  10.511 -0.1061  0.6303 -0.1631
  651MPD2    C3 9636   2.724   3.292  10.479 -0.2359  0.1559 -0.1749
  651MPD2    C4 9637   2.781   3.178  10.422  0.2023  0.3759 -0.8152
  651MPD2    C5 9638   2.711   3.056  10.417  0.1795 -0.5983 -0.0036
  651MPD2     H 9639   2.543   3.372  10.546  1.9874  1.8604  0.0721
  651MPD2    H1 9640   2.884   3.171  10.389 -0.2224 -1.0907 -1.8651
  651MPD2    H2 9641   2.537   2.948  10.466 -2.1236  0.6680  0.5155
  651MPD2    H3 9642   2.749   2.970  10.364  0.4321 -0.4318 -0.0966
  651MPD2     N 9643   2.783   3.419  10.481  0.1462 -0.2378 -0.1413
  651MPD2    H5 9644   2.722   3.489  10.522  0.5382 -0.5347  0.9443
  651MPD2    N1 9645   2.401   3.171  10.584  0.5617  0.4725  0.3017
  651MPD2    H7 9646   2.370   3.264  10.613  1.0846  0.9208 -0.6061
  652TMC3    C1 9647   3.087   3.741  10.601  0.0185  0.4700 -0.5716
  652TMC3    C2 9648   3.060   3.615  10.557 -0.3157  0.4582 -0.4856
  652TMC3    C3 9649   2.944   3.586  10.495 -0.3955 -0.0773  0.3347
  652TMC3    C4 9650   2.990   3.836  10.598  0.4037 -0.1759  0.2360
  652TMC3    C5 9651   2.870   3.803  10.544  0.6167 -0.1931 -0.0483
  652TMC3    C6 9652   2.848   3.681  10.487  0.6533  0.1990 -1.5075
  652TMC3     C 9653   3.200   3.750  10.686 -0.1262  0.7809 -0.4511
  652TMC3     O 9654   3.238   3.646  10.741 -0.5830 -0.4713 -0.3153
  652TMC3     H 9655   3.119   3.537  10.606 -1.0820 -0.2262 -0.6467
  652TMC3    H1 9656   3.011   3.921  10.661 -0.9538  0.3614 -0.0289
  652TMC3    H2 9657   2.756   3.666  10.433 -0.7161  3.5368 -0.0831
  652TMC3    C7 9658   2.759   3.893  10.527 -0.6489 -0.2146 -0.2345
  652TMC3    C8 9659   2.912   3.448  10.453 -0.2357  0.2669 -0.4896
  652TMC3    O1 9660   2.686   3.871  10.437  0.8154  0.1835  0.0141
  652TMC3    O2 9661   3.003   3.369  10.428  0.1308 -0.6123  0.1963
  653MPD2     C 9662   1.111   3.736   0.480  0.8925 -0.4923  0.2443
  653MPD2    C1 9663   1.021   3.820   0.423 -0.9287 -0.1822 -0.7804
  653MPD2    C2 9664   0.932   3.777   0.336  0.2307 -0.1124 -0.0941
  653MPD2    C3 9665   0.924   3.644   0.303 -0.2416 -0.7503 -0.0781
  653MPD2    C4 9666   1.010   3.556   0.360  0.7472  0.6229  0.2588
  653MPD2    C5 9667   1.105   3.601   0.452  0.5569 -0.7373  0.1256
  653MPD2     H 9668   0.851   3.837   0.294 -0.5785  0.2537  2.0106
  653MPD2    H1 9669   1.011   3.452   0.330 -2.4203  0.9932 -1.1179
  653MPD2    H2 9670   1.193   3.768   0.544  1.4145  2.7926 -2.0826
  653MPD2    H3 9671   1.183   3.538   0.493 -0.3255 -2.1709 -0.4056
  653MPD2     N 9672   0.818   3.609   0.209 -0.7995 -0.3950  0.0481
  653MPD2    H5 9673   0.776   3.690   0.165  5.0495  1.7607 -1.5966
  653MPD2    N1 9674   1.032   3.961   0.435  0.1224  0.1535 -0.0659
  653MPD2    H7 9675   0.977   4.019   0.373 -0.6828 -0.9557 -0.3956
  654TMC3    C1 9676   0.728   3.486   0.041  0.6454  0.7361  0.9744
  654TMC3    C2 9677   0.684   3.601  17.676 -1.1709 -0.2656 -0.4060
  654TMC3    C3 9678   0.635   3.588  17.553 -0.3602 -0.1069 -0.4291
  654TMC3    C4 9679   0.748   3.368  17.661 -0.4789  0.6605 -0.5631
  654TMC3    C5 9680   0.710   3.364  17.528 -0.4711 -0.1186  0.6982
  654TMC3    C6 9681   0.663   3.480  17.473  0.0491  0.3493 -0.1845
  654TMC3     C 9682   0.783   3.483   0.176  0.1700 -0.4643  0.3387
  654TMC3     O 9683   0.799   3.375   0.240  0.3519  0.1008  0.1611
  654TMC3     H 9684   0.647   3.679   0.055  0.4371 -0.6171  0.9068
  654TMC3    H1 9685   0.793   3.280   0.018  0.9760  0.6736 -2.0132
  654TMC3    H2 9686   0.620   3.479  17.373 -1.0177  1.3614  0.2700
  654TMC3    C7 9687   0.645   3.244  17.488 -0.1582  0.1428 -0.8838
  654TMC3    C8 9688   0.573   3.698  17.493  0.2650  1.0260  0.3684
  654TMC3    O1 9689   0.535   3.257  17.436  0.2232 -0.3796  0.0393
  654TMC3    O2 9690   0.485   3.669  17.413 -0.4718  0.3004 -0.3154
  655MPD2     C 9691   2.190   3.786  15.854 -0.2494 -0.3699  0.8073
  655MPD2    C1 9692   2.181   3.914  15.812 -1.0990  0.0894 -0.1121
  655MPD2    C2 9693   2.228   3.939  15.683  0.4644 -1.0582 -1.0216
  655MPD2    C3 9694   2.267   3.835  15.602  0.4825 -0.0845 -0.1676
  655MPD2    C4 9695   2.267   3.703  15.648 -0.5604  0.1905  0.2616
  655MPD2    C5 9696   2.229   3.681  15.777 -0.1365  0.7990  0.0322
  655MPD2     H 9697   2.230   4.040  15.644  1.1548 -0.5408  0.3728
  655MPD2    H1 9698   2.292   3.616  15.589 -1.3240  1.7873 -2.4698
  655MPD2    H2 9699   2.176   3.760  15.959  0.9448 -1.5914  0.6525
  655MPD2    H3 9700   2.240   3.578  15.808 -0.5123  0.0781 -2.2344
  655MPD2     N 9701   2.312   3.853  15.467 -0.4892  0.4946 -0.3571
  655MPD2    H5 9702   2.323   3.770  15.410  1.3299  0.6225 -0.1910
  655MPD2    N1 9703   2.133   4.020  15.881 -0.3680 -0.1727  0.3647
  655MPD2    H7 9704   2.133   4.109  15.831 -2.1905 -0.3721  0.0373
  656TMC3    C1 9705   1.958   4.110  16.004  0.5526 -0.6807  0.0176
  656TMC3    C2 9706   1.929   4.146  16.133  0.8474 -0.1356 -0.3038
  656TMC3    C3 9707   1.840   4.240  16.150  0.0951 -0.0081 -0.1900
  656TMC3    C4 9708   1.903   4.174  15.894  0.2872 -0.1218 -0.0633
  656TMC3    C5 9709   1.814   4.269  15.920  0.3139 -0.2577  0.7738
  656TMC3    C6 9710   1.771   4.295  16.044  0.5305  0.2983 -0.2046
  656TMC3     C 9711   2.054   4.008  15.988  0.7479  0.5514  0.1060
  656TMC3     O 9712   2.046   3.920  16.076 -0.0628 -0.3653  0.0265
  656TMC3     H 9713   1.992   4.104  16.211  0.0466  1.7884  1.3641
  656TMC3    H1 9714   1.941   4.149  15.795  0.7673 -0.4055  0.1926
  656TMC3    H2 9715   1.684   4.357  16.063 -0.7346 -0.9546 -1.9367
  656TMC3    C7 9716   1.771   4.348  15.804  0.0714  0.5374  0.0315
  656TMC3    C8 9717   1.790   4.245  16.287  0.6587  0.4010 -0.1755
  656TMC3    O1 9718   1.776   4.285  15.699 -0.4347 -0.4230  0.7725
  656TMC3    O2 9719   1.792   4.143  16.353  0.7686  0.8499  0.9550
  657TMC3    C1 9720   0.942   3.423  15.079 -0.1688  0.6786 -1.1871
  657TMC3    C2 9721   0.990   3.458  15.201 -0.6427 -0.6692  0.0760
  657TMC3    C3 9722   0.933   3.563  15.268  0.7983  0.6655 -0.2742
  657TMC3    C4 9723   0.850   3.503  15.015 -0.8597  0.5038 -0.1136
  657TMC3    C5 9724   0.808   3.622  15.077 -0.4318 -0.0290  0.4808
  657TMC3    C6 9725   0.846   3.647  15.209  0.7152 -0.2939  0.1023
  657TMC3     C 9726   1.003   3.323  14.993 -0.8107  0.4186  0.1836
  657TMC3     O 9727   0.998   3.348  14.874 -0.7925  0.0754  0.2249
  657TMC3     H 9728   1.082   3.415  15.238  0.4300  0.1359 -1.6647
  657TMC3    H1 9729   0.810   3.469  14.920  1.1853 -0.9841 -0.4544
  657TMC3    H2 9730   0.812   3.731  15.268 -1.0015  0.2563 -1.6843
  657TMC3    C7 9731   0.738   3.729  15.012  0.8344 -0.3904 -0.1998
  657TMC3    C8 9732   0.993   3.608  15.398  0.3326 -0.2722  0.1768
  657TMC3    O1 9733   0.688   3.819  15.082  0.0833  0.1518 -0.1900
  657TMC3    O2 9734   0.986   3.725  15.425  0.2555 -0.4133 -0.0432
  658MPD2     C 9735   2.601   4.333  14.885  0.3547  0.8107  0.1222
  658MPD2    C1 9736   2.567   4.201  14.858 -0.1964 -0.8680  0.2879
  658MPD2    C2 9737   2.619   4.154  14.742  0.0468  0.1171  0.0352
  658MPD2    C3 9738   2.691   4.229  14.648 -0.4909 -0.0615  0.1661
  658MPD2    C4 9739   2.714   4.363  14.679 -0.5547  0.2470  0.1019
  658MPD2    C5 9740   2.669   4.405  14.797  0.6118 -0.3805 -0.4362
  658MPD2     H 9741   2.604   4.049  14.716 -1.0650  0.5089 -0.9035
  658MPD2    H1 9742   2.778   4.434  14.628  0.6435 -0.7329  0.2298
  658MPD2    H2 9743   2.581   4.383  14.979 -1.3982 -2.0528  1.2785
  658MPD2    H3 9744   2.693   4.507  14.825  0.3957 -0.3937 -0.2027
  658MPD2     N 9745   2.714   4.177  14.520 -0.1246  0.6358  0.1624
  658MPD2    H5 9746   2.697   4.077  14.513  0.2671  0.5275  0.7320
  658MPD2    N1 9747   2.478   4.129  14.938  0.4165 -0.3354 -0.1413
  658MPD2    H7 9748   2.440   4.177  15.019  0.5700 -0.2930 -0.0947
  659TMC3    C1 9749   2.340   3.957  15.027  0.7553 -0.1209  1.3909
  659TMC3    C2 9750   2.357   4.009  15.150  0.2919 -0.4840  0.9152
  659TMC3    C3 9751   2.291   3.946  15.254 -0.2407  0.6123  0.2592
  659TMC3    C4 9752   2.247   3.863  14.998 -0.8372  0.0651 -0.0676
  659TMC3    C5 9753   2.164   3.818  15.096  0.9044  0.3338 -0.2734
  659TMC3    C6 9754   2.191   3.851  15.226  0.2203 -0.3883  0.4724
  659TMC3     C 9755   2.429   3.996  14.921  0.4561 -0.2426  0.1883
  659TMC3     O 9756   2.422   3.933  14.814  0.0545 -0.2103  0.6780
  659TMC3     H 9757   2.431   4.083  15.178  2.9855 -2.1162 -1.8208
  659TMC3    H1 9758   2.242   3.822  14.898  0.6354 -3.5523  1.3386
  659TMC3    H2 9759   2.125   3.833  15.309 -1.6564  1.0388 -0.7247
  659TMC3    C7 9760   2.024   3.777  15.066 -0.0539  0.3496  0.3477
  659TMC3    C8 9761   2.310   3.973  15.395 -0.3892  0.2693  0.2310
  659TMC3    O1 9762   1.948   3.785  15.161 -0.0486  0.1590  0.3118
  659TMC3    O2 9763   2.338   4.085  15.443  0.3531  0.3154 -0.5828
  660MPD2     C 9764   0.959   2.314  12.909  0.2125  0.4752  0.2736
  660MPD2    C1 9765   0.837   2.362  12.864  0.0582 -0.1870  0.5303
  660MPD2    C2 9766   0.719   2.306  12.917  0.3280  0.1094 -0.3164
  660MPD2    C3 9767   0.724   2.215  13.028 -0.2162  0.6753 -0.0242
  660MPD2    C4 9768   0.847   2.180  13.077 -0.1687 -0.4201 -0.7649
  660MPD2    C5 9769   0.959   2.220  13.010  0.2023  0.6103  0.1842
  660MPD2     H 9770   0.623   2.318  12.869 -0.9131  3.0616  2.9026
  660MPD2    H1 9771   0.869   2.118  13.164  0.6660  2.9308  1.4244
  660MPD2    H2 9772   1.042   2.349  12.850  1.5717 -1.0369  1.2890
  660MPD2    H3 9773   1.057   2.184  13.041 -0.1214  1.1771  1.9082
  660MPD2     N 9774   0.615   2.153  13.091  0.1780  0.2030 -0.3881
  660MPD2    H5 9775   0.646   2.083  13.158 -1.2121 -0.1925 -0.1572
  660MPD2    N1 9776   0.838   2.447  12.748 -0.1556  0.4953 -0.7574
  660MPD2    H7 9777   0.932   2.464  12.714  1.1027 -3.2679  0.8139
  661TMC3    C1 9778   0.746   2.593  12.578  0.3070 -0.2094 -0.2139
  661TMC3    C2 9779   0.795   2.522  12.475 -0.2444  0.6148  0.0502
  661TMC3    C3 9780   0.746   2.556  12.354 -0.4663  0.2413 -0.2944
  661TMC3    C4 9781   0.642   2.683  12.559  0.4979  0.3196  0.1067
  661TMC3    C5 9782   0.599   2.715  12.436  0.2016  0.6273  0.1802
  661TMC3    C6 9783   0.646   2.645  12.328 -0.5355  0.0778 -0.2375
  661TMC3     C 9784   0.725   2.522  12.704 -0.0136 -0.0879  0.5729
  661TMC3     O 9785   0.632   2.565  12.769 -0.1396 -0.5992  0.1826
  661TMC3     H 9786   0.873   2.448  12.486  0.2437  0.9409 -1.1982
  661TMC3    H1 9787   0.584   2.727  12.640 -1.3882 -1.1487 -0.4507
  661TMC3    H2 9788   0.607   2.663  12.229 -0.9052 -0.1660 -0.1338
  661TMC3    C7 9789   0.469   2.780  12.421  0.4074  0.3182 -0.2535
  661TMC3    C8 9790   0.839   2.520  12.245 -0.2689 -0.1783  0.7569
  661TMC3    O1 9791   0.437   2.868  12.501  0.1900  0.6806  0.6934
  661TMC3    O2 9792   0.895   2.412  12.251 -0.3180  0.3761  0.2149
  662MPD2     C 9793   0.562   2.588   0.169 -0.2205  0.9950 -0.1492
  662MPD2    C1 9794   0.567   2.481   0.250 -0.2184 -0.4495 -0.5360
  662MPD2    C2 9795   0.485   2.481   0.362 -0.2060  0.1777  0.2022
  662MPD2    C3 9796   0.395   2.580   0.395  0.4564  0.1624 -0.0563
  662MPD2    C4 9797   0.393   2.685   0.311 -0.3989  0.2909  0.0865
  662MPD2    C5 9798   0.474   2.691   0.204  0.7057  0.7305  0.0275
  662MPD2     H 9799   0.486   2.394   0.428 -0.3632 -0.1562 -0.2410
  662MPD2    H1 9800   0.326   2.768   0.328 -0.0051  0.8855 -1.2769
  662MPD2    H2 9801   0.606   2.583   0.070 -2.2012 -4.5831 -0.7771
  662MPD2    H3 9802   0.478   2.783   0.146 -1.7530  0.0777 -1.1553
  662MPD2     N 9803   0.324   2.576   0.515  0.1989 -0.2818 -0.6611
  662MPD2    H5 9804   0.271   2.661   0.534 -0.7332 -1.5021  2.1667
  662MPD2    N1 9805   0.649   2.368   0.240  0.0062  0.6720  0.2183
  662MPD2    H7 9806   0.630   2.306   0.318  0.3997  1.0907  0.6500
  663TMC3    C1 9807   0.774   2.201   0.140  0.4327 -0.3171 -0.3051
  663TMC3    C2 9808   0.753   2.136   0.259 -0.3610 -0.5272  0.0031
  663TMC3    C3 9809   0.698   2.010   0.261  0.0535  0.6104  0.3772
  663TMC3    C4 9810   0.753   2.139   0.022  0.0122 -0.8034  0.2467
  663TMC3    C5 9811   0.684   2.017   0.028  0.9947 -0.5711  0.3280
  663TMC3    C6 9812   0.648   1.953   0.143 -0.6237 -0.7035  0.3569
  663TMC3     C 9813   0.732   2.336   0.133 -0.1569  0.6164  0.0406
  663TMC3     O 9814   0.744   2.396   0.022  0.5192 -0.5504 -0.0391
  663TMC3     H 9815   0.789   2.177   0.353  0.3364  0.6895 -0.8051
  663TMC3    H1 9816   0.770   2.194  17.618 -0.9531 -0.4738  0.2617
  663TMC3    H2 9817   0.616   1.849   0.147  0.2945 -1.0032 -0.1634
  663TMC3    C7 9818   0.670   1.941  17.590 -0.0055  0.0338  0.0350
  663TMC3    C8 9819   0.614   1.990   0.374  0.3428 -0.2344 -0.2254
  663TMC3    O1 9820   0.748   1.979  17.508  0.1487 -0.6778 -0.0934
  663TMC3    O2 9821   0.582   2.087   0.441 -0.3708  0.2963  0.0702
  664MPD2     C 9822   3.139   0.688   0.621 -0.5700  0.7706 -0.0126
  664MPD2    C1 9823   3.254   0.756   0.624  0.1672  0.5451 -0.8951
  664MPD2    C2 9824   3.315   0.788   0.745  0.0280 -0.2124  0.3847
  664MPD2    C3 9825   3.253   0.761   0.869  0.2367  0.4566 -0.3176
  664MPD2    C4 9826   3.135   0.687   0.861  0.0899  0.2316  0.4537
  664MPD2    C5 9827   3.077   0.650   0.739  0.1956  0.1131 -0.1566
  664MPD2     H 9828   3.409   0.840   0.733  1.2960 -2.4483  0.6200
  664MPD2    H1 9829   3.082   0.662   0.952  0.9284 -0.3116  0.7891
  664MPD2    H2 9830   3.090   0.661   0.528 -1.6689  1.7056  0.2915
  664MPD2    H3 9831   2.988   0.589   0.733 -0.0866  0.5455 -0.3948
  664MPD2     N 9832   3.314   0.808   0.987 -0.5480  0.3000  0.3479
  664MPD2    H5 9833   3.395   0.869   0.979 -0.2235 -0.3339 -1.2836
  664MPD2    N1 9834   3.318   0.798   0.508 -0.7525  0.2613  0.2963
  664MPD2    H7 9835   3.400   0.854   0.530 -0.7385  0.8687 -1.2952
  665TMC3    C1 9836   3.301   0.882   1.212 -0.3509 -0.8452 -0.1512
  665TMC3    C2 9837   3.209   0.910   1.315  0.2011  0.4753 -0.3838
  665TMC3    C3 9838   3.229   1.014   1.393 -0.0540  1.0745 -0.2511
  665TMC3    C4 9839   3.415   0.961   1.197  0.2040  0.0149  0.1498
  665TMC3    C5 9840   3.423   1.072   1.275  0.3856 -0.8988 -0.2539
  665TMC3    C6 9841   3.334   1.100   1.379 -0.3697 -0.1477  0.3699
  665TMC3     C 9842   3.250   0.787   1.112 -0.2135  0.5721  0.2936
  665TMC3     O 9843   3.165   0.706   1.146  0.1184 -0.1095  0.2726
  665TMC3     H 9844   3.130   0.839   1.339  0.1249  1.0416  1.0755
  665TMC3    H1 9845   3.486   0.936   1.118  1.5753  1.4384  0.9219
  665TMC3    H2 9846   3.341   1.194   1.432 -0.4285  0.8501 -1.3782
  665TMC3    C7 9847   3.485   1.175   1.197 -0.5948 -0.2355 -0.0141
  665TMC3    C8 9848   3.120   1.036   1.502 -0.3307  0.3576 -0.1896
  665TMC3    O1 9849   3.528   1.137   1.086 -0.1282 -0.1371  0.2062
  665TMC3    O2 9850   3.155   1.097   1.606  0.1131  0.3267  0.0410
  666TMC3    C1 9851   2.787   0.531  10.079  0.3841 -0.4181 -0.1745
  666TMC3    C2 9852   2.763   0.435  10.180 -0.1084  0.1389  0.2778
  666TMC3    C3 9853   2.778   0.474  10.307  0.0477 -0.3525 -0.0158
  666TMC3    C4 9854   2.816   0.660  10.110  0.8760  0.1797 -0.2692
  666TMC3    C5 9855   2.838   0.685  10.243 -0.1878  0.1778 -0.2141
  666TMC3    C6 9856   2.801   0.603  10.340 -0.1415 -0.7851  0.0002
  666TMC3     C 9857   2.775   0.503   9.940 -0.4925  0.1586  0.4521
  666TMC3     O 9858   2.801   0.595   9.863  0.0395  0.2442  0.7482
  666TMC3     H 9859   2.743   0.330  10.158  0.1231  0.5630 -1.9424
  666TMC3    H1 9860   2.830   0.738  10.036 -0.2342 -1.7644 -2.4773
  666TMC3    H2 9861   2.804   0.636  10.443  0.7041  1.2606 -0.6799
  666TMC3    C7 9862   2.841   0.823  10.274  0.3992  0.3049  0.1239
  666TMC3    C8 9863   2.697   0.402  10.400 -0.2245  0.6333 -0.3091
  666TMC3    O1 9864   2.777   0.899  10.202  0.6246  0.2821 -0.0795
  666TMC3    O2 9865   2.704   0.282  10.383 -0.0220 -0.1811 -0.0678
  667MPD2     C 9866   4.254   0.337  15.224 -0.3568 -0.4069  0.1024
  667MPD2    C1 9867   4.170   0.443  15.274 -0.3953  0.1401  0.3403
  667MPD2    C2 9868   4.035   0.429  15.288 -0.3382  1.2654 -0.5954
  667MPD2    C3 9869   3.983   0.304  15.268  0.5951 -0.5927 -0.1763
  667MPD2    C4 9870   4.060   0.205  15.209 -0.2269 -0.5362  0.6243
  667MPD2    C5 9871   4.193   0.220  15.186  0.3664 -0.1827  0.6335
  667MPD2     H 9872   3.971   0.508  15.327 -0.5797 -0.2043  1.9593
  667MPD2    H1 9873   4.005   0.116  15.179 -1.0460  0.5573 -1.1049
  667MPD2    H2 9874   4.358   0.351  15.196 -0.2723 -0.0342  0.5900
  667MPD2    H3 9875   4.255   0.156  15.125 -1.1217 -0.1610 -0.8788
  667MPD2     N 9876   3.850   0.271  15.307  0.1153 -0.0593  0.0388
  667MPD2    H5 9877   3.822   0.178  15.276  0.1803  0.4395 -1.5399
  667MPD2    N1 9878   4.221   0.577  15.300 -0.5450 -0.7544  0.1628
  667MPD2    H7 9879   4.153   0.649  15.324  0.0109 -0.7496  1.7313
  668TMC3    C1 9880   4.373   0.724  15.389 -0.1814  0.3495 -0.0353
  668TMC3    C2 9881   4.442   0.836  15.357 -0.3884  0.4455 -0.7344
  668TMC3    C3 9882   4.456   0.927  15.460 -0.5969  0.2597  0.2372
  668TMC3    C4 9883   4.327   0.697  15.512  0.3310 -0.2792 -0.1509
  668TMC3    C5 9884   4.340   0.794  15.607  0.3311  0.0639  0.1706
  668TMC3    C6 9885   4.405   0.914  15.590 -0.0087  0.1265  0.1694
  668TMC3     C 9886   4.351   0.622  15.295 -0.5494 -0.5736  0.3742
  668TMC3     O 9887   4.442   0.584  15.221 -0.2231  0.2232 -0.0197
  668TMC3     H 9888   4.484   0.848  15.258  1.8094 -0.3564  0.0957
  668TMC3    H1 9889   4.289   0.596  15.524  2.2333 -0.8347  1.2392
  668TMC3    H2 9890   4.403   0.993  15.665  0.9363  0.1979  0.1268
  668TMC3    C7 9891   4.227   0.798  15.692 -0.0093  0.3081 -0.4549
  668TMC3    C8 9892   4.525   1.054  15.437 -0.6176  0.7412 -0.2230
  668TMC3    O1 9893   4.225   0.862  15.793 -0.2804 -0.0493 -0.0897
  668TMC3    O2 9894   4.556   1.109  15.540  0.2147  0.0786 -0.3845
  669TMC3    C1 9895   2.193   0.259  14.730  0.2254 -0.8254 -0.0516
  669TMC3    C2 9896   2.095   0.310  14.650  0.5842 -0.2142  0.3785
  669TMC3    C3 9897   2.136   0.374  14.537  0.6067 -0.6234  0.3263
  669TMC3    C4 9898   2.327   0.280  14.703  0.2224 -0.0983  0.1202
  669TMC3    C5 9899   2.358   0.338  14.582 -0.5409  0.1883  0.4391
  669TMC3    C6 9900   2.263   0.398  14.499  0.2284  0.1595  0.0509
  669TMC3     C 9901   2.156   0.199  14.862  1.1037 -0.3230 -0.3087
  669TMC3     O 9902   2.064   0.118  14.872  0.4286 -0.1847  0.6990
  669TMC3     H 9903   1.992   0.287  14.676 -0.1072  0.4113 -1.8724
  669TMC3    H1 9904   2.407   0.237  14.763  0.0297 -0.7720 -0.1160
  669TMC3    H2 9905   2.283   0.427  14.396 -2.8892 -0.5707 -0.7466
  669TMC3    C7 9906   2.495   0.345  14.550 -0.7158 -0.0603  0.2392
  669TMC3    C8 9907   2.046   0.344  14.426 -0.1800 -0.0261 -0.8183
  669TMC3    O1 9908   2.567   0.265  14.607  0.2182  0.0399  0.2084
  669TMC3    O2 9909   2.097   0.321  14.317 -0.0979 -1.1289 -0.5647
  670MPD2     C 9910   0.492   3.008  13.467  0.4373  0.1590 -0.0767
  670MPD2    C1 9911   0.552   3.071  13.575  0.1034 -0.3747  0.1249
  670MPD2    C2 9912   0.487   3.066  13.698  1.2656 -0.7722 -0.1838
  670MPD2    C3 9913   0.390   2.964  13.722  0.0761 -0.2131 -0.1722
  670MPD2    C4 9914   0.327   2.901  13.611  0.2323 -0.3377 -0.0914
  670MPD2    C5 9915   0.370   2.932  13.484 -0.1481 -0.0924 -0.3594
  670MPD2     H 9916   0.513   3.132  13.779  0.3402 -1.3155  0.5610
  670MPD2    H1 9917   0.240   2.837  13.621 -1.4360  2.4698  3.3817
  670MPD2    H2 9918   0.545   3.015  13.373  1.4653 -0.0661  0.4922
  670MPD2    H3 9919   0.322   2.886  13.398  1.2170 -0.9570 -0.6692
  670MPD2     N 9920   0.356   2.941  13.852 -0.0147 -0.3632  0.5180
  670MPD2    H5 9921   0.421   2.968  13.926  1.3082  0.6660 -1.0224
  670MPD2    N1 9922   0.675   3.138  13.568 -0.5433 -0.5383 -0.0879
  670MPD2    H7 9923   0.700   3.184  13.655  0.4880  2.0362 -1.7346
  671TMC3    C1 9924   0.255   2.800  14.017 -0.1345  0.0602  0.0957
  671TMC3    C2 9925   0.356   2.828  14.108  0.9204  0.0366  0.2586
  671TMC3    C3 9926   0.358   2.747  14.219 -0.2092 -0.0373 -0.1048
  671TMC3    C4 9927   0.149   2.716  14.048  0.9720 -0.2897  0.3015
  671TMC3    C5 9928   0.159   2.639  14.156 -0.1801  0.2748  0.2951
  671TMC3    C6 9929   0.256   2.657  14.248 -0.2010  0.1866 -0.3815
  671TMC3     C 9930   0.248   2.859  13.888  0.1012 -0.1673  0.1906
  671TMC3     O 9931   0.157   2.817  13.819  0.4791 -0.1317 -0.1564
  671TMC3     H 9932   0.449   2.878  14.083  0.3303 -0.7088 -3.5371
  671TMC3    H1 9933   0.070   2.687  13.979  2.1006 -1.1440 -0.6252
  671TMC3    H2 9934   0.271   2.582  14.325 -1.6152  1.3155  1.0009
  671TMC3    C7 9935   0.122   2.504  14.136  0.5717  0.2966  0.5638
  671TMC3    C8 9936   0.485   2.683  14.249 -0.0496  0.2576 -0.3409
  671TMC3    O1 9937   0.140   2.458  14.026  0.1146  0.3819 -0.3329
  671TMC3    O2 9938   0.550   2.655  14.147 -0.0938 -0.6827 -0.2773
  672MPD2     C 9939   0.492   3.968   1.926 -0.1996  0.1769 -0.0497
  672MPD2    C1 9940   0.581   3.868   1.885 -1.0018  0.0115  0.3449
  672MPD2    C2 9941   0.715   3.884   1.910  0.2680 -0.0119  0.0951
  672MPD2    C3 9942   0.760   3.995   1.977  0.0768 -1.0874 -0.2063
  672MPD2    C4 9943   0.675   4.100   2.006 -0.1346 -0.0835 -0.4020
  672MPD2    C5 9944   0.539   4.077   1.996 -0.6184  0.7120  0.0716
  672MPD2     H 9945   0.780   3.800   1.891  0.6934  0.6548 -1.3884
  672MPD2    H1 9946   0.714   4.185   2.061  0.3293  0.6608 -1.8700
  672MPD2    H2 9947   0.385   3.953   1.912 -0.1134  1.5661 -2.1312
  672MPD2    H3 9948   0.474   4.157   2.029  1.4979  1.6040  2.0859
  672MPD2     N 9949   0.897   4.016   2.003  0.0308  1.0345 -0.4388
  672MPD2    H5 9950   0.918   4.114   2.022 -1.4217  1.2506  0.0400
  672MPD2    N1 9951   0.538   3.755   1.816  0.3818  0.2539 -0.0423
  672MPD2    H7 9952   0.591   3.668   1.808 -0.5158 -0.2524 -0.5074
  673TMC3    C1 9953   0.427   3.657   1.642  0.0815  0.1469 -0.1241
  673TMC3    C2 9954   0.436   3.541   1.707 -0.9490  0.0265 -0.0625
  673TMC3    C3 9955   0.413   3.434   1.630  0.1987 -0.2708 -0.4184
  673TMC3    C4 9956   0.395   3.682   1.510  0.4168 -0.1338 -0.0310
  673TMC3    C5 9957   0.370   3.570   1.441 -0.4414 -0.3756  0.6317
  673TMC3    C6 9958   0.373   3.445   1.502  0.3258  0.6162  0.0679
  673TMC3     C 9959   0.448   3.778   1.722 -0.0636  0.1717 -0.0265
  673TMC3     O 9960   0.399   3.881   1.678 -0.0757 -0.4617 -0.6762
  673TMC3     H 9961   0.461   3.528   1.811 -1.5471 -1.7734 -0.1408
  673TMC3    H1 9962   0.396   3.783   1.471 -1.7516 -0.1027 -0.0424
  673TMC3    H2 9963   0.334   3.358   1.451  0.1933  2.5083 -3.0377
  673TMC3    C7 9964   0.381   3.569   1.292  0.0020  1.2401 -0.0975
  673TMC3    C8 9965   0.403   3.302   1.687 -0.2325  0.0854  0.7586
  673TMC3    O1 9966   0.363   3.468   1.230  0.6114 -0.5524 -0.5250
  673TMC3    O2 9967   0.311   3.231   1.649 -0.2068  0.1141  0.2320
  674MPD2     C 9968   0.377   3.420   0.079 -0.1041  0.1326 -0.2462
  674MPD2    C1 9969   0.403   3.352   0.196 -0.1674  0.3238  0.3678
  674MPD2    C2 9970   0.357   3.403   0.316 -0.2977  0.1877  0.0342
  674MPD2    C3 9971   0.284   3.520   0.319 -0.7208  0.0812 -0.5053
  674MPD2    C4 9972   0.257   3.591   0.208  0.5406  0.0463  0.5467
  674MPD2    C5 9973   0.301   3.535   0.086  0.3782 -0.8753  0.3081
  674MPD2     H 9974   0.359   3.338   0.402  2.0631 -0.3909 -0.4566
  674MPD2    H1 9975   0.188   3.674   0.205  0.6385  0.1304  0.5895
  674MPD2    H2 9976   0.411   3.385  17.669 -1.1236  0.3199 -0.6697
  674MPD2    H3 9977   0.272   3.582  17.680  3.6764 -0.9480 -0.7378
  674MPD2     N 9978   0.231   3.547   0.442 -0.1445 -0.3914 -0.1843
  674MPD2    H5 9979   0.251   3.481   0.516  2.4127  0.0722 -0.4690
  674MPD2    N1 9980   0.480   3.231   0.189 -0.0651 -0.3191  0.3697
  674MPD2    H7 9981   0.489   3.182   0.100 -0.2057  0.7203 -0.2135
  675TMC3    C1 9982   0.603   3.043   0.262 -0.6264 -0.2927  1.4049
  675TMC3    C2 9983   0.609   2.947   0.359 -0.2209  0.1023  0.3909
  675TMC3    C3 9984   0.723   2.879   0.385 -0.1619 -0.0936 -0.1591
  675TMC3    C4 9985   0.708   3.055   0.169  0.1400  0.0906  0.2047
  675TMC3    C5 9986   0.822   2.991   0.206  0.0472  0.0600  0.4668
  675TMC3    C6 9987   0.834   2.896   0.305  0.0185 -0.4966 -0.2677
  675TMC3     C 9988   0.526   3.163   0.297 -0.4856  0.2023  0.2107
  675TMC3     O 9989   0.538   3.199   0.413 -0.1380  0.2982  0.4112
  675TMC3     H 9990   0.528   2.931   0.429 -1.5387  1.3174 -0.8723
  675TMC3    H1 9991   0.700   3.132   0.093 -0.9902 -0.1347  0.0966
  675TMC3    H2 9992   0.928   2.851   0.335  0.5234  0.0670 -1.0041
  675TMC3    C7 9993   0.945   3.070   0.191 -0.2934 -0.5502 -0.0571
  675TMC3    C8 9994   0.719   2.775   0.479 -1.0404  0.3502  0.2789
  675TMC3    O1 9995   0.998   3.096   0.082  0.1497 -1.1035  0.3990
  675TMC3    O2 9996   0.780   2.673   0.464  0.4357 -0.4144 -0.2572
  676MPD2     C 9997   3.667   1.323  11.334 -0.7475 -0.9058  0.4975
  676MPD2    C1 9998   3.548   1.280  11.385 -0.1261 -0.1265 -0.3061
  676MPD2    C2 9999   3.525   1.147  11.410 -0.0007 -0.0464  0.0869
  676MPD2    C310000   3.623   1.050  11.382 -0.4904 -0.4491  0.1641
  676MPD2    C410001   3.740   1.096  11.326  0.0267  0.4062  0.2830
  676MPD2    C510002   3.760   1.229  11.292 -0.2358  0.6222  0.1267
  676MPD2     H10003   3.430   1.113  11.450  0.1147 -0.5892 -0.0988
  676MPD2    H110004   3.806   1.020  11.284 -1.7822 -0.1915 -1.4706
  676MPD2    H210005   3.694   1.424  11.305  0.1735 -1.8631 -1.9615
  676MPD2    H310006   3.843   1.260  11.230  0.1919 -0.7142  0.0202
  676MPD2     N10007   3.608   0.908  11.396  0.0183 -0.4981  0.2529
  676MPD2    H510008   3.688   0.851  11.370  0.2636 -1.1527  2.4840
  676MPD2    N110009   3.446   1.367  11.424  0.5976  0.3651 -0.2198
  676MPD2    H710010   3.369   1.333  11.480  1.3108  0.2707  0.6901
  677TMC3    C110011   3.324   1.561  11.461 -0.5994 -0.0371 -0.4301
  677TMC3    C210012   3.197   1.513  11.480  0.0537 -0.0999  0.4112
  677TMC3    C310013   3.113   1.583  11.562  0.4863  0.2391  0.4887
  677TMC3    C410014   3.369   1.670  11.529 -0.1614 -0.0884  0.0424
  677TMC3    C510015   3.284   1.748  11.595 -0.3902  0.3430 -0.4870
  677TMC3    C610016   3.151   1.702  11.618  0.3311 -0.0783  0.2651
  677TMC3     C10017   3.428   1.501  11.395  0.2608  0.7636 -0.6503
  677TMC3     O10018   3.509   1.572  11.335 -0.0985  0.0139  0.0071
  677TMC3     H10019   3.172   1.418  11.433 -3.0408 -0.8153  3.5949
  677TMC3    H110020   3.475   1.693  11.529 -0.1974  0.0874 -1.6833
  677TMC3    H210021   3.077   1.759  11.673 -1.7337 -1.4114 -1.1266
  677TMC3    C710022   3.333   1.858  11.679 -0.5230 -0.0294 -0.5422
  677TMC3    C810023   2.985   1.523  11.588 -0.0304 -0.0285  0.1747
  677TMC3    O110024   3.247   1.886  11.766  0.1648  0.4495  0.2130
  677TMC3    O210025   2.915   1.501  11.490 -0.2723 -0.0984  0.5099
  678MPD2     C10026   0.120   2.476   2.206  0.0301  0.0969  0.1498
  678MPD2    C110027   0.157   2.399   2.098 -0.1718 -0.5698  0.2690
  678MPD2    C210028   0.059   2.350   2.018 -0.3758  0.1579  0.0379
  678MPD2    C310029   4.648   2.387   2.035 -0.2664 -0.4676  0.1051
  678MPD2    C410030   4.612   2.455   2.151  0.0619  0.1055 -0.1383
  678MPD2    C510031   4.709   2.490   2.245  0.6041  0.1349 -0.4353
  678MPD2     H10032   0.075   2.282   1.935 -0.5244 -0.1549  0.2674
  678MPD2    H110033   4.509   2.484   2.166 -0.3108 -0.5860 -1.3029
  678MPD2    H210034   0.194   2.518   2.273  0.7501  1.3866 -1.4568
  678MPD2    H310035   4.677   2.539   2.336 -0.9176 -0.0443 -0.8648
  678MPD2     N10036   4.561   2.333   1.940  0.6876 -0.4141 -0.1535
  678MPD2    H510037   4.609   2.283   1.866 -0.6244 -0.1786 -1.1541
  678MPD2    N110038   0.291   2.379   2.059  0.0097 -0.5382 -0.2242
  678MPD2    H710039   0.310   2.321   1.979  1.1375 -2.2000  1.2552
  679TMC3    C110040   0.756   2.327   2.055  0.5949  0.0456  0.2659
  679TMC3    C210041   0.645   2.363   2.129 -0.5314 -0.3298 -0.1508
  679TMC3    C310042   0.529   2.378   2.055  0.6629 -0.1938 -0.1463
  679TMC3    C410043   0.756   2.323   1.921  0.5351 -0.3379  0.2036
  679TMC3    C510044   0.641   2.339   1.855 -0.7239 -0.7385  0.5744
  679TMC3    C610045   0.523   2.363   1.920 -0.7331 -0.4056  0.3303
  679TMC3     C10046   0.876   2.282   2.121 -0.1917 -0.0249  0.4552
  679TMC3     O10047   0.954   2.208   2.058  0.5472  0.3730  0.2769
  679TMC3     H10048   0.647   2.353   2.237 -1.1212  2.0725  0.0711
  679TMC3    H110049   0.848   2.304   1.867  1.1836  0.0612  1.1756
  679TMC3    H210050   0.432   2.387   1.866 -1.1570 -0.7594  0.8792
  679TMC3    C710051   0.635   2.379   1.716  0.5532 -0.0834  0.1602
  679TMC3    C810052   0.404   2.414   2.129 -1.0528 -0.0509 -0.4330
  679TMC3    O110053   0.519   2.407   1.678 -0.0016 -0.1782 -0.0736
  679TMC3    O210054   0.420   2.483   2.229 -0.3614 -0.3505  0.2433
  680MPD2     C10055   0.224   0.200  13.757  0.1626  0.2311 -1.3280
  680MPD2    C110056   0.289   0.116  13.848 -0.3390  0.1921 -0.3444
  680MPD2    C210057   0.379   0.170  13.943 -0.3026 -1.0076  0.6822
  680MPD2    C310058   0.417   0.303  13.927 -0.0675 -0.4335  0.1373
  680MPD2    C410059   0.363   0.380  13.822  0.2102  0.1738 -0.3653
  680MPD2    C510060   0.266   0.325  13.737  0.0110  1.3526 -0.2317
  680MPD2     H10061   0.431   0.107  14.015 -0.5837 -0.7058  1.1525
  680MPD2    H110062   0.393   0.483  13.804  1.2522 -0.5921 -2.9195
  680MPD2    H210063   0.144   0.165  13.693  0.0086 -0.5406 -0.7031
  680MPD2    H310064   0.227   0.390  13.659  0.9524  0.7033 -1.2473
  680MPD2     N10065   0.509   0.375  14.005 -0.0602 -0.3372  0.0582
  680MPD2    H510066   0.543   0.463  13.967  1.1788 -0.7216  0.2689
  680MPD2    N110067   0.269   4.697  13.839 -0.0005 -0.4252 -0.1592
  680MPD2    H710068   0.348   4.648  13.880  0.5468 -1.4633 -2.4287
  681TMC3    C110069   0.166   4.493  13.778 -0.2324  0.5074  0.3167
  681TMC3    C210070   0.049   4.421  13.804 -0.0706  0.1994  0.5561
  681TMC3    C310071   0.063   4.299  13.862  0.8362 -0.4609 -0.1866
  681TMC3    C410072   0.291   4.432  13.792  0.0836  0.4718 -0.0669
  681TMC3    C510073   0.291   4.304  13.828 -0.3632 -0.2984  0.4920
  681TMC3    C610074   0.185   4.237  13.881 -0.6938  0.4914 -0.0503
  681TMC3     C10075   0.158   4.638  13.782  0.3758 -1.4305  0.4206
  681TMC3     O10076   0.053   4.690  13.746  0.3353  0.6061  0.4869
  681TMC3     H10077   4.669   4.459  13.803 -0.4696 -0.8882 -0.1901
  681TMC3    H110078   0.377   4.490  13.760  0.1810  0.7761  0.7467
  681TMC3    H210079   0.193   4.141  13.933  1.9557 -0.1864 -1.7309
  681TMC3    C710080   0.416   4.238  13.833  0.0412 -0.5567  0.2444
  681TMC3    C810081   4.682   4.275  13.964 -0.8039 -0.2964 -0.3097
  681TMC3    O110082   0.432   4.161  13.925  0.0236  0.0234  0.7157
  681TMC3    O210083   4.563   4.287  13.934  0.1115 -0.3718  0.2888
  682MPD2     C10084   2.351   1.616  11.006 -0.2951 -0.7836 -0.8885
  682MPD2    C110085   2.347   1.503  10.927  0.3835  0.5696 -0.0428
  682MPD2    C210086   2.291   1.383  10.976 -0.7487 -0.3030 -0.3187
  682MPD2    C310087   2.265   1.372  11.108 -0.6199 -0.0387 -0.5127
  682MPD2    C410088   2.266   1.483  11.189  0.3035  0.0831 -0.0211
  682MPD2    C510089   2.309   1.599  11.136  0.6149 -0.8452  0.1891
  682MPD2     H10090   2.274   1.302  10.906  2.0052 -0.4640 -0.7930
  682MPD2    H110091   2.235   1.476  11.293 -1.8508  0.0527 -0.6668
  682MPD2    H210092   2.375   1.718  10.979  1.7383 -1.1108 -0.3362
  682MPD2    H310093   2.311   1.692  11.192  2.3937  0.2538 -1.7066
  682MPD2     N10094   2.228   1.248  11.163  0.2684 -0.2749 -0.1715
  682MPD2    H510095   2.192   1.251  11.258 -2.0880 -0.3964 -1.0787
  682MPD2    N110096   2.387   1.499  10.793  0.2281 -0.0002  0.5708
  682MPD2    H710097   2.358   1.418  10.738 -0.1839 -0.2119  1.0991
  683TMC3    C110098   2.311   0.935  11.405  0.5363 -0.9066  0.0460
  683TMC3    C210099   2.303   0.808  11.357 -0.0683 -0.1369 -0.3705
  683TMC3    C310100   2.253   0.789  11.231 -0.1077 -0.0204 -0.3430
  683TMC3    C410101   2.280   1.036  11.325 -0.2064 -0.0994  0.4483
  683TMC3    C510102   2.221   1.015  11.201 -0.1001 -0.4694 -0.6332
  683TMC3    C610103   2.217   0.888  11.147 -0.0473  1.2592 -0.1897
  683TMC3     C10104   2.351   0.963  11.546 -0.6577  0.2266 -0.7715
  683TMC3     O10105   2.303   1.063  11.589 -0.2323 -0.7320  0.3827
  683TMC3     H10106   2.300   0.728  11.429  1.1645  0.5453  0.4426
  683TMC3    H110107   2.296   1.137  11.360  0.1524  0.1979 -0.5901
  683TMC3    H210108   2.187   0.866  11.045 -1.9381 -2.2777  1.1474
  683TMC3    C710109   2.246   1.124  11.104 -0.6607  0.3008  0.1709
  683TMC3    C810110   2.245   0.657  11.181 -0.1753 -0.5846 -0.8530
  683TMC3    O110111   2.271   1.095  10.989  0.1749  0.3419 -0.5635
  683TMC3    O210112   2.167   0.631  11.092 -0.3692  0.0305  0.3854
  684MPD2     C10113   0.162   1.325  16.829 -0.1809  0.3805  0.2408
  684MPD2    C110114   0.291   1.321  16.766  0.2633  0.2907  0.4976
  684MPD2    C210115   0.367   1.438  16.767  0.1210 -0.4191  0.5139
  684MPD2    C310116   0.311   1.558  16.810  1.1539  0.7312 -0.0871
  684MPD2    C410117   0.190   1.562  16.869 -0.2730 -0.0631 -0.2356
  684MPD2    C510118   0.128   1.443  16.876 -0.8344  0.2243  0.1502
  684MPD2     H10119   0.469   1.443  16.732 -0.3127  0.2135 -0.6787
  684MPD2    H110120   0.141   1.652  16.905  0.3993  0.3487 -0.3655
  684MPD2    H210121   0.097   1.239  16.840  2.2637 -1.2585  1.9141
  684MPD2    H310122   0.030   1.462  16.919 -0.3862  0.7511  0.9480
  684MPD2     N10123   0.382   1.683  16.811 -0.0002 -0.0093 -0.0236
  684MPD2    H510124   0.335   1.761  16.855 -2.6017 -0.6340 -1.7010
  684MPD2    N110125   0.341   1.214  16.696 -0.8918  0.0530  0.1642
  684MPD2    H710126   0.425   1.230  16.642 -0.3237  0.5103  1.1850
  685TMC3    C110127   0.327   1.019  16.577 -0.6231 -0.8199  0.5964
  685TMC3    C210128   0.237   0.967  16.484  0.1834  0.5699  0.4550
  685TMC3    C310129   0.295   0.893  16.388  0.1259 -0.4933  0.1414
  685TMC3    C410130   0.463   1.002  16.567  1.1828 -0.0108 -0.8131
  685TMC3    C510131   0.513   0.926  16.460  0.0204 -0.0749  0.2824
  685TMC3    C610132   0.428   0.872  16.367  0.1454  0.3621  0.1700
  685TMC3     C10133   0.266   1.097  16.681 -0.3700  0.0108  0.3352
  685TMC3     O10134   0.153   1.072  16.710  0.4193 -0.6085 -1.0330
  685TMC3     H10135   0.130   0.977  16.496  0.1928  0.3909  0.7141
  685TMC3    H110136   0.530   1.048  16.639  0.6698  2.1544 -1.7274
  685TMC3    H210137   0.473   0.814  16.287 -2.4561 -0.8687 -0.3930
  685TMC3    C710138   0.625   0.847  16.509  0.2547  0.4718  0.4751
  685TMC3    C810139   0.204   0.857  16.279 -0.1896  0.7667 -0.2754
  685TMC3    O110140   0.634   0.828  16.630 -0.0064  0.3310  0.0499
  685TMC3    O210141   0.245   0.764  16.213  0.0954  0.4268 -0.4573
  686MPD2     C10142   1.705   0.530  15.409 -0.0991 -0.5965 -0.1611
  686MPD2    C110143   1.771   0.528  15.534  0.4283  0.3433  0.2901
  686MPD2    C210144   1.852   0.422  15.562  0.7372  0.1901 -0.1533
  686MPD2    C310145   1.863   0.314  15.473  0.2036 -0.2817 -0.3465
  686MPD2    C410146   1.787   0.321  15.355  0.0787 -0.1506 -0.1189
  686MPD2    C510147   1.715   0.429  15.319 -0.3472  0.5173  0.6278
  686MPD2     H10148   1.922   0.420  15.645 -1.6063 -1.1357  1.7903
  686MPD2    H110149   1.777   0.236  15.288 -3.8085  0.5766 -0.4945
  686MPD2    H210150   1.636   0.606  15.375 -1.4314 -1.6598  0.1729
  686MPD2    H310151   1.670   0.428  15.221  0.5797 -0.3713  0.2216
  686MPD2     N10152   1.941   0.196  15.490  0.3041 -0.4245 -0.3537
  686MPD2    H510153   1.951   0.142  15.405 -0.9704 -0.4878 -0.4625
  686MPD2    N110154   1.752   0.630  15.628 -0.4965 -0.0880 -0.2456
  686MPD2    H710155   1.683   0.697  15.594 -2.2005 -0.5062  2.4473
  687TMC3    C110156   1.959   0.185  15.735  0.3154  0.0088 -0.0037
  687TMC3    C210157   1.827   0.198  15.770  0.2442 -0.1851  0.0249
  687TMC3    C310158   1.798   0.208  15.906 -0.3232  0.2940  0.2843
  687TMC3    C410159   2.060   0.186  15.829  0.1435  0.4695  0.1172
  687TMC3    C510160   2.022   0.225  15.957 -0.9054 -0.5207 -0.5901
  687TMC3    C610161   1.895   0.215  16.003 -0.4373  0.0014  0.4717
  687TMC3     C10162   1.993   0.135  15.607 -0.6066  0.6116  0.2706
  687TMC3     O10163   2.061   0.033  15.618 -0.3873  0.4028 -0.0638
  687TMC3     H10164   1.761   0.178  15.687  1.3047  0.1240 -0.8973
  687TMC3    H110165   2.164   0.177  15.797  0.1092  3.1858 -0.8104
  687TMC3    H210166   1.866   0.240  16.105 -1.2381 -0.9770  0.4879
  687TMC3    C710167   2.117   0.221  16.067  1.1886 -0.2778 -0.1560
  687TMC3    C810168   1.667   0.225  15.950  0.5746  0.4117 -0.6220
  687TMC3    O110169   2.076   0.169  16.172  0.2017  0.5674  0.0861
  687TMC3    O210170   1.630   0.164  16.048  0.5651  0.4868  0.2087
  688MPD2     C10171   1.156   4.564   0.005 -0.3479  0.5760  0.8147
  688MPD2    C110172   1.175   4.430   0.037 -0.1807 -0.2587  0.2672
  688MPD2    C210173   1.256   4.352  17.634 -0.1102 -0.2375 -0.9480
  688MPD2    C310174   1.310   4.406  17.517 -0.2065  0.1485  0.6006
  688MPD2    C410175   1.279   4.538  17.496 -0.0420 -0.4399  0.6141
  688MPD2    C510176   1.205   4.622  17.581 -0.4483 -0.2438  0.5310
  688MPD2     H10177   1.274   4.248  17.659  1.8087  0.6145  1.2516
  688MPD2    H110178   1.319   4.593  17.411 -0.1812 -1.1987  0.0506
  688MPD2    H210179   1.100   4.629   0.071 -1.0414 -2.8409  3.5810
  688MPD2    H310180   1.196   0.008  17.569 -0.1484 -0.2774 -0.0185
  688MPD2     N10181   1.400   4.349  17.428  0.3144  0.8425 -0.3860
  688MPD2    H510182   1.433   4.404  17.350  2.0738 -1.5632 -1.3424
  688MPD2    N110183   1.120   4.366   0.153 -0.1383  0.3355 -0.0360
  688MPD2    H710184   1.135   4.269   0.175 -0.6732  0.2286 -0.1443
  689TMC3    C110185   1.039   4.367   0.378 -0.4531 -0.2098 -0.4098
  689TMC3    C210186   1.017   4.442   0.487  0.0309  0.0551 -0.2611
  689TMC3    C310187   1.038   4.382   0.611  0.0298 -0.2311  0.6797
  689TMC3    C410188   1.049   4.231   0.388  0.1677 -0.5785  0.1666
  689TMC3    C510189   1.082   4.175   0.506  0.2363  0.1172  0.1994
  689TMC3    C610190   1.081   4.250   0.623  0.1324  0.0444  0.1220
  689TMC3     C10191   1.042   4.434   0.252  0.1980  0.1955  0.2062
  689TMC3     O10192   0.991   4.543   0.252  0.4535 -0.1694 -0.0232
  689TMC3     H10193   1.014   4.549   0.473 -0.5136 -0.0427 -0.9069
  689TMC3    H110194   1.056   4.173   0.297 -0.0485 -0.7260  0.2442
  689TMC3    H210195   1.125   4.207   0.713 -0.6966 -0.1885  0.4185
  689TMC3    C710196   1.107   4.035   0.517 -0.3533  0.0556 -0.5206
  689TMC3    C810197   1.044   4.466   0.732  0.3676 -0.4859  0.6166
  689TMC3    O110198   1.190   4.000   0.600  0.2151 -0.1550  0.0053
  689TMC3    O210199   1.112   4.421   0.825 -0.3041 -0.6742  0.2575
  690MPD2     C10200   3.460   1.542  16.123 -0.4464 -0.0940 -0.3322
  690MPD2    C110201   3.422   1.502  15.998  0.0496  0.5699 -1.2628
  690MPD2    C210202   3.499   1.538  15.890 -0.4437  0.3533  0.0134
  690MPD2    C310203   3.613   1.614  15.902  0.3103 -0.2337  0.4464
  690MPD2    C410204   3.652   1.652  16.028 -0.2271 -0.1193  0.5135
  690MPD2    C510205   3.578   1.616  16.140 -0.5451 -0.7083 -0.1623
  690MPD2     H10206   3.468   1.508  15.790 -1.4219  1.0035  0.1246
  690MPD2    H110207   3.745   1.705  16.044 -1.0478  0.7228  2.4923
  690MPD2    H210208   3.407   1.510  16.212 -0.4856 -1.6058 -0.8944
  690MPD2    H310209   3.612   1.635  16.241 -0.1819  1.1787 -0.6522
  690MPD2     N10210   3.692   1.653  15.785 -0.3088  0.2854 -0.5160
  690MPD2    H510211   3.636   1.638  15.702 -1.3081  1.3122 -0.0457
  690MPD2    N110212   3.309   1.421  15.970 -0.3789  0.2395  0.3064
  690MPD2    H710213   3.288   1.399  15.873 -0.5116  1.5196  0.0345
  691TMC3    C110214   3.135   1.276  16.005  0.1126 -0.8023  0.5572
  691TMC3    C210215   3.072   1.317  15.891  0.1710 -0.1009  0.8578
  691TMC3    C310216   2.989   1.227  15.830  0.1851 -0.4765  0.0146
  691TMC3    C410217   3.116   1.156  16.064  0.0580 -0.1648 -0.4854
  691TMC3    C510218   3.038   1.068  15.994  0.4208 -0.9212  0.2019
  691TMC3    C610219   2.960   1.099  15.887  0.4104  0.2983 -0.1282
  691TMC3     C10220   3.240   1.356  16.063  0.3237 -0.8402 -0.5355
  691TMC3     O10221   3.234   1.353  16.184 -0.3159  0.2190 -0.0238
  691TMC3     H10222   3.085   1.419  15.855 -1.6665 -0.5784 -1.1500
  691TMC3    H110223   3.184   1.129  16.144  0.0136  0.4607 -0.2351
  691TMC3    H210224   2.888   1.028  15.848  0.9895 -1.0381  1.2262
  691TMC3    C710225   3.004   0.940  16.057  0.2994  0.4679 -0.3149
  691TMC3    C810226   2.905   1.270  15.719 -0.2939 -0.9199  0.0922
  691TMC3    O110227   3.050   0.927  16.169 -0.1080  0.6094 -0.2950
  691TMC3    O210228   2.846   1.187  15.655 -0.0187  0.0257 -0.0387
  692TMC3    C110229   0.139   2.719  16.084  0.0830  0.1160  0.8659
  692TMC3    C210230   0.202   2.816  16.160 -0.4523 -0.7625 -0.0771
  692TMC3    C310231   0.309   2.780  16.239  0.4040  0.1774  0.6797
  692TMC3    C410232   0.201   2.591  16.072 -0.3817  0.9850  0.0042
  692TMC3    C510233   0.313   2.562  16.133  0.3154  0.4609 -0.7020
  692TMC3    C610234   0.367   2.655  16.217  0.2097  0.6199  0.2277
  692TMC3     C10235   4.711   2.732  16.099  0.3561 -0.7544  0.3640
  692TMC3     O10236   4.673   2.792  16.199  0.0902 -0.1855 -0.2015
  692TMC3     H10237   0.150   2.904  16.194 -2.6559 -0.5708 -3.9351
  692TMC3    H110238   0.149   2.519  16.010  0.4335  1.6393 -1.4258
  692TMC3    H210239   0.444   2.629  16.288  1.2890  1.6971 -0.5583
  692TMC3    C710240   0.394   2.455  16.085 -0.1048  0.4964  0.3472
  692TMC3    C810241   0.282   2.784  16.379 -0.3156  0.3899 -0.1972
  692TMC3    O110242   0.386   2.424  15.967 -0.3464 -0.2059  0.5369
  692TMC3    O210243   0.269   2.676  16.435 -0.4364 -0.1801  0.4685
  693MPD2     C10244   4.458   0.206  10.663 -0.1676  0.1288 -0.1228
  693MPD2    C110245   4.431   0.207  10.802 -0.5080  0.4413 -0.2767
  693MPD2    C210246   4.547   0.225  10.882  0.3573 -0.8395 -0.0536
  693MPD2    C310247   4.679   0.224  10.835  0.9122 -0.2382  0.0659
  693MPD2    C410248   4.697   0.218  10.701 -0.2389 -0.0913 -0.0601
  693MPD2    C510249   4.585   0.218  10.616 -0.3339 -0.4745 -0.5986
  693MPD2     H10250   4.547   0.240  10.989 -0.1121  0.2708 -0.2042
  693MPD2    H110251   0.074   0.204  10.658 -1.1574  1.6135 -2.6933
  693MPD2    H210252   4.372   0.212  10.598 -1.6246 -0.4840  1.7417
  693MPD2    H310253   4.601   0.216  10.509  0.4299 -1.3990 -0.4653
  693MPD2     N10254   0.077   0.215  10.917  0.3518  0.3559  0.4371
  693MPD2    H510255   0.159   0.177  10.871 -0.1338  0.6181 -0.6632
  693MPD2    N110256   4.301   0.193  10.856 -0.1082  0.0486  0.5214
  693MPD2    H710257   4.231   0.164  10.789  1.4741  1.5801 -1.7957
  694TMC3    C110258   4.148   0.170  11.038 -0.7069  0.2960  0.1747
  694TMC3    C210259   4.056   0.101  10.961 -0.2489  0.5029 -0.3510
  694TMC3    C310260   3.955   0.035  11.024  0.3801 -0.1697 -0.3725
  694TMC3    C410261   4.140   0.176  11.172  0.7240 -0.0736  0.5068
  694TMC3    C510262   4.040   0.104  11.223 -0.2767  0.4450 -0.0777
  694TMC3    C610263   3.945   0.035  11.161 -0.1127 -1.0955  0.5688
  694TMC3     C10264   4.273   0.222  10.992  0.6633 -1.0140  0.1090
  694TMC3     O10265   4.340   0.293  11.066 -0.4559  0.2715  0.4912
  694TMC3     H10266   4.055   0.111  10.853 -3.3705  2.1330 -0.1864
  694TMC3    H110267   4.219   0.217  11.234  1.5237 -0.5777 -0.1708
  694TMC3    H210268   3.858   4.714  11.211  0.2111 -0.3105  1.8020
  694TMC3    C710269   4.035   0.121  11.365 -0.2033  0.1792 -0.2989
  694TMC3    C810270   3.840   4.714  10.955 -0.4561  0.7195  0.1953
  694TMC3    O110271   4.064   0.233  11.410 -0.4000  0.6541 -0.6363
  694TMC3    O210272   3.777   4.626  11.010  0.6209  0.3705  0.1166
  695MPD2     C10273   0.701   1.731  13.780  0.6137 -0.1979  0.2401
  695MPD2    C110274   0.660   1.846  13.847  0.7124  0.3503  0.1898
  695MPD2    C210275   0.529   1.887  13.839 -0.7581 -0.7609  0.0300
  695MPD2    C310276   0.441   1.801  13.779  0.0403 -0.3120  0.0065
  695MPD2    C410277   0.484   1.682  13.733 -0.9464 -0.3448 -0.1861
  695MPD2    C510278   0.613   1.644  13.736 -0.2063 -0.1738 -0.4001
  695MPD2     H10279   0.502   1.977  13.893  0.7426  1.0542 -2.2599
  695MPD2    H110280   0.422   1.597  13.704 -0.4156 -1.8532  3.1100
  695MPD2    H210281   0.800   1.693  13.807  0.3958  0.6172  2.1906
  695MPD2    H310282   0.647   1.544  13.712  1.5013  0.2356  0.2934
  695MPD2     N10283   0.303   1.849  13.768  0.2197  0.2893 -0.8185
  695MPD2    H510284   0.287   1.940  13.811  0.7659 -1.0722  2.2586
  695MPD2    N110285   0.749   1.932  13.907 -0.3062 -0.1375  0.0217
  695MPD2    H710286   0.703   2.017  13.938  2.0966  1.0389  0.2968
  696TMC3    C110287   0.069   1.859  13.754 -0.5867 -0.0866  0.2851
  696TMC3    C210288   4.701   1.811  13.844  0.3240 -0.7076 -0.8092
  696TMC3    C310289   4.608   1.894  13.891 -0.5901 -0.3176  0.4134
  696TMC3    C410290   0.079   1.982  13.710 -0.2949  0.9611 -0.3756
  696TMC3    C510291   4.695   2.065  13.739  0.2521 -0.0746  0.0404
  696TMC3    C610292   4.604   2.016  13.829 -0.4117  0.3928  0.3989
  696TMC3     C10293   0.193   1.778  13.728  0.2082 -0.3478 -0.5356
  696TMC3     O10294   0.188   1.660  13.702 -0.0974 -0.0195  0.1730
  696TMC3     H10295   4.721   1.712  13.885 -2.8435 -1.0541 -0.0934
  696TMC3    H110296   0.155   2.011  13.639 -0.6816 -0.7471 -1.4675
  696TMC3    H210297   4.531   2.086  13.869  0.3949  0.8670  1.0391
  696TMC3    C710298   4.716   2.207  13.737 -0.2151  0.4126 -0.1147
  696TMC3    C810299   4.600   1.912  14.035  0.2107 -0.4055  0.3550
  696TMC3    O110300   0.100   2.247  13.684 -0.2413 -0.9581 -0.0374
  696TMC3    O210301   4.521   1.853  14.104 -0.3847  0.1838 -0.2271
  697MPD2     C10302   4.547   4.074  16.129 -0.0038 -0.2627 -0.4342
  697MPD2    C110303   4.572   4.036  15.998 -0.3546  0.4503  0.2523
  697MPD2    C210304   4.651   4.122  15.916  0.3772  0.1894  0.5929
  697MPD2    C310305   0.003   4.226  15.966  0.5240 -0.4134 -0.0807
  697MPD2    C410306   4.697   4.272  16.092 -0.1877 -0.2581 -0.1048
  697MPD2    C510307   4.599   4.199  16.170  1.0277  0.1830  0.0769
  697MPD2     H10308   4.679   4.074  15.823  0.8427  1.0971  0.2656
  697MPD2    H110309   0.011   4.363  16.140  0.1121  1.2023 -3.0807
  697MPD2    H210310   4.485   4.021  16.200  0.3125  0.0925  0.1053
  697MPD2    H310311   4.572   4.242  16.265 -0.5786  1.1024 -0.7962
  697MPD2     N10312   0.087   4.296  15.878 -0.2853 -0.2052  0.0297
  697MPD2    H510313   0.072   4.278  15.780  0.4745 -1.8878  0.2155
  697MPD2    N110314   4.529   3.913  15.946 -0.0451  0.0592  0.0557
  697MPD2    H710315   4.555   3.900  15.849  0.0065  1.0028 -0.0575
  698TMC3    C110316   0.272   4.419  15.809  0.7839  0.5656 -0.2008
  698TMC3    C210317   0.404   4.436  15.829  0.0465 -0.3970 -0.1568
  698TMC3    C310318   0.480   4.471  15.718 -0.5301  0.7567  0.4787
  698TMC3    C410319   0.212   4.430  15.684 -0.2395 -0.1208 -0.1048
  698TMC3    C510320   0.294   4.448  15.577  0.0249 -0.7598 -0.5895
  698TMC3    C610321   0.424   4.464  15.591  0.7711  0.0963  0.4547
  698TMC3     C10322   0.188   4.381  15.916 -1.0071 -0.6198 -0.4960
  698TMC3     O10323   0.227   4.400  16.029 -0.2770 -0.0055  0.0443
  698TMC3     H10324   0.445   4.396  15.921  0.3640 -0.1467 -0.1922
  698TMC3    H110325   0.105   4.422  15.677 -0.4339  1.6802  0.6624
  698TMC3    H210326   0.485   4.480  15.503  0.3176 -0.2542  0.0847
  698TMC3    C710327   0.228   4.411  15.449  0.1860  0.1290  0.5757
  698TMC3    C810328   0.618   4.512  15.736  0.2567 -0.3844  0.5683
  698TMC3    O110329   0.105   4.411  15.449 -0.5531 -0.1249  0.0763
  698TMC3    O210330   0.673   4.464  15.836  0.5261 -0.4073  0.1325
  699TMC3    C110331   0.388   2.107  13.152  0.3023  0.4827  1.0522
  699TMC3    C210332   0.414   1.974  13.188 -0.5936  0.5959  1.5212
  699TMC3    C310333   0.320   1.907  13.268 -0.0833 -0.2341  1.0029
  699TMC3    C410334   0.269   2.172  13.192 -0.1279 -0.6068 -0.4170
  699TMC3    C510335   0.171   2.092  13.257 -0.5439 -0.1838  0.5578
  699TMC3    C610336   0.198   1.963  13.299  0.7648 -0.0302  0.7138
  699TMC3     C10337   0.481   2.190  13.074 -0.4112  0.8699 -0.0748
  699TMC3     O10338   0.430   2.277  13.006 -0.3931 -0.3487 -0.0079
  699TMC3     H10339   0.511   1.930  13.166 -0.5749  2.0713 -1.3682
  699TMC3    H110340   0.248   2.275  13.166 -1.3199 -0.2466  1.9992
  699TMC3    H210341   0.133   1.897  13.355  1.0869 -0.4598  0.5786
  699TMC3    C710342   0.050   2.153  13.310  0.4423 -0.1694  0.2042
  699TMC3    C810343   0.325   1.760  13.274 -0.3874  0.1544 -0.3164
  699TMC3    O110344   4.714   2.096  13.401 -0.3076 -0.5992 -0.5609
  699TMC3    O210345   0.224   1.703  13.230  0.2119 -0.7277 -0.0004
  700TMC3    C110346   3.865   4.587   0.045 -0.0066  0.4991  0.6211
  700TMC3    C210347   3.910   4.458   0.034  0.2060 -0.0225  0.2467
  700TMC3    C310348   4.010   4.418   0.118  0.5291  0.8543 -0.0253
  700TMC3    C410349   3.925   4.672   0.136  0.2399 -0.1751  0.2188
  700TMC3    C510350   4.016   4.621   0.219 -0.0472 -0.6510 -0.5050
  700TMC3    C610351   4.073   4.500   0.204  0.2192 -0.4610 -0.1886
  700TMC3     C10352   3.793   4.639  17.623 -1.5735  0.0116  0.1803
  700TMC3     O10353   3.718   4.554  17.569 -0.1774  0.2455 -0.0663
  700TMC3     H10354   3.869   4.391  17.646  0.2757 -0.7759  0.8753
  700TMC3    H110355   3.884   0.049   0.151 -0.9174 -0.2338 -2.5678
  700TMC3    H210356   4.152   4.456   0.265 -0.2760  0.0561  0.8160
  700TMC3    C710357   4.073   4.710   0.314  0.0418  0.4637 -0.5340
  700TMC3    C810358   4.089   4.316   0.057 -0.1537 -0.4244  0.6080
  700TMC3    O110359   4.186   4.681   0.346  0.4991 -0.7085  0.6865
  700TMC3    O210360   4.211   4.331   0.058 -0.0336  0.4770 -0.0689
  701TMC3    C110361   3.785   3.200  15.785  0.2796 -0.3115 -0.1603
  701TMC3    C210362   3.870   3.115  15.721 -0.6149 -0.2439  1.0028
  701TMC3    C310363   3.981   3.167  15.668 -0.5568  0.1600 -0.7981
  701TMC3    C410364   3.813   3.330  15.812  0.2428  0.0177  0.0248
  701TMC3    C510365   3.928   3.381  15.762  0.0468 -0.1040  0.0357
  701TMC3    C610366   4.007   3.300  15.683  0.2163  0.6572  0.6985
  701TMC3     C10367   3.663   3.138  15.848  0.0786  0.3831 -0.5761
  701TMC3     O10368   3.676   3.025  15.891 -0.5682  0.2587 -0.2047
  701TMC3     H10369   3.855   3.008  15.713  0.4860 -0.2634 -0.9246
  701TMC3    H110370   3.748   3.388  15.876  0.5233  1.4033 -0.9545
  701TMC3    H210371   4.106   3.333  15.655 -0.1068  0.0297 -1.1407
  701TMC3    C710372   3.968   3.516  15.759 -0.0537 -0.2782 -0.3703
  701TMC3    C810373   4.050   3.096  15.562 -0.1491 -0.2747 -0.1399
  701TMC3    O110374   4.055   3.555  15.682  0.0448 -0.6370 -0.5366
  701TMC3    O210375   4.173   3.114  15.545 -0.5607  0.3170  0.4163
  702MPD2     C10376   3.621   0.556  10.782 -0.1509 -0.1019  0.4224
  702MPD2    C110377   3.591   0.662  10.870  0.1103 -0.6994  0.4403
  702MPD2    C210378   3.633   0.785  10.826  0.2467  0.2559  0.2103
  702MPD2    C310379   3.689   0.814  10.706 -1.0325  0.2671 -0.1522
  702MPD2    C410380   3.719   0.706  10.623  0.0512  0.4596  0.4310
  702MPD2    C510381   3.696   0.585  10.671  0.7558  0.2634  0.8251
  702MPD2     H10382   3.610   0.870  10.889  0.0220  1.5007 -1.5354
  702MPD2    H110383   3.777   0.714  10.531 -1.3822 -2.1969 -0.7003
  702MPD2    H210384   3.588   0.458  10.814  1.1571 -0.8292 -0.4475
  702MPD2    H310385   3.714   0.497  10.610 -0.3459 -0.4897  1.5825
  702MPD2     N10386   3.732   0.943  10.680 -0.9255 -0.1610 -0.3328
  702MPD2    H510387   3.696   1.008  10.749 -1.2291  2.2142 -2.7364
  702MPD2    N110388   3.538   0.655  11.004  0.1066  0.5430 -0.4370
  702MPD2    H710389   3.532   0.741  11.057 -0.7832  0.7707 -0.9141
  703TMC3    C110390   3.834   1.130  10.595  0.2756  0.1318 -0.2170
  703TMC3    C210391   3.719   1.201  10.608 -0.3374 -0.1901  0.1958
  703TMC3    C310392   3.722   1.326  10.563  0.2169 -0.6740 -0.5793
  703TMC3    C410393   3.955   1.179  10.553  0.5774 -0.7874  0.2432
  703TMC3    C510394   3.955   1.314  10.523  1.0133  0.5445  0.2252
  703TMC3    C610395   3.837   1.381  10.509 -0.0465 -0.8002 -0.2507
  703TMC3     C10396   3.820   0.988  10.582  0.2188  0.2237  0.0219
  703TMC3     O10397   3.888   0.941  10.491 -0.2163  0.3660 -0.6574
  703TMC3     H10398   3.624   1.152  10.627 -1.9851  3.7698  2.1589
  703TMC3    H110399   4.034   1.108  10.530  0.9078 -0.1551 -0.5941
  703TMC3    H210400   3.849   1.487  10.492  1.6539 -1.2653 -1.9427
  703TMC3    C710401   4.079   1.370  10.474 -0.5697  0.0918  0.1133
  703TMC3    C810402   3.624   1.428  10.597 -0.5527 -0.7597 -0.4356
  703TMC3    O110403   4.078   1.463  10.400  0.0009 -0.0096  0.3205
  703TMC3    O210404   3.630   1.537  10.553 -0.6922  0.2884 -0.4968
  704TMC3    C110405   1.695   3.769  12.166 -0.6172  0.3570  0.0394
  704TMC3    C210406   1.793   3.753  12.071 -0.8469  0.6673  0.4907
  704TMC3    C310407   1.913   3.716  12.113  0.0090  0.5807  0.3975
  704TMC3    C410408   1.721   3.736  12.301 -0.1955 -0.6245  0.7881
  704TMC3    C510409   1.832   3.670  12.332  0.7787 -0.0491 -0.8972
  704TMC3    C610410   1.935   3.667  12.242  0.3903  0.0376 -0.5025
  704TMC3     C10411   1.562   3.784  12.128  0.5367 -0.2621 -0.6424
  704TMC3     O10412   1.491   3.838  12.209  0.2031  0.6680  0.3165
  704TMC3     H10413   1.782   3.792  11.971 -0.5249  0.9176  0.5544
  704TMC3    H110414   1.642   3.750  12.374  0.6340 -1.3678  1.8231
  704TMC3    H210415   2.029   3.621  12.273  0.7022  1.3097  0.4640
  704TMC3    C710416   1.799   3.533  12.354  0.1775  0.0404 -0.6721
  704TMC3    C810417   2.003   3.690  12.002  0.9913 -0.2529 -0.0696
  704TMC3    O110418   1.874   3.455  12.298  0.1963 -0.3044 -0.6995
  704TMC3    O210419   1.948   3.690  11.892 -0.0793  0.5843 -0.2934
  705MPD2     C10420   1.011   2.439  17.081  0.5915 -0.0958  0.6189
  705MPD2    C110421   0.908   2.430  16.980  0.0218  0.1361  0.1740
  705MPD2    C210422   0.777   2.429  17.021 -0.3642  0.3083  0.1742
  705MPD2    C310423   0.735   2.441  17.153  0.2416  0.0330 -0.1765
  705MPD2    C410424   0.834   2.463  17.248  0.0352  0.3968 -0.3755
  705MPD2    C510425   0.968   2.466  17.204 -0.4227  0.3023  0.6635
  705MPD2     H10426   0.704   2.424  16.941 -1.4325  1.6877  1.0513
  705MPD2    H110427   0.806   2.496  17.347 -1.1147 -1.0868 -0.2096
  705MPD2    H210428   1.118   2.444  17.060  0.4032  0.2198 -0.2693
  705MPD2    H310429   1.047   2.474  17.277 -1.9694 -1.0870  2.4843
  705MPD2     N10430   0.596   2.448  17.197 -0.2937 -0.3627 -0.2935
  705MPD2    H510431   0.580   2.455  17.297  1.4093 -0.2203 -0.0391
  705MPD2    N110432   0.930   2.429  16.838 -0.3757  0.0912 -0.6660
  705MPD2    H710433   0.841   2.429  16.788 -0.2537 -0.4813 -0.8904
  706TMC3    C110434   0.999   2.189  16.460  0.0399  0.3870  0.1146
  706TMC3    C210435   0.917   2.270  16.392 -0.8078  0.1590  0.4345
  706TMC3    C310436   0.869   2.382  16.454  0.6586 -1.1591 -0.4595
  706TMC3    C410437   1.053   2.234  16.582 -0.4495 -0.0979  0.0199
  706TMC3    C510438   1.006   2.348  16.635  0.3329  0.3527 -0.3143
  706TMC3    C610439   0.915   2.427  16.576 -0.4070 -0.0732 -0.6485
  706TMC3     C10440   1.069   2.079  16.388 -0.5963 -0.2612  0.4459
  706TMC3     O10441   1.146   2.016  16.458  0.8256 -0.0153 -0.5722
  706TMC3     H10442   0.875   2.243  16.296  2.4239  0.3955 -1.0395
  706TMC3    H110443   1.121   2.174  16.642 -0.0360  0.5444  0.1986
  706TMC3    H210444   0.888   2.524  16.616 -0.2124  0.1614 -1.0832
  706TMC3    C710445   1.038   2.385  16.770  0.8123  0.0470  0.0667
  706TMC3    C810446   0.793   2.483  16.372  0.2917 -0.4312  0.0772
  706TMC3    O110447   1.155   2.367  16.805 -0.2165 -0.0255  0.4815
  706TMC3    O210448   0.798   2.483  16.246 -0.3599  0.2462  0.0123
  707TMC3    C110449   2.487   2.084   1.989  0.1155 -0.2390 -0.4611
  707TMC3    C210450   2.458   1.984   2.075 -0.2883  0.3801 -0.3231
  707TMC3    C310451   2.345   1.993   2.155 -0.1114 -0.4797 -0.4583
  707TMC3    C410452   2.413   2.197   1.977 -0.2351 -0.4155 -0.4848
  707TMC3    C510453   2.309   2.210   2.062  0.4550  0.6338 -0.9259
  707TMC3    C610454   2.266   2.105   2.147 -0.2613  0.0988  0.0310
  707TMC3     C10455   2.617   2.083   1.934 -0.4820 -0.4616  0.0766
  707TMC3     O10456   2.697   2.012   1.990 -0.2026  0.0049 -0.2643
  707TMC3     H10457   2.520   1.896   2.062  2.8734  2.4225  1.0478
  707TMC3    H110458   2.444   2.285   1.922 -1.1048  0.5056  0.5148
  707TMC3    H210459   2.174   2.107   2.204  1.9691 -0.6273  3.6339
  707TMC3    C710460   2.205   2.306   2.021 -0.5491 -0.0173 -0.5619
  707TMC3    C810461   2.299   1.894   2.247  0.4039 -0.2268 -0.4338
  707TMC3    O110462   2.224   2.372   1.924  0.4745  0.2761 -0.1730
  707TMC3    O210463   2.217   1.926   2.335  0.0163  0.7759 -0.1785
  708MPD2     C10464   3.973   0.126  14.331 -0.1156  0.1085  0.0187
  708MPD2    C110465   3.853   0.172  14.368 -0.0504 -0.2129  0.4327
  708MPD2    C210466   3.839   0.232  14.496  0.9863  0.4388 -0.9018
  708MPD2    C310467   3.948   0.254  14.578  0.5001 -0.1931  0.3137
  708MPD2    C410468   4.069   0.226  14.522  0.2571 -0.6200  0.5144
  708MPD2    C510469   4.082   0.161  14.405 -0.2480 -0.1603  0.2171
  708MPD2     H10470   3.744   0.273  14.528  2.5727  3.3122  0.1509
  708MPD2    H110471   4.168   0.246  14.561  0.8081 -0.2341 -1.0537
  708MPD2    H210472   3.986   0.121  14.223  2.7314 -0.0907  0.3807
  708MPD2    H310473   4.179   0.142  14.360 -0.3659 -0.1415 -0.0445
  708MPD2     N10474   3.942   0.322  14.703 -0.4506 -0.2672  0.4100
  708MPD2    H510475   4.027   0.351  14.751 -0.5550  1.3678 -0.3953
  708MPD2    N110476   3.742   0.187  14.287 -0.3707  0.2284 -0.5292
  708MPD2    H710477   3.660   0.227  14.330 -1.2745  0.1539 -2.1532
  709TMC3    C110478   3.594   0.204  14.107 -0.0056  0.0537 -0.1386
  709TMC3    C210479   3.598   0.313  14.027  0.2875 -0.3592  0.2515
  709TMC3    C310480   3.523   0.422  14.069  0.1051  0.6557 -0.3401
  709TMC3    C410481   3.513   0.200  14.219  0.1640 -0.2760  0.0690
  709TMC3    C510482   3.447   0.314  14.260  0.6151 -0.9510 -0.8366
  709TMC3    C610483   3.462   0.434  14.191  0.6548  0.6052 -0.5512
  709TMC3     C10484   3.726   0.160  14.149 -0.4616  0.8791 -0.8630
  709TMC3     O10485   3.809   0.128  14.064 -0.1611  0.0684  0.7187
  709TMC3     H10486   3.652   0.309  13.933 -1.3449  3.5049 -0.8405
  709TMC3    H110487   3.508   0.106  14.272 -0.7512 -1.3383 -1.9059
  709TMC3    H210488   3.422   0.533  14.211 -0.1999  0.0510  0.4915
  709TMC3    C710489   3.443   0.318  14.410  0.5151  0.0966  0.1138
  709TMC3    C810490   3.500   0.518  13.964  0.3062 -0.1331 -0.0285
  709TMC3    O110491   3.487   0.221  14.469 -0.3056 -0.0843  0.0675
  709TMC3    O210492   3.382   0.563  13.956  0.0349  0.2666 -0.4992
  710TMC3    C110493   0.126   2.187   1.046 -0.4748  0.7052 -0.0831
  710TMC3    C210494   0.174   2.075   0.984 -0.1095 -0.6945 -0.7015
  710TMC3    C310495   0.311   2.044   0.986 -0.0280  0.7888  0.3912
  710TMC3    C410496   0.213   2.263   1.127 -0.0702 -0.2842 -0.4667
  710TMC3    C510497   0.345   2.229   1.127  0.4924 -0.7164  0.6439
  710TMC3    C610498   0.390   2.120   1.063  0.3745 -0.0346 -0.3698
  710TMC3     C10499   4.711   2.225   1.035  0.0890  0.2508  1.0564
  710TMC3     O10500   4.636   2.160   0.964  0.3419  0.8931  0.3754
  710TMC3     H10501   0.109   2.010   0.926  0.5680 -0.9446 -1.1845
  710TMC3    H110502   0.184   2.351   1.184 -0.5764  0.0397 -1.2254
  710TMC3    H210503   0.487   2.075   1.079  0.6310  0.7834  0.3855
  710TMC3    C710504   0.425   2.287   1.240  0.1066 -0.4380  0.1335
  710TMC3    C810505   0.376   1.977   0.873 -0.0558 -0.3728 -0.0448
  710TMC3    O110506   0.373   2.335   1.340 -0.0748 -0.4054 -0.0838
  710TMC3    O210507   0.493   2.007   0.866  0.0648  0.1347  0.5509
  711TMC3    C110508   4.574   2.909  14.970 -0.7575 -0.8419 -0.1825
  711TMC3    C210509   4.524   3.008  15.047 -0.5399 -0.0332  0.3321
  711TMC3    C310510   4.602   3.108  15.103  0.2336  0.3474  0.2033
  711TMC3    C410511   4.710   2.899  14.942  0.3456  0.1935 -0.4287
  711TMC3    C510512   0.067   2.990  15.000 -0.2914  0.9153  0.5859
  711TMC3    C610513   0.016   3.100  15.068 -0.2927  0.9535 -0.4013
  711TMC3     C10514   4.490   2.791  14.940  0.5660 -0.5974  0.3319
  711TMC3     O10515   4.510   2.740  14.831  0.7068  0.0663 -0.4143
  711TMC3     H10516   4.421   2.992  15.077 -0.4406  0.0748  0.7365
  711TMC3    H110517   0.023   2.812  14.887  1.4181 -1.3972  2.7377
  711TMC3    H210518   0.087   3.171  15.109 -1.1567  0.3858  2.0745
  711TMC3    C710519   0.195   2.944  15.051 -0.8013 -0.5155  0.3508
  711TMC3    C810520   4.568   3.142  15.242 -0.4813  0.4480  0.0444
  711TMC3    O110521   0.223   2.986  15.162 -0.1253  0.2118  0.0481
  711TMC3    O210522   4.451   3.160  15.281 -0.0789  0.3931  0.3834
  712MPD2     C10523   1.480   3.722  13.677  0.8730 -0.4937  0.2793
  712MPD2    C110524   1.397   3.796  13.598 -0.9434 -0.3193 -0.0089
  712MPD2    C210525   1.439   3.915  13.545 -0.1648 -0.0619 -0.2863
  712MPD2    C310526   1.575   3.954  13.559  0.4803 -0.3126 -0.0435
  712MPD2    C410527   1.661   3.875  13.634 -1.0540  0.7258  0.0748
  712MPD2    C510528   1.608   3.764  13.706 -0.2248 -0.2659 -0.0845
  712MPD2     H10529   1.369   3.971  13.484  0.6888  1.5803  0.2367
  712MPD2    H110530   1.765   3.902  13.648 -1.1232  1.2100 -0.3283
  712MPD2    H210531   1.449   3.624  13.712 -1.6248 -0.3547 -1.6177
  712MPD2    H310532   1.676   3.687  13.741 -1.2230 -1.2305 -0.2873
  712MPD2     N10533   1.634   4.076  13.521 -0.6611  0.5970  0.5091
  712MPD2    H510534   1.735   4.080  13.530 -0.4839  0.3415 -1.3789
  712MPD2    N110535   1.262   3.766  13.584 -0.6078 -0.2638  0.0593
  712MPD2    H710536   1.209   3.835  13.532 -0.7701 -0.8425 -0.5374
  713TMC3    C110537   1.629   4.297  13.417 -0.1992  0.0134  0.3143
  713TMC3    C210538   1.760   4.324  13.432  0.3606 -0.5213 -0.4194
  713TMC3    C310539   1.812   4.430  13.364 -0.0323 -0.0958 -0.5890
  713TMC3    C410540   1.542   4.377  13.343  1.4212 -0.1354  0.3832
  713TMC3    C510541   1.598   4.489  13.274 -0.4686 -0.2536 -0.3581
  713TMC3    C610542   1.735   4.508  13.281  0.1098  0.4309 -0.7765
  713TMC3     C10543   1.561   4.189  13.492  0.0603 -0.6223  0.1599
  713TMC3     O10544   1.438   4.201  13.500  0.5301  0.2011  0.3488
  713TMC3     H10545   1.822   4.272  13.504  1.0984  2.5001  1.1736
  713TMC3    H110546   1.439   4.345  13.330  1.7005 -0.4037 -1.2058
  713TMC3    H210547   1.784   4.579  13.215  0.8124  1.7218  1.1264
  713TMC3    C710548   1.517   4.581  13.201  0.4800  0.5285  0.2532
  713TMC3    C810549   1.952   4.461  13.374 -0.1682  0.4214  0.2604
  713TMC3    O110550   1.578   4.656  13.124  0.3847 -0.4333  0.1037
  713TMC3    O210551   2.000   4.536  13.288 -0.4512 -0.0232  0.1519
  714MPD2     C10552   3.267   2.926   2.003  0.0518 -0.9287  0.1334
  714MPD2    C110553   3.335   2.891   1.890  0.1077 -0.1204  0.3778
  714MPD2    C210554   3.261   2.883   1.771 -0.5337 -0.3046 -0.4360
  714MPD2    C310555   3.126   2.912   1.770 -1.0000 -0.7715  0.0393
  714MPD2    C410556   3.063   2.953   1.884  0.2747 -0.4833  0.3079
  714MPD2    C510557   3.134   2.953   2.000 -0.4648  0.0362 -0.7012
  714MPD2     H10558   3.310   2.855   1.678 -1.5145 -2.1801 -0.3928
  714MPD2    H110559   2.964   2.996   1.889  0.6803  0.4078  0.8562
  714MPD2    H210560   3.314   2.941   2.100  1.2932 -0.8522 -0.4830
  714MPD2    H310561   3.092   3.005   2.085  2.9688  1.6754  0.0279
  714MPD2     N10562   3.058   2.908   1.649  0.8124 -0.4855  0.4086
  714MPD2    H510563   3.114   2.888   1.566  2.6003  2.7703  0.8072
  714MPD2    N110564   3.476   2.868   1.912 -0.3405 -0.2238  0.7527
  714MPD2    H710565   3.512   2.887   2.005 -0.5481 -1.0919  1.0112
  715TMC3    C110566   3.704   2.800   1.856  0.0634  0.0756 -0.4788
  715TMC3    C210567   3.785   2.738   1.760 -0.0421  0.0150 -0.5751
  715TMC3    C310568   3.916   2.765   1.761 -0.5769  0.7759  0.0875
  715TMC3    C410569   3.753   2.903   1.935  0.3606 -0.1240 -0.4261
  715TMC3    C510570   3.888   2.929   1.926  0.5239 -0.0435  0.2485
  715TMC3    C610571   3.971   2.857   1.840  0.3594 -0.3665 -0.2511
  715TMC3     C10572   3.568   2.813   1.818  0.4662 -0.5837 -0.4540
  715TMC3     O10573   3.537   2.770   1.707 -0.1658 -0.4617  0.0811
  715TMC3     H10574   3.741   2.670   1.688 -0.0852  0.6927 -1.1959
  715TMC3    H110575   3.684   2.968   1.987 -0.8734 -0.3705 -1.7490
  715TMC3    H210576   4.074   2.890   1.833  0.5409 -0.6649  0.8976
  715TMC3    C710577   3.949   3.012   2.024 -0.4473  0.7234 -0.3492
  715TMC3    C810578   3.997   2.695   1.673  0.0035 -0.2560  0.0318
  715TMC3    O110579   4.065   3.038   1.995 -0.2062 -0.2540 -0.4281
  715TMC3    O210580   3.939   2.638   1.585  0.2182  0.2164 -0.2421
  716MPD2     C10581   4.061   0.285   9.801 -0.0939 -0.1400  0.0901
  716MPD2    C110582   4.100   0.373   9.699 -0.1794  0.2765  0.2579
  716MPD2    C210583   4.029   0.373   9.576 -0.1936 -0.6270  0.6801
  716MPD2    C310584   3.923   0.283   9.563  0.7604  0.0221  0.1532
  716MPD2    C410585   3.899   0.187   9.656 -0.0415  0.1836 -0.1653
  716MPD2    C510586   3.980   0.182   9.772  0.8739  0.9461 -0.2201
  716MPD2     H10587   4.046   0.442   9.495 -1.4501  0.2191  1.1570
  716MPD2    H110588   3.810   0.125   9.645 -1.1593  1.8310 -0.3679
  716MPD2    H210589   4.116   0.289   9.894 -2.0215 -0.8007  1.2599
  716MPD2    H310590   3.961   0.111   9.851  2.4094  2.8742  1.8701
  716MPD2     N10591   3.836   0.303   9.455 -0.3446  0.2955 -0.0083
  716MPD2    H510592   3.844   0.388   9.400  1.1112 -0.9241 -1.7017
  716MPD2    N110593   4.182   0.482   9.733  0.6398  0.5916 -0.3458
  716MPD2    H710594   4.195   0.493   9.833 -0.9378  0.1057 -0.0991
  717TMC3    C110595   3.632   0.290   9.347  0.0223 -0.4889 -0.1456
  717TMC3    C210596   3.615   0.426   9.360 -0.6671 -0.4445  0.5727
  717TMC3    C310597   3.520   0.484   9.290  0.1673  0.2274 -0.0711
  717TMC3    C410598   3.546   0.217   9.268  0.2095  0.3615 -0.0147
  717TMC3    C510599   3.448   0.284   9.207  0.7646  0.1056 -0.2337
  717TMC3    C610600   3.428   0.418   9.225  0.2620  0.1953 -0.5341
  717TMC3     C10601   3.730   0.224   9.420  0.0954 -0.2261 -0.7362
  717TMC3     O10602   3.719   0.104   9.434 -0.0885 -0.1912  0.0068
  717TMC3     H10603   3.684   0.484   9.421  0.4741  2.0317 -3.0725
  717TMC3    H110604   3.564   0.112   9.250 -0.0562 -0.1123  2.4771
  717TMC3    H210605   3.349   0.475   9.177 -0.0231 -0.7612 -1.1896
  717TMC3    C710606   3.349   0.203   9.131 -0.6334  0.2006  0.6083
  717TMC3    C810607   3.509   0.630   9.291  0.1582 -0.3868  0.0965
  717TMC3    O110608   3.354   0.079   9.143 -0.7199 -0.2868 -0.0730
  717TMC3    O210609   3.397   0.675   9.276 -0.0127 -0.4788  0.6420
  718MPD2     C10610   2.412   3.633  13.286 -0.3212  0.0660 -0.2886
  718MPD2    C110611   2.377   3.685  13.165  0.0215  0.6120 -0.1843
  718MPD2    C210612   2.339   3.601  13.059 -0.1959 -0.2730 -0.0787
  718MPD2    C310613   2.327   3.466  13.070  0.1374 -0.9963 -0.0593
  718MPD2    C410614   2.333   3.415  13.200 -0.1072 -0.3989  0.0610
  718MPD2    C510615   2.389   3.498  13.298  0.1713 -0.3025  0.1930
  718MPD2     H10616   2.307   3.638  12.962  1.6507  0.2399 -0.4805
  718MPD2    H110617   2.327   3.308  13.216 -0.1356 -0.4942 -0.6237
  718MPD2    H210618   2.441   3.697  13.368  0.8083 -0.3646 -0.3550
  718MPD2    H310619   2.403   3.457  13.398  2.2083 -0.5299 -0.1783
  718MPD2     N10620   2.287   3.388  12.954  0.0295  0.0452  0.2601
  718MPD2    H510621   2.271   3.442  12.869  0.5819  0.3404  0.3444
  718MPD2    N110622   2.402   3.821  13.135  0.1309 -1.0420 -0.6270
  718MPD2    H710623   2.360   3.852  13.048 -3.1567  1.2300  1.7924
  719TMC3    C110624   2.513   4.024  13.113  0.0445  0.5764  0.2069
  719TMC3    C210625   2.410   4.060  13.032 -0.6572 -0.0116  0.4988
  719TMC3    C310626   2.441   4.092  12.905 -0.6596  0.1208 -0.3523
  719TMC3    C410627   2.642   4.036  13.079  1.3243  0.5589 -0.3059
  719TMC3    C510628   2.658   4.091  12.950 -0.3434  0.0220 -0.0545
  719TMC3    C610629   2.565   4.120  12.862  0.2375  0.0619  0.4958
  719TMC3     C10630   2.492   3.907  13.194 -0.5321  0.0234 -0.1213
  719TMC3     O10631   2.565   3.889  13.290 -0.0570 -0.0073 -0.4196
  719TMC3     H10632   2.309   4.049  13.069 -1.5031  2.1958 -1.1436
  719TMC3    H110633   2.729   4.019  13.141 -0.0180  0.7053  1.5842
  719TMC3    H210634   2.584   4.142  12.758 -2.9494  0.4078 -0.0082
  719TMC3    C710635   2.782   4.072  12.877  0.2949 -0.2640  0.5028
  719TMC3    C810636   2.377   3.991  12.822  0.8126 -0.5678  0.1620
  719TMC3    O110637   2.837   4.171  12.828 -0.2692 -0.2070 -0.6643
  719TMC3    O210638   2.323   3.903  12.891  0.6233 -0.1272  0.1546
  720MPD2     C10639   1.089   1.402  14.165 -0.2304 -0.7837 -0.0257
  720MPD2    C110640   1.174   1.318  14.101  0.3064  0.5733  0.0650
  720MPD2    C210641   1.292   1.273  14.162  0.3898  0.8053  0.0103
  720MPD2    C310642   1.311   1.303  14.296 -0.9572 -1.0079 -0.0047
  720MPD2    C410643   1.223   1.389  14.359  0.2472 -0.5757 -0.2045
  720MPD2    C510644   1.117   1.431  14.297 -0.8294 -0.3259  0.1684
  720MPD2     H10645   1.372   1.215  14.119 -1.4659 -2.4935  0.9612
  720MPD2    H110646   1.241   1.429  14.458 -1.5439  0.6181 -0.3572
  720MPD2    H210647   1.004   1.459  14.129  0.3497  0.5246  0.6595
  720MPD2    H310648   1.051   1.496  14.353  0.2640  1.1146 -0.2291
  720MPD2     N10649   1.432   1.249  14.350  0.8235  0.1067  0.2713
  720MPD2    H510650   1.482   1.187  14.287 -1.2095 -1.9822  0.7311
  720MPD2    N110651   1.156   1.293  13.968 -0.1448 -0.0299  0.4079
  720MPD2    H710652   1.229   1.242  13.920 -0.7079 -0.6477  0.2165
  721TMC3    C110653   1.599   1.203  14.515  0.5334 -0.5618  0.3650
  721TMC3    C210654   1.634   1.183  14.645 -0.0673  0.0284 -0.1379
  721TMC3    C310655   1.745   1.107  14.673  0.0398 -0.1684 -0.3774
  721TMC3    C410656   1.686   1.177  14.411  0.0272 -0.3467  0.8067
  721TMC3    C510657   1.809   1.122  14.446 -1.3685  0.2160 -0.0570
  721TMC3    C610658   1.837   1.081  14.572 -0.1995 -0.3573  0.2167
  721TMC3     C10659   1.469   1.261  14.487  0.2676 -0.5130 -0.0304
  721TMC3     O10660   1.398   1.299  14.579  0.1183 -0.3094  0.1160
  721TMC3     H10661   1.565   1.224  14.718  0.6544  0.2359  0.4381
  721TMC3    H110662   1.681   1.211  14.308  1.3480  1.8167  1.4554
  721TMC3    H210663   1.930   1.031  14.597  0.3466  0.6956  0.3146
  721TMC3    C710664   1.903   1.088  14.345  0.4957 -0.2461  0.1436
  721TMC3    C810665   1.794   1.101  14.809 -0.3263  0.5019  1.1845
  721TMC3    O110666   1.919   1.156  14.244  0.1617  0.0164 -0.6616
  721TMC3    O210667   1.917   1.111  14.823 -0.2616  0.0685 -0.5279
  722MPD2     C10668   0.347   4.428  13.465 -0.2607 -0.0351  0.4964
  722MPD2    C110669   0.295   4.558  13.463 -0.0120 -0.1450 -0.1848
  722MPD2    C210670   0.157   4.575  13.439  0.1119  0.3592  0.0938
  722MPD2    C310671   0.078   4.465  13.415 -0.3565  0.1400  0.2990
  722MPD2    C410672   0.139   4.338  13.419  0.0130 -0.3031 -0.3404
  722MPD2    C510673   0.272   4.319  13.436 -0.6883 -0.0710 -0.3229
  722MPD2     H10674   0.106   4.671  13.434  0.6067  0.6181  0.0199
  722MPD2    H110675   0.073   4.254  13.400  0.6090 -0.7922 -0.2457
  722MPD2    H210676   0.452   4.410  13.482  0.2423  0.1830 -2.3649
  722MPD2    H310677   0.318   4.222  13.447 -0.1636  0.1400 -0.6492
  722MPD2     N10678   4.664   4.487  13.382 -0.2188  0.1768 -0.3883
  722MPD2    H510679   4.631   4.582  13.398  0.2126  0.6884 -2.6261
  722MPD2    N110680   0.379   4.668  13.484 -0.1987 -0.4514  0.5803
  722MPD2    H710681   0.335   0.036  13.464  0.4060 -0.7299 -2.0299
  723TMC3    C110682   4.443   4.425  13.344 -0.2872 -0.7005 -0.2894
  723TMC3    C210683   4.361   4.370  13.253  0.5821 -0.3413  0.2239
  723TMC3    C310684   4.230   4.414  13.260 -0.5703  0.1296 -0.0506
  723TMC3    C410685   4.408   4.520  13.437 -0.0207  0.0362 -0.0022
  723TMC3    C510686   4.281   4.564  13.435 -0.0234  0.5086  0.6724
  723TMC3    C610687   4.190   4.510  13.352 -0.1958  0.0285  0.3695
  723TMC3     C10688   4.580   4.387  13.329 -0.5030 -0.0167  0.1200
  723TMC3     O10689   4.610   4.286  13.267 -0.3923 -0.8163  0.6569
  723TMC3     H10690   4.396   4.309  13.170  1.7305  2.7205 -1.5647
  723TMC3    H110691   4.476   4.551  13.516 -0.2029  1.3751 -0.3868
  723TMC3    H210692   4.084   4.525  13.369 -0.2896  0.5867 -0.7256
  723TMC3    C710693   4.249   4.665  13.536  0.3689 -0.4674 -0.4233
  723TMC3    C810694   4.120   4.345  13.195 -0.4866 -0.0426 -0.1394
  723TMC3    O110695   4.321   4.671  13.635  0.1149 -0.1227  0.5100
  723TMC3    O210696   4.012   4.400  13.174 -0.2545  0.2596  0.0537
  724TMC3    C110697   4.584   3.310   9.457  0.5760 -0.3891  0.2524
  724TMC3    C210698   4.616   3.228   9.562 -0.7091 -0.8093  0.0802
  724TMC3    C310699   0.009   3.265   9.630  0.0104 -1.0764  0.2716
  724TMC3    C410700   4.647   3.424   9.435 -0.4501  0.1171  0.3639
  724TMC3    C510701   0.043   3.460   9.500  0.1053 -0.2528 -0.3934
  724TMC3    C610702   0.090   3.377   9.598 -0.2267 -0.4689  0.3387
  724TMC3     C10703   4.499   3.252   9.358  0.1541  0.1124 -0.1639
  724TMC3     O10704   4.484   3.319   9.255 -0.4078  0.2648  0.1618
  724TMC3     H10705   4.585   3.124   9.563  2.7670 -1.7841  3.0290
  724TMC3    H110706   4.605   3.476   9.349 -1.4206 -3.3210 -1.2702
  724TMC3    H210707   0.185   3.403   9.645 -0.9046  2.3264  0.1483
  724TMC3    C710708   0.145   3.538   9.433  0.5408 -0.1471  0.4532
  724TMC3    C810709   0.042   3.170   9.730 -0.0211  0.1324 -0.2415
  724TMC3    O110710   0.263   3.503   9.454 -0.3186  0.9225  0.2261
  724TMC3    O210711   4.670   3.094   9.759  0.2195  0.1487 -0.0372
  725TMC3    C110712   1.871   1.135  13.169 -0.7533 -0.8271 -0.6138
  725TMC3    C210713   1.742   1.171  13.123  0.0716  0.0127  0.5144
  725TMC3    C310714   1.717   1.131  12.996 -0.1500 -0.2369  0.3376
  725TMC3    C410715   1.961   1.056  13.102 -0.3291 -0.1955  0.3697
  725TMC3    C510716   1.923   1.009  12.979  0.0549 -0.0400  0.1751
  725TMC3    C610717   1.802   1.052  12.917 -0.6432 -0.0878 -0.4365
  725TMC3     C10718   1.925   1.211  13.282 -0.5551 -0.5003 -0.7869
  725TMC3     O10719   1.964   1.147  13.378 -0.1047 -0.0631 -0.0216
  725TMC3     H10720   1.677   1.231  13.186  0.3679 -0.7170  1.4984
  725TMC3    H110721   2.065   1.047  13.133  0.9450  0.7686 -3.5564
  725TMC3    H210722   1.760   0.989  12.839 -1.0676  2.4631 -2.2528
  725TMC3    C710723   2.014   0.943  12.890 -0.4925  0.8643 -0.4571
  725TMC3    C810724   1.588   1.161  12.941  0.2277 -0.3274  0.0651
  725TMC3    O110725   1.992   0.957  12.770  0.5729  0.7105 -0.6199
  725TMC3    O210726   1.516   1.197  13.031 -0.0986 -0.2525  0.2933
  726MPD2     C10727   4.503   3.309  10.325  0.3878  0.1215 -0.1171
  726MPD2    C110728   4.372   3.318  10.283  0.2010 -0.1412 -0.4346
  726MPD2    C210729   4.287   3.215  10.294 -0.4141 -0.8633 -0.5416
  726MPD2    C310730   4.322   3.106  10.372  0.4384  0.3337  0.3186
  726MPD2    C410731   4.455   3.098  10.420 -0.0479  0.3654  0.5401
  726MPD2    C510732   4.551   3.197  10.390  0.1186 -0.3572 -0.1253
  726MPD2     H10733   4.189   3.224  10.249 -1.2944  0.3244  1.6303
  726MPD2    H110734   4.497   3.023  10.485 -1.1768 -1.1126 -0.4209
  726MPD2    H210735   4.575   3.385  10.298  0.9089 -0.8816 -1.4870
  726MPD2    H310736   4.648   3.189  10.437  1.5704  1.7433 -2.7434
  726MPD2     N10737   4.235   2.998  10.403 -0.0806  0.2308 -0.3312
  726MPD2    H510738   4.264   2.911  10.446  1.9106  1.1759  0.2136
  726MPD2    N110739   4.324   3.440  10.222  0.6588 -0.6591 -0.1537
  726MPD2    H710740   4.227   3.428  10.194  0.5034 -3.1576  1.5154
  727TMC3    C110741   4.300   3.671  10.187 -0.2763  0.1459  0.4641
  727TMC3    C210742   4.358   3.790  10.207  0.6104 -0.2836  0.3841
  727TMC3    C310743   4.290   3.899  10.253 -0.1983 -0.2719 -0.5657
  727TMC3    C410744   4.169   3.662  10.222  0.1098 -0.1029 -0.4873
  727TMC3    C510745   4.101   3.770  10.260 -0.1601 -0.2202  0.3187
  727TMC3    C610746   4.150   3.892  10.283  0.3633  0.6272  0.2920
  727TMC3     C10747   4.391   3.560  10.216 -0.6049  0.0638 -0.2224
  727TMC3     O10748   4.494   3.592  10.275  0.1925  0.0900 -0.1849
  727TMC3     H10749   4.466   3.799  10.201  0.4992 -0.1466 -1.4940
  727TMC3    H110750   4.117   3.566  10.220 -1.0777  0.5234  0.3453
  727TMC3    H210751   4.092   3.975  10.322 -3.5465 -1.6448 -0.7732
  727TMC3    C710752   3.956   3.757  10.248 -0.8683  0.3700  0.0542
  727TMC3    C810753   4.366   4.017  10.283 -0.0626 -0.0736 -0.0134
  727TMC3    O110754   3.908   3.650  10.265 -0.1230 -0.1381  0.2512
  727TMC3    O210755   4.486   4.009  10.277  0.3689 -0.2036 -0.0023
  728TMC3    C110756   3.822   1.789  15.649  0.0079  0.5661  0.3963
  728TMC3    C210757   3.896   1.900  15.651 -0.4727  0.3569 -0.2637
  728TMC3    C310758   3.903   1.974  15.534  0.3255 -0.0187 -0.0414
  728TMC3    C410759   3.754   1.750  15.534 -0.8222 -0.6327  0.5131
  728TMC3    C510760   3.779   1.819  15.417  0.1658 -1.3127 -0.3928
  728TMC3    C610761   3.857   1.929  15.413 -0.0598 -0.1023 -0.7251
  728TMC3     C10762   3.808   1.726  15.777  0.3322 -0.3272  0.0888
  728TMC3     O10763   3.881   1.768  15.865 -0.6822 -0.1145 -0.4379
  728TMC3     H10764   3.938   1.941  15.742 -0.2224 -0.4126 -0.0303
  728TMC3    H110765   3.705   1.653  15.526  0.6415 -1.4152  1.1259
  728TMC3    H210766   3.861   2.000  15.331 -1.8851 -1.2238 -1.7859
  728TMC3    C710767   3.699   1.781  15.295 -0.8101  0.6209 -0.2627
  728TMC3    C810768   3.961   2.110  15.547  0.0869 -0.1139  0.0340
  728TMC3    O110769   3.610   1.698  15.311 -0.0784 -0.5358 -0.1061
  728TMC3    O210770   4.035   2.132  15.644  0.9507 -0.4989 -0.0007
  729MPD2     C10771   1.010   2.801  16.681  0.0182  0.5894 -0.5633
  729MPD2    C110772   1.137   2.804  16.736  0.5181 -0.2668  0.2318
  729MPD2    C210773   1.149   2.790  16.871 -0.6135  0.4634 -0.2517
  729MPD2    C310774   1.035   2.772  16.954 -0.0777 -0.0215 -0.1165
  729MPD2    C410775   0.908   2.782  16.897  0.2762  0.0302  0.3409
  729MPD2    C510776   0.897   2.793  16.760 -0.4928 -1.3270  0.6675
  729MPD2     H10777   1.248   2.793  16.916 -1.8774 -0.0186  2.5600
  729MPD2    H110778   0.815   2.770  16.952  0.9188 -1.3747  1.1179
  729MPD2    H210779   1.003   2.810  16.573 -0.3581 -2.6958 -0.7990
  729MPD2    H310780   0.796   2.784  16.724 -0.8615 -0.6224  1.5119
  729MPD2     N10781   1.041   2.771  17.092  0.0258  0.3636 -0.1473
  729MPD2    H510782   0.953   2.779  17.142  0.5215  1.0498  0.6224
  729MPD2    N110783   1.246   2.827  16.645  0.1352  0.3557 -0.4261
  729MPD2    H710784   1.225   2.853  16.549  0.2341 -1.3834 -0.9109
  730TMC3    C110785   1.140   2.795  17.301 -0.2804  0.4533 -0.1297
  730TMC3    C210786   1.263   2.782  17.357 -0.8425  0.3913 -0.7987
  730TMC3    C310787   1.308   2.882  17.445 -0.2650 -1.1430  0.5464
  730TMC3    C410788   1.058   2.901  17.330  0.5617  0.3296  0.5764
  730TMC3    C510789   1.107   2.991  17.426 -0.6679  0.2638  0.6728
  730TMC3    C610790   1.228   2.988  17.488 -0.4188  0.4175  0.4609
  730TMC3     C10791   1.153   2.762  17.167  0.2575 -0.0060 -0.5305
  730TMC3     O10792   1.268   2.738  17.137 -0.2835  0.5590 -0.0305
  730TMC3     H10793   1.324   2.695  17.339  0.3030  1.1648 -0.6680
  730TMC3    H110794   0.960   2.926  17.291  0.4054 -2.2774 -0.7223
  730TMC3    H210795   1.267   3.073  17.543  0.8459 -0.5957  1.1339
  730TMC3    C710796   1.061   3.121  17.402 -0.0332 -0.3689  0.6374
  730TMC3    C810797   1.442   2.928  17.408 -1.1248  0.9865 -0.1519
  730TMC3    O110798   1.021   3.143  17.290  0.2418 -0.3553  0.6941
  730TMC3    O210799   1.505   2.999  17.491 -0.1670 -0.0251  1.1419
  731MPD2     C10800   1.194   0.185  12.055  0.6114 -0.8749 -0.5364
  731MPD2    C110801   1.293   0.284  12.047 -0.1571  0.6347  0.1477
  731MPD2    C210802   1.338   0.344  12.165 -0.6314  0.4618  0.1241
  731MPD2    C310803   1.287   0.310  12.287 -0.1267 -0.1525 -0.0423
  731MPD2    C410804   1.180   0.221  12.289 -0.2368 -0.2255  0.1920
  731MPD2    C510805   1.150   0.147  12.176 -0.5657 -0.4891 -0.1497
  731MPD2     H10806   1.411   0.424  12.157  1.4019 -1.2434  1.6204
  731MPD2    H110807   1.128   0.193  12.380  0.4110  0.0319  0.6444
  731MPD2    H210808   1.159   0.138  11.963  0.9107 -0.0814 -1.0536
  731MPD2    H310809   1.074   0.070  12.183 -0.8876 -0.1143  0.4993
  731MPD2     N10810   1.333   0.392  12.387 -0.2941 -0.1242 -0.9907
  731MPD2    H510811   1.383   0.475  12.358  1.5954 -1.1794 -0.7177
  731MPD2    N110812   1.349   0.313  11.925 -0.0987  0.0023 -0.4835
  731MPD2    H710813   1.307   0.264  11.846 -0.5010 -3.3328  1.8174
  732TMC3    C110814   1.487   0.394  11.743 -0.6053 -0.5305 -0.0074
  732TMC3    C210815   1.378   0.398  11.658 -0.1817  0.0414 -0.0536
  732TMC3    C310816   1.398   0.450  11.537  0.4170 -0.2572  0.0792
  732TMC3    C410817   1.609   0.431  11.707  0.4931 -0.1821  0.1631
  732TMC3    C510818   1.617   0.488  11.579 -0.6171 -0.1543  0.3917
  732TMC3    C610819   1.519   0.486  11.488  1.1036  0.3136  0.5532
  732TMC3     C10820   1.468   0.370  11.889  0.3542 -0.0886  0.1111
  732TMC3     O10821   1.552   0.415  11.965  0.2488 -0.4893  0.2834
  732TMC3     H10822   1.283   0.361  11.693 -0.1367 -0.7267 -0.7551
  732TMC3    H110823   1.693   0.422  11.775 -0.8446  1.2364  1.9999
  732TMC3    H210824   1.535   0.527  11.388  4.0634 -0.8649  0.5508
  732TMC3    C710825   1.754   0.513  11.537  0.1889  0.4113 -0.9195
  732TMC3    C810826   1.290   0.527  11.470  0.3648 -0.2502 -0.0609
  732TMC3    O110827   1.770   0.470  11.423 -0.3285 -0.3226  0.0162
  732TMC3    O210828   1.332   0.610  11.394 -0.1727 -0.7482 -0.2564
  733TMC3    C110829   1.960   3.300  12.702 -0.4786  0.3954  0.1798
  733TMC3    C210830   2.021   3.268  12.820  0.2547  0.5479  0.1419
  733TMC3    C310831   2.157   3.258  12.822  0.2530 -0.0465  0.5918
  733TMC3    C410832   2.041   3.334  12.595 -0.3698 -0.6236 -0.2957
  733TMC3    C510833   2.176   3.332  12.587 -0.7437 -0.0050 -0.9340
  733TMC3    C610834   2.230   3.311  12.713  0.6024  0.1310  0.3024
  733TMC3     C10835   1.838   3.380  12.703 -0.8719 -0.3938 -0.0681
  733TMC3     O10836   1.844   3.490  12.656 -0.0404 -0.4706 -0.0923
  733TMC3     H10837   1.968   3.239  12.910 -0.8081  1.1934 -0.2614
  733TMC3    H110838   1.995   3.370  12.504 -0.4801  2.1781  0.8791
  733TMC3    H210839   2.339   3.310  12.716  0.6413  1.6072 -0.3973
  733TMC3    C710840   2.218   3.443  12.507  0.5428 -0.7384 -0.1468
  733TMC3    C810841   2.219   3.272  12.950  0.1125 -0.5663  0.2171
  733TMC3    O110842   2.214   3.438  12.386  0.2539 -0.0427  0.3321
  733TMC3    O210843   2.189   3.199  13.046 -0.2787  0.0657  0.1904
  734MPD2     C10844   4.410   1.953  12.628  0.2995  0.0727  0.3703
  734MPD2    C110845   4.324   1.887  12.551  0.3234  0.2016 -0.0239
  734MPD2    C210846   4.353   1.878  12.415 -0.2569 -0.3274  0.6231
  734MPD2    C310847   4.469   1.926  12.358 -0.3234 -0.1447  0.9258
  734MPD2    C410848   4.558   1.988  12.443 -0.1498 -0.3451  0.6127
  734MPD2    C510849   4.530   2.004  12.575 -0.2992  0.5077  0.1082
  734MPD2     H10850   4.289   1.815  12.354  0.1295 -0.6663  0.5706
  734MPD2    H110851   4.651   2.016  12.395  0.5996 -0.2700  2.1021
  734MPD2    H210852   4.390   1.967  12.733 -2.2789  1.7682 -0.3549
  734MPD2    H310853   4.604   2.046  12.642  2.4033 -0.6900 -2.1226
  734MPD2     N10854   4.475   1.922  12.211 -0.1873  0.0659  0.4094
  734MPD2    H510855   4.385   1.893  12.173 -0.0892  0.3434 -0.0278
  734MPD2    N110856   4.218   1.810  12.606  0.0822 -0.0704 -0.3562
  734MPD2    H710857   4.202   1.809  12.706 -3.7235 -1.5401 -0.9744
  735TMC3    C110858   4.044   1.644  12.613  0.7275  0.6578 -0.5738
  735TMC3    C210859   3.951   1.587  12.537 -0.1409  0.4130  0.3643
  735TMC3    C310860   3.934   1.459  12.510 -0.1219  0.1886 -0.0770
  735TMC3    C410861   4.114   1.558  12.689 -0.0494 -0.2678 -0.9438
  735TMC3    C510862   4.100   1.424  12.677 -0.1150 -0.3753  0.4965
  735TMC3    C610863   4.011   1.367  12.584 -0.5130  0.0651 -1.3182
  735TMC3     C10864   4.114   1.742  12.534  0.2391  1.2397 -0.3446
  735TMC3     O10865   4.085   1.754  12.417 -0.2688 -0.3061  0.2576
  735TMC3     H10866   3.879   1.644  12.479 -0.3051 -0.3357 -0.1719
  735TMC3    H110867   4.191   1.592  12.757  0.6723  0.8250 -2.2909
  735TMC3    H210868   4.011   1.262  12.557 -2.2817 -0.2121 -0.3011
  735TMC3    C710869   4.196   1.331  12.719  0.0973 -0.0213 -0.3625
  735TMC3    C810870   3.932   1.426  12.367  0.0875  1.0237  0.0533
  735TMC3    O110871   4.152   1.220  12.745  0.6812 -0.0802 -0.0357
  735TMC3    O210872   3.907   1.308  12.337  0.4590 -0.2733 -0.1032
  736MPD2     C10873   4.427   1.194  12.835 -0.1337  0.2335  0.3063
  736MPD2    C110874   4.431   1.283  12.727 -0.2956  0.2602  0.2029
  736MPD2    C210875   4.537   1.288  12.637  0.3354  0.0084  0.6216
  736MPD2    C310876   4.639   1.197  12.655 -0.0090 -0.1666  0.6527
  736MPD2    C410877   4.633   1.102  12.756  0.2378  0.0263 -0.2625
  736MPD2    C510878   4.531   1.106  12.849  0.0766  0.1167 -0.2384
  736MPD2     H10879   4.526   1.355  12.552  0.5105 -1.7193 -0.7812
  736MPD2    H110880   4.707   1.026  12.780  2.1310  1.7505 -0.6675
  736MPD2    H210881   4.334   1.181  12.888 -1.2563 -0.7252 -1.8856
  736MPD2    H310882   4.522   1.025  12.921  3.1623 -0.1927 -0.2163
  736MPD2     N10883   0.027   1.186  12.563 -0.2387  0.3046  0.0023
  736MPD2    H510884   0.077   1.098  12.559 -0.1420  0.4522 -1.9938
  736MPD2    N110885   4.322   1.364  12.697  0.4119  0.5680  0.5682
  736MPD2    H710886   4.342   1.446  12.641 -1.9803  0.1534 -0.8771
  737TMC3    C110887   0.160   1.260  12.370 -0.1338  0.2198 -0.3025
  737TMC3    C210888   0.239   1.363  12.325 -0.9542 -0.0543  0.3178
  737TMC3    C310889   0.304   1.350  12.203  0.1693  0.3605  0.0316
  737TMC3    C410890   0.146   1.145  12.299  0.7312  0.1954 -0.0612
  737TMC3    C510891   0.211   1.142  12.176 -0.4817 -0.1973 -0.1377
  737TMC3    C610892   0.279   1.249  12.119 -0.1873 -0.2432 -0.4365
  737TMC3     C10893   0.061   1.290  12.475  0.5208 -0.5662  0.4386
  737TMC3     O10894   0.033   1.409  12.472 -1.0207  0.2185 -0.4139
  737TMC3     H10895   0.225   1.461  12.370  0.5976  0.6176 -0.6636
  737TMC3    H110896   0.090   1.063  12.344  1.4395 -0.2849 -0.0417
  737TMC3    H210897   0.335   1.227  12.028  0.6950  1.3673 -0.2783
  737TMC3    C710898   0.169   1.027  12.091 -0.4003  0.8055 -0.8567
  737TMC3    C810899   0.366   1.466  12.152  0.1154 -0.2494  0.0458
  737TMC3    O110900   0.121   0.928  12.152  0.2554 -0.0254 -0.2778
  737TMC3    O210901   0.420   1.548  12.231 -0.1907 -0.2313 -0.0218
  738MPD2     C10902   0.901   4.535  15.674  0.0791  0.4021  0.8467
  738MPD2    C110903   0.806   4.609  15.609  0.7452 -0.3179 -0.1654
  738MPD2    C210904   0.847   4.694  15.516  0.1073  0.4033  0.2823
  738MPD2    C310905   0.976   4.713  15.468  0.2007 -0.6442 -1.3011
  738MPD2    C410906   1.069   4.635  15.529  0.3047 -0.0549  0.3908
  738MPD2    C510907   1.031   4.557  15.636 -0.4281  0.0098 -1.0215
  738MPD2     H10908   0.771   0.029  15.462 -1.3450 -0.1201  1.7855
  738MPD2    H110909   1.174   4.642  15.503  0.0875  3.1310  0.4493
  738MPD2    H210910   0.877   4.469  15.757 -1.5612  0.9994  0.8423
  738MPD2    H310911   1.101   4.485  15.676 -1.5440 -0.3485  0.2832
  738MPD2     N10912   1.017   0.075  15.362 -0.1878  0.5533 -0.0274
  738MPD2    H510913   1.111   0.068  15.325 -0.0787  1.2634  0.1168
  738MPD2    N110914   0.670   4.582  15.630 -0.3021 -0.0012  0.3556
  738MPD2    H710915   0.601   4.627  15.571  0.6928 -0.7133 -1.3521
  739TMC3    C110916   1.018   0.283  15.238 -0.3527  0.0344 -0.5984
  739TMC3    C210917   0.941   0.377  15.171  0.4270 -0.1117  0.1471
  739TMC3    C310918   1.006   0.472  15.102 -0.6809  0.6898  0.3475
  739TMC3    C410919   1.156   0.288  15.235  0.0865  0.4354 -0.2904
  739TMC3    C510920   1.214   0.385  15.166 -0.3245 -0.6436  0.1689
  739TMC3    C610921   1.143   0.477  15.093 -0.6487 -0.0715  0.3601
  739TMC3     C10922   0.942   0.178  15.312 -0.8789  0.4832 -0.7377
  739TMC3     O10923   0.824   0.213  15.337 -0.3351  0.1731 -0.9122
  739TMC3     H10924   0.833   0.364  15.164  0.5168  0.5394 -2.3861
  739TMC3    H110925   1.211   0.209  15.284 -0.0922  0.6942  0.3233
  739TMC3    H210926   1.191   0.564  15.050 -1.2406 -1.2622 -2.7238
  739TMC3    C710927   1.353   0.363  15.126 -0.3523  0.4495  0.5260
  739TMC3    C810928   0.923   0.542  15.000  0.2637  0.8195 -0.2354
  739TMC3    O110929   1.401   0.463  15.073 -0.1286 -0.1807  0.4374
  739TMC3    O210930   0.822   0.481  14.970  0.2774  0.2310 -0.2409
  740TMC3    C110931   1.291   1.789  14.397 -0.1965  0.3570 -1.0135
  740TMC3    C210932   1.299   1.769  14.530  0.5344 -0.4058  0.2451
  740TMC3    C310933   1.387   1.679  14.584 -0.2003 -0.3502 -0.0693
  740TMC3    C410934   1.381   1.720  14.311  0.8999 -0.6771  0.4647
  740TMC3    C510935   1.475   1.640  14.365 -0.2081  0.4371 -0.1735
  740TMC3    C610936   1.474   1.617  14.499 -0.0654 -0.3966  0.0618
  740TMC3     C10937   1.159   1.783  14.337  1.0581  0.1541 -0.3295
  740TMC3     O10938   1.159   1.789  14.216  0.3391  0.1419 -0.7125
  740TMC3     H10939   1.241   1.838  14.589  0.6139  0.0660 -0.2253
  740TMC3    H110940   1.381   1.728  14.203 -0.9264 -1.5813  0.3949
  740TMC3    H210941   1.542   1.545  14.543  1.7253  1.7943  0.8458
  740TMC3    C710942   1.560   1.554  14.279 -0.0418  0.1864  0.1033
  740TMC3    C810943   1.334   1.619  14.703  0.0613  0.1523 -0.0140
  740TMC3    O110944   1.637   1.486  14.344 -0.6477 -0.9643 -0.4608
  740TMC3    O210945   1.212   1.631  14.713  0.0427  0.6699  0.4301
  741TMC3    C110946   0.639   0.997  15.025 -0.1331 -0.5866  1.3271
  741TMC3    C210947   0.606   0.932  14.906 -0.4891 -0.8083 -0.2232
  741TMC3    C310948   0.528   0.818  14.923  0.5232  0.6113 -0.3405
  741TMC3    C410949   0.609   0.944  15.150 -0.4469  0.2477 -0.2462
  741TMC3    C510950   0.539   0.822  15.151  0.1349 -0.9860 -0.3402
  741TMC3    C610951   0.492   0.762  15.039  0.5839 -0.3064  0.4536
  741TMC3     C10952   0.702   1.132  15.036 -0.0409 -0.2909 -0.0196
  741TMC3     O10953   0.692   1.195  15.140 -0.2503  0.1320 -0.3832
  741TMC3     H10954   0.646   0.974  14.814  0.9066  2.2009  1.7458
  741TMC3    H110955   0.642   0.989  15.242  1.3461 -0.7675 -0.3911
  741TMC3    H210956   0.476   0.655  15.040 -0.5655 -0.1391 -0.3528
  741TMC3    C710957   0.497   0.769  15.285  0.6416 -0.2239  0.3502
  741TMC3    C810958   0.446   0.762  14.819  0.3358  0.6125 -0.4033
  741TMC3    O110959   0.484   0.849  15.378  0.3253  0.6529  0.2558
  741TMC3    O210960   0.380   0.661  14.839  0.5289  0.0924 -0.1328
  742TMC3    C110961   0.304   4.021  15.778  1.2123 -0.0608 -0.2922
  742TMC3    C210962   0.241   4.052  15.659  0.5691  0.3694  0.5989
  742TMC3    C310963   0.317   4.085  15.556 -0.1712 -0.2908 -0.2181
  742TMC3    C410964   0.437   4.036  15.793  0.3243 -0.7800  0.2245
  742TMC3    C510965   0.509   4.083  15.689  0.7347 -0.4886 -0.3776
  742TMC3    C610966   0.452   4.117  15.566  0.2014  0.4117  0.4967
  742TMC3     C10967   0.254   3.906  15.852 -0.2943  0.0271  0.2487
  742TMC3     O10968   0.163   3.845  15.799  0.2431  0.1874  0.0295
  742TMC3     H10969   0.138   4.020  15.646  0.8175  0.1857 -0.9458
  742TMC3    H110970   0.494   4.006  15.880  0.3775 -0.7411  0.2026
  742TMC3    H210971   0.510   4.137  15.477 -1.4968  0.8226 -0.5120
  742TMC3    C710972   0.642   4.138  15.724  0.2421  0.1584 -0.8744
  742TMC3    C810973   0.265   4.057  15.421  0.9103  0.2175  0.0736
  742TMC3    O110974   0.662   4.168  15.843  0.0237  0.1900 -0.1685
  742TMC3    O210975   0.348   4.036  15.333 -0.0171  0.0483 -0.0305
  743MPD2     C10976   3.033   1.167   2.746  0.3701 -0.3463  0.0230
  743MPD2    C110977   3.074   1.151   2.620 -0.4086  0.3106  0.0406
  743MPD2    C210978   3.203   1.164   2.583  0.5771 -0.3099  0.5219
  743MPD2    C310979   3.287   1.220   2.672 -0.0753 -0.2905  0.3120
  743MPD2    C410980   3.248   1.251   2.799  0.0892  0.0592  0.3859
  743MPD2    C510981   3.122   1.220   2.835 -0.3480  0.0224 -0.6331
  743MPD2     H10982   3.236   1.147   2.481 -0.1282  1.2025  0.0258
  743MPD2    H110983   3.316   1.305   2.863  0.6984  0.2969 -0.4650
  743MPD2    H210984   2.929   1.147   2.770  0.0798 -0.0268 -0.9803
  743MPD2    H310985   3.093   1.250   2.935 -1.6346 -0.3107 -0.9027
  743MPD2     N10986   3.417   1.245   2.619 -0.3511  0.5891  0.1491
  743MPD2    H510987   3.427   1.224   2.521 -0.5330  0.9974  0.0427
  743MPD2    N110988   2.965   1.126   2.525 -0.6230 -0.1847  0.7013
  743MPD2    H710989   2.869   1.145   2.552 -0.1631  1.7913  0.9351
  744TMC3    C110990   2.863   1.064   2.311  0.1289  0.0267 -1.2164
  744TMC3    C210991   2.754   1.143   2.341  0.1307  0.2493 -0.2661
  744TMC3    C310992   2.664   1.175   2.239  0.4362  0.1266 -1.0130
  744TMC3    C410993   2.880   1.024   2.178 -0.3780 -0.2811  0.0572
  744TMC3    C510994   2.796   1.077   2.081  0.0174 -0.4339  0.1326
  744TMC3    C610995   2.682   1.143   2.104 -0.0227  0.0493 -0.0849
  744TMC3     C10996   2.981   1.078   2.396  0.4535  0.3293 -0.6144
  744TMC3     O10997   3.086   1.028   2.357 -0.1728 -0.4533 -0.3544
  744TMC3     H10998   2.747   1.198   2.434 -1.6623  1.6844 -1.2405
  744TMC3    H110999   2.967   0.962   2.157  0.3967  1.2746 -1.4226
  744TMC3    H211000   2.621   1.194   2.029 -0.6343  0.5115  0.7241
  744TMC3    C711001   2.829   1.029   1.947  0.5463 -0.9813  0.5705
  744TMC3    C811002   2.612   1.308   2.243  0.8082 -0.4180 -0.5181
  744TMC3    O111003   2.934   0.971   1.931 -0.1477 -0.4923  0.6243
  744TMC3    O211004   2.677   1.386   2.176 -0.2315 -0.0799 -0.0488
  745TMC3    C111005   1.040   3.711  13.637 -0.2610  0.6394  0.2672
  745TMC3    C211006   0.967   3.698  13.755 -0.7212 -0.7859  0.0425
  745TMC3    C311007   0.848   3.760  13.767  0.1563 -0.7654 -0.0847
  745TMC3    C411008   0.995   3.776  13.523 -0.1479 -0.3894 -0.2205
  745TMC3    C511009   0.880   3.845  13.550 -0.4265 -0.4390 -0.3788
  745TMC3    C611010   0.807   3.835  13.666  0.2789  0.1652 -0.7436
  745TMC3     C11011   1.182   3.683  13.654  0.1427 -0.3324 -0.2078
  745TMC3     O11012   1.212   3.624  13.753 -0.0714 -0.8763 -0.7062
  745TMC3     H11013   0.993   3.633  13.838  2.9563  0.1230 -0.3911
  745TMC3    H111014   1.048   3.767  13.429  0.5378 -1.9939  0.3228
  745TMC3    H211015   0.717   3.896  13.668  0.4634  0.4625 -1.5231
  745TMC3    C711016   0.813   3.899  13.433 -0.2622 -0.5096  0.3685
  745TMC3    C811017   0.796   3.799  13.895 -0.4358  0.7270  0.0561
  745TMC3    O111018   0.694   3.899  13.431  0.2135  0.5228  0.7264
  745TMC3    O211019   0.671   3.817  13.899  0.3913 -0.2495 -0.3354
  746TMC3    C111020   3.489   0.702  11.400 -0.0639 -0.9682  0.9051
  746TMC3    C211021   3.519   0.670  11.272 -0.2619  0.4980  0.4422
  746TMC3    C311022   3.462   0.565  11.206  0.8947  0.0883  0.2371
  746TMC3    C411023   3.388   0.633  11.455  0.3111  0.7460 -0.8885
  746TMC3    C511024   3.325   0.524  11.396  0.5384 -0.0373  0.4279
  746TMC3    C611025   3.365   0.493  11.269 -0.0349  0.0666  0.3637
  746TMC3     C11026   3.502   0.839  11.448  0.3141  0.4476 -0.0251
  746TMC3     O11027   3.403   0.890  11.500 -0.2465 -0.3597  0.0960
  746TMC3     H11028   3.595   0.728  11.220  0.4296 -0.0032  0.8995
  746TMC3    H111029   3.360   0.671  11.553  1.0584 -0.7315 -0.1068
  746TMC3    H211030   3.323   0.415  11.206 -0.3114 -0.1995  0.8756
  746TMC3    C711031   3.178   0.525  11.411  0.1385  0.5191 -0.1326
  746TMC3    C811032   3.502   0.542  11.073 -0.4923 -0.2287 -0.5735
  746TMC3    O111033   3.126   0.450  11.334  0.5219  0.3547  0.2308
  746TMC3    O211034   3.489   0.428  11.028  0.1785 -0.3867  0.6080
  747TMC3    C111035   0.249   0.919  11.038  0.3304 -0.2925  0.8326
  747TMC3    C211036   0.155   0.924  11.136  0.5140  0.2553 -0.2186
  747TMC3    C311037   0.187   0.989  11.248  0.0394  0.2214  0.8546
  747TMC3    C411038   0.381   0.962  11.044 -0.0823  0.2308 -0.4473
  747TMC3    C511039   0.409   1.025  11.163 -0.1081  0.2040  0.1305
  747TMC3    C611040   0.318   1.033  11.268 -0.1168  0.3387 -0.1330
  747TMC3     C11041   0.193   0.933  10.902 -0.0397 -0.0594 -0.7787
  747TMC3     O11042   0.096   1.005  10.893  0.3278  0.2134  0.0390
  747TMC3     H11043   0.061   0.875  11.114  0.9644 -1.1517  0.9503
  747TMC3    H111044   0.448   0.935  10.963 -0.0429  2.8128 -1.2606
  747TMC3    H211045   0.350   1.078  11.362 -0.1932 -0.3115  0.2036
  747TMC3    C711046   0.546   1.052  11.191  0.7390 -0.2621  0.7195
  747TMC3    C811047   0.118   0.933  11.363  0.6443 -0.5822  0.0364
  747TMC3    O111048   0.572   1.038  11.307  0.0732  0.3218  0.6059
  747TMC3    O211049   0.079   0.820  11.347  0.4287 -0.4476 -0.0135
  748MPD2     C11050   2.130   2.738   2.278 -1.4604 -0.8573 -0.2675
  748MPD2    C111051   2.167   2.609   2.313 -0.4399  0.1161  0.3714
  748MPD2    C211052   2.281   2.560   2.250  0.1216  0.3821  0.2239
  748MPD2    C311053   2.358   2.631   2.151 -0.2278  0.2114  0.4115
  748MPD2    C411054   2.322   2.760   2.130 -0.1292  0.7530 -0.9179
  748MPD2    C511055   2.219   2.812   2.197  0.0891 -0.1453 -0.4281
  748MPD2     H11056   2.315   2.461   2.276  3.3852  1.5642  0.4711
  748MPD2    H111057   2.386   2.824   2.070  0.6167 -0.9248 -1.9049
  748MPD2    H211058   2.041   2.782   2.321  0.8840  1.8121  1.9435
  748MPD2    H311059   2.201   2.917   2.180 -0.9346  0.0230  1.7148
  748MPD2     N11060   2.471   2.577   2.085 -0.1077  0.2276 -0.0654
  748MPD2    H511061   2.504   2.490   2.126 -2.5368 -0.2933  0.7920
  748MPD2    N111062   2.083   2.536   2.401 -0.5481  1.2184 -0.2666
  748MPD2    H711063   2.003   2.590   2.434 -2.1724 -1.4418  0.1984
  749TMC3    C111064   2.628   2.573   1.909 -0.2501 -0.4246 -0.7539
  749TMC3    C211065   2.717   2.499   1.984  0.2386 -0.0985 -0.6627
  749TMC3    C311066   2.831   2.448   1.914 -0.0324 -0.2185 -0.9159
  749TMC3    C411067   2.658   2.614   1.782 -0.4234  0.8541  0.3031
  749TMC3    C511068   2.768   2.565   1.725  0.0383 -0.1842  0.0931
  749TMC3    C611069   2.856   2.483   1.787  0.1193 -0.2003  0.2126
  749TMC3     C11070   2.513   2.636   1.967 -0.0989 -0.4805 -0.4270
  749TMC3     O11071   2.471   2.726   1.901 -0.1711  0.2794  0.1508
  749TMC3     H11072   2.707   2.481   2.090  2.3676  1.3132 -0.2177
  749TMC3    H111073   2.593   2.687   1.734 -1.8590 -0.6763 -0.0912
  749TMC3    H211074   2.939   2.441   1.730 -0.7714  0.1092 -1.3188
  749TMC3    C711075   2.793   2.596   1.587 -0.8536 -0.7075  0.6670
  749TMC3    C811076   2.932   2.386   1.997  0.2914  0.7729  0.0014
  749TMC3    O111077   2.911   2.598   1.551 -0.5328  0.7697  0.1411
  749TMC3    O211078   2.906   2.370   2.117 -0.1865 -0.5994 -0.5936
  750MPD2     C11079   3.653   2.743  11.404  0.3744 -0.4002 -0.3281
  750MPD2    C111080   3.527   2.700  11.413 -0.2652 -0.4998  0.2219
  750MPD2    C211081   3.490   2.569  11.422 -0.6427  0.5353  0.1420
  750MPD2    C311082   3.584   2.475  11.409 -0.2500 -0.0452  0.3731
  750MPD2    C411083   3.715   2.511  11.404  0.4774  0.0904 -0.0493
  750MPD2    C511084   3.753   2.645  11.407  0.4166 -0.3480  0.1556
  750MPD2     H11085   3.385   2.553  11.439 -0.5619 -0.0023  0.1350
  750MPD2    H111086   3.796   2.440  11.414  0.7201  0.5524  1.2370
  750MPD2    H211087   3.691   2.844  11.403  1.7804 -0.9487 -2.9193
  750MPD2    H311088   3.857   2.674  11.394  0.4435 -0.6191 -0.2477
  750MPD2     N11089   3.550   2.337  11.386 -0.5659  0.0144  0.1804
  750MPD2    H511090   3.629   2.273  11.395  0.0269  0.8390  0.7791
  750MPD2    N111091   3.438   2.807  11.424 -0.1743  0.0061  0.9111
  750MPD2    H711092   3.476   2.897  11.450 -1.1572  1.1482 -1.6849
  751TMC3    C111093   3.411   2.144  11.349 -0.3661  0.0572 -0.3010
  751TMC3    C211094   3.287   2.085  11.358 -0.1378 -0.1820 -1.2609
  751TMC3    C311095   3.273   1.957  11.302 -0.6066  0.0402 -0.0707
  751TMC3    C411096   3.516   2.074  11.306  0.6821 -0.9660 -0.2713
  751TMC3    C511097   3.500   1.945  11.256 -0.2988  0.6850  0.5853
  751TMC3    C611098   3.377   1.894  11.237 -0.4673 -0.6755  0.6005
  751TMC3     C11099   3.422   2.284  11.380  0.5133  0.2051 -0.0578
  751TMC3     O11100   3.312   2.340  11.400  0.1244 -0.3364  0.4265
  751TMC3     H11101   3.200   2.146  11.382  0.3817 -0.1928  0.6139
  751TMC3    H111102   3.617   2.113  11.313  0.0614  0.5728  0.2219
  751TMC3    H211103   3.357   1.803  11.181 -2.7227  0.8657 -1.1256
  751TMC3    C711104   3.601   1.897  11.163  0.3816 -0.0750 -0.4818
  751TMC3    C811105   3.143   1.918  11.251  0.0196 -0.7587  0.2531
  751TMC3    O111106   3.685   1.978  11.121  0.3211 -0.7059 -0.2609
  751TMC3    O211107   3.137   1.835  11.162  0.6447  0.3947  0.0052
  752TMC3    C111108   2.223   2.967  17.265 -0.2995  0.0897  0.1494
  752TMC3    C211109   2.326   3.026  17.336  0.3126 -0.6100  0.0214
  752TMC3    C311110   2.333   3.006  17.473 -0.2947  0.0927 -0.1675
  752TMC3    C411111   2.110   2.909  17.336  0.0232  0.0229 -0.2482
  752TMC3    C511112   2.124   2.903  17.474  0.4117 -0.3306  0.2334
  752TMC3    C611113   2.228   2.956  17.543 -0.0891  0.2555  0.8413
  752TMC3     C11114   2.241   2.964  17.121  0.3942 -0.0072 -0.1384
  752TMC3     O11115   2.344   3.013  17.078  1.2756  0.7322  0.1469
  752TMC3     H11116   2.406   3.082  17.290 -1.6567 -1.1641 -4.0785
  752TMC3    H111117   2.025   2.859  17.290 -0.7363 -1.0256  2.2910
  752TMC3    H211118   2.218   2.966  17.651  0.0103  0.4260  0.8338
  752TMC3    C711119   2.004   2.868  17.545 -0.0489  0.0128 -0.0115
  752TMC3    C811120   2.458   3.037  17.538 -0.0624  0.2617 -0.5375
  752TMC3    O111121   1.896   2.879  17.485  0.2783 -0.1366  0.0907
  752TMC3    O211122   2.528   3.113  17.476  0.4351  0.3694  0.0749
  753TMC3    C111123   4.405   3.763  13.715 -0.5618 -0.5628 -0.4288
  753TMC3    C211124   4.400   3.742  13.853  0.1030 -0.2493  0.5542
  753TMC3    C311125   4.408   3.607  13.889  0.5410 -0.5517  0.0335
  753TMC3    C411126   4.395   3.657  13.629 -0.4050  0.3238  0.8115
  753TMC3    C511127   4.376   3.532  13.678 -0.2037 -0.5412 -0.3163
  753TMC3    C611128   4.399   3.498  13.804  0.2673  0.0262  0.1832
  753TMC3     C11129   4.322   3.871  13.670 -0.2418 -0.3954  0.1121
  753TMC3     O11130   4.311   3.882  13.547 -0.4667 -0.1914 -0.2053
  753TMC3     H11131   4.410   3.821  13.928 -0.3159 -0.5258  0.9013
  753TMC3    H111132   4.380   3.676  13.524 -3.2398 -0.9445  0.9774
  753TMC3    H211133   4.405   3.400  13.850 -1.1459  0.0717  0.4711
  753TMC3    C711134   4.320   3.431  13.595  0.3223 -0.0368  0.3820
  753TMC3    C811135   4.469   3.575  14.017  0.2079  0.2068 -0.0183
  753TMC3    O111136   4.335   3.445  13.476  0.3590  0.3311 -0.6452
  753TMC3    O211137   4.504   3.459  14.029  0.1683 -0.2621 -0.2913
  754MPD2     C11138   2.507   1.885  12.529  0.5754  0.6317  0.2071
  754MPD2    C111139   2.562   1.893  12.658 -0.0932  0.3150 -0.0545
  754MPD2    C211140   2.501   1.980  12.748 -0.1254 -0.3459  0.2197
  754MPD2    C311141   2.391   2.053  12.714 -1.0333 -0.0748 -0.2907
  754MPD2    C411142   2.338   2.043  12.589 -0.0643  0.2618  0.9780
  754MPD2    C511143   2.395   1.960  12.492 -0.2234  0.0145 -0.9841
  754MPD2     H11144   2.532   1.986  12.851 -0.5071 -0.2062  0.3268
  754MPD2    H111145   2.241   2.087  12.569 -0.3094 -0.2603  1.0034
  754MPD2    H211146   2.541   1.812  12.456 -0.1046 -1.3697  1.8984
  754MPD2    H311147   2.348   1.966  12.394 -1.2459 -1.3935 -0.5818
  754MPD2     N11148   2.305   2.110  12.810 -0.5670  0.0112  0.2869
  754MPD2    H511149   2.216   2.136  12.769 -1.7047 -1.1047  2.0444
  754MPD2    N111150   2.659   1.797  12.700  0.2709 -0.6085 -0.1476
  754MPD2    H711151   2.666   1.710  12.648 -1.5454 -1.0713  0.3837
  755MPD2     C11152   1.597   2.668  12.945 -0.2208  0.4784  0.4520
  755MPD2    C111153   1.704   2.675  13.035 -1.2142  0.3859  0.4070
  755MPD2    C211154   1.808   2.589  13.015  0.8058  0.6445 -1.1664
  755MPD2    C311155   1.797   2.482  12.931  0.0745  0.0854  0.5703
  755MPD2    C411156   1.688   2.476  12.838 -0.3750 -0.1035 -0.0465
  755MPD2    C511157   1.589   2.569  12.858 -0.9615  0.0763  0.3618
  755MPD2     H11158   1.902   2.604  13.067  0.2416 -0.0054  0.0421
  755MPD2    H111159   1.669   2.403  12.760  0.5445  0.8464 -1.1534
  755MPD2    H211160   1.524   2.748  12.939  0.1160  0.8333  1.0754
  755MPD2    H311161   1.507   2.574  12.787  1.8075 -0.6315 -2.8613
  755MPD2     N11162   1.892   2.379  12.952  0.4910  0.3455  0.7946
  755MPD2    H511163   1.984   2.401  12.988  0.3327  0.3506  1.1986
  755MPD2    N111164   1.720   2.759  13.151 -0.2740  0.6754 -0.1479
  755MPD2    H711165   1.799   2.734  13.211 -2.1114 -2.6429  0.8972
  756MPD2     C11166   3.504   2.905   9.719  1.0830  0.4745 -0.2225
  756MPD2    C111167   3.407   2.860   9.807 -0.3396  0.3896 -0.0171
  756MPD2    C211168   3.351   2.733   9.795  0.3585  0.0323  0.2376
  756MPD2    C311169   3.392   2.653   9.694 -0.2516 -0.2296  0.0835
  756MPD2    C411170   3.488   2.700   9.602 -0.0786  0.1132 -0.6377
  756MPD2    C511171   3.532   2.825   9.614 -0.4395  0.0393  0.0465
  756MPD2     H11172   3.274   2.699   9.864 -0.4331 -1.1510 -1.2273
  756MPD2    H111173   3.519   2.641   9.516  1.7265 -0.4129  0.3858
  756MPD2    H211174   3.554   3.001   9.729 -1.5523  1.5858  2.2777
  756MPD2    H311175   3.617   2.848   9.551  0.6762 -2.6013  0.5581
  756MPD2     N11176   3.332   2.524   9.693 -0.5137  0.4813 -0.5132
  756MPD2    H511177   3.258   2.510   9.761 -0.2830 -2.9188 -0.9931
  756MPD2    N111178   3.356   2.928   9.917  0.2050  0.2770 -0.2879
  756MPD2    H711179   3.286   2.892   9.982  0.6663  0.7008  0.4498
  757MPD2     C11180   2.546   1.875   9.700 -0.3141  0.6754  1.0673
  757MPD2    C111181   2.582   1.883   9.826  0.0557 -0.1982  0.0257
  757MPD2    C211182   2.692   1.960   9.857 -0.0193  0.1145  0.3374
  757MPD2    C311183   2.762   2.023   9.757  0.0532 -0.6062  0.5571
  757MPD2    C411184   2.719   2.015   9.629 -0.0700 -0.3046  0.4179
  757MPD2    C511185   2.614   1.935   9.604 -0.3578 -0.3812 -0.0911
  757MPD2     H11186   2.713   1.984   9.961 -3.0379  1.8931  0.5370
  757MPD2    H111187   2.772   2.057   9.545 -1.0715 -0.0912 -0.1045
  757MPD2    H211188   2.460   1.815   9.673  1.6286 -1.6776  0.1420
  757MPD2    H311189   2.577   1.911   9.505 -0.1314  1.0476 -0.5152
  757MPD2     N11190   2.876   2.097   9.793 -0.2242  0.1623 -0.2791
  757MPD2    H511191   2.913   2.092   9.888 -4.1152 -2.7108  1.0573
  757MPD2    N111192   2.499   1.814   9.923  0.1151 -0.6751  0.4147
  757MPD2    H711193   2.428   1.750   9.889 -0.7801  0.7627 -0.3931
  758MPD2     C11194   2.304   2.248  16.305  0.0795  0.3432  0.0846
  758MPD2    C111195   2.408   2.210  16.385  0.3597  0.2166 -0.1621
  758MPD2    C211196   2.463   2.295  16.478  0.0118  0.4676 -0.0291
  758MPD2    C311197   2.409   2.425  16.496 -0.4617 -0.0379  0.0722
  758MPD2    C411198   2.302   2.467  16.414  0.5457  0.2928  0.3428
  758MPD2    C511199   2.252   2.372  16.322  1.0695 -0.0718  0.2490
  758MPD2     H11200   2.540   2.255  16.543 -0.1474 -1.8867 -1.2652
  758MPD2    H111201   2.251   2.562  16.424 -0.1448 -0.0849  0.4232
  758MPD2    H211202   2.272   2.179  16.228  1.0397  0.0922 -0.0821
  758MPD2    H311203   2.175   2.411  16.256 -0.5299 -0.6989  1.7658
  758MPD2     N11204   2.448   2.507  16.603  0.3295  0.5490  0.2824
  758MPD2    H511205   2.400   2.596  16.614 -1.1414 -0.1347 -0.5249
  758MPD2    N111206   2.465   2.076  16.366  0.0836 -0.1803 -0.2540
  758MPD2    H711207   2.437   2.031  16.279 -2.5371 -0.3628  0.7005
  759MPD2     C11208   1.540   0.888  10.012  0.1041 -0.3688  0.8702
  759MPD2    C111209   1.605   0.853   9.896 -0.0955 -0.1317 -0.3793
  759MPD2    C211210   1.689   0.939   9.833  0.0522  0.7797  0.1694
  759MPD2    C311211   1.720   1.059   9.902  1.1729 -0.7074 -0.3051
  759MPD2    C411212   1.658   1.096  10.020  0.3760  0.4079 -0.5746
  759MPD2    C511213   1.569   1.010  10.075  0.1584 -0.3870 -0.0041
  759MPD2     H11214   1.744   0.910   9.744 -0.3047  3.0258 -0.7668
  759MPD2    H111215   1.674   1.193  10.065  0.3568  0.5863 -0.9591
  759MPD2    H211216   1.477   0.823  10.072 -0.8053 -1.8018 -1.6362
  759MPD2    H311217   1.515   1.039  10.164 -0.2927 -0.8082 -0.1436
  759MPD2     N11218   1.833   1.129   9.849 -0.8329 -0.1603  0.2141
  759MPD2    H511219   1.890   1.081   9.780 -0.5426  0.7585 -0.1974
  759MPD2    N111220   1.573   0.737   9.822 -0.4991  0.3787  0.0712
  759MPD2    H711221   1.630   0.719   9.739 -1.6593 -0.6413 -0.5183
  760MPD2     C11222   1.637   2.146  12.001 -0.6712 -0.3052  0.0780
  760MPD2    C111223   1.711   2.044  11.939 -0.5961 -0.4049  0.2807
  760MPD2    C211224   1.656   1.914  11.933 -0.2186  0.0396  0.3263
  760MPD2    C311225   1.534   1.889  11.996  0.3533  0.0712  0.9557
  760MPD2    C411226   1.471   1.993  12.060  0.0806 -0.2736 -0.3677
  760MPD2    C511227   1.514   2.123  12.057 -0.2698  0.3025  0.0626
  760MPD2     H11228   1.709   1.839  11.875  0.0718 -0.5829  1.4072
  760MPD2    H111229   1.386   1.973  12.125  0.6237 -1.9397 -0.1485
  760MPD2    H211230   1.670   2.249  12.012 -2.2232  0.3443 -1.3239
  760MPD2    H311231   1.456   2.201  12.105  0.1392  1.7516 -1.7991
  760MPD2     N11232   1.469   1.765  12.006 -0.6198 -0.4974 -0.2957
  760MPD2    H511233   1.381   1.758  12.055 -0.5953  0.2825 -0.1441
  760MPD2    N111234   1.833   2.088  11.890  0.1683 -0.8439 -0.7714
  760MPD2    H711235   1.864   2.184  11.900 -1.2643 -0.2954 -1.5188
  761MPD2     C11236   2.658   1.764  11.334 -0.7842  0.1685  0.2038
  761MPD2    C111237   2.739   1.751  11.222  0.3482  0.2517 -0.1872
  761MPD2    C211238   2.864   1.816  11.220  0.2704  0.5735  0.1947
  761MPD2    C311239   2.914   1.878  11.330  0.1631 -0.3701  0.1656
  761MPD2    C411240   2.827   1.888  11.439 -0.1997  0.1299 -0.6600
  761MPD2    C511241   2.704   1.834  11.444  0.1679 -0.1802 -0.3423
  761MPD2     H11242   2.904   1.815  11.119  0.3825  2.1906  0.2379
  761MPD2    H111243   2.863   1.952  11.518  1.1189 -0.8629 -0.4552
  761MPD2    H211244   2.557   1.724  11.341 -1.1734  1.1447  0.2461
  761MPD2    H311245   2.641   1.837  11.532  0.2627  0.4095 -0.2951
  761MPD2     N11246   3.048   1.927  11.342  0.2767 -0.1775  0.7681
  761MPD2    H511247   3.076   1.972  11.429 -0.3977  1.0878  0.3333
  761MPD2    N111248   2.685   1.663  11.123 -0.4204  0.0490  0.5750
  761MPD2    H711249   2.587   1.636  11.125 -0.4507  0.1197  0.1284
  762MPD2     C11250   3.252   1.622  10.880  0.4675 -0.5925 -0.6627
  762MPD2    C111251   3.214   1.491  10.854  0.1712  0.0168  0.4297
  762MPD2    C211252   3.303   1.408  10.792  0.1942  0.5540 -0.2654
  762MPD2    C311253   3.427   1.458  10.747  0.7875  1.0641  0.4976
  762MPD2    C411254   3.454   1.591  10.763 -0.2288 -0.4149  0.2042
  762MPD2    C511255   3.376   1.666  10.842  0.1598 -0.3371 -0.2789
  762MPD2     H11256   3.274   1.304  10.786  0.6075  0.4266 -0.0745
  762MPD2    H111257   3.550   1.633  10.737  0.0649 -0.6855  0.8573
  762MPD2    H211258   3.189   1.691  10.934 -0.6113 -0.7958 -1.6544
  762MPD2    H311259   3.424   1.761  10.862 -0.6347 -0.2062  1.0587
  762MPD2     N11260   3.519   1.377  10.671 -0.2729  0.2852 -0.4292
  762MPD2    H511261   3.517   1.278  10.692 -0.3463  0.9371  2.6958
  762MPD2    N111262   3.080   1.460  10.892  0.1432  0.1905 -0.3015
  762MPD2    H711263   3.017   1.530  10.927  2.0916  0.7571  2.0520
  763MPD2     C11264   4.234   2.179  16.163  0.7467  0.2479 -0.3081
  763MPD2    C111265   4.357   2.234  16.164  0.1182 -0.1367  0.3647
  763MPD2    C211266   4.398   2.322  16.259 -0.3069 -0.5863 -0.2568
  763MPD2    C311267   4.310   2.353  16.361  0.2518  0.1004  0.0273
  763MPD2    C411268   4.180   2.314  16.344 -0.2790  0.0814 -0.0425
  763MPD2    C511269   4.142   2.229  16.250 -0.3803  0.1094 -0.5188
  763MPD2     H11270   4.500   2.345  16.288 -0.7103  0.3821  0.4003
  763MPD2    H111271   4.099   2.341  16.411  0.6192  0.7369  0.7668
  763MPD2    H211272   4.196   2.102  16.097  0.1545  1.3676 -1.2613
  763MPD2    H311273   4.041   2.188  16.252 -0.0662 -0.5772  1.3506
  763MPD2     N11274   4.358   2.429  16.475 -0.1965 -0.2983  0.4929
  763MPD2    H511275   4.450   2.469  16.466 -0.0959 -1.2657 -2.6458
  763MPD2    N111276   4.458   2.206  16.069  0.2132 -0.1233  0.6981
  763MPD2    H711277   4.542   2.262  16.078 -0.2821  0.8108 -0.5266
  764MPD2     C11278   3.053   3.997  17.624 -0.0592 -0.2289  0.1915
  764MPD2    C111279   2.966   3.911  17.554 -0.0416 -0.0964  0.2614
  764MPD2    C211280   2.940   3.788  17.609  0.0543  0.5283  0.0606
  764MPD2    C311281   3.002   3.749   0.044 -0.1355 -0.2952  0.0036
  764MPD2    C411282   3.073   3.842   0.117 -0.0628 -0.2607  0.0436
  764MPD2    C511283   3.100   3.961   0.054 -0.1008  0.3141  0.3477
  764MPD2     H11284   2.871   3.721  17.558  0.0290  0.1540  0.5901
  764MPD2    H111285   3.113   3.828   0.217  2.3368 -4.4432 -1.4748
  764MPD2    H211286   3.080   4.093  17.583  0.3152 -1.4959 -2.5133
  764MPD2    H311287   3.166   4.030   0.105  0.0886 -1.2408  2.2078
  764MPD2     N11288   2.962   3.623   0.092 -0.6659  0.4856  0.0248
  764MPD2    H511289   2.908   3.564   0.030  2.5535 -1.3444 -0.9879
  764MPD2    N111290   2.902   3.940  17.436  0.0047 -0.2463  0.1128
  764MPD2    H711291   2.840   3.866  17.404 -2.9965  1.0463  2.9530
  765MPD2     C11292   2.612   1.607  15.476 -0.1671 -0.1905  0.3765
  765MPD2    C111293   2.622   1.647  15.614  0.6113  0.0205  0.0210
  765MPD2    C211294   2.719   1.583  15.687 -0.4861  0.0169  0.3728
  765MPD2    C311295   2.788   1.477  15.639  0.3077 -0.1200 -0.0741
  765MPD2    C411296   2.782   1.439  15.507 -1.3106  0.3506  0.7516
  765MPD2    C511297   2.696   1.510  15.431 -0.5236  0.8419  0.0727
  765MPD2     H11298   2.740   1.605  15.791  0.5167 -0.2619  0.2285
  765MPD2    H111299   2.829   1.355  15.458 -1.2186  1.6764 -1.4385
  765MPD2    H211300   2.547   1.658  15.405  0.3917  1.2788  0.9156
  765MPD2    H311301   2.685   1.495  15.324  0.8068  0.5544 -0.0292
  765MPD2     N11302   2.869   1.407  15.729 -1.5112 -0.4307 -0.0815
  765MPD2    H511303   2.899   1.455  15.813  1.2254 -1.3338 -0.5485
  765MPD2    N111304   2.523   1.737  15.669  0.4213 -0.0170 -0.4346
  765MPD2    H711305   2.462   1.785  15.604 -2.0537 -2.4368  0.0868
  766MPD2     C11306   1.939   2.040  15.522  0.3453  0.3565 -0.0438
  766MPD2    C111307   2.026   1.935  15.528  0.1550 -0.8328 -0.4792
  766MPD2    C211308   2.045   1.873  15.405  0.4591 -0.0239  0.0654
  766MPD2    C311309   1.994   1.916  15.289 -0.5040 -0.0606 -0.2154
  766MPD2    C411310   1.905   2.012  15.287  0.2036 -0.5874  1.0552
  766MPD2    C511311   1.887   2.076  15.407  0.2486  0.5372 -0.2993
  766MPD2     H11312   2.111   1.787  15.407 -0.2045 -0.4612  2.5094
  766MPD2    H111313   1.857   2.046  15.196  0.9289  2.8932  1.9812
  766MPD2    H211314   1.918   2.101  15.609  0.1315 -0.3267  0.3856
  766MPD2    H311315   1.828   2.167  15.405  2.1556  1.7798 -1.0161
  766MPD2     N11316   2.049   1.851  15.175  0.3323 -1.3303  0.3826
  766MPD2    H511317   2.131   1.794  15.193  0.7975 -0.9151 -0.4116
  766MPD2    N111318   2.084   1.883  15.646 -0.1265 -0.7501  0.4976
  766MPD2    H711319   2.145   1.801  15.648 -1.4649 -1.6305  4.1147
  767MPD2     C11320   1.601   1.985  15.051 -0.6146  0.0642 -0.2547
  767MPD2    C111321   1.665   2.059  14.952  0.1526  0.4498  0.5795
  767MPD2    C211322   1.712   1.997  14.834 -0.3056  0.2904 -0.1394
  767MPD2    C311323   1.698   1.860  14.820 -0.2613  0.8316  0.0817
  767MPD2    C411324   1.626   1.786  14.919  0.1462  0.3183  0.1372
  767MPD2    C511325   1.583   1.852  15.029 -0.5526 -0.1044  0.4394
  767MPD2     H11326   1.763   2.057  14.759 -0.3441  0.3876 -0.0877
  767MPD2    H111327   1.620   1.677  14.913 -2.3788  0.6005 -2.4124
  767MPD2    H211328   1.578   2.027  15.148  1.4022  1.3573 -0.3287
  767MPD2    H311329   1.543   1.796  15.112 -1.2226 -0.9706 -0.4736
  767MPD2     N11330   1.763   1.797  14.708  0.2111 -0.7154 -0.1678
  767MPD2    H511331   1.824   1.857  14.653 -0.9334 -0.5716 -1.2797
  767MPD2    N111332   1.695   2.190  14.991  0.1809  0.5874 -0.4430
  767MPD2    H711333   1.650   2.228  15.074 -1.8259 -0.2010 -1.1762
  768MPD2     C11334   3.036   0.232  10.835 -0.1488  0.3084  0.5381
  768MPD2    C111335   3.020   0.316  10.939 -0.0921 -0.5094 -0.7618
  768MPD2    C211336   3.075   0.287  11.060  0.1945  0.2722  0.5103
  768MPD2    C311337   3.143   0.168  11.084  0.1305  0.5141 -0.0008
  768MPD2    C411338   3.163   0.081  10.972  0.1597  0.2907 -0.4401
  768MPD2    C511339   3.101   0.114  10.851  0.2468 -0.1734  0.3469
  768MPD2     H11340   3.067   0.358  11.142 -0.4007  2.5268 -1.5132
  768MPD2    H111341   3.228   4.716  10.982 -0.6386 -0.0167  1.9486
  768MPD2    H211342   2.999   0.251  10.735 -1.8950 -0.3665  1.0615
  768MPD2    H311343   3.106   0.045  10.768 -0.7147  1.5815 -1.1558
  768MPD2     N11344   3.191   0.144  11.214  0.5458  0.5590 -0.6443
  768MPD2    H511345   3.173   0.208  11.291  3.0208 -0.6855  0.9913
  768MPD2    N111346   2.951   0.439  10.930  0.4361  0.0087  0.1352
  768MPD2    H711347   2.972   0.501  11.008  0.4468  0.8551 -0.5498
  769MPD2     C11348   4.010   2.807  15.151  0.9133 -0.0474  0.8841
  769MPD2    C111349   3.891   2.871  15.178  0.4012 -0.0792  0.4012
  769MPD2    C211350   3.872   2.942  15.293  0.1783 -0.4377  0.6946
  769MPD2    C311351   3.987   2.972  15.363  0.0117 -0.0629 -0.5245
  769MPD2    C411352   4.113   2.920  15.329  0.1531 -0.7358 -0.8620
  769MPD2    C511353   4.123   2.845  15.219  0.0522  0.5072  0.2669
  769MPD2     H11354   3.783   2.996  15.323 -0.8231 -1.6046 -0.1484
  769MPD2    H111355   4.200   2.935  15.393  0.1932 -3.1830 -0.3549
  769MPD2    H211356   4.024   2.753  15.058  0.0924  1.6434 -0.2076
  769MPD2    H311357   4.223   2.810  15.197 -0.4844  0.6172 -2.3502
  769MPD2     N11358   3.958   3.047  15.473  0.3327  0.0142  0.2063
  769MPD2    H511359   3.864   3.083  15.484  0.5169  1.0967 -1.8588
  769MPD2    N111360   3.779   2.846  15.093  0.1927  0.2083 -0.7230
  769MPD2    H711361   3.795   2.792  15.008 -1.2857 -0.9346 -0.2610
  770MPD2     C11362   3.195   2.053  14.964  0.4089  0.2151  0.2504
  770MPD2    C111363   3.103   2.142  15.006 -0.0881  0.2537  1.1439
  770MPD2    C211364   3.140   2.273  15.027 -0.7163  0.1073  0.0671
  770MPD2    C311365   3.264   2.314  14.981  0.4835 -0.2468  0.4548
  770MPD2    C411366   3.355   2.226  14.926  0.6940  0.0463  0.3624
  770MPD2    C511367   3.322   2.091  14.922  0.0599 -0.1044 -1.4143
  770MPD2     H11368   3.075   2.345  15.076 -1.4420 -1.3835  1.3057
  770MPD2    H111369   3.453   2.252  14.889  0.0260 -0.0960 -1.4775
  770MPD2    H211370   3.171   1.948  14.957  0.7376  0.1506  0.0787
  770MPD2    H311371   3.396   2.029  14.873  1.0545  0.3778 -0.5345
  770MPD2     N11372   3.294   2.452  14.992 -0.3879 -0.2596 -0.9790
  770MPD2    H511373   3.226   2.514  15.035  0.2968 -0.5875  0.5777
  770MPD2    N111374   2.978   2.084  15.042 -0.7156 -0.3754 -0.7616
  770MPD2    H711375   2.978   1.982  15.048 -1.6639 -0.3471 -0.3029
  771MPD2     C11376   0.031   0.717  14.106 -0.3662 -0.3481  0.1224
  771MPD2    C111377   4.648   0.761  14.020 -0.1863  0.6989  0.0169
  771MPD2    C211378   4.521   0.706  14.036  0.5312 -0.1572 -0.4400
  771MPD2    C311379   4.497   0.606  14.136 -0.2660  0.7990 -0.1157
  771MPD2    C411380   4.603   0.557  14.213  0.2698  0.6116 -0.4336
  771MPD2    C511381   0.008   0.613  14.198 -0.2837  0.7619  0.0908
  771MPD2     H11382   4.442   0.747  13.974  1.9384  0.2850 -1.9433
  771MPD2    H111383   4.577   0.479  14.284 -0.3285  1.5403  0.3639
  771MPD2    H211384   0.133   0.751  14.089 -0.9430  1.4183  0.2459
  771MPD2    H311385   0.089   0.574  14.258  1.1470  1.7358 -1.1841
  771MPD2     N11386   4.368   0.557  14.148  0.5183 -0.4844 -0.2665
  771MPD2    H511387   4.299   0.577  14.076 -0.1442 -1.5116  0.0847
  771MPD2    N111388   4.668   0.868  13.933  0.2771  0.5236  0.5306
  771MPD2    H711389   4.588   0.891  13.874 -0.1981  0.8675  1.3186
  772MPD2     C11390   4.395   1.566  13.922  1.3136  0.4409 -0.2311
  772MPD2    C111391   4.371   1.453  13.844  0.0904  0.8323  0.0693
  772MPD2    C211392   4.240   1.423  13.802  0.4872 -0.6841  0.6405
  772MPD2    C311393   4.139   1.513  13.834  0.3356 -0.3776 -0.4514
  772MPD2    C411394   4.171   1.627  13.905 -0.2719  0.5782 -0.6892
  772MPD2    C511395   4.293   1.653  13.954 -0.8765 -0.1424  0.2556
  772MPD2     H11396   4.218   1.336  13.741  0.1543  0.9821 -1.6321
  772MPD2    H111397   4.100   1.708  13.920 -0.9372 -0.6928  2.9392
  772MPD2    H211398   4.495   1.594  13.955  2.3835 -1.6729 -1.6660
  772MPD2    H311399   4.317   1.743  14.011  0.4666 -1.0424  1.1229
  772MPD2     N11400   4.002   1.495  13.797  0.3959  0.0466 -0.7279
  772MPD2    H511401   3.941   1.570  13.826  0.5677 -0.4038  0.7595
  772MPD2    N111402   4.473   1.354  13.824 -0.6633 -0.8189 -0.8249
  772MPD2    H711403   4.440   1.268  13.781  1.4821 -1.7215 -0.6435
  773MPD2     C11404   3.875   2.594   0.560  0.2293 -0.4375 -0.4911
  773MPD2    C111405   3.760   2.515   0.557 -0.3779 -0.3547 -0.7293
  773MPD2    C211406   3.766   2.395   0.620 -0.3466  0.3156  0.3934
  773MPD2    C311407   3.887   2.358   0.691 -0.0879  0.0169 -0.6305
  773MPD2    C411408   4.000   2.438   0.688 -0.2896  0.2648  0.1886
  773MPD2    C511409   3.991   2.557   0.621 -0.1990 -0.9038 -0.2244
  773MPD2     H11410   3.676   2.334   0.620 -0.4428  0.4553  1.0537
  773MPD2    H111411   4.098   2.408   0.725 -0.4461  0.0877  0.4585
  773MPD2    H211412   3.871   2.697   0.527 -1.3127  0.3521  2.0836
  773MPD2    H311413   4.073   2.628   0.620 -2.1342  1.3086  1.9570
  773MPD2     N11414   3.880   2.236   0.761  0.6112  0.1770  0.4078
  773MPD2    H511415   3.795   2.183   0.744  1.0695 -0.4423  0.0476
  773MPD2    N111416   3.643   2.548   0.486  0.2010  0.1432 -0.1964
  773MPD2    H711417   3.582   2.467   0.491  0.3294  0.0178 -0.6695
  774MPD2     C11418   2.338   1.149  13.402 -0.3561  0.9804 -0.7657
  774MPD2    C111419   2.437   1.218  13.466 -0.4492 -0.4809 -0.6391
  774MPD2    C211420   2.507   1.311  13.396 -0.1002 -0.4615  0.2990
  774MPD2    C311421   2.490   1.320  13.254 -0.5892  0.4502 -0.4605
  774MPD2    C411422   2.406   1.236  13.186 -0.0188 -0.0628  0.5992
  774MPD2    C511423   2.331   1.148  13.265 -1.0389 -0.0375 -0.1801
  774MPD2     H11424   2.576   1.377  13.448 -0.1209  0.0258 -0.2986
  774MPD2    H111425   2.397   1.228  13.078 -0.6507  0.1003  0.6404
  774MPD2    H211426   2.268   1.085  13.455  3.5972 -1.7336  1.1565
  774MPD2    H311427   2.275   1.073  13.210  1.2136 -2.7609  1.2540
  774MPD2     N11428   2.570   1.413  13.195  0.0986 -0.1872 -0.1223
  774MPD2    H511429   2.625   1.462  13.264  2.1145 -1.2244 -0.9947
  774MPD2    N111430   2.443   1.211  13.607  0.2927  0.5467  0.4192
  774MPD2    H711431   2.403   1.129  13.652 -2.5654  0.9159 -1.4753
  775MPD2     C11432   4.001   2.930  16.006 -0.3469  0.0487 -0.7087
  775MPD2    C111433   3.963   3.054  16.055 -0.2435 -0.0255 -0.8562
  775MPD2    C211434   4.039   3.168  16.015 -0.1263  0.4884 -0.9913
  775MPD2    C311435   4.164   3.147  15.946  0.1218  0.6118 -0.2510
  775MPD2    C411436   4.198   3.017  15.907  0.1340 -0.0583  0.2859
  775MPD2    C511437   4.113   2.915  15.938 -0.2809  0.6336 -0.2768
  775MPD2     H11438   4.026   3.271  16.048  1.8550  0.8052 -1.2155
  775MPD2    H111439   4.283   2.979  15.852 -0.0231 -0.8081  0.5628
  775MPD2    H211440   3.940   2.845  16.035 -0.5084  0.1925 -0.6269
  775MPD2    H311441   4.147   2.816  15.908 -1.9758  0.5272 -1.8472
  775MPD2     N11442   4.263   3.244  15.919  0.0271 -0.0720 -0.6018
  775MPD2    H511443   4.342   3.224  15.858  0.4712 -0.5621  0.1259
  775MPD2    N111444   3.849   3.061  16.145 -0.5873  0.4722  0.1288
  775MPD2    H711445   3.811   2.974  16.180 -0.1077  0.2421  0.0815
  776MPD2     C11446   3.461   3.324  12.009 -0.2688  0.2374 -0.0240
  776MPD2    C111447   3.442   3.329  11.872  0.2814  0.1588 -0.6352
  776MPD2    C211448   3.496   3.433  11.797  0.4627 -0.6767  0.3627
  776MPD2    C311449   3.566   3.530  11.859  0.0476  0.7425  0.1185
  776MPD2    C411450   3.573   3.537  11.999 -0.0115  0.0666  0.5172
  776MPD2    C511451   3.524   3.429  12.073 -0.2413  0.1766 -0.5659
  776MPD2     H11452   3.481   3.429  11.689 -2.8427  1.1441  0.7559
  776MPD2    H111453   3.620   3.622  12.047 -0.0021  1.3171 -1.7156
  776MPD2    H211454   3.429   3.237  12.066  1.1832  0.0941  0.5777
  776MPD2    H311455   3.532   3.428  12.181  3.6085 -1.2551 -0.8739
  776MPD2     N11456   3.629   3.631  11.789 -1.4553  0.5228 -1.1503
  776MPD2    H511457   3.671   3.706  11.842 -0.9960  0.5066 -1.4887
  776MPD2    N111458   3.368   3.220  11.819  0.8449 -0.9681 -0.0301
  776MPD2    H711459   3.348   3.139  11.877 -0.7784 -1.3555 -1.1261
  777MPD2     C11460   3.784   1.590   1.155 -0.6111  0.0705 -0.2826
  777MPD2    C111461   3.699   1.606   1.258  0.1638  0.5495 -0.2135
  777MPD2    C211462   3.613   1.504   1.294 -0.2050 -0.9367  0.3122
  777MPD2    C311463   3.609   1.385   1.223 -0.1245  0.2616  0.5643
  777MPD2    C411464   3.689   1.371   1.111 -0.4134 -0.1852  0.7589
  777MPD2    C511465   3.779   1.472   1.084 -0.3482  0.7642 -0.5573
  777MPD2     H11466   3.551   1.507   1.383 -0.0468  1.6027  0.3297
  777MPD2    H111467   3.690   1.282   1.048  1.9374  1.0943 -1.0039
  777MPD2    H211468   3.858   1.663   1.124  0.0030 -0.7458 -0.7424
  777MPD2    H311469   3.847   1.465   1.000 -1.7885  0.9907 -1.7578
  777MPD2     N11470   3.524   1.281   1.268  0.4931  0.3884 -0.8773
  777MPD2    H511471   3.475   1.294   1.356 -2.0159 -1.0390 -2.0689
  777MPD2    N111472   3.711   1.723   1.330  0.0054 -0.2139  0.0976
  777MPD2    H711473   3.793   1.778   1.303  0.4849 -0.6674  0.6153
  778MPD2     C11474   4.702   1.268  15.344 -0.7745 -0.5567  0.5514
  778MPD2    C111475   4.641   1.183  15.261 -0.7746  0.4423  0.3648
  778MPD2    C211476   4.642   1.205  15.127  0.0566  0.3970  0.0156
  778MPD2    C311477   4.718   1.308  15.080  0.1282  0.6665  0.3134
  778MPD2    C411478   0.053   1.404  15.165  0.5586 -0.0701 -0.5743
  778MPD2    C511479   0.042   1.383  15.297 -0.3359  0.8094 -0.9558
  778MPD2     H11480   4.598   1.147  15.047 -0.6150  1.2839 -0.2692
  778MPD2    H111481   0.107   1.490  15.126  0.8177 -0.0856 -0.2456
  778MPD2    H211482   4.692   1.274  15.452 -0.8839  1.1751  0.4492
  778MPD2    H311483   0.080   1.451  15.373  1.4796 -2.8648  1.4314
  778MPD2     N11484   0.014   1.317  14.940 -0.5291  0.0937  0.2040
  778MPD2    H511485   4.699   1.236  14.892  0.7094 -0.3419 -0.0080
  778MPD2    N111486   4.560   1.079  15.307  0.8726 -0.6010  0.6848
  778MPD2    H711487   4.516   1.020  15.237  0.0618 -0.0789  0.7497
  779MPD2     C11488   4.158   4.627  14.880  0.0680  0.2681  0.1951
  779MPD2    C111489   4.281   4.626  14.816  0.5105 -0.8902 -0.0052
  779MPD2    C211490   4.347   0.023  14.790  0.0299 -0.2381 -0.5883
  779MPD2    C311491   4.279   0.141  14.824  0.0422  1.1515 -0.2391
  779MPD2    C411492   4.152   0.143  14.881 -0.5210 -0.1598  0.2685
  779MPD2    C511493   4.097   0.027  14.912 -1.0703  0.7771 -0.0374
  779MPD2     H11494   4.449   0.020  14.752  0.4264  2.0646  0.2767
  779MPD2    H111495   4.088   0.228  14.900 -1.4378 -0.4543 -1.4566
  779MPD2    H211496   4.109   4.532  14.899 -0.4779  0.5431  0.1662
  779MPD2    H311497   3.997   0.025  14.954 -0.2737 -0.0519  1.8163
  779MPD2     N11498   4.345   0.259  14.782 -0.0235 -0.1527  0.3707
  779MPD2    H511499   4.438   0.249  14.744  1.3072 -2.9817  4.4505
  779MPD2    N111500   4.348   4.505  14.794 -0.2065  0.4345 -0.2957
  779MPD2    H711501   4.446   4.514  14.771 -0.1828  1.7697  0.3095
  780MPD2     C11502   3.508   0.362   1.171  0.2698  0.5458 -0.3111
  780MPD2    C111503   3.517   0.344   1.034  0.0851  0.6820  0.4041
  780MPD2    C211504   3.640   0.297   0.987  0.3122  0.4903 -0.0343
  780MPD2    C311505   3.750   0.282   1.075 -0.1507 -0.2536  0.6260
  780MPD2    C411506   3.735   0.292   1.207  0.0021 -0.1943  0.1143
  780MPD2    C511507   3.611   0.330   1.253 -0.7855 -0.8474 -0.3330
  780MPD2     H11508   3.650   0.271   0.882  0.1710 -0.7317  0.2594
  780MPD2    H111509   3.811   0.264   1.279 -1.4190 -1.4988  1.1165
  780MPD2    H211510   3.411   0.390   1.210 -0.4366 -2.5575  0.2055
  780MPD2    H311511   3.603   0.323   1.361 -1.0934 -1.1767 -0.3780
  780MPD2     N11512   3.866   0.229   1.010  0.2660  0.3165 -0.4167
  780MPD2    H511513   3.867   0.205   0.912 -1.4936  0.6379 -0.5038
  780MPD2    N111514   3.400   0.365   0.954  0.1362 -0.9473  0.1326
  780MPD2    H711515   3.315   0.378   1.008 -1.2425  0.5681 -2.3686
  781MPD2     C11516   1.157   1.766  11.900 -0.5846 -0.0869  0.6924
  781MPD2    C111517   1.127   1.650  11.968 -0.2972  0.5942  0.0903
  781MPD2    C211518   1.137   1.530  11.903 -0.3806 -0.0705 -0.5443
  781MPD2    C311519   1.188   1.518  11.775 -0.4186  0.2236 -0.5681
  781MPD2    C411520   1.214   1.632  11.707  0.0654 -0.0520 -0.2529
  781MPD2    C511521   1.198   1.752  11.768 -0.3350  0.8636 -0.6307
  781MPD2     H11522   1.099   1.437  11.945 -0.5432 -0.0248 -0.5913
  781MPD2    H111523   1.247   1.638  11.604 -3.2744 -1.6419 -1.4302
  781MPD2    H211524   1.134   1.863  11.941  2.0872  0.4205  0.9848
  781MPD2    H311525   1.219   1.835  11.701 -3.8515  2.6311  0.4340
  781MPD2     N11526   1.198   1.399  11.705  0.5781 -0.3699 -0.0972
  781MPD2    H511527   1.242   1.407  11.614 -0.1763  1.6664 -0.2956
  781MPD2    N111528   1.076   1.652  12.105  0.1446  0.2848 -0.2793
  781MPD2    H711529   1.028   1.574  12.147 -0.6535 -0.2488 -2.2082
  782MPD2     C11530   3.549   2.196  10.385 -0.2531  0.1491 -0.5847
  782MPD2    C111531   3.691   2.185  10.376 -0.1798 -0.0033  0.0940
  782MPD2    C211532   3.761   2.305  10.381  0.3425  0.0481 -0.4834
  782MPD2    C311533   3.697   2.430  10.380 -0.2841  0.0632 -0.5232
  782MPD2    C411534   3.560   2.431  10.393  0.6036  0.8484  0.4088
  782MPD2    C511535   3.484   2.315  10.399 -0.4088  0.0913  0.4824
  782MPD2     H11536   3.869   2.309  10.380  0.3081  0.9340 -0.5182
  782MPD2    H111537   3.503   2.523  10.387 -1.0339 -0.2649 -0.9678
  782MPD2    H211538   3.497   2.101  10.376 -0.4075  0.3398 -1.7668
  782MPD2    H311539   3.377   2.327  10.411  0.0170  2.4259  2.0429
  782MPD2     N11540   3.789   2.538  10.384 -0.1385  0.4191  0.5359
  782MPD2    H511541   3.889   2.524  10.376 -0.1205  0.6097  0.4162
  782MPD2    N111542   3.754   2.056  10.379 -0.0499  0.5435 -0.2272
  782MPD2    H711543   3.688   1.982  10.399  0.0103  0.6488  0.3817
  783MPD2     C11544   3.653   1.559  11.059 -1.0869  0.5907 -0.3427
  783MPD2    C111545   3.662   1.697  11.049 -0.5433  0.0079  0.0820
  783MPD2    C211546   3.730   1.757  10.949 -0.1114  0.0339 -0.2016
  783MPD2    C311547   3.801   1.680  10.867 -0.3429  0.5640  0.1688
  783MPD2    C411548   3.801   1.541  10.879  0.3851 -0.4321 -0.3027
  783MPD2    C511549   3.724   1.482  10.975  0.3467  0.0419  0.5395
  783MPD2     H11550   3.734   1.864  10.932 -1.4299 -0.4776 -3.7140
  783MPD2    H111551   3.867   1.472  10.829 -0.2035  0.2371 -1.9978
  783MPD2    H211552   3.584   1.509  11.127  1.1205 -1.9912 -0.0074
  783MPD2    H311553   3.722   1.374  10.985 -1.2281 -0.1636 -1.9726
  783MPD2     N11554   3.874   1.747  10.771  0.0018 -0.2181  0.0501
  783MPD2    H511555   3.869   1.849  10.766  2.0993 -0.0183  2.4740
  783MPD2    N111556   3.588   1.763  11.141 -0.3608  0.1899 -0.3953
  783MPD2    H711557   3.534   1.707  11.206 -3.5273  1.2542 -2.1191
  784MPD2     C11558   0.609   2.946   1.991  0.4862 -0.4781  0.0737
  784MPD2    C111559   0.711   3.025   1.939  0.5421  0.2108 -0.2103
  784MPD2    C211560   0.672   3.141   1.883 -0.0413  0.6231  0.1538
  784MPD2    C311561   0.540   3.166   1.837 -0.1472 -0.5040  0.1375
  784MPD2    C411562   0.441   3.086   1.885  0.4741 -0.4187 -0.5661
  784MPD2    C511563   0.471   2.976   1.959 -0.4312 -0.8520 -0.5338
  784MPD2     H11564   0.747   3.211   1.847  0.1167  1.2493  1.7000
  784MPD2    H111565   0.337   3.103   1.858  0.4224  1.5073  0.7815
  784MPD2    H211566   0.622   2.850   2.040 -3.2391 -0.8072  0.3795
  784MPD2    H311567   0.393   2.905   1.983 -0.6333 -0.5585 -0.3264
  784MPD2     N11568   0.513   3.280   1.766  0.0348  0.0514  0.1488
  784MPD2    H511569   0.585   3.350   1.754  0.3197 -0.5470 -1.7411
  784MPD2    N111570   0.851   3.001   1.968 -0.0570 -0.4441 -0.5798
  784MPD2    H711571   0.898   3.089   1.951 -0.2767 -0.3329 -0.6154
  785MPD2     C11572   0.661   0.858  10.718 -0.4968  0.7529 -0.3583
  785MPD2    C111573   0.654   0.939  10.606 -0.0533 -0.1081 -0.3634
  785MPD2    C211574   0.708   0.886  10.493  0.5247 -0.4173  0.1741
  785MPD2    C311575   0.775   0.767  10.485 -0.6072 -0.5791  0.0986
  785MPD2    C411576   0.788   0.696  10.605 -0.4719  0.7627  0.1470
  785MPD2    C511577   0.733   0.743  10.719  0.0976 -0.6205  0.1562
  785MPD2     H11578   0.704   0.943  10.401 -0.6061 -0.0538  0.4505
  785MPD2    H111579   0.840   0.601  10.608  0.2352  1.0845 -1.6223
  785MPD2    H211580   0.598   0.881  10.803  0.8184  0.2270  0.7525
  785MPD2    H311581   0.756   0.686  10.808 -1.0379 -0.2623  0.6684
  785MPD2     N11582   0.829   0.720  10.360  0.9051 -0.0692  0.2631
  785MPD2    H511583   0.821   0.782  10.280 -1.4454  0.6175  1.0244
  785MPD2    N111584   0.587   1.060  10.591 -0.0065  0.1755 -0.7894
  785MPD2    H711585   0.595   1.107  10.501 -0.6510  2.2434  0.2453
  786MPD2     C11586   4.616   3.909  15.088  0.1489 -0.0542 -0.6711
  786MPD2    C111587   0.032   3.886  15.094  0.2465  0.1935  0.1820
  786MPD2    C211588   0.104   3.924  15.201  0.6253 -0.1424  0.8073
  786MPD2    C311589   0.047   4.005  15.301 -0.2320  0.1874 -0.0919
  786MPD2    C411590   4.633   4.039  15.285  0.5401  0.2171 -0.1127
  786MPD2    C511591   4.559   3.992  15.186 -0.5312  0.4544  0.6770
  786MPD2     H11592   0.206   3.888  15.209  1.3775  1.2084 -2.9317
  786MPD2    H111593   4.584   4.097  15.362  0.8779 -1.0542  1.0674
  786MPD2    H211594   4.552   3.869  15.009  1.8274 -1.2903 -1.4005
  786MPD2    H311595   4.453   4.016  15.183 -1.2563 -2.6615  1.2163
  786MPD2     N11596   0.123   4.059  15.411 -0.1096 -0.8366 -0.1457
  786MPD2    H511597   0.073   4.101  15.488 -0.5042 -1.9191  0.1778
  786MPD2    N111598   0.102   3.810  14.993  0.4268 -0.4667  0.7577
  786MPD2    H711599   0.196   3.777  15.011 -0.1759 -1.8269  1.4275
  787MPD2     C11600   0.530   3.476  15.222 -0.2876 -0.1192  0.5165
  787MPD2    C111601   0.528   3.428  15.094  0.5677  0.0765 -0.0615
  787MPD2    C211602   0.589   3.310  15.062 -0.2753  0.2557  0.3959
  787MPD2    C311603   0.656   3.244  15.162  0.6148  0.2318  0.1594
  787MPD2    C411604   0.660   3.291  15.296 -1.1969  0.4304 -0.5187
  787MPD2    C511605   0.594   3.404  15.322 -0.3499 -0.3982  0.1499
  787MPD2     H11606   0.588   3.272  14.961 -0.0542  0.2975  0.3793
  787MPD2    H111607   0.719   3.249  15.378  1.8243 -1.7861 -3.8325
  787MPD2    H211608   0.487   3.574  15.242 -3.2983 -1.7813  2.1133
  787MPD2    H311609   0.604   3.459  15.415 -2.2882  1.4594 -0.7182
  787MPD2     N11610   0.726   3.131  15.125 -0.5419 -0.2526 -0.2144
  787MPD2    H511611   0.708   3.090  15.034  3.6845 -2.6421  0.0373
  787MPD2    N111612   0.455   3.503  15.004 -0.2024 -0.8467 -0.3762
  787MPD2    H711613   0.396   3.579  15.037  0.7288 -0.5746  0.6783
  788MPD2     C11614   2.971   2.527   0.859 -0.5142 -0.2803 -0.0778
  788MPD2    C111615   2.848   2.474   0.869  0.4311 -0.8191 -0.2745
  788MPD2    C211616   2.771   2.472   0.752 -0.2918  0.4331  0.1856
  788MPD2    C311617   2.809   2.526   0.632  0.1426 -1.0072 -1.1987
  788MPD2    C411618   2.936   2.581   0.631 -0.1113 -0.2821 -0.4111
  788MPD2    C511619   3.013   2.580   0.744  0.0545  0.1093  0.0614
  788MPD2     H11620   2.680   2.414   0.751 -0.0533  0.1109 -2.2790
  788MPD2    H111621   2.979   2.629   0.543  1.2598  2.0363  1.5368
  788MPD2    H211622   3.035   2.533   0.946 -1.0891 -2.6011  0.5129
  788MPD2    H311623   3.111   2.625   0.736 -0.5744  1.5802  0.6262
  788MPD2     N11624   2.731   2.531   0.517  0.1249  0.3165  0.2802
  788MPD2    H511625   2.773   2.552   0.427 -0.6421 -2.1245 -0.6526
  788MPD2    N111626   2.803   2.419   0.990  0.0591  0.2988  0.1939
  788MPD2    H711627   2.862   2.410   1.073  0.2373 -1.6151 -0.1472
  789MPD2     C11628   2.361   1.742  16.833  0.8745 -0.4389 -0.5234
  789MPD2    C111629   2.352   1.774  16.966 -0.2834  0.0887  0.7574
  789MPD2    C211630   2.323   1.906  17.005 -0.2801  0.4657 -0.1497
  789MPD2    C311631   2.285   1.998  16.914 -0.2185  0.2346 -0.4356
  789MPD2    C411632   2.291   1.970  16.778 -0.9034  0.0472  0.5672
  789MPD2    C511633   2.333   1.844  16.738  0.2078 -0.3370  0.5386
  789MPD2     H11634   2.320   1.921  17.112  0.2228  1.1785 -0.2318
  789MPD2    H111635   2.285   2.045  16.700 -0.2594 -0.6799 -0.1886
  789MPD2    H211636   2.392   1.644  16.796 -0.5904 -1.3220  0.5983
  789MPD2    H311637   2.358   1.824  16.635  0.7263 -0.9688  0.7852
  789MPD2     N11638   2.243   2.127  16.949 -0.3852  0.1448  0.2525
  789MPD2    H511639   2.180   2.161  16.877  0.2279 -1.9870 -1.3120
  789MPD2    N111640   2.364   1.679  17.071  0.2331  0.3286  0.0108
  789MPD2    H711641   2.362   1.704  17.169 -2.0144 -0.1688  0.1031
  790MPD2     C11642   3.489   3.451  14.098  0.3823  0.4178 -0.0090
  790MPD2    C111643   3.490   3.324  14.057 -0.0768 -0.5581  0.1128
  790MPD2    C211644   3.465   3.298  13.920  0.7561  0.7264  0.2150
  790MPD2    C311645   3.453   3.401  13.833  0.4706  0.3517  0.4606
  790MPD2    C411646   3.455   3.531  13.876 -0.1196  0.3816  0.3652
  790MPD2    C511647   3.475   3.557  14.008 -0.0669 -0.3292 -0.1682
  790MPD2     H11648   3.452   3.194  13.892  0.4874  0.3537  1.7114
  790MPD2    H111649   3.449   3.613  13.804 -1.7514  0.6536  0.8195
  790MPD2    H211650   3.501   3.473  14.204  0.4269 -1.4839  0.3838
  790MPD2    H311651   3.485   3.658  14.046 -1.7773  0.1853 -1.0914
  790MPD2     N11652   3.438   3.367  13.700 -0.1743  0.3054 -0.7653
  790MPD2    H511653   3.465   3.274  13.668  1.9438  0.0091  1.9419
  790MPD2    N111654   3.505   3.230  14.153  0.7919  0.7139 -0.4469
  790MPD2    H711655   3.543   3.259  14.243 -0.9463  1.6371 -0.0091
  791MPD2     C11656   2.849   3.484  13.192 -0.2570  0.1461 -0.0252
  791MPD2    C111657   2.922   3.373  13.173  0.4212  0.4934  0.3758
  791MPD2    C211658   2.869   3.270  13.102  0.2829  0.8382 -0.2687
  791MPD2    C311659   2.748   3.296  13.030 -1.0371 -0.0347 -0.1394
  791MPD2    C411660   2.671   3.413  13.056 -0.6265  0.5236  0.6025
  791MPD2    C511661   2.729   3.509  13.132  0.3642 -0.1471 -0.4614
  791MPD2     H11662   2.921   3.178  13.078  0.7340  1.0683 -0.1765
  791MPD2    H111663   2.575   3.426  13.007 -0.9694 -2.0665  0.5769
  791MPD2    H211664   2.879   3.569  13.252  1.0200 -1.7463  2.0199
  791MPD2    H311665   2.674   3.596  13.166  1.9445  0.7711 -0.2217
  791MPD2     N11666   2.710   3.198  12.936  0.2563  1.0033 -0.2953
  791MPD2    H511667   2.765   3.112  12.934  1.2869  1.6000  1.7701
  791MPD2    N111668   3.048   3.365  13.237 -0.1390  0.1150  0.8742
  791MPD2    H711669   3.080   3.437  13.301 -0.9170  1.6476 -0.4726
  792MPD2     C11670   3.973   3.073  11.209  0.5873 -0.5166 -0.0322
  792MPD2    C111671   3.854   3.139  11.180 -0.0093  0.3624  0.1242
  792MPD2    C211672   3.737   3.066  11.153  0.1298 -0.3435 -0.4740
  792MPD2    C311673   3.752   2.928  11.145  0.1097  0.4937  0.4353
  792MPD2    C411674   3.870   2.863  11.164 -0.0216 -0.7748  0.2455
  792MPD2    C511675   3.985   2.933  11.196  0.1053  0.9221 -0.4517
  792MPD2     H11676   3.644   3.112  11.124 -0.7063 -0.7999  1.4737
  792MPD2    H111677   3.873   2.755  11.158  0.8680 -0.8361  1.8149
  792MPD2    H211678   4.068   3.114  11.243  0.8219 -0.4389 -0.7850
  792MPD2    H311679   4.080   2.893  11.229  0.4527  1.3932 -0.8872
  792MPD2     N11680   3.652   2.832  11.104  0.5123 -0.1723  0.6755
  792MPD2    H511681   3.683   2.736  11.092  1.1694 -0.2455  2.9742
  792MPD2    N111682   3.855   3.281  11.184  0.2898 -0.2732  0.7702
  792MPD2    H711683   3.943   3.320  11.214 -0.5798  0.1939  2.6670
  793MPD2     C11684   2.917   2.795  10.517 -0.7652  0.9232 -0.5270
  793MPD2    C111685   3.034   2.865  10.548  0.2778 -0.3264 -0.1328
  793MPD2    C211686   3.082   2.861  10.679 -0.4093  0.0208 -0.5576
  793MPD2    C311687   3.023   2.782  10.767 -0.5983  0.5218  0.4494
  793MPD2    C411688   2.899   2.717  10.741  0.1764 -0.2464  0.5865
  793MPD2    C511689   2.851   2.720  10.617  0.8013 -0.3355 -0.7854
  793MPD2     H11690   3.165   2.925  10.707  0.0545 -0.5153 -0.7128
  793MPD2    H111691   2.864   2.640  10.809  1.2512 -0.2695  1.1243
  793MPD2    H211692   2.885   2.790  10.414 -1.0230 -2.7013 -0.2574
  793MPD2    H311693   2.764   2.663  10.587  0.3023 -0.2373  0.4469
  793MPD2     N11694   3.092   2.765  10.890 -0.3329  0.5156  0.3703
  793MPD2    H511695   3.171   2.827  10.907 -0.8501  1.4381 -0.6310
  793MPD2    N111696   3.119   2.937  10.459 -0.4807  0.2013 -0.0442
  793MPD2    H711697   3.202   2.968  10.510 -1.8283  2.7939  0.5771
  794MPD2     C11698   3.190   3.181   0.047 -0.4337 -0.4174  0.6619
  794MPD2    C111699   3.200   3.055  17.676  0.1937 -0.0936  0.1104
  794MPD2    C211700   3.131   3.028  17.565  1.6473 -0.3985 -0.0603
  794MPD2    C311701   3.061   3.132  17.497 -0.1511  0.3449  0.4289
  794MPD2    C411702   3.068   3.258  17.548 -0.5574  0.1781 -0.0820
  794MPD2    C511703   3.133   3.286  17.666 -0.3466  0.0084 -0.6375
  794MPD2     H11704   3.120   2.927  17.528 -3.3414  1.0184 -2.5172
  794MPD2    H111705   3.028   3.347  17.500 -1.5365 -0.5535 -0.6126
  794MPD2    H211706   3.242   3.211   0.137 -1.2719 -0.4929  1.1682
  794MPD2    H311707   3.124   3.385   0.021  0.6010  0.0120 -0.4554
  794MPD2     N11708   2.988   3.113  17.381 -0.4155 -0.2169 -0.0850
  794MPD2    H511709   2.960   3.190  17.321  0.2705  0.8059  0.9185
  794MPD2    N111710   3.262   2.945   0.050 -0.3938  0.2351 -0.5504
  794MPD2    H711711   3.257   2.857  17.687 -0.2510 -0.8860  1.3734
  795MPD2     C11712   1.059   0.086  13.092 -0.3305  0.0496 -0.3742
  795MPD2    C111713   1.054   0.024  13.214 -0.0319  0.8790  0.0305
  795MPD2    C211714   1.156   4.667  13.258 -0.5918 -0.2521 -0.2720
  795MPD2    C311715   1.279   4.651  13.189  0.6098  0.1623 -0.4235
  795MPD2    C411716   1.284   4.709  13.073  0.4491 -0.3819 -0.6577
  795MPD2    C511717   1.183   0.071  13.029 -0.2848  0.1384 -0.6341
  795MPD2     H11718   1.143   4.614  13.351 -0.2728 -0.8243 -0.5513
  795MPD2    H111719   1.368   4.695  13.006  0.6121 -0.7608 -0.3760
  795MPD2    H211720   0.978   0.149  13.057 -2.0856 -1.4194  1.0735
  795MPD2    H311721   1.190   0.116  12.931  1.5241  0.9391 -0.1444
  795MPD2     N11722   1.385   4.578  13.248  0.1580 -0.0845 -0.9720
  795MPD2    H511723   1.356   4.526  13.330 -0.1454  0.0414 -1.0002
  795MPD2    N111724   0.951   0.051  13.312  0.0957  0.1006 -0.2095
  795MPD2    H711725   0.956   4.720  13.398  1.1058 -0.9284 -0.8869
  796MPD2     C11726   0.674   2.053  16.200  0.1389 -0.1375 -0.5563
  796MPD2    C111727   0.640   2.111  16.321 -0.3432 -0.2490  0.0177
  796MPD2    C211728   0.579   2.238  16.309 -0.1101 -0.6307 -0.3655
  796MPD2    C311729   0.547   2.287  16.187  0.3084  0.8790  0.1348
  796MPD2    C411730   0.594   2.243  16.075  0.4249  0.2987  0.5007
  796MPD2    C511731   0.652   2.120  16.084  0.1548  0.0194  0.7060
  796MPD2     H11732   0.553   2.293  16.398 -0.7280 -0.5447 -0.6000
  796MPD2    H111733   0.574   2.284  15.977 -1.9751 -2.2615 -0.0912
  796MPD2    H211734   0.728   1.959  16.198 -1.4288 -1.0464 -0.8064
  796MPD2    H311735   0.673   2.070  15.991 -0.4953 -0.3858  0.7812
  796MPD2     N11736   0.460   2.401  16.190 -0.0294 -0.5143  0.3227
  796MPD2    H511737   0.423   2.439  16.276  0.1434 -1.1956  0.7043
  796MPD2    N111738   0.669   2.044  16.443  0.7308  0.1185 -0.0436
  796MPD2    H711739   0.699   1.947  16.442  0.8144  0.1620 -1.7641
  797MPD2     C11740   1.232   1.272   0.221 -0.5526  0.0147  0.7332
  797MPD2    C111741   1.246   1.380   0.306  0.6491 -0.1994 -0.3211
  797MPD2    C211742   1.178   1.496   0.282 -0.3274  0.4777  0.7220
  797MPD2    C311743   1.091   1.505   0.168  0.5416  0.3846 -0.0598
  797MPD2    C411744   1.081   1.392   0.088  0.4672 -0.5151 -0.6417
  797MPD2    C511745   1.158   1.283   0.114  0.5824 -0.4431 -0.9843
  797MPD2     H11746   1.185   1.577   0.353  1.0900  1.0269 -0.0408
  797MPD2    H111747   1.021   1.400  17.685  0.1147 -1.9813 -0.5311
  797MPD2    H211748   1.284   1.177   0.221 -1.4175 -0.4627  0.0242
  797MPD2    H311749   1.154   1.202   0.042 -0.4876  0.9542 -2.4767
  797MPD2     N11750   1.026   1.625   0.136  1.0661 -0.4592  0.4239
  797MPD2    H511751   0.968   1.627   0.052  1.5778  0.9949  0.1153
  797MPD2    N111752   1.320   1.386   0.416 -0.6717 -0.6855 -0.2387
  797MPD2    H711753   1.309   1.468   0.475  2.5525 -0.6072  0.2959
  798MPD2     C11754   1.393   2.118   0.512 -0.6396  0.7385  0.7306
  798MPD2    C111755   1.324   2.004   0.470 -0.9316  0.1413  0.6751
  798MPD2    C211756   1.357   1.878   0.504  0.9178 -1.1198  0.3768
  798MPD2    C311757   1.459   1.854   0.584  0.0250 -0.1198 -0.3339
  798MPD2    C411758   1.537   1.959   0.630  0.5920  1.1703  0.7334
  798MPD2    C511759   1.505   2.092   0.586 -0.2587  0.0905 -0.4091
  798MPD2     H11760   1.298   1.794   0.467  2.2138 -1.6281 -0.5283
  798MPD2    H111761   1.627   1.946   0.689 -0.2951 -0.6398  1.6797
  798MPD2    H211762   1.377   2.221   0.482 -1.6123  0.0259 -1.2087
  798MPD2    H311763   1.569   2.175   0.614 -0.7364  0.1077  0.6332
  798MPD2     N11764   1.472   1.720   0.629  0.2357 -0.6143  0.6186
  798MPD2    H511765   1.409   1.653   0.587 -1.2078  0.6693  0.7088
  798MPD2    N111766   1.223   2.006   0.374  0.4246  0.7870 -0.0794
  798MPD2    H711767   1.164   1.924   0.364 -0.4103  1.2914  0.6603
  799MPD2     C11768   0.285   2.429  14.902 -0.0287 -0.1921  0.5680
  799MPD2    C111769   0.286   2.414  14.771  1.0462 -0.6649 -0.3729
  799MPD2    C211770   0.183   2.469  14.697 -0.0760  0.1269 -0.3343
  799MPD2    C311771   0.078   2.533  14.766 -0.1584  0.6512 -0.5357
  799MPD2    C411772   0.079   2.544  14.904  0.8289 -0.3657  0.5753
  799MPD2    C511773   0.182   2.491  14.967  0.6053  0.4008  0.0269
  799MPD2     H11774   0.180   2.454  14.589 -0.7053 -0.8655 -0.1798
  799MPD2    H111775   4.721   2.590  14.962  0.2885 -0.1635 -0.3205
  799MPD2    H211776   0.355   2.375  14.964  0.3558 -0.4904 -0.1253
  799MPD2    H311777   0.180   2.496  15.075 -0.9709 -1.8423  0.1111
  799MPD2     N11778   4.696   2.596  14.694 -0.4497  0.1494 -0.5991
  799MPD2    H511779   4.626   2.650  14.744 -3.6870 -1.4951 -3.3221
  799MPD2    N111780   0.391   2.338  14.711  0.4020 -0.2622  0.6360
  799MPD2    H711781   0.394   2.333  14.610  4.5115  1.1715  0.6974
  800MPD2     C11782   0.781   4.090  14.299  0.7392 -0.8550  0.4730
  800MPD2    C111783   0.911   4.076  14.273 -1.1175 -0.4223 -0.0514
  800MPD2    C211784   0.949   3.979  14.176 -0.6319  0.9861 -0.0728
  800MPD2    C311785   0.846   3.911  14.108  0.8863  0.6411  0.2799
  800MPD2    C411786   0.712   3.925  14.147  0.8022  1.0324 -0.6766
  800MPD2    C511787   0.679   4.015  14.242  0.4223  0.1782 -0.0932
  800MPD2     H11788   1.051   3.962  14.144 -0.3806  1.7227  0.3261
  800MPD2    H111789   0.629   3.880  14.093  0.3853  1.3202 -0.2746
  800MPD2    H211790   0.755   4.169  14.368 -0.5495 -1.8817  1.1579
  800MPD2    H311791   0.571   4.019  14.251  0.5617 -1.2718  2.3552
  800MPD2     N11792   0.886   3.835  13.995  0.1233  0.0226 -0.1838
  800MPD2    H511793   0.986   3.825  13.979  0.2653 -1.5466  1.7441
  800MPD2    N111794   1.008   4.149  14.347 -0.1682 -0.1863 -0.1656
  800MPD2    H711795   0.977   4.198  14.430  0.1542 -0.1601 -0.0610
  801MPD2     C11796   0.897   0.070  14.532 -0.4961 -0.1102  0.4648
  801MPD2    C111797   0.869   4.660  14.570  0.8790  0.1187  0.4429
  801MPD2    C211798   0.733   4.639  14.606 -0.0601  1.3046  0.0864
  801MPD2    C311799   0.641   0.020  14.615  0.0063  0.2482 -0.0180
  801MPD2    C411800   0.672   0.147  14.576 -0.0661 -0.1263  0.0278
  801MPD2    C511801   0.797   0.163  14.528  0.5299 -0.0405 -0.5668
  801MPD2     H11802   0.717   4.540  14.647  2.0797  1.3552  1.0767
  801MPD2    H111803   0.595   0.224  14.582 -0.0326 -0.1321  0.5137
  801MPD2    H211804   0.996   0.098  14.501 -1.2535 -0.1622 -2.0007
  801MPD2    H311805   0.833   0.264  14.507 -1.2297  0.8278  0.6553
  801MPD2     N11806   0.519   4.717  14.671 -0.0809  0.6607  0.3792
  801MPD2    H511807   0.455   0.073  14.685 -1.9924 -0.5939 -1.3053
  801MPD2    N111808   0.960   4.556  14.565  0.3829  0.2743  0.2333
  801MPD2    H711809   0.925   4.461  14.579 -1.8201  0.7919 -1.9083
  802MPD2     C11810   0.699   0.469   0.629  0.5124 -0.3641 -1.0552
  802MPD2    C111811   0.577   0.500   0.581 -0.8118  0.0995 -0.8606
  802MPD2    C211812   0.526   0.430   0.472 -0.5561  0.0882  0.5268
  802MPD2    C311813   0.593   0.327   0.406 -0.1117 -0.0426  0.2757
  802MPD2    C411814   0.720   0.295   0.463  0.6177 -0.4099  0.3911
  802MPD2    C511815   0.772   0.373   0.557 -0.1741 -0.6297 -0.0245
  802MPD2     H11816   0.426   0.446   0.434  0.2838 -1.1275 -2.1528
  802MPD2    H111817   0.780   0.213   0.424  0.2247  0.2454 -1.6080
  802MPD2    H211818   0.751   0.534   0.698  0.1247 -0.6975 -0.4494
  802MPD2    H311819   0.871   0.346   0.590 -0.8761 -2.3673  0.6717
  802MPD2     N11820   0.535   0.269   0.295  0.3409  0.1823 -0.2932
  802MPD2    H511821   0.452   0.314   0.260 -0.2957 -0.7791 -0.0151
  802MPD2    N111822   0.482   0.594   0.641 -0.5648 -0.2236  0.4560
  802MPD2    H711823   0.396   0.619   0.593 -1.0842 -2.1675  0.3746
  803MPD2     C11824   1.745   3.156  11.395  0.2164 -0.6863  0.4036
  803MPD2    C111825   1.859   3.150  11.472 -0.4484 -0.8224 -0.0196
  803MPD2    C211826   1.850   3.084  11.589  0.7728 -0.1917  0.1683
  803MPD2    C311827   1.732   3.036  11.642  1.0680  0.1942 -0.2480
  803MPD2    C411828   1.616   3.055  11.568  0.0782  0.2117 -0.6701
  803MPD2    C511829   1.625   3.115  11.445 -0.3964 -0.0221  0.5907
  803MPD2     H11830   1.943   3.072  11.643 -0.4069 -1.9695  1.7879
  803MPD2    H111831   1.524   3.015  11.608 -0.4013  0.5674 -1.4188
  803MPD2    H211832   1.753   3.201  11.296  4.1942 -1.1752  0.5006
  803MPD2    H311833   1.533   3.129  11.389 -0.8426 -3.1096  0.5676
  803MPD2     N11834   1.732   2.968  11.765 -0.1436  0.3958  0.0482
  803MPD2    H511835   1.638   2.949  11.800 -0.1347 -0.8560 -0.6159
  803MPD2    N111836   1.982   3.209  11.430 -0.2407  0.6381  0.1158
  803MPD2    H711837   2.060   3.201  11.493 -0.3735 -1.3432  0.0088
  804MPD2     C11838   0.762   0.160  17.325  0.3061 -0.7375 -0.1776
  804MPD2    C111839   0.835   0.121  17.432  0.5564  0.0274  0.2447
  804MPD2    C211840   0.881   0.218  17.523  0.0043 -0.1793 -0.0317
  804MPD2    C311841   0.870   0.359  17.486 -0.9880 -0.1616  0.0013
  804MPD2    C411842   0.784   0.387  17.379 -0.9053 -0.4927 -0.8495
  804MPD2    C511843   0.725   0.287  17.307 -0.1081  0.5314  0.0000
  804MPD2     H11844   0.932   0.181  17.612  4.4966 -1.2175 -3.0099
  804MPD2    H111845   0.755   0.487  17.350  1.6869  1.5881  3.7159
  804MPD2    H211846   0.702   0.088  17.270 -0.2990 -1.5978  1.6154
  804MPD2    H311847   0.662   0.314  17.223 -3.1391 -1.0952  1.7546
  804MPD2     N11848   0.924   0.467  17.553  0.0062  0.7629  0.4371
  804MPD2    H511849   0.906   0.556  17.508 -0.0174  0.2963 -0.4735
  804MPD2    N111850   0.841   4.707  17.479  0.6136  0.2686  0.1356
  804MPD2    H711851   0.864   4.694  17.577 -0.4599  0.2888  0.3867
  805MPD2     C11852   4.596   3.108  15.537  0.6457  0.1481  0.1826
  805MPD2    C111853   4.704   3.128  15.452  0.5070 -0.1175 -0.1746
  805MPD2    C211854   0.113   3.115  15.500  0.0350 -0.0852  0.6525
  805MPD2    C311855   0.137   3.104  15.640  0.1325 -0.3287  0.6362
  805MPD2    C411856   0.026   3.093  15.719 -0.2822 -0.4775  0.1932
  805MPD2    C511857   4.619   3.086  15.670  0.6855  0.5171 -0.1428
  805MPD2     H11858   0.194   3.129  15.429 -0.8240 -0.0971 -0.3367
  805MPD2    H111859   0.058   3.089  15.822  0.7844  0.8757 -0.0811
  805MPD2    H211860   4.494   3.106  15.501 -0.4564 -1.7864  3.4674
  805MPD2    H311861   4.542   3.086  15.746  0.4610 -1.1416 -0.3603
  805MPD2     N11862   0.268   3.094  15.691 -0.1888 -0.3753  0.2243
  805MPD2    H511863   0.346   3.119  15.632 -0.4264 -0.4916 -0.1347
  805MPD2    N111864   4.686   3.129  15.314  0.5754 -0.1209 -0.5075
  805MPD2    H711865   0.049   3.112  15.260  1.0118  0.0227  0.1286
  806MPD2     C11866   0.528   2.592   0.918  0.2909 -0.4778 -0.0525
  806MPD2    C111867   0.536   2.730   0.933  0.1384  0.7057  0.1531
  806MPD2    C211868   0.565   2.801   0.814 -0.1215  0.3587 -0.4439
  806MPD2    C311869   0.605   2.744   0.695 -0.1737  0.3954  0.1387
  806MPD2    C411870   0.609   2.611   0.693  0.8838 -0.6197 -0.0169
  806MPD2    C511871   0.566   2.536   0.796  0.1776  0.1571  0.5789
  806MPD2     H11872   0.560   2.910   0.812 -1.3895  0.2705 -2.0221
  806MPD2    H111873   0.634   2.550   0.607 -2.2049 -2.3158  0.2984
  806MPD2    H211874   0.505   2.522   0.998  0.5761 -0.5738 -0.0534
  806MPD2    H311875   0.573   2.430   0.776 -0.7709  0.1401  0.3116
  806MPD2     N11876   0.643   2.818   0.587 -0.2983 -0.0441  0.1233
  806MPD2    H511877   0.626   2.917   0.603 -2.2620 -0.0926 -1.6578
  806MPD2    N111878   0.512   2.782   1.060  0.1274 -0.4658 -0.2336
  806MPD2    H711879   0.490   2.716   1.135  1.7835 -1.9306 -1.0450
  807MPD2     C11880   0.142   2.731   1.696 -0.5551  0.5881  0.1772
  807MPD2    C111881   0.155   2.870   1.691  0.4443  0.0770 -0.1717
  807MPD2    C211882   0.065   2.946   1.762 -0.3604  0.3873  0.1797
  807MPD2    C311883   4.683   2.888   1.831  0.7482  0.4477  0.1748
  807MPD2    C411884   4.673   2.750   1.838  0.0793  0.3488 -0.5699
  807MPD2    C511885   0.044   2.680   1.772 -0.3008  0.7767  0.1366
  807MPD2     H11886   0.067   3.054   1.752 -0.0406  0.1746 -2.0478
  807MPD2    H111887   4.589   2.694   1.878  0.6544 -0.2766 -0.2373
  807MPD2    H211888   0.211   2.663   1.648 -0.4862  0.4029  0.5379
  807MPD2    H311889   0.044   2.572   1.766  0.7258  0.7734  0.1797
  807MPD2     N11890   4.594   2.972   1.907  0.1014  0.0660 -0.1973
  807MPD2    H511891   4.619   3.071   1.911 -1.0923  0.3571  0.1550
  807MPD2    N111892   0.253   2.929   1.607 -0.4177  0.3367 -0.2313
  807MPD2    H711893   0.259   3.030   1.602 -1.1158  0.4377  1.1327
  808MPD2     C11894   1.275   3.456  10.044 -0.2221  0.1723 -0.5464
  808MPD2    C111895   1.148   3.500  10.030 -0.3046 -0.0372  0.3301
  808MPD2    C211896   1.127   3.607   9.948 -1.2964 -0.6008  0.0322
  808MPD2    C311897   1.227   3.665   9.871 -0.2433  0.0610  0.3276
  808MPD2    C411898   1.353   3.616   9.885  0.1536  0.3361 -0.1757
  808MPD2    C511899   1.371   3.517   9.976  0.6091  0.5653 -0.1660
  808MPD2     H11900   1.023   3.636   9.937 -0.2660  2.2960 -2.2791
  808MPD2    H111901   1.440   3.659   9.837  1.2502 -1.0601  0.5412
  808MPD2    H211902   1.295   3.372  10.110 -1.5162 -0.6908 -1.2489
  808MPD2    H311903   1.468   3.482  10.009  1.1375  2.2107  0.0327
  808MPD2     N11904   1.210   3.779   9.788 -0.9520 -0.0371  0.5372
  808MPD2    H511905   1.295   3.800   9.739 -0.3821 -2.5667  0.4362
  808MPD2    N111906   1.033   3.448  10.098 -0.1211 -0.3338  0.4883
  808MPD2    H711907   0.942   3.486  10.074  1.2038 -0.2977 -4.4897
  809MPD2     C11908   1.342   3.978   8.850  0.2963 -0.6107 -0.0339
  809MPD2    C111909   1.427   3.945   8.950 -0.0515 -0.3328  0.3365
  809MPD2    C211910   1.393   3.966   9.084  0.5158  0.2046  0.1513
  809MPD2    C311911   1.263   4.016   9.112  0.2905 -0.2506  0.2632
  809MPD2    C411912   1.179   4.050   9.004  0.5379 -0.7395 -0.0737
  809MPD2    C511913   1.223   4.031   8.876  0.1642 -0.1781 -0.0170
  809MPD2     H11914   1.457   3.948   9.170 -1.3348  1.6217  1.8298
  809MPD2    H111915   1.077   4.085   9.011  0.9867  0.9641 -2.2573
  809MPD2    H211916   1.386   3.973   8.751  1.8384  1.0680  0.5778
  809MPD2    H311917   1.155   4.051   8.794 -0.3944  2.8932  1.1945
  809MPD2     N11918   1.220   4.040   9.251 -0.1540 -0.7422 -0.4379
  809MPD2    H511919   1.129   4.084   9.257 -0.6052 -1.6153 -0.9661
  809MPD2    N111920   1.551   3.882   8.927  0.5034 -0.1915  0.2613
  809MPD2    H711921   1.619   3.880   9.003 -0.2603  1.0137  0.9663
  810MPD2     C11922   0.660   3.727  10.700  0.0364  0.0638  0.0435
  810MPD2    C111923   0.541   3.736  10.632  0.1597  0.6350 -0.2592
  810MPD2    C211924   0.480   3.861  10.614 -0.5392 -0.6565  0.6143
  810MPD2    C311925   0.545   3.977  10.658  0.1664  0.9447 -0.6172
  810MPD2    C411926   0.665   3.973  10.728  0.7974 -0.0846  0.6510
  810MPD2    C511927   0.718   3.843  10.750  0.8900 -0.1215 -0.6431
  810MPD2     H11928   0.382   3.865  10.568 -0.7064 -0.8506  0.9584
  810MPD2    H111929   0.717   4.057  10.773 -1.0050  0.0395  2.5083
  810MPD2    H211930   0.703   3.629  10.718 -0.3353 -0.0069  0.5456
  810MPD2    H311931   0.806   3.833  10.813  1.1352  2.2544 -0.5891
  810MPD2     N11932   0.487   4.108  10.642  0.2808  0.2166 -0.1912
  810MPD2    H511933   0.544   4.186  10.674  2.4987 -0.9472 -1.3405
  810MPD2    N111934   0.476   3.617  10.587  0.3408 -0.6530  0.2831
  810MPD2    H711935   0.391   3.624  10.533  0.4329  1.0201  0.3676
  811MPD2     C11936   4.657   3.353  10.000  0.0283 -0.4797  0.2505
  811MPD2    C111937   0.016   3.437  10.074  0.0130 -0.2965  0.8485
  811MPD2    C211938   0.006   3.572  10.063  0.3916  0.7621 -0.3454
  811MPD2    C311939   4.638   3.633   9.976 -0.2174 -0.9351  0.7725
  811MPD2    C411940   4.552   3.550   9.902 -0.6195 -0.4749  1.1613
  811MPD2    C511941   4.564   3.412   9.914  0.1559 -0.8325 -0.2482
  811MPD2     H11942   0.082   3.643  10.095  2.4474 -2.1163  1.1421
  811MPD2    H111943   4.496   3.582   9.815  0.8490  4.2741  1.9645
  811MPD2    H211944   4.653   3.246  10.013  1.1446 -0.4431  0.8531
  811MPD2    H311945   4.492   3.353   9.858 -1.7794  1.5193 -0.2630
  811MPD2     N11946   4.630   3.772   9.964  0.2170 -0.4501  0.1186
  811MPD2    H511947   4.709   3.820  10.007 -1.4696  1.2263  1.3345
  811MPD2    N111948   0.108   3.382  10.167  0.0609  0.0047 -0.3020
  811MPD2    H711949   0.123   3.281  10.163 -3.5533 -0.5397 -0.2289
  812MPD2     C11950   4.572   3.304  12.458  0.1900  0.5310 -0.1720
  812MPD2    C111951   4.455   3.320  12.535 -0.3319  0.1290  0.3135
  812MPD2    C211952   4.424   3.223  12.635 -0.3606 -0.5290  0.4379
  812MPD2    C311953   4.501   3.111  12.657 -0.0988  0.4685  0.3361
  812MPD2    C411954   4.612   3.099  12.578 -0.3146 -0.0299 -0.1531
  812MPD2    C511955   4.649   3.195  12.485  0.3092 -0.8278  0.0974
  812MPD2     H11956   4.340   3.241  12.702 -1.1315 -0.1836 -0.6296
  812MPD2    H111957   4.678   3.014  12.592  2.1259  1.9092  0.0289
  812MPD2    H211958   4.601   3.376  12.382  4.2112 -0.7391  0.1977
  812MPD2    H311959   0.016   3.179  12.424  0.3265 -0.0779 -0.0748
  812MPD2     N11960   4.455   3.024  12.763  0.0718 -0.7144  0.2025
  812MPD2    H511961   4.384   3.059  12.826 -3.0557  0.3886 -3.8976
  812MPD2    N111962   4.380   3.434  12.510  0.2112 -0.0138  0.2572
  812MPD2    H711963   4.423   3.500  12.446 -3.4892  2.6007  0.4047
  813MPD2     C11964   3.708   0.387  13.195 -0.3534 -0.5129  0.7349
  813MPD2    C111965   3.721   0.514  13.249 -0.4163 -0.2943 -0.0672
  813MPD2    C211966   3.621   0.574  13.329 -0.3101  0.2655 -0.0445
  813MPD2    C311967   3.511   0.494  13.356  0.3578  1.2027 -0.8686
  813MPD2    C411968   3.493   0.369  13.301  0.6792 -0.6376 -0.3469
  813MPD2    C511969   3.593   0.317  13.223 -0.5388  0.1727 -0.8847
  813MPD2     H11970   3.628   0.677  13.364  0.1945 -0.4212  1.9161
  813MPD2    H111971   3.406   0.305  13.305  0.1144  0.2646  1.8946
  813MPD2    H211972   3.792   0.348  13.139 -0.9537 -0.8514  0.0726
  813MPD2    H311973   3.566   0.231  13.161  2.1040 -0.2663 -1.4319
  813MPD2     N11974   3.410   0.553  13.434  0.4142 -1.1255 -0.8165
  813MPD2    H511975   3.427   0.648  13.466 -0.5075 -1.6019  1.1183
  813MPD2    N111976   3.852   0.577  13.236 -0.6682  0.5228 -0.9237
  813MPD2    H711977   3.935   0.520  13.225  1.4160  2.5697  3.9691
  814MPD2     C11978   3.802   1.889  12.498  0.0677  0.3519  0.8260
  814MPD2    C111979   3.850   1.941  12.378 -0.7835 -0.1692  0.4761
  814MPD2    C211980   3.951   2.040  12.381  0.7109 -0.3597 -0.4464
  814MPD2    C311981   4.004   2.087  12.500 -0.3521 -0.2231  0.2848
  814MPD2    C411982   3.946   2.034  12.620  0.5391  0.5651  0.3875
  814MPD2    C511983   3.850   1.937  12.614  0.1469 -0.1197 -0.1355
  814MPD2     H11984   3.987   2.075  12.285  0.2972  1.6445  0.1333
  814MPD2    H111985   3.978   2.060  12.720 -0.8826  0.1092  0.9695
  814MPD2    H211986   3.732   1.808  12.517 -0.7051  1.3202  2.1118
  814MPD2    H311987   3.808   1.914  12.711  0.6378 -2.2269 -0.4088
  814MPD2     N11988   4.114   2.177  12.505  0.7774  0.1129  0.2477
  814MPD2    H511989   4.137   2.209  12.599  0.3221  2.6516 -0.5210
  814MPD2    N111990   3.801   1.901  12.254 -0.4847 -0.6426  0.5603
  814MPD2    H711991   3.829   1.940  12.164 -1.0630  0.7133  0.9608
  815MPD2     C11992   4.146   4.348  12.524 -0.1772 -0.3516 -0.4837
  815MPD2    C111993   4.100   4.399  12.413  0.4183  0.8571 -0.2013
  815MPD2    C211994   3.965   4.376  12.385 -0.0794  0.0495 -0.1975
  815MPD2    C311995   3.888   4.296  12.465 -0.3555  0.7826  0.3350
  815MPD2    C411996   3.943   4.238  12.577  0.2645  0.4093 -0.0309
  815MPD2    C511997   4.073   4.270  12.605 -0.5114  0.2228 -0.3327
  815MPD2     H11998   3.922   4.429  12.301  0.3015  3.6491  1.8473
  815MPD2    H111999   3.893   4.171  12.645  0.2086 -0.7863 -1.2546
  815MPD2    H212000   4.249   4.376  12.545  0.1105 -1.4410 -0.4252
  815MPD2    H312001   4.113   4.223  12.694  2.3733  1.2045 -1.1063
  815MPD2     N12002   3.751   4.280  12.441  0.2579 -0.0783 -0.1235
  815MPD2    H512003   3.708   4.348  12.380 -1.3608 -0.3703  0.6994
  815MPD2    N112004   4.196   4.485  12.335  0.4513 -0.6741 -0.6881
  815MPD2    H712005   4.291   4.485  12.369  0.1327 -3.6761  0.2033
  816MPD2     C12006   3.964   4.014  17.586  0.2545  0.3829 -0.0711
  816MPD2    C112007   4.054   4.111  17.615 -0.2203 -0.3640 -0.3171
  816MPD2    C212008   4.187   4.094  17.584 -0.9168  0.4267 -0.7118
  816MPD2    C312009   4.222   3.993  17.494 -0.0505  0.0587  0.2343
  816MPD2    C412010   4.134   3.893  17.459 -0.8327 -0.3044  0.3292
  816MPD2    C512011   4.003   3.909  17.508  0.5071 -0.3979 -0.0071
  816MPD2     H12012   4.262   4.167  17.613  0.6010 -1.1079 -0.8232
  816MPD2    H112013   4.157   3.818  17.384 -0.7511 -1.4119  1.4490
  816MPD2    H212014   3.857   4.020  17.603  0.1908 -2.0998  0.5008
  816MPD2    H312015   3.930   3.831  17.492 -0.0018 -0.1838  1.2826
  816MPD2     N12016   4.353   4.001  17.440  0.1378  0.2079  0.5860
  816MPD2    H512017   4.404   4.086  17.461 -0.5733  1.0838 -1.1963
  816MPD2    N112018   4.014   4.222   0.003 -0.6345  0.4105  0.3807
  816MPD2    H712019   3.917   4.225   0.032 -0.7227 -1.1689  0.2290
  817MPD2     C12020   4.490   0.963  10.061  0.3041 -0.4820  0.1806
  817MPD2    C112021   4.393   1.031  10.135 -0.4189  0.2939  0.4842
  817MPD2    C212022   4.374   1.165  10.122 -0.2146 -0.7298  0.7574
  817MPD2    C312023   4.451   1.236  10.034  0.1366  0.0073  0.5316
  817MPD2    C412024   4.545   1.168   9.957 -0.0907 -0.8066 -0.7556
  817MPD2    C512025   4.558   1.036   9.967 -1.0975 -0.7065  0.1049
  817MPD2     H12026   4.287   1.210  10.170  0.2544  2.3199 -1.2616
  817MPD2    H112027   4.610   1.222   9.889 -0.8065 -0.3484 -1.0821
  817MPD2    H212028   4.501   0.855  10.064  0.3400 -0.4846 -0.0203
  817MPD2    H312029   4.625   0.986   9.897  1.6565  0.4374  1.9176
  817MPD2     N12030   4.426   1.377  10.017  0.3080  0.3231 -0.1496
  817MPD2    H512031   4.352   1.420  10.071  1.7524  1.3774  0.9541
  817MPD2    N112032   4.308   0.962  10.218 -0.1371  0.4204 -0.4228
  817MPD2    H712033   4.232   1.008  10.268 -0.0878  1.2162 -1.0782
  818MPD2     C12034   3.032   1.225  10.528 -0.3513  0.2187 -0.5444
  818MPD2    C112035   2.909   1.204  10.463  0.2737  0.4722  0.3077
  818MPD2    C212036   2.866   1.081  10.420 -0.1794  0.6110 -0.2012
  818MPD2    C312037   2.959   0.978  10.429 -0.5329  0.3182  0.7522
  818MPD2    C412038   3.078   0.997  10.502 -0.3003  0.2881  0.2222
  818MPD2    C512039   3.105   1.117  10.566  0.3874 -0.5598  0.2622
  818MPD2     H12040   2.769   1.066  10.372 -0.9462  1.1366  1.1901
  818MPD2    H112041   3.143   0.911  10.516  0.0150  0.5358  0.2843
  818MPD2    H212042   3.062   1.321  10.570 -0.8059  0.2615 -0.3145
  818MPD2    H312043   3.198   1.126  10.621 -1.4374  1.5897  2.9402
  818MPD2     N12044   2.938   0.849  10.366  0.7911 -0.0368 -0.1633
  818MPD2    H512045   2.993   0.767  10.389  0.6751 -0.0522  0.0593
  818MPD2    N112046   2.810   1.306  10.438 -0.4089  0.3576  0.2617
  818MPD2    H712047   2.720   1.277  10.399  0.2647 -0.8412 -0.4167
  819MPD2     C12048   0.929   2.982  15.941 -0.3427 -0.4430  0.0811
  819MPD2    C112049   0.859   2.864  15.940 -0.0213 -0.6458 -0.1798
  819MPD2    C212050   0.889   2.762  16.035  0.2512 -0.1369  0.2487
  819MPD2    C312051   0.984   2.790  16.138  0.6565  0.4646  0.1982
  819MPD2    C412052   1.039   2.913  16.138  0.3255  0.6030  0.3468
  819MPD2    C512053   1.013   3.009  16.044 -0.2529  0.5550  0.7598
  819MPD2     H12054   0.840   2.666  16.031 -1.4941  0.6715  2.0592
  819MPD2    H112055   1.118   2.939  16.209 -0.8890  0.8872  1.5973
  819MPD2    H212056   0.924   3.054  15.860  1.2074 -0.2573  0.1564
  819MPD2    H312057   1.071   3.100  16.055  0.9677 -0.2369  0.8407
  819MPD2     N12058   1.029   2.687  16.225  0.5488 -0.4149  0.7397
  819MPD2    H512059   0.988   2.598  16.201  3.6824 -1.3903 -0.9403
  819MPD2    N112060   0.765   2.836  15.841  0.4425 -0.2306  0.4265
  819MPD2    H712061   0.780   2.876  15.749  0.3819  1.3549  1.1159
  820MPD2     C12062   0.442   2.714  14.902 -0.0916 -0.5037  0.3128
  820MPD2    C112063   0.378   2.792  15.004  0.6281  0.3479 -0.1404
  820MPD2    C212064   0.448   2.810  15.120  0.3321  0.0906  0.0507
  820MPD2    C312065   0.558   2.727  15.150 -1.0833 -0.2213  0.1303
  820MPD2    C412066   0.611   2.649  15.048 -0.6817  0.1149 -0.8112
  820MPD2    C512067   0.568   2.664  14.922 -0.3682  0.2313 -0.6966
  820MPD2     H12068   0.413   2.880  15.195  1.8150  0.3585  0.4937
  820MPD2    H112069   0.694   2.583  15.072 -0.3272  1.2440  1.0318
  820MPD2    H212070   0.390   2.685  14.811  0.8722  1.9482 -1.0251
  820MPD2    H312071   0.595   2.584  14.854  0.4482  0.0417 -0.1607
  820MPD2     N12072   0.613   2.710  15.278  0.3783  0.8571  0.0805
  820MPD2    H512073   0.668   2.626  15.286  1.8996  1.8001 -0.5438
  820MPD2    N112074   0.259   2.851  14.978  0.8529  0.2964 -0.5226
  820MPD2    H712075   0.244   2.835  14.879  0.5210  3.4291 -0.9903
  821MPD2     C12076   0.777   4.034  13.165  0.2744  0.0769  0.0551
  821MPD2    C112077   0.892   3.970  13.200  1.3639  0.6027 -0.1699
  821MPD2    C212078   0.992   3.962  13.108 -0.5553 -1.5475 -0.5278
  821MPD2    C312079   0.996   4.031  12.990  0.1201 -0.0730  0.2125
  821MPD2    C412080   0.887   4.112  12.963 -0.0887  0.6946 -0.0869
  821MPD2    C512081   0.776   4.105  13.046  0.2524  0.1727 -0.3772
  821MPD2     H12082   1.081   3.914  13.146 -0.2930 -0.8248 -0.2318
  821MPD2    H112083   0.887   4.179  12.878 -2.0851  0.6932 -0.0816
  821MPD2    H212084   0.684   4.034  13.221 -0.1753  0.3990 -0.6809
  821MPD2    H312085   0.693   4.166  13.012 -0.6235 -0.9112 -0.2161
  821MPD2     N12086   1.111   4.020  12.915  0.8374 -0.0651  0.5550
  821MPD2    H512087   1.175   3.946  12.943  2.0478  0.2978 -1.2304
  821MPD2    N112088   0.914   3.927  13.339  0.3062 -0.6769  0.5505
  821MPD2    H712089   1.010   3.916  13.368 -0.0503  0.5700  2.2428
  822MPD2     C12090   1.421   4.202  15.965 -0.4295 -0.5744 -0.0532
  822MPD2    C112091   1.440   4.176  16.099 -0.4792 -0.0605 -0.4550
  822MPD2    C212092   1.392   4.279  16.188  0.1530  0.3721  0.0283
  822MPD2    C312093   1.350   4.403  16.151 -0.1589  0.6950 -0.2279
  822MPD2    C412094   1.348   4.427  16.013  0.2711 -0.3252 -0.4623
  822MPD2    C512095   1.386   4.330  15.922  0.2656  0.6998 -0.2944
  822MPD2     H12096   1.406   4.265  16.294  0.2158 -0.3626 -0.0725
  822MPD2    H112097   1.321   4.528  15.983  1.7126 -0.0478 -0.8198
  822MPD2    H212098   1.451   4.127  15.893  0.0617 -1.4040  1.0013
  822MPD2    H312099   1.379   4.344  15.815  2.3357  1.3632 -0.3403
  822MPD2     N12100   1.307   4.483  16.253 -0.5035 -0.6126 -0.1282
  822MPD2    H512101   1.271   4.432  16.333 -1.2811  2.1805  1.3111
  822MPD2    N112102   1.493   4.056  16.156 -0.4898 -0.3497 -0.1302
  822MPD2    H712103   1.493   4.040  16.256  0.5983 -2.2372 -0.4472
  823MPD2     C12104   1.114   4.563  17.063 -0.5306  0.5522 -0.0644
  823MPD2    C112105   1.163   4.508  16.949  0.2369  0.2074  0.9033
  823MPD2    C212106   1.231   4.386  16.950 -0.1722  0.0121 -0.7204
  823MPD2    C312107   1.235   4.310  17.068 -1.1135  0.0724  0.1373
  823MPD2    C412108   1.179   4.363  17.179 -0.6846 -0.2872  0.4181
  823MPD2    C512109   1.127   4.490  17.175  0.2776  0.0385  0.3052
  823MPD2     H12110   1.272   4.355  16.854 -1.3984 -0.6947 -1.0225
  823MPD2    H112111   1.186   4.315  17.275  0.7245  0.6484  0.7771
  823MPD2    H212112   1.048   4.649  17.054 -1.2545 -0.1865 -1.6703
  823MPD2    H312113   1.094   4.530  17.271 -1.1208  0.1862 -0.2351
  823MPD2     N12114   1.275   4.181  17.083 -0.2493  0.2174 -0.2495
  823MPD2    H512115   1.264   4.139  17.174 -0.6004 -0.8070 -0.7622
  823MPD2    N112116   1.142   4.596  16.833 -0.1241 -0.2953 -0.3072
  823MPD2    H712117   1.108   4.691  16.846  0.9123  0.1735 -0.9961
  824MPD2     C12118   1.655   3.198  16.067 -0.0163 -0.8378 -0.7814
  824MPD2    C112119   1.754   3.281  16.110 -0.0195  0.3606  0.1210
  824MPD2    C212120   1.889   3.245  16.105 -0.2149 -0.3705  0.2577
  824MPD2    C312121   1.921   3.131  16.039 -0.2598 -0.4360 -0.1653
  824MPD2    C412122   1.825   3.043  15.992 -0.6368 -0.0488 -0.3781
  824MPD2    C512123   1.696   3.084  16.009  0.1804 -0.0871 -0.1403
  824MPD2     H12124   1.965   3.320  16.126  0.5482 -0.7333 -1.1682
  824MPD2    H112125   1.855   2.966  15.921 -2.3158 -0.9973 -0.0427
  824MPD2    H212126   1.549   3.218  16.072  0.0167 -0.3239 -2.1300
  824MPD2    H312127   1.622   3.035  15.948 -2.2934  3.7771 -0.2430
  824MPD2     N12128   2.058   3.125  16.002  0.0487 -0.7163 -0.2396
  824MPD2    H512129   2.110   3.210  16.017 -3.1759  0.8132  2.2089
  824MPD2    N112130   1.722   3.404  16.165 -0.3417 -0.2767 -0.1958
  824MPD2    H712131   1.781   3.454  16.230 -0.7783 -1.1235  0.8521
  825MPD2     C12132   2.681   3.376  15.479  0.3490 -0.3882  0.4708
  825MPD2    C112133   2.615   3.389  15.595 -0.3025 -0.4995 -0.6491
  825MPD2    C212134   2.594   3.515  15.645  0.5204 -0.3244  0.3277
  825MPD2    C312135   2.636   3.627  15.582 -0.4172 -0.5917 -0.1503
  825MPD2    C412136   2.701   3.614  15.467  0.4840 -0.5403 -0.3094
  825MPD2    C512137   2.718   3.488  15.406 -0.5706 -0.1113 -0.2208
  825MPD2     H12138   2.535   3.531  15.734  0.4042 -1.0707  0.3829
  825MPD2    H112139   2.734   3.704  15.417 -3.6201  0.7722 -0.6701
  825MPD2    H212140   2.682   3.280  15.428 -0.4235  0.9890 -2.1233
  825MPD2    H312141   2.770   3.478  15.312  0.4837  2.8982  0.0203
  825MPD2     N12142   2.614   3.757  15.639  0.3191  0.2638 -0.2775
  825MPD2    H512143   2.635   3.833  15.574 -0.0828 -0.8596 -1.7009
  825MPD2    N112144   2.553   3.274  15.652 -0.2588 -0.4024 -0.6039
  825MPD2    H712145   2.577   3.180  15.622  0.0290 -0.5469  0.0594
  826MPD2     C12146   2.601   2.748  13.599 -0.2522 -0.6260  0.1071
  826MPD2    C112147   2.496   2.769  13.510 -0.8539 -0.3786  0.2408
  826MPD2    C212148   2.423   2.889  13.530 -0.0602 -0.5500  0.6573
  826MPD2    C312149   2.463   2.984  13.629  0.6525  0.3312  0.2536
  826MPD2    C412150   2.572   2.954  13.719 -1.1488  0.6027  0.1109
  826MPD2    C512151   2.635   2.831  13.706  0.1589 -0.5627 -0.4128
  826MPD2     H12152   2.334   2.912  13.473  1.0731  1.8645 -0.1256
  826MPD2    H112153   2.594   3.019  13.803  0.9688 -0.4319  0.3692
  826MPD2    H212154   2.668   2.663  13.587 -1.0051 -1.1292 -0.5111
  826MPD2    H312155   2.716   2.802  13.773 -3.2881 -2.6928  2.7991
  826MPD2     N12156   2.387   3.104  13.655  0.6374  0.4212 -0.5427
  826MPD2    H512157   2.427   3.162  13.728 -3.6629  0.2069  1.9579
  826MPD2    N112158   2.481   2.670  13.411 -0.3509 -0.8543 -0.1625
  826MPD2    H712159   2.539   2.587  13.418  3.3344  1.4373 -3.6458
  827MPD2     C12160   2.693   4.531  10.636  0.1145 -0.0143 -0.2322
  827MPD2    C112161   2.762   4.430  10.567  0.4570 -0.0919  1.2710
  827MPD2    C212162   2.702   4.369  10.457  1.4493  0.3686 -0.0936
  827MPD2    C312163   2.576   4.398  10.413  0.5758  0.2800 -0.2487
  827MPD2    C412164   2.515   4.509  10.475  0.1744 -0.4131  0.1509
  827MPD2    C512165   2.577   4.565  10.584 -0.6705  0.3063 -0.4814
  827MPD2     H12166   2.757   4.283  10.421 -0.1596 -0.0999 -1.4496
  827MPD2    H112167   2.418   4.551  10.449  0.7296  1.0481  0.4114
  827MPD2    H212168   2.734   4.588  10.719  2.0869 -1.0315 -0.5117
  827MPD2    H312169   2.522   4.647  10.630  1.0314  0.2681  1.6208
  827MPD2     N12170   2.524   4.344  10.295 -0.0565 -0.6882 -0.0739
  827MPD2    H512171   2.590   4.294  10.237 -1.1142 -2.3587  0.1651
  827MPD2    N112172   2.889   4.394  10.620  0.2181  0.0076  0.1646
  827MPD2    H712173   2.914   4.449  10.702 -0.4051  1.0879 -0.3659
  828MPD2     C12174   1.994   4.124  12.253 -0.4234 -0.1706  0.7558
  828MPD2    C112175   1.933   4.103  12.136 -0.1104  0.3325 -0.2209
  828MPD2    C212176   2.016   4.068  12.028 -0.2219  0.2109 -0.0628
  828MPD2    C312177   2.157   4.052  12.044 -0.0055 -0.1418  0.8622
  828MPD2    C412178   2.211   4.078  12.168 -0.0125  0.9875 -0.0591
  828MPD2    C512179   2.125   4.110  12.276  1.1397  0.2239 -0.9311
  828MPD2     H12180   1.968   4.051  11.932 -2.8026 -0.4605  1.3526
  828MPD2    H112181   2.319   4.089  12.166  0.0381  0.0101 -2.7429
  828MPD2    H212182   1.944   4.151  12.346 -1.4646  1.5565 -0.3049
  828MPD2    H312183   2.160   4.135  12.375  0.0791 -1.2360 -0.1883
  828MPD2     N12184   2.247   4.024  11.942 -0.5093 -0.2299  0.2381
  828MPD2    H512185   2.345   4.026  11.967 -0.1582  0.5088 -1.1882
  828MPD2    N112186   1.792   4.108  12.118 -0.0774  0.1976  0.0485
  828MPD2    H712187   1.756   4.096  12.024 -0.1749 -0.1603  0.1291
  829MPD2     C12188   1.434   4.178  11.383 -0.5598  0.2170 -0.4409
  829MPD2    C112189   1.325   4.157  11.465  0.4001  0.3994  0.1426
  829MPD2    C212190   1.339   4.165  11.602 -0.2471  1.0076  0.2812
  829MPD2    C312191   1.465   4.195  11.654 -0.1389  0.1713 -0.2473
  829MPD2    C412192   1.580   4.199  11.570 -0.5194 -0.2661  0.0932
  829MPD2    C512193   1.559   4.196  11.436 -0.6159 -0.7934  0.1169
  829MPD2     H12194   1.252   4.150  11.665  0.4553 -0.1670  0.9632
  829MPD2    H112195   1.680   4.220  11.605 -0.3895 -0.5826 -0.0875
  829MPD2    H212196   1.429   4.158  11.276  1.8783 -0.3752 -0.4541
  829MPD2    H312197   1.651   4.213  11.382  0.3732  2.3584  2.7930
  829MPD2     N12198   1.473   4.223  11.789 -0.1078  0.1686  0.3337
  829MPD2    H512199   1.566   4.247  11.820  0.5794 -1.6059 -0.3321
  829MPD2    N112200   1.198   4.130  11.405 -0.4116 -0.1993 -0.5823
  829MPD2    H712201   1.192   4.124  11.303 -0.8443  1.6042 -0.6736
  830MPD2     C12202   1.560   2.178  15.915 -0.0634 -0.4871 -0.5840
  830MPD2    C112203   1.467   2.273  15.916 -0.3168 -0.1908 -0.1774
  830MPD2    C212204   1.446   2.358  15.810  0.0283  0.7136 -0.3313
  830MPD2    C312205   1.536   2.358  15.704  0.3484 -0.1374  0.1505
  830MPD2    C412206   1.636   2.268  15.705  0.2079  0.4473  0.4392
  830MPD2    C512207   1.647   2.178  15.808  0.3045 -0.0392  0.0821
  830MPD2     H12208   1.375   2.440  15.811  0.0599  0.7223  1.0539
  830MPD2    H112209   1.718   2.269  15.634 -0.4686 -0.2168 -0.3517
  830MPD2    H212210   1.583   2.113  15.998  0.4120 -0.1594 -0.4580
  830MPD2    H312211   1.723   2.101  15.803 -1.0752 -1.2745 -2.2858
  830MPD2     N12212   1.522   2.460  15.604  0.1305  0.2992 -0.7184
  830MPD2    H512213   1.462   2.538  15.625 -0.1175 -0.0355 -0.1766
  830MPD2    N112214   1.405   2.290  16.045  0.4806  1.3033 -0.0846
  830MPD2    H712215   1.447   2.234  16.118 -1.0253  0.8203  0.4122
  831MPD2     C12216   1.634   4.519  16.491 -0.6111  0.5431 -0.8076
  831MPD2    C112217   1.651   4.397  16.431 -0.4315 -0.5307  0.0491
  831MPD2    C212218   1.575   4.291  16.487 -0.0209  0.1789 -0.0751
  831MPD2    C312219   1.471   4.323  16.571  0.5497  0.6575  0.7339
  831MPD2    C412220   1.476   4.446  16.638 -0.2701  0.1547 -0.0437
  831MPD2    C512221   1.568   4.537  16.605 -0.5372  0.1691 -0.1027
  831MPD2     H12222   1.594   4.190  16.454 -0.0442 -0.0134  0.5010
  831MPD2    H112223   1.409   4.463  16.721  0.7384  1.0951  0.5734
  831MPD2    H212224   1.686   4.606  16.453 -1.3525  1.3048 -0.0690
  831MPD2    H312225   1.579   4.627  16.664 -0.7604 -0.6088  1.1229
  831MPD2     N12226   1.363   4.235  16.583  0.4837 -0.1051  0.2624
  831MPD2    H512227   1.290   4.274  16.641  0.1976 -1.2969  0.6944
  831MPD2    N112228   1.739   4.370  16.325 -0.4013 -0.0289  0.1634
  831MPD2    H712229   1.748   4.444  16.255  0.0756 -1.8611 -1.7123
  832MPD2     C12230   0.125   0.604  17.420  1.0424  0.5415  0.6560
  832MPD2    C112231   0.083   0.733  17.408  0.1855  0.5059 -0.3587
  832MPD2    C212232   4.670   0.759  17.379  0.3222 -0.2286  0.0408
  832MPD2    C312233   4.582   0.655  17.340 -0.8125 -0.3875 -0.0545
  832MPD2    C412234   4.635   0.528  17.340  0.0441 -0.3494  0.8808
  832MPD2    C512235   0.041   0.499  17.391  0.0166 -0.8598 -0.0340
  832MPD2     H12236   4.637   0.862  17.375  2.7244  0.5545  0.4823
  832MPD2    H112237   4.581   0.445  17.294 -1.8159  1.5032 -0.2511
  832MPD2    H212238   0.220   0.580  17.467  0.6911  1.2650  1.7237
  832MPD2    H312239   0.089   0.402  17.395 -0.2420 -0.9787  0.1874
  832MPD2     N12240   4.442   0.663  17.319  0.4073  0.2333  0.8161
  832MPD2    H512241   4.379   0.585  17.303  0.8962 -0.1115  0.5674
  832MPD2    N112242   0.171   0.837  17.460 -0.0113  0.2397 -0.1337
  832MPD2    H712243   0.258   0.811  17.505 -0.2016  0.5554  0.4114
  833MPD2     C12244   2.109   1.519  12.940  0.3821  0.2202  0.0640
  833MPD2    C112245   2.038   1.544  12.823  0.1332  0.6283 -0.7487
  833MPD2    C212246   2.047   1.457  12.718  0.3760  0.4417 -0.0797
  833MPD2    C312247   2.141   1.353  12.716 -0.5196  0.9416 -0.0780
  833MPD2    C412248   2.204   1.324  12.838  0.0960 -0.2277  0.1810
  833MPD2    C512249   2.181   1.404  12.946 -0.7956 -0.3636  0.3042
  833MPD2     H12250   1.988   1.458  12.627 -0.0024  1.7081  0.1853
  833MPD2    H112251   2.258   1.231  12.847 -1.6491 -1.2403  0.3300
  833MPD2    H212252   2.103   1.579  13.029  1.1823 -0.9452  0.9103
  833MPD2    H312253   2.220   1.377  13.044  3.2333  0.4170 -1.0966
  833MPD2     N12254   2.142   1.267  12.609 -0.4616  0.1037  0.0030
  833MPD2    H512255   2.086   1.294  12.529  0.0368 -0.5478 -0.5610
  833MPD2    N112256   1.965   1.664  12.818  0.5196  0.5615  0.2282
  833MPD2    H712257   1.953   1.712  12.907  2.0563 -4.0666  2.8933
  834MPD2     C12258   2.611   0.822  11.761 -0.1394  0.4223 -0.9933
  834MPD2    C112259   2.489   0.872  11.731  0.2130 -0.4105  0.6181
  834MPD2    C212260   2.414   0.930  11.830  0.5575  0.5574  0.5255
  834MPD2    C312261   2.472   0.952  11.957 -0.0598  0.6086  0.3546
  834MPD2    C412262   2.604   0.915  11.979 -0.3964  0.7301 -0.0377
  834MPD2    C512263   2.665   0.832  11.888  0.8563 -0.1850 -0.4553
  834MPD2     H12264   2.316   0.971  11.808  0.7822 -0.2511 -1.8982
  834MPD2    H112265   2.656   0.916  12.074 -2.4966 -1.4379  1.1501
  834MPD2    H212266   2.676   0.769  11.693  1.2011  2.4282 -1.2932
  834MPD2    H312267   2.767   0.798  11.905  0.4855 -0.4409  1.3111
  834MPD2     N12268   2.396   1.023  12.054 -0.5365 -0.2850 -0.4495
  834MPD2    H512269   2.299   1.049  12.041 -1.0369 -2.6077 -1.3191
  834MPD2    N112270   2.441   0.869  11.598  0.4325 -0.0153 -0.4257
  834MPD2    H712271   2.484   0.805  11.532  0.1997  0.2858 -0.8676
  835MPD2     C12272   2.629   4.128  11.205  0.1075 -0.2449  0.1562
  835MPD2    C112273   2.524   4.195  11.264 -0.1191  0.3717  0.0719
  835MPD2    C212274   2.545   4.268  11.378  0.3521  0.5480 -0.5941
  835MPD2    C312275   2.671   4.280  11.428 -0.1771 -0.3506  0.0762
  835MPD2    C412276   2.776   4.222  11.369 -0.4600 -0.8782  0.2257
  835MPD2    C512277   2.753   4.144  11.254  0.1546  0.2193  1.4724
  835MPD2     H12278   2.462   4.312  11.432  1.1009 -0.6814  1.5586
  835MPD2    H112279   2.874   4.240  11.411 -0.1088 -2.1766 -0.0466
  835MPD2    H212280   2.617   4.078  11.109 -2.5157  0.8396 -0.0879
  835MPD2    H312281   2.842   4.102  11.208 -1.5636 -2.0166  0.1690
  835MPD2     N12282   2.700   4.356  11.541  0.1953  0.6179 -0.0643
  835MPD2    H512283   2.798   4.364  11.568 -0.6420  0.6061  2.9719
  835MPD2    N112284   2.391   4.189  11.215  0.0966 -0.4071  0.3114
  835MPD2    H712285   2.323   4.250  11.260  0.4689  0.1127  0.1649
  836MPD2     C12286   2.161   4.612  11.819  0.0802  0.4928  0.8659
  836MPD2    C112287   2.255   4.656  11.912 -0.1254 -0.2950 -0.9549
  836MPD2    C212288   2.213   4.713  12.030  0.2286  0.9589 -0.1721
  836MPD2    C312289   2.082   0.002  12.060 -0.8826  0.6091  0.4171
  836MPD2    C412290   1.985   4.676  11.972  0.1280  0.4583  0.1949
  836MPD2    C512291   2.028   4.617  11.855  0.3464  0.2335 -0.0658
  836MPD2     H12292   2.279   0.015  12.113 -0.8615 -0.9523  1.2380
  836MPD2    H112293   1.881   4.669  12.002  0.5712 -1.6016  1.2627
  836MPD2    H212294   2.188   4.565  11.725 -2.4711  0.5014  0.1066
  836MPD2    H312295   1.954   4.571  11.791 -0.9041  2.1657 -0.0272
  836MPD2     N12296   2.031   0.059  12.178 -0.1308 -0.4018 -0.4322
  836MPD2    H512297   1.932   0.053  12.202 -0.0266  0.0601  0.0997
  836MPD2    N112298   2.391   4.639  11.876 -0.2274 -0.5460 -0.2409
  836MPD2    H712299   2.407   4.577  11.797  0.3565  0.1067 -0.6443
  837MPD2     C12300   0.274   4.438  10.197 -0.1740  0.0018 -0.2399
  837MPD2    C112301   0.156   4.467  10.129 -0.2332  0.2638  0.4294
  837MPD2    C212302   0.115   4.593  10.124 -0.0306 -0.1787  0.0169
  837MPD2    C312303   0.162   4.691  10.202  0.3772  0.3006  0.1581
  837MPD2    C412304   0.276   4.666  10.270  0.4021 -0.5116 -0.2281
  837MPD2    C512305   0.341   4.549  10.253  0.8362 -0.1319  1.0296
  837MPD2     H12306   0.026   4.614  10.065 -0.4977  0.7181  1.0333
  837MPD2    H112307   0.329   0.023  10.323 -0.5093  1.0125 -1.5984
  837MPD2    H212308   0.322   4.341  10.199 -0.4573 -0.1620 -1.3109
  837MPD2    H312309   0.439   4.539  10.297  0.5769 -0.5876  1.5044
  837MPD2     N12310   0.099   0.093  10.201  1.0483 -0.3667 -0.9551
  837MPD2    H512311   0.023   0.101  10.134 -1.4190  0.8293  2.0115
  837MPD2    N112312   0.078   4.372  10.062 -0.1815  0.1767 -0.3718
  837MPD2    H712313   0.003   4.412  10.005 -1.5954 -3.4240 -1.0115
  838MPD2     C12314   4.167   2.609  12.052 -0.4066  0.0492  0.0541
  838MPD2    C112315   4.061   2.555  11.981 -0.2672 -0.1174  0.0483
  838MPD2    C212316   3.946   2.520  12.052  0.1658 -0.0593  0.2743
  838MPD2    C312317   3.931   2.528  12.188 -0.2880  0.2194 -0.5322
  838MPD2    C412318   4.044   2.570  12.260 -0.5819 -0.2404 -0.2532
  838MPD2    C512319   4.150   2.619  12.189 -0.1147  0.6080 -0.0186
  838MPD2     H12320   3.864   2.466  12.005 -0.1079 -0.1159  0.8144
  838MPD2    H112321   4.048   2.576  12.369 -0.4821 -1.0676 -0.2115
  838MPD2    H212322   4.260   2.635  12.003 -0.3074 -2.7503 -1.2308
  838MPD2    H312323   4.235   2.643  12.251  1.8256  0.3896 -2.6485
  838MPD2     N12324   3.817   2.473  12.251 -0.4364  0.3486 -0.1033
  838MPD2    H512325   3.749   2.429  12.190 -0.8107 -0.3389  0.8013
  838MPD2    N112326   4.057   2.519  11.848  0.0840 -0.0261  0.2932
  838MPD2    H712327   3.968   2.483  11.815  0.9444 -2.6292  0.8625
  839MPD2     C12328   3.417   2.126  11.750 -0.4258 -0.1537  0.2076
  839MPD2    C112329   3.503   2.039  11.684 -0.2951 -0.1182  0.0104
  839MPD2    C212330   3.628   2.092  11.641  0.0373  0.1953  0.3451
  839MPD2    C312331   3.662   2.221  11.670 -0.0039 -0.8816  0.0165
  839MPD2    C412332   3.580   2.304  11.750 -0.2887  0.1184 -0.4462
  839MPD2    C512333   3.464   2.246  11.799  0.4356  0.4087 -0.8100
  839MPD2     H12334   3.700   2.036  11.582 -1.4664 -1.4170  0.0401
  839MPD2    H112335   3.615   2.405  11.769 -0.5445  0.0382  0.4577
  839MPD2    H212336   3.320   2.098  11.789 -0.8111  0.8054 -0.0815
  839MPD2    H312337   3.397   2.306  11.860  1.5289  0.1007  0.7034
  839MPD2     N12338   3.780   2.277  11.626 -0.0198  0.2870  0.3314
  839MPD2    H512339   3.802   2.362  11.677  0.9346  0.5644 -0.5529
  839MPD2    N112340   3.456   1.911  11.642 -0.3935  0.1249  0.5852
  839MPD2    H712341   3.522   1.859  11.585 -1.1742 -0.3807  0.1436
  840MPD2     C12342   3.443   0.041  10.626  0.5810  0.1537  0.2813
  840MPD2    C112343   3.451   4.676  10.731  1.1041  0.5189  0.0770
  840MPD2    C212344   3.558   4.689  10.816 -0.8573 -0.4853 -0.4164
  840MPD2    C312345   3.674   0.051  10.781  0.5570 -0.2641 -0.4190
  840MPD2    C412346   3.669   0.122  10.662  0.2383 -0.6660  0.2130
  840MPD2    C512347   3.554   0.118  10.590 -0.5990  0.8013 -0.4110
  840MPD2     H12348   3.555   4.636  10.911  0.5730 -2.5458 -1.5169
  840MPD2    H112349   3.754   0.184  10.638  0.0871 -0.8745 -0.8515
  840MPD2    H212350   3.359   0.039  10.558 -0.8098  1.0821  1.9754
  840MPD2    H312351   3.547   0.177  10.499  2.3545 -0.1793 -1.2715
  840MPD2     N12352   3.797   0.068  10.853 -0.5744 -0.2928  0.0255
  840MPD2    H512353   3.855   0.148  10.826  2.0864 -2.4699 -0.7271
  840MPD2    N112354   3.340   4.586  10.750 -0.8026  0.5376 -0.1699
  840MPD2    H712355   3.267   4.588  10.680 -0.5876 -0.7543 -0.4239
  841MPD2     C12356   3.090   0.068  14.837  0.3870 -0.0791  0.0717
  841MPD2    C112357   3.141   4.683  14.916  0.0912  0.4300 -0.7189
  841MPD2    C212358   3.194   4.716  15.041  0.1102 -0.1354  0.1344
  841MPD2    C312359   3.217   0.126  15.082  0.6251 -0.7215 -0.0969
  841MPD2    C412360   3.187   0.228  14.991  0.0527 -0.5595 -0.4559
  841MPD2    C512361   3.121   0.196  14.873 -0.0864 -0.1425 -0.3251
  841MPD2     H12362   3.226   4.632  15.101  1.6967  0.2949 -0.1112
  841MPD2    H112363   3.216   0.329  15.015 -1.5310 -0.6086  1.6463
  841MPD2    H212364   3.042   0.062  14.740  1.2097  3.3158 -0.5362
  841MPD2    H312365   3.096   0.283  14.812  0.8718  0.5899  0.3258
  841MPD2     N12366   3.285   0.144  15.201 -0.0773 -0.3139 -0.3780
  841MPD2    H512367   3.319   0.063  15.251  0.3431 -0.2417 -0.5401
  841MPD2    N112368   3.122   4.550  14.883 -0.2626 -0.3315  0.2967
  841MPD2    H712369   3.164   4.475  14.936  2.2290  0.9151  0.0970
  842MPD2     C12370   3.965   0.928  17.356 -0.3221  0.3374 -0.7554
  842MPD2    C112371   3.851   0.857  17.351 -0.1057  0.0044 -0.0400
  842MPD2    C212372   3.791   0.813  17.473  0.0832 -0.0896  0.3158
  842MPD2    C312373   3.837   0.853  17.595  0.3420 -0.8699  0.4504
  842MPD2    C412374   3.954   0.927  17.599 -0.1130  0.4503 -0.7473
  842MPD2    C512375   4.024   0.956  17.480  1.0799 -0.2774  0.3102
  842MPD2     H12376   3.690   0.774  17.469  0.0171  0.1910 -0.5864
  842MPD2    H112377   3.989   0.957   0.010 -0.8922  0.3745 -0.4458
  842MPD2    H212378   4.014   0.957  17.264 -0.2684  1.5475 -0.3399
  842MPD2    H312379   4.115   1.014  17.494 -0.6960  2.8242 -0.9869
  842MPD2     N12380   3.757   0.842   0.029 -0.4519  0.0478 -0.3013
  842MPD2    H512381   3.795   0.891   0.110 -0.0080 -1.8200  0.6263
  842MPD2    N112382   3.792   0.830  17.226  0.2678 -0.2095 -0.2471
  842MPD2    H712383   3.808   0.899  17.154 -0.7855 -0.8056 -1.0421
  843MPD2     C12384   1.214   1.500   1.082  0.2379  0.0981  0.1287
  843MPD2    C112385   1.298   1.480   1.197 -0.1035 -0.5477  0.1531
  843MPD2    C212386   1.411   1.565   1.204  0.7417  0.7597 -0.4910
  843MPD2    C312387   1.445   1.659   1.101 -0.4183  0.4688 -0.1511
  843MPD2    C412388   1.362   1.660   0.993  0.0118 -0.9951 -0.3099
  843MPD2    C512389   1.248   1.589   0.991 -0.7881  0.1236  0.2468
  843MPD2     H12390   1.474   1.559   1.293 -0.9600 -2.3333  0.4928
  843MPD2    H112391   1.391   1.727   0.913 -1.9799  0.7072  0.4209
  843MPD2    H212392   1.115   1.456   1.072  1.0399 -1.7884  0.5459
  843MPD2    H312393   1.180   1.589   0.907 -0.8834  1.7636  0.3228
  843MPD2     N12394   1.559   1.745   1.102 -0.0759  0.0234 -0.1379
  843MPD2    H512395   1.558   1.816   1.029  0.9945 -0.8956 -1.0549
  843MPD2    N112396   1.262   1.386   1.289 -0.4038  0.3100  0.1401
  843MPD2    H712397   1.177   1.336   1.266 -0.7937  1.7592 -1.5633
  844MPD2     C12398   4.392   0.484  16.827  0.8306 -0.8426 -0.7091
  844MPD2    C112399   4.524   0.458  16.775 -0.6033 -0.3379  0.1688
  844MPD2    C212400   4.623   0.541  16.807  0.2567 -0.0324 -0.2173
  844MPD2    C312401   4.593   0.646  16.892  0.1358  0.3572  0.2173
  844MPD2    C412402   4.467   0.666  16.942  0.8097  0.0838  0.2646
  844MPD2    C512403   4.367   0.587  16.907 -0.6662  0.5680  0.4941
  844MPD2     H12404   0.001   0.523  16.768  0.1216  1.1763 -1.0996
  844MPD2    H112405   4.452   0.737  17.022  2.0744  1.0364 -0.3485
  844MPD2    H212406   4.312   0.415  16.802  2.0018 -1.9708 -1.3686
  844MPD2    H312407   4.270   0.596  16.956  0.6716  2.1930  2.7878
  844MPD2     N12408   4.700   0.732  16.919  0.5509 -0.1091  0.2552
  844MPD2    H512409   0.064   0.709  16.868  1.3927  0.9486  1.1685
  844MPD2    N112410   4.550   0.349  16.684  0.5395 -0.6257 -0.4423
  844MPD2    H712411   4.631   0.355  16.623 -1.2247  0.7304 -2.6323
  845MPD2     C12412   0.074   1.652  17.384  0.1959  0.5056  0.2917
  845MPD2    C112413   0.021   1.541  17.437 -0.5786 -0.8343 -0.0525
  845MPD2    C212414   0.024   1.421  17.373 -0.2705 -0.2523 -0.0554
  845MPD2    C312415   0.108   1.399  17.265  0.1969  0.1758  0.4762
  845MPD2    C412416   0.175   1.509  17.217  0.3768 -0.4088 -0.1368
  845MPD2    C512417   0.156   1.632  17.277 -0.2420 -0.0998 -1.1136
  845MPD2     H12418   4.682   1.342  17.413 -0.3334 -1.0667 -1.7745
  845MPD2    H112419   0.238   1.502  17.129 -0.7261 -0.2132 -0.9495
  845MPD2    H212420   0.045   1.746  17.430 -0.6169  0.8503 -0.9071
  845MPD2    H312421   0.202   1.721  17.235  2.7436 -1.4747 -0.7469
  845MPD2     N12422   0.125   1.268  17.210  0.2832  1.0048 -0.1953
  845MPD2    H512423   0.058   1.197  17.236  1.1517  0.7630  1.3664
  845MPD2    N112424   4.650   1.557  17.548  0.1284 -0.0010 -0.1212
  845MPD2    H712425   4.622   1.654  17.555 -1.8434 -0.6967  1.5550
  846MPD2     C12426   1.677   1.350  13.834  0.0742  0.5543  0.2468
  846MPD2    C112427   1.602   1.468  13.812 -0.0838  0.1172  0.1799
  846MPD2    C212428   1.555   1.540  13.917 -0.1899 -0.0962 -0.7212
  846MPD2    C312429   1.596   1.509  14.045 -0.5483  0.1981  0.1229
  846MPD2    C412430   1.673   1.404  14.072  0.7207 -0.0215 -0.0924
  846MPD2    C512431   1.705   1.320  13.969  0.4796 -0.1088 -0.0104
  846MPD2     H12432   1.501   1.632  13.897 -1.1250 -0.2280  1.2024
  846MPD2    H112433   1.697   1.379  14.175  0.0744 -0.9532 -0.1749
  846MPD2    H212434   1.721   1.291  13.755 -3.0843  0.6395 -1.5968
  846MPD2    H312435   1.768   1.234  13.986 -1.0567 -1.2216  0.0372
  846MPD2     N12436   1.537   1.579  14.146 -0.0628 -0.1071  0.0872
  846MPD2    H512437   1.479   1.657  14.118 -1.4596 -0.8448  0.9699
  846MPD2    N112438   1.570   1.509  13.677  0.1034  0.1402  0.6205
  846MPD2    H712439   1.509   1.590  13.664 -0.8455 -0.8887 -1.3248
  847MPD2     C12440   1.443   2.302  13.779 -0.6753 -0.6410 -0.1005
  847MPD2    C112441   1.445   2.351  13.911  0.5591  0.2631 -0.2303
  847MPD2    C212442   1.545   2.310  13.997  0.2345 -0.6632 -0.6826
  847MPD2    C312443   1.647   2.233  13.943 -0.9586  0.9302  0.4706
  847MPD2    C412444   1.645   2.190  13.810 -0.3659 -0.0532 -0.4727
  847MPD2    C512445   1.538   2.215  13.730 -0.7950 -0.2996  0.5819
  847MPD2     H12446   1.557   2.356  14.094  2.4002  0.8556 -1.6854
  847MPD2    H112447   1.718   2.118  13.776  1.3315  2.0963 -1.3471
  847MPD2    H212448   1.365   2.325  13.707  1.1096  1.2338 -1.4464
  847MPD2    H312449   1.528   2.171  13.631  2.2084  3.5325 -1.3915
  847MPD2     N12450   1.766   2.210  14.025 -0.6774 -0.4819  0.0919
  847MPD2    H512451   1.753   2.238  14.122  0.0394  1.7196 -0.4623
  847MPD2    N112452   1.358   2.450  13.946  0.5175  0.3657  0.1149
  847MPD2    H712453   1.374   2.480  14.042 -0.4853  0.5622  0.2192
  848MPD2     C12454   3.908   0.868  16.718  1.1730 -0.1187 -0.5120
  848MPD2    C112455   4.000   0.933  16.804  0.4049  0.3263  0.3469
  848MPD2    C212456   4.030   1.062  16.781  1.2395 -0.2887 -0.3424
  848MPD2    C312457   3.977   1.134  16.676 -0.4135  0.1327  0.3507
  848MPD2    C412458   3.885   1.074  16.592 -0.6060 -0.6530  0.6231
  848MPD2    C512459   3.859   0.944  16.613 -0.3326 -0.2582  0.1105
  848MPD2     H12460   4.109   1.107  16.840  1.4879 -0.6408 -0.4051
  848MPD2    H112461   3.836   1.129  16.514 -0.0462  0.3329  0.9628
  848MPD2    H212462   3.874   0.765  16.726  0.6520  0.2656  2.3764
  848MPD2    H312463   3.786   0.896  16.550 -1.3868  2.1411 -0.4849
  848MPD2     N12464   3.999   1.271  16.643  0.1080 -0.3213 -0.1414
  848MPD2    H512465   3.964   1.299  16.552 -0.6341  2.0287  0.8776
  848MPD2    N112466   4.048   0.874  16.919 -0.1593 -0.1386 -0.0481
  848MPD2    H712467   4.107   0.924  16.985  2.1007 -0.5024 -1.7801
  849MPD2     C12468   3.225   0.526  14.609  0.0439  0.7854  0.4584
  849MPD2    C112469   3.327   0.441  14.583 -0.4791  0.2324 -0.9143
  849MPD2    C212470   3.419   0.411  14.679 -0.4448  0.1165  0.1102
  849MPD2    C312471   3.404   0.462  14.805  0.5180  0.2468  0.6741
  849MPD2    C412472   3.299   0.542  14.831 -0.9341 -0.1161  0.1390
  849MPD2    C512473   3.207   0.566  14.734  0.1155 -0.0540  0.1880
  849MPD2     H12474   3.515   0.368  14.653 -0.2934 -0.6074  1.8187
  849MPD2    H112475   3.281   0.580  14.931 -1.6756  0.5992 -0.2702
  849MPD2    H212476   3.154   0.556  14.533  2.2512 -0.0342 -1.9117
  849MPD2    H312477   3.125   0.635  14.751 -1.3351 -2.0257  1.2566
  849MPD2     N12478   3.510   0.454  14.888  0.3062 -0.1969 -0.2199
  849MPD2    H512479   3.593   0.408  14.850 -0.0894 -1.4695  0.4713
  849MPD2    N112480   3.348   0.405  14.451 -0.6548 -0.6891  0.1365
  849MPD2    H712481   3.293   0.457  14.384 -0.8568  1.2067  1.7658
  850MPD2     C12482   1.645   3.682  14.752  0.2366 -0.5220 -0.4830
  850MPD2    C112483   1.656   3.725  14.878 -0.5277  0.7190 -0.7132
  850MPD2    C212484   1.773   3.726  14.936 -0.1689 -0.4653 -0.5869
  850MPD2    C312485   1.888   3.694  14.877 -0.4114  0.1833 -0.1424
  850MPD2    C412486   1.877   3.652  14.746 -0.0551 -0.2686  0.6398
  850MPD2    C512487   1.754   3.637  14.689  0.4646 -0.5214 -0.1595
  850MPD2     H12488   1.770   3.766  15.036 -1.2768 -1.2177 -0.3259
  850MPD2    H112489   1.964   3.619  14.690 -0.4702 -0.0621 -0.1317
  850MPD2    H212490   1.550   3.675  14.701 -0.7838  0.8578  1.2275
  850MPD2    H312491   1.739   3.601  14.587 -0.8867 -0.3059 -0.0313
  850MPD2     N12492   2.013   3.722  14.937  0.2459 -0.4920  0.7315
  850MPD2    H512493   2.096   3.697  14.886  0.8126 -0.1390  1.4706
  850MPD2    N112494   1.533   3.759  14.944 -0.1864 -0.3427 -0.6818
  850MPD2    H712495   1.447   3.735  14.896 -0.1431 -0.4543 -0.7050
  851MPD2     C12496   1.557   3.445  15.632 -0.0185  0.5134 -0.0374
  851MPD2    C112497   1.498   3.425  15.510 -1.0789  0.1760 -0.0690
  851MPD2    C212498   1.496   3.291  15.459 -1.1725  0.1462  0.8332
  851MPD2    C312499   1.565   3.194  15.528  0.3935 -0.4803  0.0879
  851MPD2    C412500   1.621   3.221  15.652  0.4970  0.5154  0.6114
  851MPD2    C512501   1.611   3.344  15.698 -0.3598  0.1653  0.2612
  851MPD2     H12502   1.445   3.278  15.365  1.3320  1.5762 -0.7209
  851MPD2    H112503   1.672   3.155  15.721  0.4110 -1.2799 -1.0237
  851MPD2    H212504   1.549   3.541  15.682  4.2796 -0.0526  1.7314
  851MPD2    H312505   1.644   3.356  15.801 -0.8562  2.1751  0.1838
  851MPD2     N12506   1.574   3.064  15.465  0.2123  0.0894  0.1213
  851MPD2    H512507   1.515   3.051  15.383 -2.2113  0.0396  1.8477
  851MPD2    N112508   1.434   3.534  15.451  0.2574  0.2721 -0.0896
  851MPD2    H712509   1.448   3.627  15.489  0.2124  0.5105 -0.6663
  852MPD2     C12510   1.571   0.797  10.391 -0.5524 -0.3182  0.4873
  852MPD2    C112511   1.456   0.871  10.397  0.7331 -0.2035  0.6365
  852MPD2    C212512   1.464   0.988  10.475 -0.2297  0.0214 -0.1307
  852MPD2    C312513   1.573   1.019  10.549 -0.2130  0.4570  0.0567
  852MPD2    C412514   1.682   0.940  10.556  0.1143 -0.0553  0.3501
  852MPD2    C512515   1.678   0.829  10.475  0.1677 -0.6398  0.0436
  852MPD2     H12516   1.385   1.063  10.477 -0.6119 -0.3331 -2.7477
  852MPD2    H112517   1.772   0.957  10.613 -0.4499  1.0712  0.8952
  852MPD2    H212518   1.582   0.706  10.333 -2.8457  0.3941 -1.0667
  852MPD2    H312519   1.759   0.758  10.474 -1.4641 -2.4841 -0.9183
  852MPD2     N12520   1.558   1.140  10.629 -0.4878  0.0078 -0.1875
  852MPD2    H512521   1.477   1.199  10.613  0.8616  2.2854  1.5003
  852MPD2    N112522   1.341   0.848  10.323  0.5601 -0.2521 -0.4448
  852MPD2    H712523   1.264   0.913  10.324  0.1886 -0.6663 -1.7930
  853MPD2     C12524   3.634   1.200  12.597 -0.1219 -0.6363  0.6565
  853MPD2    C112525   3.505   1.246  12.579 -0.3270 -1.0919 -0.3932
  853MPD2    C212526   3.434   1.224  12.463  0.1791  0.1700 -0.0277
  853MPD2    C312527   3.497   1.146  12.370  0.0025 -0.3192 -0.0296
  853MPD2    C412528   3.622   1.094  12.393  0.2835 -1.0372 -0.3439
  853MPD2    C512529   3.697   1.128  12.503 -0.0299 -0.1905  0.3707
  853MPD2     H12530   3.328   1.242  12.449 -0.0673 -2.4407 -1.4465
  853MPD2    H112531   3.656   1.031  12.312  0.0357 -2.6321  0.7888
  853MPD2    H212532   3.690   1.241  12.681 -0.7905  0.1226  0.7367
  853MPD2    H312533   3.799   1.094  12.518  0.1176 -0.1258 -0.5082
  853MPD2     N12534   3.426   1.108  12.250  0.3321  0.7360 -0.6036
  853MPD2    H512535   3.469   1.043  12.185  0.8565  0.7946 -0.3158
  853MPD2    N112536   3.442   1.305  12.694  0.4119 -1.0411 -0.1763
  853MPD2    H712537   3.483   1.297  12.786  1.9761  0.5467 -0.7301
  854MPD2     C12538   0.756   1.459  12.974 -0.5631  0.0184  0.5355
  854MPD2    C112539   0.643   1.379  12.972  0.2453 -0.1754  0.1498
  854MPD2    C212540   0.657   1.245  13.003 -0.2683  0.8152  0.3529
  854MPD2    C312541   0.776   1.193  13.052  0.4279 -0.5293  0.3195
  854MPD2    C412542   0.887   1.275  13.061 -0.0814 -0.2010  0.0100
  854MPD2    C512543   0.873   1.409  13.025  1.0610 -0.0113 -0.5029
  854MPD2     H12544   0.572   1.179  13.014  2.3313 -2.7810 -1.3142
  854MPD2    H112545   0.984   1.237  13.092 -0.8760 -2.0397  0.2685
  854MPD2    H212546   0.755   1.559  12.933  0.8195 -0.5931 -1.0041
  854MPD2    H312547   0.963   1.470  13.030 -0.0470  1.5617 -0.0179
  854MPD2     N12548   0.783   1.059  13.100  0.1924  0.3650 -0.2115
  854MPD2    H512549   0.867   1.043  13.155  0.0108  0.5585  0.1202
  854MPD2    N112550   0.523   1.433  12.926 -1.0867 -0.3493 -0.7213
  854MPD2    H712551   0.527   1.533  12.908 -1.1865 -0.1339  0.4345
  855MPD2     C12552   1.033   0.843  13.826 -0.0911  0.4253 -0.1381
  855MPD2    C112553   0.944   0.736  13.807  0.0155  0.4673 -0.5414
  855MPD2    C212554   0.915   0.708  13.678  0.5015  0.0155 -0.5943
  855MPD2    C312555   0.983   0.770  13.574  0.5456  0.2131  0.0902
  855MPD2    C412556   1.060   0.875  13.596 -0.2424  0.0124  0.0550
  855MPD2    C512557   1.081   0.920  13.726 -0.5012 -0.7716  0.1991
  855MPD2     H12558   0.843   0.634  13.646 -0.3914 -0.3066  2.1507
  855MPD2    H112559   1.116   0.928  13.521 -0.2544 -1.3485 -0.9192
  855MPD2    H212560   1.045   0.884  13.926  2.3838  0.7047 -0.5661
  855MPD2    H312561   1.145   1.005  13.748 -1.5290  0.1216 -0.2596
  855MPD2     N12562   0.972   0.748  13.439  0.4537 -0.4922  0.3545
  855MPD2    H512563   1.021   0.818  13.384  0.6738 -0.7221  0.2589
  855MPD2    N112564   0.882   0.661  13.909  0.4579  0.0153  0.2317
  855MPD2    H712565   0.810   0.595  13.879  0.1116  0.0109  1.0866
  856MPD2     C12566   2.396   1.921  13.892 -0.3141  0.5934  0.2661
  856MPD2    C112567   2.468   2.040  13.889  0.2530  0.0282  0.4761
  856MPD2    C212568   2.408   2.148  13.827 -0.3018 -0.1166 -0.1240
  856MPD2    C312569   2.280   2.156  13.776 -0.0696 -0.0042 -0.6220
  856MPD2    C412570   2.208   2.036  13.782 -0.1403  0.9760  0.1232
  856MPD2    C512571   2.268   1.927  13.836  0.1973 -0.1848  0.3378
  856MPD2     H12572   2.473   2.235  13.824 -1.4038  0.7661  1.4032
  856MPD2    H112573   2.105   2.034  13.748 -0.0614  0.5263 -0.0891
  856MPD2    H212574   2.429   1.825  13.930 -0.1194 -0.1148 -1.6956
  856MPD2    H312575   2.215   1.833  13.827 -0.3070  0.1859 -0.5412
  856MPD2     N12576   2.209   2.270  13.716  0.2846  0.3942  0.0210
  856MPD2    H512577   2.113   2.253  13.685  0.9204 -1.7405 -0.7872
  856MPD2    N112578   2.601   2.045  13.933 -0.3357  1.0897 -0.5515
  856MPD2    H712579   2.658   2.123  13.900  2.6876 -0.1607  1.7031
  857MPD2     C12580   3.982   3.950  12.894  0.2154 -0.1141  0.3213
  857MPD2    C112581   4.097   3.913  12.964  0.1104  0.1795  0.8408
  857MPD2    C212582   4.156   4.005  13.050  0.2362 -0.2936 -0.8201
  857MPD2    C312583   4.099   4.136  13.071 -0.2346  0.4304  0.4433
  857MPD2    C412584   3.989   4.169  12.996  0.2076  0.8192 -0.7795
  857MPD2    C512585   3.934   4.078  12.912  0.1099 -0.1154  0.2361
  857MPD2     H12586   4.246   3.989  13.109 -0.5277  1.4091  0.8229
  857MPD2    H112587   3.951   4.270  12.999  0.8278  1.1086 -2.7848
  857MPD2    H212588   3.926   3.885  12.827  2.5012 -0.8832 -0.8648
  857MPD2    H312589   3.846   4.112  12.860  1.3480 -1.2069 -2.5957
  857MPD2     N12590   4.160   4.220  13.159  0.0792 -0.5833 -0.3691
  857MPD2    H512591   4.237   4.184  13.215 -3.1370 -1.9833  3.1200
  857MPD2    N112592   4.155   3.781  12.955  0.1280  0.3106 -0.3335
  857MPD2    H712593   4.099   3.703  12.920  0.1188  0.0109  0.3578
  858MPD2     C12594   4.024   2.942  17.047  0.2116  0.7900  0.1489
  858MPD2    C112595   4.153   2.897  17.057  0.7935  0.2180 -0.0562
  858MPD2    C212596   4.241   2.956  17.147 -0.2786  0.6911 -0.7176
  858MPD2    C312597   4.198   3.060  17.218  0.3737  0.1469 -0.3650
  858MPD2    C412598   4.067   3.102  17.207  0.9922 -0.4764 -0.1560
  858MPD2    C512599   3.984   3.039  17.128 -0.4282  0.1163 -0.3375
  858MPD2     H12600   4.346   2.930  17.148 -0.1442  1.2619  1.2303
  858MPD2    H112601   4.031   3.184  17.269  0.8059 -0.3421 -0.4450
  858MPD2    H212602   3.953   2.895  16.979  0.2321  1.1651 -0.1353
  858MPD2    H312603   3.878   3.061  17.136 -0.8556 -1.5751 -1.3422
  858MPD2     N12604   4.285   3.140  17.288 -0.6932 -0.1403  0.3406
  858MPD2    H512605   4.253   3.233  17.314  1.2182  0.4616  0.4713
  858MPD2    N112606   4.195   2.782  16.979  0.2247 -0.0063 -0.1501
  858MPD2    H712607   4.136   2.759  16.899 -0.1699  2.2571 -0.4971
  859MPD2     C12608   3.516   1.152  15.968 -0.6783 -0.2912 -0.3130
  859MPD2    C112609   3.475   1.049  15.890  0.1576  0.2804  0.0619
  859MPD2    C212610   3.422   0.933  15.947  0.0612  0.0458 -0.5413
  859MPD2    C312611   3.394   0.933  16.083 -0.4071  0.1043 -0.4371
  859MPD2    C412612   3.426   1.041  16.162  0.4050 -0.1464  0.4463
  859MPD2    C512613   3.496   1.151  16.106 -0.2128 -0.4424  0.6993
  859MPD2     H12614   3.397   0.845  15.888 -0.1594  0.6570 -1.3509
  859MPD2    H112615   3.410   1.049  16.269 -2.2719  1.0636 -0.0539
  859MPD2    H212616   3.554   1.246  15.931 -0.2383 -0.5720 -0.5668
  859MPD2    H312617   3.526   1.233  16.170  0.4623  0.6112 -0.9751
  859MPD2     N12618   3.347   0.814  16.143 -0.1614 -0.3880 -0.3468
  859MPD2    H512619   3.327   0.813  16.242 -1.7586  1.2759 -0.6656
  859MPD2    N112620   3.489   1.062  15.752 -0.0343 -0.1074  0.4231
  859MPD2    H712621   3.558   1.132  15.726  0.4950 -0.0314  2.0358
  860MPD2     C12622   1.048   0.686  11.420 -0.2946 -0.4556  0.0552
  860MPD2    C112623   1.062   0.601  11.523  0.1910  0.3625  0.4480
  860MPD2    C212624   0.990   0.619  11.636  0.4620 -0.2054  0.4416
  860MPD2    C312625   0.896   0.717  11.637 -0.2307  0.2737 -0.2047
  860MPD2    C412626   0.870   0.795  11.530 -0.1503 -0.3892 -0.8669
  860MPD2    C512627   0.942   0.774  11.421  0.0957  0.2038  0.4586
  860MPD2     H12628   1.010   0.567  11.729 -2.1246 -1.5004  0.2759
  860MPD2    H112629   0.792   0.870  11.534 -0.1615 -0.3441 -1.8401
  860MPD2    H212630   1.103   0.672  11.327  0.2730  1.2323  0.1325
  860MPD2    H312631   0.913   0.826  11.331 -0.4479  0.6962  0.9211
  860MPD2     N12632   0.832   0.736  11.758 -0.3502 -0.0410 -0.5204
  860MPD2    H512633   0.860   0.691  11.844 -2.3801  1.3134  0.8579
  860MPD2    N112634   1.169   0.513  11.536  0.2183 -0.1629  0.8434
  860MPD2    H712635   1.161   0.443  11.608 -1.5650 -0.4905  0.3283
  861MPD2     C12636   0.106   3.713  11.175  0.8585  0.0382 -0.8524
  861MPD2    C112637   0.020   3.754  11.277  0.3560  0.5679 -0.1985
  861MPD2    C212638   4.638   3.851  11.240 -0.4092 -0.0735  0.1818
  861MPD2    C312639   4.629   3.897  11.107  0.0596 -0.1633 -0.0960
  861MPD2    C412640   4.721   3.850  11.011  0.0602  0.2729 -0.2507
  861MPD2    C512641   0.090   3.756  11.049 -0.1204 -0.2438 -0.1584
  861MPD2     H12642   4.560   3.885  11.306 -0.3815  0.8323 -0.2499
  861MPD2    H112643   4.718   3.881  10.907  0.5705  1.3092  0.0329
  861MPD2    H212644   0.193   3.653  11.198  0.4689 -1.3402 -3.0130
  861MPD2    H312645   0.153   3.706  10.975  0.4691 -0.9064  0.7831
  861MPD2     N12646   4.528   3.996  11.062  0.3725 -0.1758  0.4036
  861MPD2    H512647   4.526   3.999  10.960 -0.8140 -2.5249  0.3463
  861MPD2    N112648   0.027   3.713  11.414 -0.3876  0.4728 -0.1386
  861MPD2    H712649   4.678   3.742  11.481 -2.3395 -3.5231 -0.4874
  862MPD2     C12650   3.885   3.978  10.700  0.0663 -0.3855  0.2995
  862MPD2    C112651   4.012   3.962  10.748 -0.0891  0.0502  1.0511
  862MPD2    C212652   4.088   3.861  10.697  0.2256 -0.0519  0.1497
  862MPD2    C312653   4.039   3.754  10.628 -0.6509 -0.0353 -0.2001
  862MPD2    C412654   3.904   3.761  10.586 -0.0183  0.2261  0.1751
  862MPD2    C512655   3.831   3.869  10.626 -0.1689 -0.4390  0.2563
  862MPD2     H12656   4.193   3.861  10.722  0.6395  1.7507 -1.6085
  862MPD2    H112657   3.868   3.682  10.523 -1.3889  1.0168 -0.0323
  862MPD2    H212658   3.831   4.066  10.735  1.0474  0.2604  0.1846
  862MPD2    H312659   3.726   3.872  10.598  0.6736 -1.9835 -3.0782
  862MPD2     N12660   4.111   3.637  10.586  0.5685  0.0352 -0.5813
  862MPD2    H512661   4.051   3.581  10.526  0.3081 -0.7777  0.4359
  862MPD2    N112662   4.081   4.050  10.826  0.3960  0.6652  0.0134
  862MPD2    H712663   4.180   4.027  10.829  0.0962 -0.3415  2.4042
  863MPD2     C12664   2.696   2.734  17.473  0.5985  0.1935 -0.3049
  863MPD2    C112665   2.721   2.643  17.372 -0.6777 -0.6060 -0.3601
  863MPD2    C212666   2.832   2.559  17.385  0.5265  0.3286  0.3292
  863MPD2    C312667   2.913   2.561  17.498 -0.1654 -0.5575 -0.0733
  863MPD2    C412668   2.882   2.661  17.596 -0.5332  0.1508  0.8758
  863MPD2    C512669   2.778   2.743  17.581 -0.4474  0.5028  0.4598
  863MPD2     H12670   2.850   2.487  17.306 -0.1617  0.7278 -0.1924
  863MPD2    H112671   2.941   2.667  17.686  2.0997 -1.6693 -0.7296
  863MPD2    H212672   2.611   2.801  17.464 -0.7517 -1.4478  0.0816
  863MPD2    H312673   2.753   2.816  17.658  0.8052  0.2506  1.1213
  863MPD2     N12674   3.010   2.465  17.537 -0.0454 -1.2087  0.6566
  863MPD2    H512675   3.068   2.488  17.617  1.9690  2.3055 -1.7757
  863MPD2    N112676   2.630   2.639  17.254 -0.0417  0.3573 -0.2746
  863MPD2    H712677   2.546   2.694  17.267 -0.0126  0.6123 -1.1670
  864MPD2     C12678   3.415   3.713  17.550 -0.6634  0.5759  0.2154
  864MPD2    C112679   3.415   3.611  17.453 -0.3930 -0.3293  0.3419
  864MPD2    C212680   3.458   3.641  17.326 -0.2168  0.1083 -0.1216
  864MPD2    C312681   3.503   3.765  17.287 -0.2480  0.0882 -0.1651
  864MPD2    C412682   3.488   3.867  17.382 -0.3299 -0.4691 -0.0812
  864MPD2    C512683   3.450   3.837  17.512 -0.4096 -0.2683 -0.1613
  864MPD2     H12684   3.472   3.553  17.265 -0.7245  0.6889 -1.0747
  864MPD2    H112685   3.528   3.964  17.353  1.5489 -0.7743  1.4940
  864MPD2    H212686   3.385   3.694  17.653  1.5328 -1.1009  0.5410
  864MPD2    H312687   3.447   3.913  17.589 -1.0327  0.8290 -1.2665
  864MPD2     N12688   3.565   3.794  17.160  0.0006  0.2288  0.0017
  864MPD2    H512689   3.577   3.891  17.134  0.1284  0.6519  1.5996
  864MPD2    N112690   3.407   3.480  17.499  0.1045  0.2114 -0.1027
  864MPD2    H712691   3.410   3.463  17.599 -0.5928  0.1490 -0.0947
  865MPD2     C12692   3.402   3.681  16.219  0.0953 -0.4484 -0.1715
  865MPD2    C112693   3.440   3.597  16.326  0.2197 -0.1601  0.2564
  865MPD2    C212694   3.517   3.661  16.425 -0.2668 -0.1224  0.6704
  865MPD2    C312695   3.540   3.795  16.421 -0.0257  0.1854  0.7780
  865MPD2    C412696   3.518   3.875  16.307  0.5220 -0.0275  0.2723
  865MPD2    C512697   3.440   3.812  16.212 -0.0192 -0.1468  0.1839
  865MPD2     H12698   3.553   3.599  16.506  0.2306 -0.7066  0.0020
  865MPD2    H112699   3.557   3.976  16.299  0.7510 -0.5174 -4.9347
  865MPD2    H212700   3.350   3.639  16.134 -0.8658  1.6496 -0.6073
  865MPD2    H312701   3.414   3.871  16.125  3.9736  2.5994  0.8283
  865MPD2     N12702   3.604   3.849  16.529 -0.1887  0.0403  0.2691
  865MPD2    H512703   3.640   3.944  16.522  0.5615 -0.3219 -0.7584
  865MPD2    N112704   3.426   3.459  16.314  0.4438  0.1986 -0.2899
  865MPD2    H712705   3.397   3.419  16.225  0.0227  0.8454 -0.4424
  866MPD2     C12706   0.657   3.680  11.122 -0.4971  0.0637  0.8432
  866MPD2    C112707   0.655   3.720  11.251  0.4214  0.0549 -0.2119
  866MPD2    C212708   0.560   3.801  11.292 -0.3676  0.2590 -0.5782
  866MPD2    C312709   0.462   3.848  11.212  0.6656 -0.2318 -0.5185
  866MPD2    C412710   0.465   3.817  11.074  0.6666 -0.2182  0.5323
  866MPD2    C512711   0.567   3.733  11.035  0.6520 -0.5191  0.2537
  866MPD2     H12712   0.555   3.832  11.396  0.8298 -1.8672  0.1150
  866MPD2    H112713   0.394   3.865  11.009  1.0599  0.6264  0.7305
  866MPD2    H212714   0.738   3.619  11.085 -2.1583 -1.1230 -0.8281
  866MPD2    H312715   0.592   3.703  10.934 -1.0539 -2.6000  0.4442
  866MPD2     N12716   0.366   3.945  11.259 -1.0591  0.3354 -0.1219
  866MPD2    H512717   0.296   3.979  11.194  1.3953  2.1983 -1.8009
  866MPD2    N112718   0.762   3.681  11.334 -0.3191 -0.2164  0.4708
  866MPD2    H712719   0.841   3.642  11.284 -0.7337  0.0625 -0.4016
  867MPD2     C12720   2.348   3.390  16.944  0.4897  0.6171 -0.5548
  867MPD2    C112721   2.444   3.392  17.041 -0.0621  0.1017 -0.3615
  867MPD2    C212722   2.493   3.513  17.090  0.1457 -0.2358 -0.3755
  867MPD2    C312723   2.448   3.629  17.030 -0.1446  0.0554  0.3631
  867MPD2    C412724   2.347   3.627  16.936 -0.2792 -0.1764 -0.7948
  867MPD2    C512725   2.305   3.504  16.887  0.2454  0.0406  1.0300
  867MPD2     H12726   2.554   3.512  17.179 -0.9944 -1.2844  0.3968
  867MPD2    H112727   2.311   3.712  16.880 -0.6506  0.1303 -0.0885
  867MPD2    H212728   2.307   3.298  16.903 -0.8194  0.9589  0.0226
  867MPD2    H312729   2.242   3.502  16.799 -0.0368 -1.7421  1.2655
  867MPD2     N12730   2.500   3.759  17.073  0.2949  0.1622  0.4506
  867MPD2    H512731   2.454   3.839  17.030  0.1377 -1.0159 -1.5949
  867MPD2    N112732   2.497   3.266  17.082  0.4806 -0.2129  0.1113
  867MPD2    H712733   2.464   3.189  17.025  1.6391 -0.4923 -0.1922
  868MPD2     C12734   4.609   2.461  13.186  0.2457  0.6878  0.3268
  868MPD2    C112735   4.618   2.349  13.266  0.0087  0.1954  0.0317
  868MPD2    C212736   4.533   2.324  13.372 -0.1935 -0.0575 -0.3409
  868MPD2    C312737   4.439   2.414  13.403 -0.2450  0.0442 -1.0530
  868MPD2    C412738   4.437   2.531  13.330 -0.2123  0.8096  0.3887
  868MPD2    C512739   4.514   2.555  13.221 -0.0698 -0.1806  0.6991
  868MPD2     H12740   4.529   2.228  13.421 -0.2771  0.3130  0.3913
  868MPD2    H112741   4.370   2.612  13.358 -0.7633  0.7028 -0.6323
  868MPD2    H212742   4.679   2.467  13.103  1.2214  0.0120  1.0981
  868MPD2    H312743   4.504   2.638  13.152 -0.0276 -1.7329 -1.1958
  868MPD2     N12744   4.354   2.380  13.507  0.0512 -0.0162  0.5630
  868MPD2    H512745   4.373   2.310  13.577  0.5425 -2.0129 -1.5872
  868MPD2    N112746   0.006   2.257  13.237  0.1007 -0.1749  0.2542
  868MPD2    H712747   0.051   2.282  13.149  2.5318 -1.3074  1.1862
  869MPD2     C12748   1.717   1.570   3.171 -0.2840 -0.2188 -0.5443
  869MPD2    C112749   1.695   1.463   3.093  0.2203 -0.6511 -0.2573
  869MPD2    C212750   1.604   1.466   2.988  0.4251 -0.6332  0.6859
  869MPD2    C312751   1.540   1.586   2.959 -0.0719  0.6593 -0.2653
  869MPD2    C412752   1.554   1.695   3.034 -0.3399 -0.1563  0.0076
  869MPD2    C512753   1.647   1.682   3.137  0.0113  0.0595 -0.1510
  869MPD2     H12754   1.594   1.380   2.922  0.2303 -0.3382  0.3335
  869MPD2    H112755   1.507   1.790   3.014  0.1953 -0.0450 -0.7161
  869MPD2    H212756   1.776   1.581   3.261 -0.5549  1.7616 -0.5986
  869MPD2    H312757   1.661   1.773   3.194  1.2347  0.1780 -0.6464
  869MPD2     N12758   1.456   1.610   2.850  0.4638 -0.0594  0.3990
  869MPD2    H512759   1.434   1.708   2.836  1.6537  0.2973  1.0831
  869MPD2    N112760   1.777   1.357   3.129 -0.1844 -0.3875 -0.1987
  869MPD2    H712761   1.839   1.375   3.208  0.9002 -0.2226 -1.0894
  870MPD2     C12762   0.650   0.410   2.216  0.6495  0.4195  0.3010
  870MPD2    C112763   0.707   0.296   2.157 -0.0413  0.0015 -0.2938
  870MPD2    C212764   0.774   0.304   2.036  0.6253  0.2933 -1.1263
  870MPD2    C312765   0.777   0.422   1.966 -0.0837 -0.2089 -0.2355
  870MPD2    C412766   0.726   0.534   2.025  0.1947 -0.1258 -0.6434
  870MPD2    C512767   0.672   0.528   2.152  0.2959 -0.0255 -0.1287
  870MPD2     H12768   0.811   0.214   1.987  0.8564 -0.6112  0.7422
  870MPD2    H112769   0.730   0.631   1.977  2.7184  0.6000  1.0373
  870MPD2    H212770   0.596   0.399   2.309  3.0912  0.3807  1.7110
  870MPD2    H312771   0.642   0.616   2.208 -0.4262 -0.3308 -0.0447
  870MPD2     N12772   0.838   0.416   1.838 -0.0640  0.2441 -0.0242
  870MPD2    H512773   0.851   0.320   1.809  1.0217  0.7843 -1.3187
  870MPD2    N112774   0.689   0.173   2.223 -0.1176  0.3222  0.7369
  870MPD2    H712775   0.625   0.176   2.302  0.1055  0.5574  0.9068
  871MPD2     C12776   1.283   3.674  16.483 -0.0189  0.4937 -0.4510
  871MPD2    C112777   1.343   3.615  16.594 -0.1722 -0.3538 -0.2501
  871MPD2    C212778   1.399   3.484  16.584 -0.3286  0.1111 -0.1717
  871MPD2    C312779   1.389   3.411  16.466  0.3455  0.9083 -0.5639
  871MPD2    C412780   1.345   3.480  16.355  0.1956 -0.0540  0.0819
  871MPD2    C512781   1.294   3.607  16.369  0.4228  0.1774  0.1521
  871MPD2     H12782   1.439   3.436  16.672  0.0650  0.7800  0.0192
  871MPD2    H112783   1.356   3.431  16.259 -1.6334 -0.5134  0.1048
  871MPD2    H212784   1.224   3.765  16.490 -0.1169  0.2428  2.2582
  871MPD2    H312785   1.265   3.655  16.276  0.3784  0.5199  0.3418
  871MPD2     N12786   1.442   3.274  16.458 -0.6580  0.4811 -0.0088
  871MPD2    H512787   1.490   3.232  16.537 -0.2033  0.2658 -0.4033
  871MPD2    N112788   1.327   3.694  16.711 -0.1332 -0.1875  0.0543
  871MPD2    H712789   1.274   3.780  16.704  1.6295  1.1960  3.6687
  872MPD2     C12790   2.228   0.749  14.128  0.2771 -0.4105  0.4185
  872MPD2    C112791   2.225   0.894  14.126  0.2550  0.3087 -0.0422
  872MPD2    C212792   2.132   0.958  14.204 -1.0937 -0.3091 -0.4861
  872MPD2    C312793   2.042   0.888  14.282  0.0451  0.3587 -0.1379
  872MPD2    C412794   2.056   0.753  14.287 -0.1459 -0.1191  0.2121
  872MPD2    C512795   2.142   0.689  14.211 -0.5910  0.5190 -0.1080
  872MPD2     H12796   2.131   1.066  14.194 -1.8668  0.0527  3.6389
  872MPD2    H112797   2.006   0.683  14.353 -0.3035  0.0506  0.2746
  872MPD2    H212798   2.297   0.686  14.073  1.4004  0.0950  1.2511
  872MPD2    H312799   2.153   0.581  14.218  1.3310  0.6855 -0.4605
  872MPD2     N12800   1.949   0.955  14.364 -0.3962  0.1976  0.1094
  872MPD2    H512801   1.896   0.901  14.433 -0.2743  0.1453  0.1614
  872MPD2    N112802   2.316   0.965  14.050 -0.9747 -0.4085  0.7101
  872MPD2    H712803   2.308   1.066  14.039 -1.4137 -0.9066 -3.4935
  873MPD2     C12804   4.468   1.751   1.439  0.0053 -0.6473 -0.0917
  873MPD2    C112805   4.346   1.790   1.492  0.4387  0.5444  0.4115
  873MPD2    C212806   4.239   1.706   1.474 -0.4248  0.2238  0.1769
  873MPD2    C312807   4.261   1.583   1.416 -1.4251  0.2972  0.1880
  873MPD2    C412808   4.385   1.547   1.367 -0.6529  0.1542 -0.4424
  873MPD2    C512809   4.485   1.635   1.374  0.2618  0.1951 -1.2291
  873MPD2     H12810   4.148   1.740   1.522 -1.0508 -0.5268 -0.4927
  873MPD2    H112811   4.408   1.457   1.311 -2.1166 -0.9499  0.7314
  873MPD2    H212812   4.562   1.802   1.456 -0.6876  0.7847 -0.5035
  873MPD2    H312813   4.579   1.627   1.320  1.0874  2.4270 -0.1189
  873MPD2     N12814   4.155   1.486   1.398  0.9778  0.8270  0.3964
  873MPD2    H512815   4.179   1.396   1.359  1.1137  0.8256  0.4803
  873MPD2    N112816   4.321   1.908   1.567 -0.6206  0.2633 -0.1180
  873MPD2    H712817   4.227   1.926   1.599 -0.4948  1.2530 -0.3078
  874MPD2     C12818   3.413   1.176  16.535  0.7729 -0.5833  0.1398
  874MPD2    C112819   3.507   1.165  16.642 -0.6710 -0.0312 -0.4221
  874MPD2    C212820   3.616   1.255  16.646  0.1356  0.2879  0.2982
  874MPD2    C312821   3.627   1.358  16.559  0.3844 -0.4923  0.2118
  874MPD2    C412822   3.533   1.376  16.461  0.1857  0.2577  0.0453
  874MPD2    C512823   3.428   1.285  16.453 -1.0531  0.2456 -0.0004
  874MPD2     H12824   3.683   1.258  16.732 -0.1438 -2.1570  0.6076
  874MPD2    H112825   3.539   1.457  16.389 -0.7600  0.0453 -0.2699
  874MPD2    H212826   3.325   1.116  16.516  1.2835 -1.0887 -0.5801
  874MPD2    H312827   3.352   1.298  16.377 -1.3064 -1.4608 -0.0429
  874MPD2     N12828   3.726   1.455  16.591  0.3029 -0.2670 -0.0207
  874MPD2    H512829   3.793   1.441  16.666 -1.8778  1.3075  2.2132
  874MPD2    N112830   3.501   1.052  16.725  0.1596 -0.1757  0.0688
  874MPD2    H712831   3.433   0.982  16.697  1.5723 -1.2140 -0.7505
  875MPD2     C12832   0.242   4.303  14.949 -0.1371 -0.4104  0.8856
  875MPD2    C112833   0.142   4.290  15.038 -0.2334  0.5068 -0.4143
  875MPD2    C212834   0.149   4.321  15.176 -0.2394  0.0972 -0.1327
  875MPD2    C312835   0.278   4.365  15.213  0.9663  0.4184 -0.6398
  875MPD2    C412836   0.384   4.363  15.118 -0.0780 -0.1689  0.1198
  875MPD2    C512837   0.372   4.340  14.986  0.3279  0.1429  0.2975
  875MPD2     H12838   0.062   4.321  15.242  1.7977 -3.2934  2.5586
  875MPD2    H112839   0.475   4.412  15.150  0.2714  0.0805 -1.2460
  875MPD2    H212840   0.237   4.294  14.842  0.1897  1.7042  0.6977
  875MPD2    H312841   0.457   4.330  14.920 -0.2388  0.7029 -0.5063
  875MPD2     N12842   0.316   4.404  15.343  0.2530 -0.3244 -0.2559
  875MPD2    H512843   0.411   4.438  15.351  0.0229 -0.3141  2.4180
  875MPD2    N112844   0.018   4.246  14.988 -0.5692 -0.2293  0.2826
  875MPD2    H712845   4.658   4.265  15.045  0.0344  1.7017  0.4878
  876MPD2     C12846   3.706   1.021  16.272 -0.0421 -0.5771 -0.2097
  876MPD2    C112847   3.805   0.974  16.190 -0.0529 -1.7959 -0.1343
  876MPD2    C212848   3.823   0.843  16.180 -0.5901 -0.6099 -0.5487
  876MPD2    C312849   3.749   0.750  16.256 -0.2995  0.0504  0.4311
  876MPD2    C412850   3.658   0.802  16.347 -0.4500  0.0545  0.2529
  876MPD2    C512851   3.639   0.934  16.357 -0.0990  0.2848 -0.2017
  876MPD2     H12852   3.903   0.807  16.117  0.4523 -0.7465  0.8628
  876MPD2    H112853   3.593   0.735  16.402  0.3234 -1.4122 -0.6266
  876MPD2    H212854   3.677   1.126  16.277 -0.3740 -0.6603 -0.3998
  876MPD2    H312855   3.563   0.969  16.426  0.2384  0.8013 -0.0908
  876MPD2     N12856   3.783   0.611  16.246 -0.2031  0.7091  0.4855
  876MPD2    H512857   3.847   0.582  16.173 -1.7325 -0.5062 -0.3712
  876MPD2    N112858   3.874   1.069  16.115  0.1443  0.0093  0.1280
  876MPD2    H712859   3.816   1.152  16.107 -0.3064 -0.0662  2.6362
  877MPD2     C12860   3.585   1.368  15.476 -0.6668 -0.3304 -0.0364
  877MPD2    C112861   3.725   1.377  15.467 -0.2961  0.0731  0.2649
  877MPD2    C212862   3.782   1.392  15.342 -0.6708 -0.4099 -0.2474
  877MPD2    C312863   3.710   1.397  15.230 -0.1685 -0.4221 -0.2255
  877MPD2    C412864   3.576   1.392  15.242 -0.9530 -0.6019  0.9381
  877MPD2    C512865   3.512   1.364  15.358 -0.0019 -0.6691 -0.2036
  877MPD2     H12866   3.889   1.389  15.326 -0.4079  1.2549  1.1479
  877MPD2    H112867   3.511   1.399  15.156 -1.1413 -1.8056  0.9851
  877MPD2    H212868   3.539   1.371  15.574 -1.2083  0.4507 -0.3179
  877MPD2    H312869   3.404   1.359  15.363 -0.0593 -0.4479 -1.3617
  877MPD2     N12870   3.758   1.425  15.106  0.0515  0.1349 -0.3488
  877MPD2    H512871   3.696   1.403  15.029 -0.4162 -1.5686  0.5225
  877MPD2    N112872   3.815   1.375  15.579  0.2560 -0.2364  0.5348
  877MPD2    H712873   3.911   1.392  15.551 -0.0884 -0.0869 -0.5541
  878MPD2     C12874   3.667   0.879  13.627 -0.1304  0.6821 -0.1960
  878MPD2    C112875   3.776   0.806  13.661 -0.3891 -0.4040 -0.0475
  878MPD2    C212876   3.753   0.691  13.743 -0.1411  0.4240  0.6218
  878MPD2    C312877   3.628   0.657  13.795  0.4216  0.2238 -0.4774
  878MPD2    C412878   3.526   0.740  13.763  0.7750  0.2212  0.6235
  878MPD2    C512879   3.542   0.839  13.668  0.6398  0.2859  0.1376
  878MPD2     H12880   3.843   0.643  13.781  0.1215  1.8646  1.8173
  878MPD2    H112881   3.424   0.722  13.797  0.5934  1.4419  0.7353
  878MPD2    H212882   3.677   0.959  13.554 -0.7474  0.9771  0.0430
  878MPD2    H312883   3.453   0.896  13.647 -0.8175 -0.8932  3.1325
  878MPD2     N12884   3.607   0.552  13.892  0.5960  0.2303  0.2191
  878MPD2    H512885   3.692   0.500  13.911 -0.0818 -0.4452  1.3721
  878MPD2    N112886   3.893   0.831  13.581 -0.2545  0.5706 -0.3296
  878MPD2    H712887   3.893   0.906  13.513  1.0735  0.9032  0.0389
  879MPD2     C12888   3.783   2.351  17.399 -0.1317  0.2600 -0.7067
  879MPD2    C112889   3.784   2.229  17.466 -0.2979  0.6443  0.2988
  879MPD2    C212890   3.675   2.149  17.450  0.4581  0.1324  0.3409
  879MPD2    C312891   3.558   2.179  17.374  0.2020 -0.0465 -0.1338
  879MPD2    C412892   3.556   2.301  17.308 -0.1657  0.1951  0.1510
  879MPD2    C512893   3.666   2.386  17.322 -0.0692 -0.1355  0.0832
  879MPD2     H12894   3.682   2.046  17.480  1.1119 -0.6204 -2.3502
  879MPD2    H112895   3.476   2.328  17.241  1.1790 -0.6100 -1.7806
  879MPD2    H212896   3.866   2.420  17.397 -0.6864  0.8687 -2.8687
  879MPD2    H312897   3.675   2.479  17.268  1.0054  0.3374  1.0650
  879MPD2     N12898   3.447   2.094  17.356  0.3273 -0.0213 -0.8836
  879MPD2    H512899   3.371   2.116  17.293  0.0671 -0.5654 -0.7610
  879MPD2    N112900   3.905   2.189  17.532  1.0263 -0.1588 -0.0852
  879MPD2    H712901   3.976   2.259  17.515  0.6995 -0.6844 -3.6511
  880MPD2     C12902   0.572   3.794   0.872  0.1161 -0.0843 -0.0729
  880MPD2    C112903   0.600   3.878   0.979 -0.2005 -0.1185  0.2233
  880MPD2    C212904   0.554   3.834   1.099 -0.7068 -0.3015  0.4728
  880MPD2    C312905   0.494   3.710   1.121  0.3843  0.0729 -0.4684
  880MPD2    C412906   0.476   3.624   1.012  0.3022 -0.2125 -0.5350
  880MPD2    C512907   0.518   3.670   0.888 -0.2434 -0.7628  0.3063
  880MPD2     H12908   0.544   3.900   1.184 -2.5830  1.0064 -0.7507
  880MPD2    H112909   0.421   3.530   1.013  0.4330 -0.3179 -2.9948
  880MPD2    H212910   0.590   3.831   0.771  1.5298  0.7805  0.4962
  880MPD2    H312911   0.505   3.606   0.802  2.8422 -0.7267 -0.2113
  880MPD2     N12912   0.452   3.684   1.250 -0.1488  0.1627  0.3571
  880MPD2    H512913   0.456   3.762   1.316 -1.5531  0.3679  0.1953
  880MPD2    N112914   0.655   4.003   0.950 -0.5372  0.3950  0.6539
  880MPD2    H712915   0.681   4.021   0.853  0.5968 -0.4944  0.7992
  881MPD2     C12916   0.420   4.459   0.214 -0.8070 -0.5150  0.2922
  881MPD2    C112917   0.544   4.411   0.231 -0.4047  0.0802 -0.3636
  881MPD2    C212918   0.591   4.401   0.364 -0.0114 -0.4241 -0.3334
  881MPD2    C312919   0.507   4.438   0.471  0.2321 -0.3235  0.1288
  881MPD2    C412920   0.384   4.496   0.445  0.5746 -0.4319 -0.3958
  881MPD2    C512921   0.342   4.509   0.314  0.6637  0.4674  0.1252
  881MPD2     H12922   0.692   4.364   0.375 -0.8459 -2.1119  1.5659
  881MPD2    H112923   0.315   4.520   0.525  1.2329 -3.1201  0.9743
  881MPD2    H212924   0.383   4.485   0.115  0.5672  2.7975  0.6513
  881MPD2    H312925   0.244   4.552   0.301  1.5887  1.6308 -3.0352
  881MPD2     N12926   0.548   4.414   0.603  0.1446  0.3291  0.1542
  881MPD2    H512927   0.493   4.461   0.675 -2.3027 -0.6631 -1.0834
  881MPD2    N112928   0.644   4.422   0.128  0.0083 -0.0430 -0.4246
  881MPD2    H712929   0.612   4.459   0.039  1.1786 -2.9478 -2.0463
  882MPD2     C12930   3.692   1.364  14.254 -0.1892 -0.4865 -0.4512
  882MPD2    C112931   3.641   1.348  14.380 -0.0471  0.7055  0.3092
  882MPD2    C212932   3.514   1.294  14.394  0.4278  0.0079  0.1065
  882MPD2    C312933   3.430   1.266  14.292 -0.3511 -0.2315  0.2896
  882MPD2    C412934   3.478   1.286  14.160 -0.7258  0.1406 -0.2462
  882MPD2    C512935   3.604   1.345  14.144 -0.7462 -0.2213  0.2391
  882MPD2     H12936   3.474   1.274  14.493 -1.1050 -0.7333 -0.6513
  882MPD2    H112937   3.417   1.269  14.072 -0.6758  3.3418 -0.8962
  882MPD2    H212938   3.794   1.399  14.241 -0.9150  2.9276  3.1342
  882MPD2    H312939   3.642   1.380  14.049 -2.6480  2.2350  0.3848
  882MPD2     N12940   3.297   1.215  14.307  0.2444 -0.2847 -0.0371
  882MPD2    H512941   3.237   1.222  14.225 -0.0071  4.5070  0.5538
  882MPD2    N112942   3.725   1.388  14.485  0.4362 -0.3761 -0.3955
  882MPD2    H712943   3.817   1.422  14.460 -1.0389  0.0611 -5.1895
  883MPD2     C12944   0.811   1.159  16.674 -1.1140 -0.1929  0.6515
  883MPD2    C112945   0.880   1.250  16.595 -0.2944  0.1482  0.2408
  883MPD2    C212946   1.000   1.299  16.642  0.5574 -0.1430  0.2472
  883MPD2    C312947   1.044   1.261  16.764  1.2159 -0.0344  0.1447
  883MPD2    C412948   0.971   1.184  16.851  0.1793 -0.1933  0.0130
  883MPD2    C512949   0.849   1.129  16.799 -0.1427 -0.1662  0.0693
  883MPD2     H12950   1.052   1.374  16.583 -4.1497  2.0317 -1.1210
  883MPD2    H112951   1.003   1.165  16.953  2.1769  1.1119 -0.3626
  883MPD2    H212952   0.728   1.108  16.627 -0.0435  0.5718 -2.0688
  883MPD2    H312953   0.796   1.053  16.855 -1.5821  2.5213  2.3738
  883MPD2     N12954   1.165   1.325  16.806  0.2537 -0.6743  0.2545
  883MPD2    H512955   1.209   1.383  16.735  1.1259 -0.7895  0.7001
  883MPD2    N112956   0.824   1.314  16.481  0.2517 -0.9999  0.1823
  883MPD2    H712957   0.879   1.378  16.423 -0.3712 -1.8741 -1.3784
  884MPD2     C12958   2.335   2.253  15.557  0.6405 -0.2178  0.2832
  884MPD2    C112959   2.337   2.222  15.423 -0.1193  0.0661  0.6211
  884MPD2    C212960   2.245   2.277  15.339  0.1160 -0.0872 -0.2126
  884MPD2    C312961   2.142   2.347  15.387 -0.5174  0.3840 -0.7071
  884MPD2    C412962   2.123   2.373  15.519  0.6341 -0.3372 -0.8371
  884MPD2    C512963   2.225   2.322  15.602  0.4542  0.1246 -0.1264
  884MPD2     H12964   2.242   2.237  15.238  0.4372 -2.6391  0.8143
  884MPD2    H112965   2.033   2.418  15.559  0.3887 -1.3791 -0.2242
  884MPD2    H212966   2.404   2.221  15.634  0.2495  3.0028  1.9764
  884MPD2    H312967   2.233   2.333  15.710  0.2571 -1.4174  0.0396
  884MPD2     N12968   2.050   2.401  15.296  0.5446 -0.4778 -0.1806
  884MPD2    H512969   2.057   2.368  15.200 -0.5917 -0.5897 -0.2268
  884MPD2    N112970   2.443   2.156  15.367 -0.2959 -0.1514  0.2916
  884MPD2    H712971   2.468   2.161  15.269  0.5586 -0.8881  0.4755
  885MPD2     C12972   1.193   2.287   0.815 -0.0058  0.0528  0.3963
  885MPD2    C112973   1.250   2.413   0.795  0.0614  0.4183  0.0386
  885MPD2    C212974   1.234   2.481   0.678  0.1554 -0.0756  0.0627
  885MPD2    C312975   1.161   2.416   0.578 -0.1687  0.0507 -0.1694
  885MPD2    C412976   1.093   2.303   0.609 -0.9458  0.0365 -0.1001
  885MPD2    C512977   1.110   2.231   0.721 -0.2280 -0.3950 -0.2249
  885MPD2     H12978   1.276   2.580   0.659 -0.8925  0.5417  0.9343
  885MPD2    H112979   1.028   2.261   0.532  0.6737  0.3890 -1.6462
  885MPD2    H212980   1.202   2.236   0.910 -1.5942 -2.4144 -0.7894
  885MPD2    H312981   1.070   2.133   0.745  1.5643 -1.4220 -1.3750
  885MPD2     N12982   1.144   2.478   0.456 -0.0981 -0.0849 -0.3474
  885MPD2    H512983   1.204   2.557   0.436 -0.6876  1.1886  3.0120
  885MPD2    N112984   1.336   2.456   0.895 -0.1815  0.0695  0.2891
  885MPD2    H712985   1.349   2.385   0.967  3.0591  0.5996  0.2445
  886MPD2     C12986   2.207   0.540  15.552  0.2473  1.6181  0.1687
  886MPD2    C112987   2.340   0.559  15.542 -0.6107 -0.2850  0.2696
  886MPD2    C212988   2.390   0.678  15.506  0.3070  0.4947  0.0609
  886MPD2    C312989   2.307   0.786  15.476  0.8792 -1.1335 -0.5112
  886MPD2    C412990   2.175   0.758  15.474 -0.0602  0.3749  0.4572
  886MPD2    C512991   2.123   0.641  15.517  0.4097  0.7472  0.3541
  886MPD2     H12992   2.499   0.679  15.512  0.3472 -0.5877 -0.4155
  886MPD2    H112993   2.110   0.841  15.448 -0.2539  0.5472  1.4993
  886MPD2    H212994   2.172   0.439  15.569  0.7041  1.5372  0.6455
  886MPD2    H312995   2.017   0.620  15.512  0.2634  1.5232  0.2117
  886MPD2     N12996   2.351   0.917  15.437 -0.7939  0.0804  0.0749
  886MPD2    H512997   2.280   0.986  15.414  1.9745  3.1391  0.5964
  886MPD2    N112998   2.429   0.457  15.575  0.6662  0.3003  0.3925
  886MPD2    H712999   2.522   0.463  15.535 -0.2089  2.4538 -1.3666
  887MPD2     C13000   2.913   0.439  16.046 -0.3105  0.3017 -0.6214
  887MPD2    C113001   2.881   0.485  15.922  0.7143  0.1116 -0.1557
  887MPD2    C213002   2.884   0.619  15.905 -0.1362  0.7325 -0.0061
  887MPD2    C313003   2.937   0.706  16.003  0.7661 -0.2457  0.7598
  887MPD2    C413004   2.973   0.649  16.127  0.6072 -0.5116 -0.0388
  887MPD2    C513005   2.967   0.518  16.143  0.0513  0.4366  0.4228
  887MPD2     H13006   2.859   0.655  15.806 -1.8190  0.5102  0.3364
  887MPD2    H113007   3.001   0.714  16.210 -1.1225 -0.1853  0.2910
  887MPD2    H213008   2.912   0.334  16.074 -1.3347  0.5483  0.2374
  887MPD2    H313009   3.011   0.471  16.230  0.1604 -0.8011 -0.3149
  887MPD2     N13010   2.947   0.843  15.977  0.3087  0.1625  0.0396
  887MPD2    H513011   2.907   0.877  15.890  0.4462 -0.0049 -0.0877
  887MPD2    N113012   2.830   0.405  15.810  0.5406 -0.1676 -0.5899
  887MPD2    H713013   2.784   0.462  15.740  1.2685 -0.5785 -1.4032
  888MPD2     C13014   0.140   0.943  15.031  0.1659 -0.1190  0.1793
  888MPD2    C113015   0.204   1.003  15.140  0.0261  0.5175 -0.1518
  888MPD2    C213016   0.277   1.111  15.124 -0.1543  0.2537 -0.5829
  888MPD2    C313017   0.302   1.163  14.997 -0.5299  0.4312  0.4951
  888MPD2    C413018   0.258   1.092  14.882  0.2083 -0.2907  0.5526
  888MPD2    C513019   0.191   0.972  14.905  0.1055  0.3944  0.4040
  888MPD2     H13020   0.322   1.158  15.211 -1.1734 -0.9439  0.5887
  888MPD2    H113021   0.283   1.125  14.782  2.2407  1.1129  1.5301
  888MPD2    H213022   0.088   0.848  15.041  0.0428 -0.1340 -0.5654
  888MPD2    H313023   0.153   0.914  14.821 -2.2795  0.7636  1.2148
  888MPD2     N13024   0.379   1.281  14.993 -0.3438 -0.0808  0.4404
  888MPD2    H513025   0.398   1.319  15.085 -2.8830 -1.5014  1.5704
  888MPD2    N113026   0.184   0.961  15.270 -0.4394  0.7711  0.1928
  888MPD2    H713027   0.237   1.016  15.337  0.9489 -2.3219  1.6211
  889MPD2     C13028   4.002   0.217  13.460 -0.0450  0.3052 -0.7690
  889MPD2    C113029   4.100   0.148  13.536 -0.5711  0.1328 -0.2024
  889MPD2    C213030   4.117   0.180  13.668  0.0065 -0.4609  0.2989
  889MPD2    C313031   4.023   0.269  13.729 -0.4650  0.0635  0.6820
  889MPD2    C413032   3.925   0.329  13.652  1.1584  0.5549 -0.0119
  889MPD2    C513033   3.922   0.312  13.515  0.4489  0.3911  0.5968
  889MPD2     H13034   4.175   0.114  13.732  1.2429 -0.9643 -1.3206
  889MPD2    H113035   3.861   0.409  13.687  0.8774  0.8375 -1.1533
  889MPD2    H213036   3.989   0.209  13.353 -1.1764  0.2329 -0.6260
  889MPD2    H313037   3.848   0.364  13.456 -2.1215 -5.3367 -1.2289
  889MPD2     N13038   4.037   0.293  13.866  0.9810 -0.2374  0.1774
  889MPD2    H513039   4.122   0.262  13.912  0.1436 -1.7706  0.6831
  889MPD2    N113040   4.151   0.026  13.481 -0.2778 -0.5240 -0.3024
  889MPD2    H713041   4.115   0.007  13.388 -1.5153 -1.9511  0.4669
  890MPD2     C13042   3.590   1.827  14.798  0.0535  0.2267 -0.0309
  890MPD2    C113043   3.725   1.841  14.820 -0.2989  0.3010 -0.3925
  890MPD2    C213044   3.775   1.835  14.947  0.6402  0.1849 -0.4629
  890MPD2    C313045   3.691   1.814  15.055 -1.2160 -0.4099 -0.0489
  890MPD2    C413046   3.557   1.804  15.039 -0.7986  0.4823  0.1357
  890MPD2    C513047   3.506   1.795  14.907 -0.1177 -0.8657 -0.0131
  890MPD2     H13048   3.881   1.846  14.969  1.2815 -1.7076 -2.6651
  890MPD2    H113049   3.493   1.789  15.125 -2.5927 -0.8937 -1.4213
  890MPD2    H213050   3.550   1.833  14.698  0.3183  0.1939 -0.1390
  890MPD2    H313051   3.401   1.774  14.894 -1.0838  3.1038  1.6853
  890MPD2     N13052   3.760   1.825  15.181 -0.2816  0.0659  0.2008
  890MPD2    H513053   3.854   1.862  15.177  0.6557 -1.9741  3.3330
  890MPD2    N113054   3.809   1.896  14.713  0.1880 -0.1865  0.3032
  890MPD2    H713055   3.763   1.945  14.637 -0.0882 -0.0658  0.5479
  891MPD2     C13056   1.408   0.077  16.993  0.0333  0.1464 -0.2235
  891MPD2    C113057   1.402   0.197  17.056 -0.1624 -0.2903  0.1709
  891MPD2    C213058   1.518   0.252  17.106 -0.0147  0.5485  0.0259
  891MPD2    C313059   1.642   0.199  17.072 -0.0471  0.6110 -1.0022
  891MPD2    C413060   1.653   0.085  16.999  0.3214  0.2403  0.2671
  891MPD2    C513061   1.537   0.027  16.958  0.8798 -0.0119 -0.2209
  891MPD2     H13062   1.508   0.330  17.179  0.5864  1.6225 -1.0360
  891MPD2    H113063   1.739   0.038  16.953  1.4182  3.2598 -0.7027
  891MPD2    H213064   1.324   0.019  16.959 -0.9279  1.2480  0.2613
  891MPD2    H313065   1.544   4.667  16.886  1.0358 -0.2871  0.1011
  891MPD2     N13066   1.754   0.274  17.111 -0.1310 -0.0951 -0.5074
  891MPD2    H513067   1.733   0.357  17.165 -1.5876 -1.4429  1.0100
  891MPD2    N113068   1.275   0.254  17.094 -0.7678 -0.8119  0.2600
  891MPD2    H713069   1.284   0.344  17.139  0.9889 -0.6309 -0.4421
  892MPD2     C13070   2.625   1.462  15.018  0.5155 -0.2049  0.4190
  892MPD2    C113071   2.565   1.439  14.893 -0.4887  0.5286  0.6190
  892MPD2    C213072   2.643   1.386  14.790  1.5858  0.4173  0.2632
  892MPD2    C313073   2.777   1.358  14.805  0.0902 -0.8941  0.6433
  892MPD2    C413074   2.835   1.397  14.926  0.6721  0.0237 -0.0958
  892MPD2    C513075   2.764   1.440  15.036 -0.0626 -0.1028  0.6691
  892MPD2     H13076   2.590   1.354  14.701  0.1084 -1.0213  1.6763
  892MPD2    H113077   2.942   1.385  14.935  0.9034  0.9537 -1.4869
  892MPD2    H213078   2.570   1.507  15.099  0.5876  0.1044  0.2931
  892MPD2    H313079   2.817   1.466  15.127  1.2076  0.9211 -0.3669
  892MPD2     N13080   2.854   1.289  14.715  0.1415 -0.4541  0.1455
  892MPD2    H513081   2.954   1.282  14.730  0.0280 -1.8162  0.2647
  892MPD2    N113082   2.431   1.479  14.861  0.0723 -0.4514  0.5602
  892MPD2    H713083   2.410   1.473  14.762  0.0554  0.2105  0.5251
  893MPD2     C13084   1.625   4.554   2.749  0.1694  0.4903  0.2923
  893MPD2    C113085   1.524   4.602   2.674  0.6376  0.4921 -0.1468
  893MPD2    C213086   1.408   4.518   2.646 -0.5170 -0.3321 -0.1465
  893MPD2    C313087   1.403   4.390   2.698 -0.2564 -0.1417  0.6503
  893MPD2    C413088   1.511   4.345   2.763 -0.0922 -0.3984  0.1549
  893MPD2    C513089   1.623   4.423   2.782  0.9312 -0.0114  0.6870
  893MPD2     H13090   1.324   4.553   2.587 -0.5909 -2.1697 -1.1249
  893MPD2    H113091   1.510   4.247   2.807 -0.4399 -0.5176 -0.1116
  893MPD2    H213092   1.709   4.621   2.769 -0.2200  0.7069  1.2007
  893MPD2    H313093   1.704   4.370   2.831 -0.1169 -1.2416  1.0662
  893MPD2     N13094   1.284   4.312   2.704  0.4245 -0.3489 -0.4205
  893MPD2    H513095   1.286   4.227   2.760 -1.7590  0.4566  0.8790
  893MPD2    N113096   1.524   0.016   2.623  0.3197  0.3082  0.0348
  893MPD2    H713097   1.608   0.073   2.626  1.5524 -1.5919  1.8307
  894MPD2     C13098   2.104   2.783   1.284  0.3612 -0.3728  0.3210
  894MPD2    C113099   2.175   2.725   1.388 -0.5555  0.1398  0.4692
  894MPD2    C213100   2.297   2.782   1.431  0.1440  0.1881 -0.1377
  894MPD2    C313101   2.350   2.886   1.360  0.2522 -0.0987 -0.1438
  894MPD2    C413102   2.272   2.944   1.255  0.4018  0.0602  0.4802
  894MPD2    C513103   2.149   2.895   1.223  0.3660 -0.0727  0.0937
  894MPD2     H13104   2.343   2.743   1.522 -2.0518  0.1064  0.9241
  894MPD2    H113105   2.307   3.021   1.188  0.6200 -0.7576 -0.3445
  894MPD2    H213106   2.008   2.746   1.250  0.5343 -0.2192 -0.3177
  894MPD2    H313107   2.083   2.934   1.147 -0.1568 -2.5547 -0.6999
  894MPD2     N13108   2.476   2.940   1.400 -0.0411 -0.5884  0.3736
  894MPD2    H513109   2.509   2.906   1.489 -2.2335  0.0908  1.4603
  894MPD2    N113110   2.138   2.608   1.449 -0.1050 -0.0081  0.2332
  894MPD2    H713111   2.205   2.576   1.518 -0.7700  1.2402  1.4732
  895MPD2     C13112   1.939   0.554  13.913 -0.5619  0.0903 -0.4720
  895MPD2    C113113   1.963   0.619  13.792 -0.1821 -0.4069 -0.9523
  895MPD2    C213114   2.088   0.608  13.729  0.2037  0.4603  0.3198
  895MPD2    C313115   2.189   0.533  13.786  0.6913  0.0755  0.5479
  895MPD2    C413116   2.161   0.480  13.912  0.0418 -0.2627  0.4079
  895MPD2    C513117   2.044   0.495  13.977 -0.5061  0.4914  0.8389
  895MPD2     H13118   2.108   0.662  13.637 -0.4488  0.3253  0.0957
  895MPD2    H113119   2.237   0.418  13.959  2.4917  2.8835  0.5828
  895MPD2    H213120   1.840   0.554  13.958 -0.4936  1.1513 -0.3036
  895MPD2    H313121   2.032   0.460  14.079 -1.9091  2.2533  1.2847
  895MPD2     N13122   2.314   0.505  13.726  1.0354  0.4033  0.8659
  895MPD2    H513123   2.366   0.422  13.756 -0.2416 -0.5092  0.5221
  895MPD2    N113124   1.861   0.692  13.719  0.5197  0.2383  0.4089
  895MPD2    H713125   1.885   0.722  13.626  1.5840 -0.0988  0.5775
  896MPD2     C13126   4.094   3.963   1.997  0.1431 -0.6223 -0.5284
  896MPD2    C113127   4.170   3.936   1.886  0.5289  0.5138 -0.0588
  896MPD2    C213128   4.087   3.905   1.779  1.5037  0.8431 -0.5369
  896MPD2    C313129   3.954   3.910   1.769  0.0936 -0.0113 -0.4502
  896MPD2    C413130   3.885   3.936   1.888 -0.7231 -0.2880  0.0016
  896MPD2    C513131   3.962   3.973   1.995  0.3178 -0.5239 -0.6170
  896MPD2     H13132   4.141   3.883   1.688  1.2008 -0.9722 -0.2776
  896MPD2    H113133   3.778   3.934   1.905 -0.6703 -1.7644  0.2154
  896MPD2    H213134   4.144   3.988   2.090 -1.4285 -1.8570  0.6793
  896MPD2    H313135   3.907   3.990   2.087  1.6449  1.8789 -0.2846
  896MPD2     N13136   3.888   3.871   1.651  0.1799  0.1904  0.0740
  896MPD2    H513137   3.938   3.852   1.565  1.1648 -1.1874  0.9675
  896MPD2    N113138   4.310   3.935   1.888 -0.5750 -0.4413  0.3064
  896MPD2    H713139   4.352   3.976   1.970 -0.2489  1.0070 -0.5939
  897MPD2     C13140   0.832   0.335  10.695  0.1145 -0.7927  0.0573
  897MPD2    C113141   0.728   0.282  10.622 -0.5662 -0.5278  0.1594
  897MPD2    C213142   0.642   0.198  10.694 -0.7736 -0.1569 -0.8886
  897MPD2    C313143   0.658   0.191  10.835 -0.9377  0.5555 -0.7182
  897MPD2    C413144   0.762   0.251  10.898  0.1011 -0.0327  0.2325
  897MPD2    C513145   0.851   0.323  10.827 -0.3744 -0.7376 -0.9289
  897MPD2     H13146   0.556   0.154  10.646 -0.1059 -1.1988 -1.1383
  897MPD2    H113147   0.781   0.248  11.005 -2.1684 -0.1866  0.6397
  897MPD2    H213148   0.892   0.402  10.634 -0.7958 -0.6208 -0.6510
  897MPD2    H313149   0.937   0.357  10.883 -2.5543  2.8111  0.2363
  897MPD2     N13150   0.556   0.135  10.911 -0.3753  0.4515  0.2187
  897MPD2    H513151   0.477   0.096  10.860 -1.9920  1.6330  1.8106
  897MPD2    N113152   0.711   0.323  10.490 -0.6232  0.0952 -0.0740
  897MPD2    H713153   0.762   0.405  10.458 -0.2767 -0.9114 -2.0768
  898MPD2     C13154   2.517   0.949   0.700 -0.7844  0.7837  0.5299
  898MPD2    C113155   2.620   1.009   0.628  0.6128  2.0195 -0.0608
  898MPD2    C213156   2.589   1.086   0.511 -0.4170  0.7973  0.2259
  898MPD2    C313157   2.458   1.087   0.467 -0.2153  0.1129  0.6127
  898MPD2    C413158   2.365   1.011   0.533  0.2776 -0.2140 -0.1859
  898MPD2    C513159   2.398   0.936   0.641 -0.2606  0.6089  0.1107
  898MPD2     H13160   2.662   1.145   0.457 -0.0509 -0.7851 -1.0103
  898MPD2    H113161   2.261   1.017   0.500 -0.8997 -1.3186  3.3452
  898MPD2    H213162   2.537   0.891   0.789 -0.8378 -0.0458  0.0087
  898MPD2    H313163   2.321   0.869   0.676 -1.0639  3.0136  2.9896
  898MPD2     N13164   2.429   1.159   0.349 -0.1032  0.4043 -0.0587
  898MPD2    H513165   2.503   1.213   0.304 -0.7275  0.6871 -0.7418
  898MPD2    N113166   2.755   1.012   0.660 -0.2957  0.4302 -1.0611
  898MPD2    H713167   2.812   1.068   0.598 -0.5671  0.4879 -1.2575
  899MPD2     C13168   3.151   1.740   0.212  0.3204 -0.8789  0.2157
  899MPD2    C113169   3.190   1.859   0.274  0.7514  0.5308  0.3591
  899MPD2    C213170   3.208   1.867   0.406  0.1864 -0.0546 -0.3304
  899MPD2    C313171   3.189   1.758   0.490 -0.4014 -0.4838  0.3234
  899MPD2    C413172   3.152   1.637   0.432 -0.3872  1.3398 -0.0528
  899MPD2    C513173   3.134   1.635   0.293 -0.4099 -0.2297 -0.3771
  899MPD2     H13174   3.246   1.957   0.453  1.7395 -0.6123 -0.5173
  899MPD2    H113175   3.133   1.542   0.481 -0.6525  0.8743 -1.0502
  899MPD2    H213176   3.154   1.720   0.106 -2.3219 -2.2065  0.4068
  899MPD2    H313177   3.127   1.543   0.237  2.3458 -1.2245  0.9257
  899MPD2     N13178   3.200   1.758   0.628  0.2640 -0.0790 -0.2363
  899MPD2    H513179   3.141   1.690   0.673 -0.0718  1.0053  0.9578
  899MPD2    N113180   3.220   1.975   0.194  0.1336 -0.4127  0.5259
  899MPD2    H713181   3.269   2.058   0.227  0.6498 -1.4542  2.3930
  900MPD2     C13182   3.044   3.204  12.814  0.5175  0.3607  0.1128
  900MPD2    C113183   3.101   3.090  12.771 -0.1856 -0.3617  0.1789
  900MPD2    C213184   3.056   3.037  12.649  0.5071  0.6282 -0.6249
  900MPD2    C313185   2.950   3.092  12.580  0.2315  0.1964 -0.3634
  900MPD2    C413186   2.895   3.209  12.629 -0.5305 -0.2558  0.1166
  900MPD2    C513187   2.944   3.267  12.745  0.2775  0.2851  1.0155
  900MPD2     H13188   3.108   2.956  12.600  0.5599 -1.1123  2.2887
  900MPD2    H113189   2.804   3.251  12.588 -0.8917  1.1481  2.3571
  900MPD2    H213190   3.075   3.253  12.905  1.2902  1.9045 -0.9811
  900MPD2    H313191   2.902   3.358  12.786  1.4349  0.1515  2.5097
  900MPD2     N13192   2.901   3.035  12.464 -0.1659  0.6511 -0.5028
  900MPD2    H513193   2.929   2.938  12.454 -1.3904  0.3540 -1.0372
  900MPD2    N113194   3.204   3.032  12.849 -0.0677 -0.2431  0.4401
  900MPD2    H713195   3.219   3.075  12.940 -0.9085  1.1229 -0.0637
  901MPD2     C13196   3.293   2.243  13.368  0.2108 -1.0007 -0.8093
  901MPD2    C113197   3.431   2.233  13.330 -0.1683 -0.1202 -0.4344
  901MPD2    C213198   3.476   2.347  13.270 -0.2450  0.6277  0.1936
  901MPD2    C313199   3.399   2.468  13.259  0.0833  0.0332 -0.2680
  901MPD2    C413200   3.279   2.474  13.320  0.4819  0.5242  0.3512
  901MPD2    C513201   3.230   2.366  13.377 -0.0902 -0.1575  0.1963
  901MPD2     H13202   3.580   2.350  13.238  0.1541 -0.3902  1.3928
  901MPD2    H113203   3.208   2.556  13.312  1.6911  1.5647  0.2923
  901MPD2    H213204   3.239   2.166  13.423 -2.3020  1.0817 -0.3491
  901MPD2    H313205   3.132   2.372  13.423  0.0885 -2.5026  0.8822
  901MPD2     N13206   3.465   2.573  13.199  0.5182 -0.4160 -0.7580
  901MPD2    H513207   3.554   2.549  13.156  0.1736  0.8733 -2.2015
  901MPD2    N113208   3.498   2.108  13.335 -0.3019  0.3611 -0.1769
  901MPD2    H713209   3.442   2.030  13.367  1.3482 -0.7408  0.0489
  902MPD2     C13210   2.261   0.688  12.973 -0.6376 -0.1774 -0.3181
  902MPD2    C113211   2.193   0.778  12.895 -0.2601 -0.2551 -0.0978
  902MPD2    C213212   2.224   0.777  12.756 -0.6118  0.2407 -1.0836
  902MPD2    C313213   2.306   0.680  12.698  0.2366 -0.1760  0.3832
  902MPD2    C413214   2.370   0.593  12.784 -0.3170  0.5041 -0.2925
  902MPD2    C513215   2.350   0.599  12.921 -0.1574  0.5050 -0.1962
  902MPD2     H13216   2.181   0.848  12.686 -1.7467  0.8368  0.2066
  902MPD2    H113217   2.425   0.508  12.746 -0.2084 -0.3635  1.8457
  902MPD2    H213218   2.248   0.687  13.080 -2.0213 -3.5795 -0.5343
  902MPD2    H313219   2.384   0.519  12.986  0.1377 -0.4760 -1.5559
  902MPD2     N13220   2.348   0.680  12.568  0.2954  0.0041 -0.1461
  902MPD2    H513221   2.406   0.602  12.539 -0.1241 -0.9520  1.5505
  902MPD2    N113222   2.103   0.869  12.961  0.2908 -0.6360 -0.4350
  902MPD2    H713223   2.085   0.858  13.060 -4.1037 -0.3948 -1.2147
  903MPD2     C13224   2.251   0.542  11.639 -0.5114 -0.1247  0.3049
  903MPD2    C113225   2.182   0.590  11.752  0.4468  0.3590  0.5033
  903MPD2    C213226   2.040   0.618  11.741  0.2471  0.6462  0.0437
  903MPD2    C313227   1.973   0.576  11.627  0.4045  0.1273  0.5109
  903MPD2    C413228   2.048   0.538  11.516 -0.2088  0.1235 -0.7007
  903MPD2    C513229   2.183   0.529  11.521  1.0740  0.0640  0.6489
  903MPD2     H13230   1.981   0.657  11.823 -1.1387 -0.0308 -0.6454
  903MPD2    H113231   1.996   0.512  11.424 -0.9343 -0.0911 -0.2306
  903MPD2    H213232   2.356   0.516  11.643 -0.3909  0.5055  1.0706
  903MPD2    H313233   2.239   0.480  11.443  0.5618  2.4752 -1.2327
  903MPD2     N13234   1.837   0.566  11.634  0.0450  0.1890  0.3626
  903MPD2    H513235   1.790   0.600  11.717  1.6787  0.4727  1.1711
  903MPD2    N113236   2.260   0.616  11.873  0.1520  0.0948 -0.1344
  903MPD2    H713237   2.360   0.604  11.860  0.3589  0.0848  1.4916
  904MPD2     C13238   1.913   0.113  13.599  0.1609 -0.0267 -1.1501
  904MPD2    C113239   1.907   0.004  13.683 -0.6901 -0.1546 -0.0105
  904MPD2    C213240   2.015   4.700  13.762 -0.0143 -0.2213 -1.0263
  904MPD2    C313241   2.124   0.071  13.767  0.0208  0.4500 -0.4745
  904MPD2    C413242   2.114   0.185  13.696  0.4141  1.1299  0.1045
  904MPD2    C513243   2.011   0.209  13.615 -0.1055  0.5111 -0.9256
  904MPD2     H13244   2.011   4.611  13.823  2.8566  0.8897  0.7671
  904MPD2    H113245   2.180   0.268  13.717  2.3393  0.0520 -1.7103
  904MPD2    H213246   1.833   0.132  13.528 -0.2313  0.6932 -0.5182
  904MPD2    H313247   2.006   0.308  13.569  0.8047  1.2356  0.5630
  904MPD2     N13248   2.221   0.048  13.860 -0.0964 -0.5310  0.1507
  904MPD2    H513249   2.216   4.676  13.899 -0.5284 -0.5356  0.0836
  904MPD2    N113250   1.797   4.635  13.691 -0.0633  0.2747  0.0842
  904MPD2    H713251   1.824   4.547  13.734 -3.3103 -0.6426  0.2781
  905MPD2     C13252   1.751   0.221  13.127 -0.3499  0.8823  0.5283
  905MPD2    C113253   1.776   0.281  13.244 -0.3847  0.4578  0.1200
  905MPD2    C213254   1.913   0.326  13.262 -0.0072 -0.0230  1.0962
  905MPD2    C313255   2.007   0.303  13.166  1.0315  0.0721 -0.8174
  905MPD2    C413256   1.975   0.232  13.055 -0.1413 -0.0660  0.2700
  905MPD2    C513257   1.847   0.204  13.032 -0.5114 -0.3568  0.5437
  905MPD2     H13258   1.941   0.365  13.359  0.2314  1.3449  0.4774
  905MPD2    H113259   2.049   0.193  12.986 -0.7887  0.2370 -0.5854
  905MPD2    H213260   1.651   0.185  13.106  0.2326 -1.2363  1.3138
  905MPD2    H313261   1.819   0.168  12.933  2.4550 -1.0124 -0.0570
  905MPD2     N13262   2.141   0.324  13.197  0.3817  0.0555 -0.2593
  905MPD2    H513263   2.207   0.279  13.135 -0.5450 -1.6450 -0.0216
  905MPD2    N113264   1.681   0.280  13.343 -0.6674 -0.1440  0.2218
  905MPD2    H713265   1.590   0.239  13.322 -0.3662  0.9600 -3.3136
  906MPD2     C13266   3.996   0.097  11.667  0.1309  0.5842 -0.1740
  906MPD2    C113267   3.986   4.716  11.577  0.4601  0.2626 -0.5624
  906MPD2    C213268   3.936   4.595  11.625 -0.0087 -0.3058 -0.0885
  906MPD2    C313269   3.888   4.578  11.750  0.3929  0.0425 -0.7815
  906MPD2    C413270   3.923   4.674  11.842 -0.2529 -0.6397  0.2223
  906MPD2    C513271   3.965   0.080  11.799 -0.9974  0.5826  0.0313
  906MPD2     H13272   3.926   4.519  11.549  1.7221  0.2525 -0.8714
  906MPD2    H113273   3.912   4.662  11.950 -1.4921  1.9794  0.3909
  906MPD2    H213274   4.030   0.194  11.633 -2.0603  1.3572 -0.1933
  906MPD2    H313275   3.981   0.161  11.870  1.3967  0.4961 -0.4167
  906MPD2     N13276   3.823   4.457  11.787 -0.0268  0.6221 -0.2329
  906MPD2    H513277   3.781   4.449  11.880 -1.1674  0.0001 -0.7961
  906MPD2    N113278   3.999   0.004  11.433  0.3676  0.1589  0.1306
  906MPD2    H713279   3.974   4.648  11.372 -0.3775  0.9012 -0.4924
  907MPD2     C13280   2.543   4.282  16.323 -0.3769  0.2784 -0.0943
  907MPD2    C113281   2.610   4.163  16.277  0.0459  0.3203 -0.1547
  907MPD2    C213282   2.723   4.126  16.347  0.1203 -0.3946 -1.5203
  907MPD2    C313283   2.771   4.195  16.456  0.3132 -0.2704 -0.1203
  907MPD2    C413284   2.699   4.302  16.506  0.0727 -0.2887 -0.3073
  907MPD2    C513285   2.585   4.346  16.435  0.3910 -1.0193  0.0005
  907MPD2     H13286   2.772   4.032  16.325 -0.8484 -0.7820 -2.0317
  907MPD2    H113287   2.723   4.355  16.598 -1.1732  0.4262 -0.3894
  907MPD2    H213288   2.449   4.313  16.278 -1.4521  1.2942  2.8694
  907MPD2    H313289   2.509   4.420  16.456 -0.3828 -2.1561  1.2336
  907MPD2     N13290   2.887   4.138  16.520  0.1158  0.2125  0.3338
  907MPD2    H513291   2.919   4.052  16.478  1.3960  1.3296 -0.9653
  907MPD2    N113292   2.582   4.094  16.159  0.0189  0.7174 -0.6674
  907MPD2    H713293   2.653   4.035  16.116 -0.0437  0.1519  0.0046
  908MPD2     C13294   0.140   4.652   9.698  0.0121  0.1413 -1.3550
  908MPD2    C113295   0.250   4.602   9.759  0.4427 -0.4371 -0.7646
  908MPD2    C213296   0.324   4.684   9.844  0.5148 -0.1576  0.0419
  908MPD2    C313297   0.290   0.095   9.864 -0.2989 -0.1174  0.3645
  908MPD2    C413298   0.183   0.144   9.793 -0.0025 -0.0523  0.3228
  908MPD2    C513299   0.106   0.061   9.717  0.5395  0.2795 -0.0209
  908MPD2     H13300   0.396   4.651   9.918  0.7016 -0.9263 -0.4767
  908MPD2    H113301   0.152   0.246   9.808 -0.1902 -0.1906  0.8592
  908MPD2    H213302   0.074   4.594   9.635 -0.2818 -0.5544 -0.3908
  908MPD2    H313303   0.020   0.099   9.661  1.4209  1.1410 -0.7933
  908MPD2     N13304   0.365   0.172   9.969  0.7756 -0.4947 -0.3491
  908MPD2    H513305   0.442   0.124  10.014  0.7858 -0.0589  0.1055
  908MPD2    N113306   0.290   4.474   9.732 -0.7559 -0.4546 -0.0511
  908MPD2    H713307   0.240   4.427   9.656 -2.7829 -0.1461  1.0869
  909MPD2     C13308   1.440   2.534  12.115  0.6124 -0.6029  0.6844
  909MPD2    C113309   1.399   2.631  12.028  0.2674  0.5083  0.4731
  909MPD2    C213310   1.310   2.727  12.072 -0.1714 -0.7286  0.9224
  909MPD2    C313311   1.259   2.722  12.200 -0.1051 -0.5871 -0.2584
  909MPD2    C413312   1.294   2.617  12.281  0.5623  0.7220  0.1829
  909MPD2    C513313   1.392   2.530  12.238 -0.1910  0.7549  0.7542
  909MPD2     H13314   1.285   2.812  12.010  1.7087 -0.9420 -0.1170
  909MPD2    H113315   1.262   2.611  12.385  2.7410 -0.8057  0.7545
  909MPD2    H213316   1.510   2.458  12.079  1.5982  0.4211  0.4437
  909MPD2    H313317   1.432   2.458  12.308  0.1041  1.0950  0.9330
  909MPD2     N13318   1.160   2.820  12.240 -0.5610  0.6689 -0.4400
  909MPD2    H513319   1.134   2.893  12.174 -2.4891 -0.1490 -0.5739
  909MPD2    N113320   1.443   2.646  11.897 -0.0171  0.0175  0.3701
  909MPD2    H713321   1.400   2.718  11.841 -1.3595 -0.5417  0.6798
  910MPD2     C13322   2.033   4.539  16.153 -0.1158 -0.6563  0.1248
  910MPD2    C113323   2.121   4.440  16.122  0.5573 -0.3174 -0.7188
  910MPD2    C213324   2.145   4.415  15.987 -0.3030 -0.6463 -0.2656
  910MPD2    C313325   2.074   4.492  15.897  0.0903 -0.2332  0.6339
  910MPD2    C413326   1.990   4.595  15.934 -0.6206  0.0849  0.5042
  910MPD2    C513327   1.970   4.611  16.063  0.0203  0.2104  0.1767
  910MPD2     H13328   2.222   4.343  15.961  1.7240  1.2323  0.4827
  910MPD2    H113329   1.954   4.670  15.865  0.7267 -0.5239 -0.8635
  910MPD2    H213330   2.001   4.557  16.255  1.9098 -0.0133  0.6494
  910MPD2    H313331   1.905   4.690  16.099 -0.1854 -0.1318  0.5570
  910MPD2     N13332   2.090   4.470  15.757  0.4210  0.1049 -0.5035
  910MPD2    H513333   2.040   4.537  15.700  0.1138  0.9065  0.7070
  910MPD2    N113334   2.184   4.371  16.231 -0.4525 -0.5913  0.5159
  910MPD2    H713335   2.253   4.303  16.200  1.7338  1.5840  0.5162
  911MPD2     C13336   0.012   0.504  16.389 -0.0450 -0.0171  0.0081
  911MPD2    C113337   0.055   0.594  16.481 -0.2535  1.0689  0.2109
  911MPD2    C213338   4.681   0.681  16.527 -0.2925 -0.4208  0.3452
  911MPD2    C313339   4.549   0.683  16.489 -1.0679  0.3036 -0.2142
  911MPD2    C413340   4.517   0.595  16.388 -0.6977 -0.4821  0.4867
  911MPD2    C513341   4.612   0.512  16.334  0.5375  1.1266  0.1006
  911MPD2     H13342   4.707   0.739  16.614 -0.3476  1.3038 -0.7903
  911MPD2    H113343   4.416   0.594  16.348 -0.5528  0.1928  0.1078
  911MPD2    H213344   0.088   0.439  16.346  0.3850 -0.3743  1.3152
  911MPD2    H313345   4.577   0.444  16.258  1.9821  1.9448 -1.2811
  911MPD2     N13346   4.451   0.765  16.536 -0.2774  0.7945  0.1196
  911MPD2    H513347   4.361   0.765  16.489  0.3638  1.1897 -1.1369
  911MPD2    N113348   0.184   0.579  16.524 -0.4386  0.0018 -0.2011
  911MPD2    H713349   0.239   0.509  16.477  1.3794  2.4583 -1.7159
  912MPD2     C13350   4.166   0.647  16.072 -0.1180 -0.4314  0.0649
  912MPD2    C113351   4.151   0.647  16.208 -0.0380  0.0519  0.2155
  912MPD2    C213352   4.192   0.527  16.275 -0.4047  0.4563 -0.1756
  912MPD2    C313353   4.260   0.431  16.211 -0.1960 -0.6396 -0.1304
  912MPD2    C413354   4.268   0.438  16.077  0.0415 -0.4853  0.4946
  912MPD2    C513355   4.236   0.553  16.006 -0.1236 -0.2256  0.2870
  912MPD2     H13356   4.180   0.521  16.383 -1.5459 -0.4843 -0.3548
  912MPD2    H113357   4.321   0.367  16.015 -1.2586  0.7693 -2.0505
  912MPD2    H213358   4.133   0.737  16.021 -0.9654 -0.8823 -0.1780
  912MPD2    H313359   4.256   0.556  15.899  0.4026 -1.9048  0.3251
  912MPD2     N13360   4.311   0.326  16.296 -0.2295 -0.0592 -0.1339
  912MPD2    H513361   4.290   0.339  16.395  0.1696  0.8288 -0.1617
  912MPD2    N113362   4.107   0.764  16.276  0.5315  0.9121 -0.6201
  912MPD2    H713363   4.111   0.848  16.219 -1.0654  0.8157 -0.8757
  913MPD2     C13364   0.218   1.910  10.065  0.3292  0.2069  0.1655
  913MPD2    C113365   0.287   1.997  10.151 -0.0916  0.3142  0.6061
  913MPD2    C213366   0.281   2.135  10.125 -0.6758  0.1744  0.0139
  913MPD2    C313367   0.223   2.180  10.007  0.1000  0.1871 -0.2703
  913MPD2    C413368   0.159   2.096   9.923  0.5196  0.5005  0.0812
  913MPD2    C513369   0.155   1.967   9.959  0.2189 -0.1978  0.1952
  913MPD2     H13370   0.322   2.207  10.195 -1.7416  1.6245 -0.8436
  913MPD2    H113371   0.098   2.134   9.842 -0.8392 -1.7393  0.0478
  913MPD2    H213372   0.200   1.806  10.088 -0.7270  0.1928 -0.7355
  913MPD2    H313373   0.086   1.903   9.906 -0.1493  0.7658 -0.4794
  913MPD2     N13374   0.221   2.315   9.965 -0.4447  0.2387  0.1764
  913MPD2    H513375   0.213   2.323   9.864  0.4609  1.1499  0.1738
  913MPD2    N113376   0.340   1.936  10.266 -0.7737  0.6004  0.0335
  913MPD2    H713377   0.322   1.837  10.280 -2.0762  0.7487 -0.6493
  914MPD2     C13378   3.515   1.786  12.605 -0.1498  0.5517  0.4925
  914MPD2    C113379   3.515   1.904  12.678  0.5528  0.3438 -0.0162
  914MPD2    C213380   3.524   1.892  12.812  0.2005  0.2929  0.3175
  914MPD2    C313381   3.549   1.772  12.873 -0.1052 -0.9386 -0.1077
  914MPD2    C413382   3.546   1.654  12.795  0.2216  0.2355  0.7360
  914MPD2    C513383   3.528   1.660  12.663  0.1665 -0.3517 -0.5202
  914MPD2     H13384   3.532   1.974  12.882  2.5966  1.0245 -0.8057
  914MPD2    H113385   3.561   1.555  12.836  1.0637  0.3198  0.6256
  914MPD2    H213386   3.495   1.782  12.498 -1.6839  2.2866  0.7132
  914MPD2    H313387   3.513   1.575  12.598 -0.3451 -0.1892 -0.6170
  914MPD2     N13388   3.580   1.777  13.015 -0.0398 -0.2084 -0.3940
  914MPD2    H513389   3.594   1.870  13.053  0.3142 -0.4301  0.0098
  914MPD2    N113390   3.506   2.029  12.616 -0.2201  0.1638  0.6018
  914MPD2    H713391   3.466   2.036  12.523 -0.1580 -2.6105  0.3700
  915MPD2     C13392   1.262   1.828  15.967 -0.2361 -0.3698  0.6740
  915MPD2    C113393   1.133   1.872  15.944 -0.3179  0.1315  0.7406
  915MPD2    C213394   1.065   1.954  16.040 -0.0457  0.0168 -0.3753
  915MPD2    C313395   1.123   1.982  16.165  0.5761  0.1126  0.3895
  915MPD2    C413396   1.247   1.928  16.193 -0.6990  0.3283 -0.8364
  915MPD2    C513397   1.317   1.860  16.090  0.5793 -0.3886  0.2416
  915MPD2     H13398   0.965   1.980  16.007  0.6058  1.9693 -0.8234
  915MPD2    H113399   1.301   1.944  16.286  0.4530 -0.5534 -1.3545
  915MPD2    H213400   1.318   1.765  15.899 -0.3664  1.0263 -0.7266
  915MPD2    H313401   1.417   1.820  16.105  0.0892 -1.0941  1.6079
  915MPD2     N13402   1.051   2.065  16.256  0.1272  0.2990 -0.2680
  915MPD2    H513403   0.969   2.115  16.222  0.4954  0.3638 -1.0526
  915MPD2    N113404   1.062   1.829  15.832  0.1476 -0.1343 -0.8081
  915MPD2    H713405   0.969   1.869  15.821  0.2409  0.7693  1.4948
  916MPD2     C13406   4.013   0.305  15.756 -0.6583  0.0855  0.7012
  916MPD2    C113407   4.035   0.221  15.859  0.3325  0.5417 -0.0984
  916MPD2    C213408   4.084   0.096  15.828 -0.4617  0.8155  0.6996
  916MPD2    C313409   4.110   0.060  15.700 -0.1482 -0.5272 -0.4192
  916MPD2    C413410   4.115   0.152  15.601  0.6560  0.8993 -0.3052
  916MPD2    C513411   4.063   0.272  15.631  0.6192  0.5804  0.0272
  916MPD2     H13412   4.091   0.020  15.906 -1.4881 -0.0348 -0.0214
  916MPD2    H113413   4.157   0.134  15.502 -0.1288  0.6250 -0.5873
  916MPD2    H213414   3.976   0.406  15.772  2.1874  0.8823  2.1721
  916MPD2    H313415   4.045   0.338  15.547  0.2357 -0.8494 -1.0234
  916MPD2     N13416   4.148   4.647  15.683 -0.1455 -0.2837  0.3011
  916MPD2    H513417   4.154   4.601  15.773 -1.1666 -1.9799 -0.4998
  916MPD2    N113418   3.991   0.259  15.985 -0.0077  0.1476 -0.3482
  916MPD2    H713419   3.945   0.348  16.001  0.1204 -0.1464  1.6418
  917MPD2     C13420   0.362   2.566  11.700 -0.2878 -0.8011 -0.4300
  917MPD2    C113421   0.251   2.532  11.624 -0.4236  0.3864 -0.3968
  917MPD2    C213422   0.265   2.531  11.488 -0.0224  0.3160 -0.2562
  917MPD2    C313423   0.383   2.579  11.431 -0.2514 -0.7662 -0.0265
  917MPD2    C413424   0.488   2.618  11.506  0.7660  0.0502 -0.7798
  917MPD2    C513425   0.481   2.605  11.639 -0.2151  0.1195 -0.0295
  917MPD2     H13426   0.182   2.508  11.423  1.1166  0.4768 -1.7678
  917MPD2    H113427   0.584   2.638  11.460  2.2833 -1.1528  1.8509
  917MPD2    H213428   0.369   2.551  11.807  0.9041  0.7419 -0.2951
  917MPD2    H313429   0.568   2.626  11.699  1.2895  0.8347 -2.4550
  917MPD2     N13430   0.400   2.609  11.295  0.4511 -0.7664  0.4912
  917MPD2    H513431   0.488   2.652  11.269  0.7976 -2.3049 -0.9207
  917MPD2    N113432   0.143   2.483  11.697 -0.6231  0.2155 -0.3144
  917MPD2    H713433   0.163   2.490  11.796 -1.2456  0.0230 -0.1738
  918MPD2     C13434   0.170   2.820  12.376 -0.1635 -0.3409  0.3354
  918MPD2    C113435   0.246   2.726  12.307 -0.0324  0.7108 -0.3670
  918MPD2    C213436   0.185   2.640  12.221 -0.1048  0.4160  0.2644
  918MPD2    C313437   0.050   2.647  12.207  0.8615  0.8365  0.1275
  918MPD2    C413438   4.698   2.740  12.274  0.6792 -0.1711 -0.8470
  918MPD2    C513439   0.037   2.826  12.355 -0.9071  0.3487  0.4819
  918MPD2     H13440   0.247   2.564  12.175  0.9769 -0.3494  3.0052
  918MPD2    H113441   4.590   2.747  12.271  0.5279 -0.8622  2.5821
  918MPD2    H213442   0.213   2.901  12.434  2.3066 -0.0577 -1.8846
  918MPD2    H313443   4.700   2.898  12.410 -0.3643  1.1582  0.0026
  918MPD2     N13444   4.714   2.546  12.118 -0.2162  0.4155 -0.2301
  918MPD2    H513445   0.055   2.487  12.064 -0.1744  1.1112 -0.9464
  918MPD2    N113446   0.387   2.719  12.324 -0.3836  0.4257  0.1151
  918MPD2    H713447   0.432   2.643  12.273 -1.1260 -0.3428  0.6118
  919MPD2     C13448   0.473   1.684  11.972 -0.2521 -0.2586  0.6022
  919MPD2    C113449   0.368   1.598  11.939 -0.0957 -0.0897  0.0677
  919MPD2    C213450   0.307   1.615  11.814 -0.3132  0.4977  0.3630
  919MPD2    C313451   0.352   1.715  11.728 -0.0220 -0.6546 -0.3745
  919MPD2    C413452   0.460   1.794  11.766 -0.6250  0.2307 -0.1121
  919MPD2    C513453   0.518   1.776  11.888  0.3533  0.3503  0.0546
  919MPD2     H13454   0.235   1.542  11.779 -1.0785  1.4774 -0.1083
  919MPD2    H113455   0.489   1.882  11.710 -0.4599 -0.4719 -1.1340
  919MPD2    H213456   0.523   1.682  12.068 -2.2110 -1.1678  1.6113
  919MPD2    H313457   0.584   1.859  11.911  2.1152 -0.3965 -2.2217
  919MPD2     N13458   0.287   1.743  11.604  0.1550  0.3315 -0.7311
  919MPD2    H513459   0.341   1.801  11.541  0.5766  0.0802 -0.6020
  919MPD2    N113460   0.337   1.486  12.017  0.9774  0.2378 -0.5162
  919MPD2    H713461   0.276   1.415  11.977 -0.1327  0.5150  0.6810
  920MPD2     C13462   0.288   2.098  10.664 -0.5614 -0.2590  0.0627
  920MPD2    C113463   0.184   1.998  10.663  0.3538 -0.0327 -0.1056
  920MPD2    C213464   0.164   1.935  10.780 -0.0655  0.1993 -0.1969
  920MPD2    C313465   0.225   1.962  10.899 -0.4244  0.1249  0.0927
  920MPD2    C413466   0.331   2.052  10.898 -0.0671  0.1257  0.1183
  920MPD2    C513467   0.355   2.122  10.781 -0.0510 -0.8880 -0.8133
  920MPD2     H13468   0.092   1.854  10.792  1.0695 -0.4874  1.9208
  920MPD2    H113469   0.396   2.080  10.980  1.6162 -2.3276 -0.3883
  920MPD2    H213470   0.309   2.161  10.578  1.7556 -0.5134  0.4446
  920MPD2    H313471   0.423   2.206  10.787  0.0539 -0.9171 -1.6627
  920MPD2     N13472   0.201   1.876  11.007 -0.2415  1.0246 -1.1125
  920MPD2    H513473   0.126   1.809  10.990  0.1662 -0.0892  1.4469
  920MPD2    N113474   0.104   1.952  10.556 -0.2235 -0.6989  0.3713
  920MPD2    H713475   0.029   1.887  10.577  0.4850 -1.3763  0.8068
  921MPD2     C13476   0.865   0.930  17.175  0.2463  0.2648 -0.3089
  921MPD2    C113477   0.884   0.798  17.170  0.4543  0.1330  1.0614
  921MPD2    C213478   0.802   0.720  17.088  0.3376 -0.7117 -0.4978
  921MPD2    C313479   0.719   0.777  16.990 -0.3212  0.3105  0.1134
  921MPD2    C413480   0.690   0.910  17.008 -0.1807  0.5760  1.1356
  921MPD2    C513481   0.768   0.981  17.101  0.1025  0.1152  0.0520
  921MPD2     H13482   0.806   0.612  17.097 -3.0057 -0.9864 -1.9804
  921MPD2    H113483   0.624   0.964  16.942  0.8708  2.3995  1.5627
  921MPD2    H213484   0.919   0.994  17.245 -1.1273  0.4040  0.6107
  921MPD2    H313485   0.762   1.089  17.110 -1.2423 -0.0850  1.5368
  921MPD2     N13486   0.637   0.708  16.900 -0.6111 -0.4532 -0.0307
  921MPD2    H513487   0.587   0.767  16.834  0.6355  0.1379 -0.4559
  921MPD2    N113488   0.991   0.745  17.255  0.5591 -0.1715 -0.0265
  921MPD2    H713489   1.020   0.813  17.325  0.0189 -0.9710  0.9678
  922MPD2     C13490   1.727   3.100  17.015 -0.3988 -0.7064 -0.5454
  922MPD2    C113491   1.745   3.119  17.154 -0.3908  0.3425  0.5616
  922MPD2    C213492   1.671   3.040  17.248 -0.2778 -0.8554  0.0112
  922MPD2    C313493   1.565   2.963  17.201 -0.1357  0.2189 -0.1456
  922MPD2    C413494   1.565   2.933  17.067 -0.1861  0.6552 -0.3095
  922MPD2    C513495   1.646   2.998  16.979  0.6343 -0.1069 -0.0535
  922MPD2     H13496   1.685   3.063  17.353  0.2807 -3.2097  0.4577
  922MPD2    H113497   1.498   2.855  17.032  0.6692 -0.6598  1.0132
  922MPD2    H213498   1.778   3.155  16.938  0.9212 -0.3412  0.5901
  922MPD2    H313499   1.636   2.971  16.875  0.8138 -1.2732  0.2354
  922MPD2     N13500   1.457   2.906  17.274 -0.4505  0.0993 -0.0417
  922MPD2    H513501   1.390   2.851  17.222 -1.6699  1.7249 -0.1896
  922MPD2    N113502   1.850   3.200  17.205 -0.5302 -0.0420  0.0575
  922MPD2    H713503   1.862   3.211  17.305 -0.3729 -0.8612  0.1251
  923MPD2     C13504   3.695   1.096   9.358  0.4841  1.0257  0.0840
  923MPD2    C113505   3.567   1.047   9.374  0.6394 -0.1199 -0.3268
  923MPD2    C213506   3.543   0.917   9.343  0.6371 -0.1296  0.0995
  923MPD2    C313507   3.644   0.834   9.304 -0.6787  0.5839 -0.8603
  923MPD2    C413508   3.771   0.879   9.289  0.3299  0.6126  0.4132
  923MPD2    C513509   3.805   1.012   9.322  0.4647 -0.3300 -1.0518
  923MPD2     H13510   3.449   0.866   9.362  0.2485 -0.6040 -3.0897
  923MPD2    H113511   3.855   0.820   9.253 -0.1796 -1.1216  2.0545
  923MPD2    H213512   3.714   1.197   9.392  1.1451  1.0397 -0.3388
  923MPD2    H313513   3.906   1.050   9.318  0.5907 -0.5938 -0.3774
  923MPD2     N13514   3.627   0.693   9.303  0.3364 -0.1285  0.1875
  923MPD2    H513515   3.718   0.647   9.304  0.2009 -0.3421  2.3927
  923MPD2    N113516   3.465   1.134   9.417 -0.0609  0.6233  0.0852
  923MPD2    H713517   3.482   1.234   9.431  0.1747  0.6240 -0.2075
  924MPD2     C13518   3.006   3.414  16.322  0.5472 -0.0158 -0.0532
  924MPD2    C113519   3.043   3.435  16.450  0.3854 -0.0318 -0.7873
  924MPD2    C213520   3.082   3.560  16.494  0.4833  0.3872 -0.2629
  924MPD2    C313521   3.103   3.662  16.397 -0.3447  0.6059  0.0583
  924MPD2    C413522   3.068   3.638  16.267  0.2885  0.2179 -0.0008
  924MPD2    C513523   3.017   3.511  16.234  0.3250 -0.5258 -0.8228
  924MPD2     H13524   3.094   3.585  16.599 -0.7292  0.3714 -0.1223
  924MPD2    H113525   3.081   3.709  16.186 -0.2569  0.2491 -0.0626
  924MPD2    H213526   2.972   3.314  16.297  1.8143  0.2158 -2.7478
  924MPD2    H313527   2.971   3.492  16.138 -0.7604 -2.1510  0.0087
  924MPD2     N13528   3.148   3.792  16.427  0.4118  0.2387 -0.2380
  924MPD2    H513529   3.150   3.856  16.348  2.3718 -0.0583 -0.4243
  924MPD2    N113530   3.017   3.332  16.542  0.1337 -0.0177  0.0553
  924MPD2    H713531   2.948   3.264  16.513  0.8227 -0.4002 -0.6685
  925MPD2     C13532   1.851   1.181  15.089  0.0835  0.5838 -0.0627
  925MPD2    C113533   1.727   1.138  15.048  0.2900 -0.3048  0.3006
  925MPD2    C213534   1.624   1.109  15.128 -0.3141 -0.7586 -0.5619
  925MPD2    C313535   1.649   1.130  15.260 -0.2498 -0.5179  0.1605
  925MPD2    C413536   1.767   1.182  15.306 -0.2087  0.0888 -0.3135
  925MPD2    C513537   1.874   1.196  15.222  0.1405  0.0747  0.0947
  925MPD2     H13538   1.531   1.070  15.090 -0.6487  2.5871 -3.2544
  925MPD2    H113539   1.779   1.207  15.411 -1.2056  0.6027 -0.3218
  925MPD2    H213540   1.933   1.213  15.025 -0.6337 -0.0785 -1.3057
  925MPD2    H313541   1.963   1.241  15.263 -0.0396  1.4153 -0.9786
  925MPD2     N13542   1.554   1.100  15.364  0.7584 -0.2938 -0.0534
  925MPD2    H513543   1.586   1.109  15.460 -1.4400  1.4372  0.5261
  925MPD2    N113544   1.699   1.125  14.908 -0.3475 -0.1004 -0.5269
  925MPD2    H713545   1.603   1.097  14.892 -0.2039 -1.2509  0.6173
  926MPD2     C13546   0.702   4.164  13.801  0.2308 -0.3577  0.1829
  926MPD2    C113547   0.634   4.243  13.714  0.2215  0.4980  0.0288
  926MPD2    C213548   0.701   4.288  13.604  0.7735  0.7881  0.4982
  926MPD2    C313549   0.835   4.258  13.585 -0.0647  0.7854 -0.0254
  926MPD2    C413550   0.910   4.185  13.678  0.4278 -0.5843  0.0575
  926MPD2    C513551   0.835   4.143  13.790  0.0014 -0.1845  0.4675
  926MPD2     H13552   0.649   4.358  13.541  1.7046  0.4542 -0.6365
  926MPD2    H113553   1.018   4.175  13.672  0.4076 -0.5325 -0.3640
  926MPD2    H213554   0.662   4.120  13.891  0.1492  1.2230  0.9295
  926MPD2    H313555   0.889   4.092  13.870 -0.0691  0.2755  0.8106
  926MPD2     N13556   0.905   4.279  13.462 -0.4546  0.1162 -0.2795
  926MPD2    H513557   1.000   4.247  13.446 -0.8502 -1.3155  0.2932
  926MPD2    N113558   0.496   4.274  13.727  0.1681 -0.0632 -0.5284
  926MPD2    H713559   0.458   4.336  13.657  2.0399 -0.6346 -2.0385
  927MPD2     C13560   0.239   1.744   0.631  0.0982 -0.2361  0.3589
  927MPD2    C113561   0.332   1.834   0.675  0.0670 -0.3233 -0.3473
  927MPD2    C213562   0.439   1.868   0.595  0.2843  0.4115 -0.2970
  927MPD2    C313563   0.452   1.819   0.470  0.2172 -0.1608 -0.9568
  927MPD2    C413564   0.363   1.722   0.425  0.0593 -0.0306  0.5923
  927MPD2    C513565   0.263   1.696   0.503 -0.2197  0.4284  0.1654
  927MPD2     H13566   0.510   1.938   0.639  0.7201 -0.4952  0.4362
  927MPD2    H113567   0.374   1.698   0.320 -0.1629 -0.0772  0.5783
  927MPD2    H213568   0.159   1.709   0.695 -0.1964 -0.8455 -0.3430
  927MPD2    H313569   0.190   1.629   0.460  1.4037 -2.4516  1.8940
  927MPD2     N13570   0.540   1.875   0.375 -0.1589 -1.0379 -0.5964
  927MPD2    H513571   0.548   1.810   0.298 -0.8996 -0.1288 -1.4340
  927MPD2    N113572   0.299   1.894   0.800  0.1031 -0.7257  0.7291
  927MPD2    H713573   0.214   1.856   0.840 -1.5571  2.2125  0.0576
  928MPD2     C13574   2.636   1.023   1.635 -0.0070  0.4567 -0.6112
  928MPD2    C113575   2.745   1.025   1.722 -0.4287  0.4778 -0.1745
  928MPD2    C213576   2.871   1.017   1.660  0.6092 -1.6092 -0.2828
  928MPD2    C313577   2.877   1.010   1.523  0.5251 -0.8099  0.7324
  928MPD2    C413578   2.766   0.996   1.450 -0.5998 -0.1445  0.5317
  928MPD2    C513579   2.646   0.990   1.503 -0.0306 -0.5892  0.5077
  928MPD2     H13580   2.961   1.010   1.720  1.7003 -0.4898 -1.8030
  928MPD2    H113581   2.778   0.980   1.344  0.1310 -0.6127  0.6824
  928MPD2    H213582   2.535   1.038   1.672 -0.4362 -1.8111 -0.8538
  928MPD2    H313583   2.557   0.981   1.442  1.2947  0.5664 -1.5686
  928MPD2     N13584   3.003   1.007   1.445 -0.2745 -0.6241  0.0343
  928MPD2    H513585   2.993   0.985   1.347 -0.1731 -0.7548  0.0531
  928MPD2    N113586   2.720   1.043   1.860 -0.7482 -0.1201 -0.3042
  928MPD2    H713587   2.629   1.067   1.896  0.3973 -1.4877  3.5836
  929MPD2     C13588   2.382   0.383  10.792  0.5547 -0.0340 -0.1335
  929MPD2    C113589   2.491   0.298  10.756  0.4947 -0.6875  0.2995
  929MPD2    C213590   2.566   0.337  10.650  0.3907 -0.2412 -1.1913
  929MPD2    C313591   2.527   0.440  10.573 -0.0974  0.5549 -0.0077
  929MPD2    C413592   2.425   0.518  10.609  0.1115  0.3836  0.2392
  929MPD2    C513593   2.354   0.500  10.725  0.1001 -0.3563  0.8198
  929MPD2     H13594   2.650   0.274  10.623 -0.0278 -0.6234 -1.6183
  929MPD2    H113595   2.393   0.600  10.546  0.4123 -0.3417 -0.8669
  929MPD2    H213596   2.324   0.361  10.881  0.2997 -0.6140 -0.4412
  929MPD2    H313597   2.274   0.570  10.749  0.3138 -0.1274  0.8652
  929MPD2     N13598   2.593   0.479  10.458 -0.6929  0.2405  0.2853
  929MPD2    H513599   2.577   0.576  10.432  1.6185  0.6918  0.5690
  929MPD2    N113600   2.524   0.198  10.850 -0.1244  0.2091  0.3393
  929MPD2    H713601   2.460   0.188  10.929 -2.1012  1.3913 -1.1409
  930MPD2     C13602   4.657   2.293  14.374 -0.9573 -0.3905  0.0106
  930MPD2    C113603   0.012   2.322  14.256  0.3806 -0.0159 -0.2098
  930MPD2    C213604   0.025   2.226  14.155  0.0422 -1.0827  0.0475
  930MPD2    C313605   4.678   2.106  14.170 -0.2446 -0.6550  0.4445
  930MPD2    C413606   4.590   2.090  14.280  0.0152  0.1812  0.1396
  930MPD2    C513607   4.590   2.177  14.381 -0.7976  0.0440  0.3088
  930MPD2     H13608   0.087   2.245  14.068 -1.0824 -1.9230 -0.9378
  930MPD2    H113609   4.518   2.008  14.283  0.9114 -0.6795 -1.6698
  930MPD2    H213610   4.639   2.363  14.456  0.2540 -0.6390  0.5018
  930MPD2    H313611   4.518   2.154  14.458 -0.6865  2.2626  1.0915
  930MPD2     N13612   4.680   2.022  14.058 -0.2272  0.4049  0.3712
  930MPD2    H513613   0.014   2.054  13.979 -1.9734  0.9645 -0.6210
  930MPD2    N113614   0.068   2.449  14.247  0.1241 -0.3183  0.6229
  930MPD2    H713615   0.050   2.510  14.326 -0.9221  0.6843 -0.3936
  931MPD2     C13616   0.785   2.355   1.234  0.7259 -0.7948  0.3463
  931MPD2    C113617   0.665   2.333   1.287  0.3260  0.6672 -0.2833
  931MPD2    C213618   0.649   2.342   1.427  0.3801  1.0867 -0.7178
  931MPD2    C313619   0.756   2.383   1.503 -0.2715 -0.1391 -0.2600
  931MPD2    C413620   0.883   2.403   1.449 -0.0783  0.4190 -0.4050
  931MPD2    C513621   0.897   2.392   1.309  0.2657  0.0684  0.1583
  931MPD2     H13622   0.566   2.290   1.474 -0.2599  1.9415 -0.9059
  931MPD2    H113623   0.966   2.435   1.512 -1.6883 -1.4280  2.6520
  931MPD2    H213624   0.796   2.340   1.127  2.0676  1.3688  0.1726
  931MPD2    H313625   0.993   2.402   1.260 -0.1856  0.4541 -0.6574
  931MPD2     N13626   0.750   2.386   1.644  0.1486  0.5914 -0.3333
  931MPD2    H513627   0.839   2.379   1.692  0.9254  0.4880 -1.7716
  931MPD2    N113628   0.560   2.293   1.207 -0.0952 -0.3118 -0.3517
  931MPD2    H713629   0.583   2.273   1.110  0.1058  1.4671 -0.6700
  932MPD2     C13630   2.296   0.362  11.142  0.1927  0.2777  0.8997
  932MPD2    C113631   2.392   0.453  11.183  0.3411 -1.2855  0.3793
  932MPD2    C213632   2.519   0.407  11.212 -0.7303 -0.5522 -0.2784
  932MPD2    C313633   2.543   0.271  11.218  0.3135  0.6567  0.0900
  932MPD2    C413634   2.439   0.186  11.188 -0.1646 -0.0045  0.8194
  932MPD2    C513635   2.309   0.228  11.151 -0.3800 -0.5976 -0.2253
  932MPD2     H13636   2.593   0.482  11.238  1.3378 -1.8290 -2.5096
  932MPD2    H113637   2.456   0.079  11.193  1.5792  0.2965  1.0874
  932MPD2    H213638   2.195   0.398  11.127  0.6166  0.0077 -2.7910
  932MPD2    H313639   2.231   0.159  11.119  0.9058 -1.1407 -2.2230
  932MPD2     N13640   2.668   0.206  11.247 -0.4223 -0.6225  0.7352
  932MPD2    H513641   2.666   0.106  11.268 -3.4200 -0.7848 -0.3047
  932MPD2    N113642   2.359   0.587  11.214  0.0232 -0.0339 -0.0807
  932MPD2    H713643   2.421   0.638  11.276  0.4013  0.5487 -0.9299
  933MPD2     C13644   2.320   1.423   2.441 -0.1458 -1.1961 -0.7571
  933MPD2    C113645   2.428   1.433   2.357 -0.0828  0.0195 -0.6392
  933MPD2    C213646   2.457   1.558   2.300 -0.6291 -0.2026 -0.1390
  933MPD2    C313647   2.370   1.668   2.319  0.9974 -0.0066 -0.2777
  933MPD2    C413648   2.251   1.646   2.396 -0.2502 -0.2741  0.0096
  933MPD2    C513649   2.234   1.526   2.457 -0.1456  0.6642  0.4178
  933MPD2     H13650   2.536   1.567   2.226 -0.0241  1.5921  0.7008
  933MPD2    H113651   2.186   1.727   2.427 -2.1293 -1.5135 -0.6841
  933MPD2    H213652   2.301   1.328   2.488  1.9918  0.2041  2.9024
  933MPD2    H313653   2.133   1.508   2.494 -0.4176  0.2595 -0.5203
  933MPD2     N13654   2.389   1.789   2.253  0.0573 -0.4026  0.4545
  933MPD2    H513655   2.475   1.794   2.198  0.6872 -1.4383  1.3475
  933MPD2    N113656   2.511   1.317   2.336 -0.2051  0.0711 -0.5248
  933MPD2    H713657   2.467   1.232   2.369  0.0867  0.3571  0.6114
  934MPD2     C13658   3.939   3.270   2.466  0.0875  0.2352  0.3652
  934MPD2    C113659   4.024   3.284   2.359 -0.4501  0.7679  0.3330
  934MPD2    C213660   4.005   3.202   2.250  0.3147  0.1744  0.2239
  934MPD2    C313661   3.910   3.106   2.249 -0.0829  0.4054  1.1936
  934MPD2    C413662   3.829   3.092   2.365 -0.2065  0.5217  0.1640
  934MPD2    C513663   3.847   3.172   2.474 -0.1500  0.2706 -0.2832
  934MPD2     H13664   4.073   3.207   2.166  0.0307 -1.1697 -0.0801
  934MPD2    H113665   3.749   3.019   2.368 -0.6327  0.9883  0.2124
  934MPD2    H213666   3.947   3.324   2.559 -1.2934  0.4470  0.3667
  934MPD2    H313667   3.785   3.156   2.562  0.6890  2.0184  0.6293
  934MPD2     N13668   3.880   3.024   2.141  0.5192 -0.2636  0.1433
  934MPD2    H513669   3.800   2.965   2.163  0.9579 -1.2071 -0.7632
  934MPD2    N113670   4.118   3.393   2.332 -0.1424 -0.4939  0.2462
  934MPD2    H713671   4.171   3.386   2.246  1.4587 -0.9179  1.2710
  935MPD2     C13672   4.438   2.481   1.512 -0.7016 -0.0851  0.8073
  935MPD2    C113673   4.307   2.456   1.468  0.0931  0.3977  0.8162
  935MPD2    C213674   4.210   2.541   1.520  0.2968 -0.3439  0.2246
  935MPD2    C313675   4.235   2.633   1.625  0.3299 -0.1255  0.2919
  935MPD2    C413676   4.368   2.654   1.671 -0.1796 -0.1958 -0.6589
  935MPD2    C513677   4.468   2.581   1.604  0.3572 -0.0170 -0.2875
  935MPD2     H13678   4.108   2.511   1.498 -0.4976  2.2790  0.3418
  935MPD2    H113679   4.396   2.737   1.735  0.6209 -0.3874 -0.7674
  935MPD2    H213680   4.522   2.417   1.490 -2.6024 -1.1783 -3.2328
  935MPD2    H313681   4.569   2.586   1.643 -0.3269 -0.6131  1.5556
  935MPD2     N13682   4.130   2.692   1.702 -0.1017 -0.0773  0.7078
  935MPD2    H513683   4.157   2.726   1.794 -2.7427 -0.0509  1.4740
  935MPD2    N113684   4.265   2.350   1.381  0.4410  0.4567 -0.2160
  935MPD2    H713685   4.175   2.360   1.336  0.2878 -2.3405 -0.5180
  936MPD2     C13686   2.290   3.709  12.398 -0.4090  0.4297 -0.1070
  936MPD2    C113687   2.282   3.679  12.538 -0.1076 -0.2004 -0.7862
  936MPD2    C213688   2.313   3.770  12.636  1.1079 -0.6615  0.2652
  936MPD2    C313689   2.356   3.895  12.598  0.1291  0.1155 -0.3002
  936MPD2    C413690   2.380   3.918  12.462 -0.5535  0.3215 -0.1354
  936MPD2    C513691   2.346   3.828  12.369 -0.4513  0.1118  0.6381
  936MPD2     H13692   2.307   3.742  12.741  1.2146  2.8943  1.2109
  936MPD2    H113693   2.427   4.008  12.424  0.1860  0.5603  1.3445
  936MPD2    H213694   2.263   3.641  12.318 -0.0416 -2.7153  2.4459
  936MPD2    H313695   2.362   3.851  12.264  0.5481  0.7710  0.9335
  936MPD2     N13696   2.391   3.996  12.689 -0.7565  0.1398  0.0658
  936MPD2    H513697   2.436   4.072  12.639  0.4360 -0.0667  0.8218
  936MPD2    N113698   2.238   3.553  12.582 -0.0727  0.3971  0.4878
  936MPD2    H713699   2.223   3.540  12.681  2.1042  0.7830  0.8807
  937MPD2     C13700   0.094   0.843  11.863  0.5739  0.1045  0.5633
  937MPD2    C113701   0.155   0.962  11.846 -0.2104 -0.3498 -0.1815
  937MPD2    C213702   0.163   1.026  11.723 -0.0973  0.0255  0.2899
  937MPD2    C313703   0.116   0.956  11.612 -0.3746  0.3944  0.4803
  937MPD2    C413704   0.076   0.821  11.624  0.2193  0.4633 -0.0197
  937MPD2    C513705   0.057   0.767  11.755 -0.4177  0.6514 -0.1029
  937MPD2     H13706   0.213   1.122  11.712 -2.5915  1.0192 -2.3034
  937MPD2    H113707   0.050   0.758  11.539  1.5065 -0.1389  0.0341
  937MPD2    H213708   0.079   0.814  11.967  1.1234 -0.0123  0.6074
  937MPD2    H313709   0.013   0.669  11.766  2.4119 -0.2278  3.2340
  937MPD2     N13710   0.145   1.001  11.483 -0.1558  0.1010 -0.0384
  937MPD2    H513711   0.187   1.093  11.470  0.0573 -0.0870 -0.6765
  937MPD2    N113712   0.172   1.056  11.952 -0.3353 -0.2315 -0.2240
  937MPD2    H713713   0.212   1.143  11.919  0.0348 -0.4374 -0.3159
  938MPD2     C13714   2.647   2.721   1.103 -0.2531 -0.1123 -0.4946
  938MPD2    C113715   2.771   2.732   1.160 -0.6984  0.2588  0.6113
  938MPD2    C213716   2.790   2.691   1.296 -0.0612  0.2488  0.0666
  938MPD2    C313717   2.674   2.632   1.365  0.2674  0.6520 -0.9430
  938MPD2    C413718   2.557   2.617   1.300  0.2474  0.3923  0.2573
  938MPD2    C513719   2.535   2.675   1.179  0.0675 -0.7549  0.0987
  938MPD2     H13720   2.891   2.687   1.335 -0.7436  1.7982  2.0005
  938MPD2    H113721   2.471   2.565   1.340  0.3493 -0.8486 -1.1180
  938MPD2    H213722   2.624   2.759   1.004 -0.3940  1.3710  0.1077
  938MPD2    H313723   2.446   2.658   1.119  0.4822 -0.1982 -0.6787
  938MPD2     N13724   2.679   2.602   1.508  0.0019  0.3028  0.9108
  938MPD2    H513725   2.593   2.564   1.546 -0.4683  0.0547 -0.4000
  938MPD2    N113726   2.877   2.794   1.087 -0.4921  0.4252  0.1412
  938MPD2    H713727   2.854   2.819   0.991  0.2067  1.0960  0.1545
  939MPD2     C13728   3.839   4.074   0.679  0.4021 -1.0095  0.0473
  939MPD2    C113729   3.922   4.116   0.771  0.1100  0.4008 -0.0184
  939MPD2    C213730   4.043   4.049   0.787 -0.0980  0.1126 -0.3535
  939MPD2    C313731   4.072   3.943   0.701  0.0669  0.6020  0.1551
  939MPD2    C413732   3.983   3.897   0.609  0.1519 -0.2995  0.8822
  939MPD2    C513733   3.864   3.959   0.598  0.1374  0.5767  0.0963
  939MPD2     H13734   4.121   4.086   0.853 -1.8367 -0.0350  1.7755
  939MPD2    H113735   4.011   3.826   0.532  0.0588 -1.9551  2.3731
  939MPD2    H213736   3.749   4.133   0.663  0.8146 -0.5864 -0.7342
  939MPD2    H313737   3.792   3.928   0.523  0.3372  0.8047 -0.1885
  939MPD2     N13738   4.202   3.884   0.705  0.2154  0.0137 -0.4331
  939MPD2    H513739   4.274   3.930   0.760  1.2327 -0.3992 -1.4267
  939MPD2    N113740   3.885   4.235   0.849  0.1469  0.1428 -0.0317
  939MPD2    H713741   3.797   4.279   0.826  0.0604 -1.4708 -2.7087
  940MPD2     C13742   3.209   4.000  13.208  0.1058  0.0016 -0.1030
  940MPD2    C113743   3.281   3.901  13.276  0.4632  0.0671 -0.0637
  940MPD2    C213744   3.302   3.783  13.211  0.8669  0.5803 -0.2224
  940MPD2    C313745   3.263   3.762  13.078 -0.3100  0.8502  0.6253
  940MPD2    C413746   3.197   3.863  13.012  0.1705 -0.5334 -0.5139
  940MPD2    C513747   3.166   3.981  13.079  0.1233 -0.3276  0.0655
  940MPD2     H13748   3.354   3.708  13.269  0.0103  0.2818  0.1529
  940MPD2    H113749   3.150   3.842  12.917 -3.3252 -0.5354  1.2287
  940MPD2    H213750   3.181   4.091  13.261 -0.2969  0.3365 -0.8949
  940MPD2    H313751   3.103   4.055  13.032 -2.3082 -2.2414  0.3068
  940MPD2     N13752   3.292   3.647  13.011 -0.6643 -0.4196  0.0994
  940MPD2    H513753   3.273   3.649  12.912 -0.0047 -0.8239 -0.0369
  940MPD2    N113754   3.333   3.927  13.407 -0.4143  0.0613 -0.6947
  940MPD2    H713755   3.302   4.012  13.452 -0.1847 -0.9906  1.4421
  941MPD2     C13756   2.952   3.441  10.109 -0.2489 -0.0734 -0.1416
  941MPD2    C113757   2.852   3.541  10.104  0.1884 -0.1296  1.0077
  941MPD2    C213758   2.725   3.488  10.080 -0.7846  0.4523  0.2557
  941MPD2    C313759   2.701   3.354  10.086 -0.2873 -0.1104  0.1575
  941MPD2    C413760   2.799   3.261  10.085  0.0907 -0.3068 -0.8053
  941MPD2    C513761   2.929   3.310  10.094  0.2646  0.3403 -0.6131
  941MPD2     H13762   2.644   3.558  10.064 -0.0768  1.4371  0.9860
  941MPD2    H113763   2.776   3.155  10.091 -1.4750  0.1227  0.7419
  941MPD2    H213764   3.054   3.470  10.130  0.0596 -0.7449 -0.7028
  941MPD2    H313765   3.007   3.239  10.119 -0.4309 -0.2151 -0.0063
  941MPD2     N13766   2.574   3.297  10.080  0.1986 -0.4727  0.1984
  941MPD2    H513767   2.561   3.197  10.091  0.2312 -0.4784  0.1824
  941MPD2    N113768   2.876   3.681  10.108  0.3179  0.2373  0.1740
  941MPD2    H713769   2.803   3.748  10.085 -1.1316 -0.8094  1.7104
  942MPD2     C13770   1.921   0.046   9.312 -0.7380 -0.2162  0.0028
  942MPD2    C113771   1.961   4.641   9.293 -0.3684  0.2719 -0.0297
  942MPD2    C213772   2.090   4.618   9.244 -0.0399 -0.6078  0.2062
  942MPD2    C313773   2.169   0.003   9.207  0.0053 -0.3772 -0.2142
  942MPD2    C413774   2.118   0.132   9.209 -0.6076 -0.2522 -0.2283
  942MPD2    C513775   1.996   0.153   9.261 -1.0311 -0.5525 -0.4745
  942MPD2     H13776   2.117   4.514   9.251 -0.6582 -0.6807  1.5371
  942MPD2    H113777   2.183   0.215   9.183  0.8390 -1.4450 -0.3913
  942MPD2    H213778   1.825   0.066   9.359 -0.9109  0.4816 -0.6451
  942MPD2    H313779   1.958   0.254   9.267 -2.3931 -1.1103  0.2159
  942MPD2     N13780   2.303   4.718   9.168 -0.2596  0.1547 -0.4823
  942MPD2    H513781   2.346   0.083   9.136 -0.2681  0.4537  0.3021
  942MPD2    N113782   1.897   4.531   9.346  0.0746  0.4460  0.6644
  942MPD2    H713783   1.953   4.447   9.329 -0.6429  0.2496 -0.7063
  943MPD2     C13784   1.415   3.543   9.417 -0.1429  0.1117 -0.2758
  943MPD2    C113785   1.291   3.515   9.464  0.7984 -0.0162  0.6022
  943MPD2    C213786   1.189   3.583   9.399 -0.2630  0.0994  0.7664
  943MPD2    C313787   1.205   3.670   9.291  0.0318 -1.0011 -0.3604
  943MPD2    C413788   1.335   3.685   9.242 -0.1596  0.2031 -0.2700
  943MPD2    C513789   1.439   3.629   9.308  0.1879 -0.7067  0.7668
  943MPD2     H13790   1.091   3.569   9.443 -1.3692 -1.7181 -2.2529
  943MPD2    H113791   1.342   3.740   9.149 -2.2875 -1.6915 -1.5492
  943MPD2    H213792   1.504   3.498   9.459 -1.9290 -2.3986  0.7894
  943MPD2    H313793   1.537   3.640   9.262  0.4387  0.1803  1.5154
  943MPD2     N13794   1.100   3.728   9.220  0.2311  1.3015  0.6792
  943MPD2    H513795   1.118   3.774   9.132 -0.3464  1.3326  0.5749
  943MPD2    N113796   1.282   3.433   9.572 -0.1454  0.1688  0.0955
  943MPD2    H713797   1.368   3.397   9.613  1.4769  0.8321 -2.6968
  944MPD2     C13798   1.135   1.851  10.934 -0.2697  0.5217  0.0094
  944MPD2    C113799   1.263   1.904  10.958 -0.4391 -0.8019  0.1762
  944MPD2    C213800   1.285   1.965  11.087 -0.3961  0.8019 -0.2348
  944MPD2    C313801   1.192   1.955  11.189 -1.0259 -0.4192 -0.2080
  944MPD2    C413802   1.065   1.901  11.159  0.0697  0.0762  0.7669
  944MPD2    C513803   1.038   1.850  11.033 -0.7834 -0.2812  0.3139
  944MPD2     H13804   1.378   2.017  11.108  0.1359 -0.2435 -0.0104
  944MPD2    H113805   0.990   1.892  11.237 -0.7965 -1.3977 -0.2290
  944MPD2    H213806   1.104   1.804  10.842  1.2830  1.2317 -0.8767
  944MPD2    H313807   0.942   1.810  11.001  0.6901 -1.4143 -2.5989
  944MPD2     N13808   1.221   2.004  11.323 -0.4490 -0.5702  0.1096
  944MPD2    H513809   1.313   2.046  11.329 -0.6033 -0.5624  2.5692
  944MPD2    N113810   1.360   1.898  10.851 -0.1198 -0.0118 -0.2977
  944MPD2    H713811   1.336   1.850  10.765 -0.4026  0.3979 -0.4468
    1TCq1    O113812   3.647   2.285  15.077 -0.2696 -0.6340  0.3192
    1TCq1    C113813   3.773   2.254  15.051  0.0315 -0.5705  0.3433
    1TCq1    O213814   3.838   2.151  15.082 -0.1577 -0.3478  0.2835
    1TCq1    C213815   3.783   2.295  14.910  0.2068 -0.5779  0.2515
    1TCq1    C313816   3.706   2.220  14.823  0.3556  0.0454 -0.3277
    1TCq1    C413817   3.660   2.288  14.711 -0.4130 -0.6719  0.2371
    1TCq1    C513818   3.695   2.416  14.689  0.0283  0.0047  0.0490
    1TCq1    C613819   3.771   2.484  14.778 -0.0277  0.3920  0.1397
    1TCq1    C713820   3.804   2.425  14.893 -0.5525  0.3927 -0.4924
    1TCq1    C813821   3.778   2.628  14.781 -0.5281 -0.2563 -0.0810
    1TCq1    O413822   3.836   2.686  14.871  0.3279  0.5783  0.6275
    1TCq1    C913823   3.591   2.217  14.607 -0.5046  0.9647  0.4752
    1TCq1    O513824   3.526   2.282  14.519 -0.3694 -0.0890  0.4461
    1TCq1    O613825   3.609   2.089  14.604 -0.3618  0.2451  0.0917
    1TCq1    H113826   3.629   2.351  15.006  0.3665  0.0547  0.8012
    1TCq1    H213827   3.683   2.116  14.846 -0.0778 -0.2747 -2.2085
    1TCq1    H313828   3.663   2.457  14.594 -2.4782  0.2131  0.9915
    1TCq1    H413829   3.834   2.482  14.980  0.4229  1.4418 -1.5066
    2MPD2     C13830   3.543   3.081  14.677 -0.1375 -0.5663  0.1339
    2MPD2    C113831   3.465   2.979  14.632  0.3542 -0.3413  0.2693
    2MPD2    C213832   3.517   2.851  14.633 -0.5916  0.9598  1.1039
    2MPD2    C313833   3.643   2.819  14.690 -0.2910 -0.0537  0.2388
    2MPD2    C413834   3.714   2.928  14.744 -0.2237 -0.4114  0.4053
    2MPD2    C513835   3.668   3.056  14.734  0.3492  0.2606 -0.2301
    2MPD2     H13836   3.462   2.769  14.588 -2.6165  2.6261  0.5437
    2MPD2    H113837   3.809   2.900  14.788  0.7520  1.8567 -0.2994
    2MPD2    H213838   3.504   3.182  14.675  1.4478  0.0243 -1.1077
    2MPD2    H313839   3.726   3.139  14.773  0.1188  1.0829 -1.6025
    2MPD2     N13840   3.682   2.685  14.695 -0.4053  0.3375  0.1579
    2MPD2    H513841   3.625   2.622  14.639  0.1606 -0.6670  0.7180
    2MPD2    N113842   3.338   3.018  14.577  0.2002 -0.5658  0.6552
    2MPD2    H713843   3.321   3.118  14.582  0.9592 -0.3594 -0.9107
    3TMC2    C113844   3.136   2.999  14.452 -0.7699  0.3739 -0.4816
    3TMC2    C213845   3.054   2.912  14.389 -0.5194  0.2437 -0.1787
    3TMC2    C313846   2.956   2.959  14.311 -0.1371 -0.1135 -0.3542
    3TMC2    C413847   3.128   3.138  14.439 -0.0372  0.2487 -0.0466
    3TMC2    C513848   3.024   3.185  14.362  0.4040  0.0822 -0.1172
    3TMC2    C613849   2.945   3.096  14.291  0.4423 -0.0881 -0.3834
    3TMC2     C13850   3.252   2.933  14.513 -0.5755  0.0145 -0.3181
    3TMC2     O13851   3.241   2.807  14.507  0.3370 -0.3076  0.1202
    3TMC2     H13852   3.052   2.804  14.399  0.2540  0.2474  0.0586
    3TMC2    H113853   3.184   3.210  14.498 -0.1775  1.4422 -1.3641
    3TMC2    H213854   2.881   3.132  14.212  1.5264 -0.6755 -1.5294
    3TMC2    C713855   2.952   3.297  14.421  0.1578  0.6781  0.8266
    3TMC2    C813856   2.886   2.885  14.209 -0.3773 -0.2913 -0.3127
    3TMC2    O113857   2.829   3.283  14.425 -0.3149  0.1861 -0.5557
    3TMC2    O213858   2.939   2.782  14.167 -0.4144  0.0796 -0.0804
    3TMC2    O513859   2.757   2.887  14.249  0.0639 -0.2834 -0.2375
    3TMC2    H513860   2.724   2.972  14.285  2.0696  0.2238  0.4277
    4MPD2     C13861   3.532   4.558  14.230 -0.1842 -0.6442 -0.1081
    4MPD2    C113862   3.475   4.434  14.202 -0.2544  0.5844  0.5166
    4MPD2    C213863   3.459   4.337  14.297 -0.0125 -0.2560 -0.5845
    4MPD2    C313864   3.511   4.363  14.420 -0.1479 -0.4176 -0.0662
    4MPD2    C413865   3.569   4.489  14.458 -0.7238 -0.0417 -0.2778
    4MPD2    C513866   3.581   4.582  14.356 -0.4642  0.4714 -0.0949
    4MPD2     H13867   3.398   4.251  14.276  0.0984 -0.3549 -0.5045
    4MPD2    H113868   3.610   4.500  14.558 -1.4464  0.5972 -0.0546
    4MPD2    H213869   3.541   4.638  14.157 -0.4912 -1.2494 -0.8017
    4MPD2    H313870   3.631   4.678  14.369 -1.9117  1.2133 -0.0874
    4MPD2     N13871   3.481   4.259  14.513  0.2381 -0.4295 -0.0819
    4MPD2    H513872   3.412   4.188  14.490 -1.0790  1.3540 -1.6842
    4MPD2    N113873   3.409   4.433  14.077 -0.0378  0.0256 -0.6714
    4MPD2    H713874   3.410   4.519  14.023 -0.4279  1.3982  1.5128
    5TCq2    C113875   3.512   4.260  14.651  0.6041 -0.3295 -0.4430
    5TCq2    O213876   3.578   4.343  14.709  0.9525 -0.0669 -0.7567
    5TCq2    C213877   3.456   4.150  14.723 -0.0136  0.1024 -0.7165
    5TCq2    C313878   3.458   4.165  14.859 -0.3896 -0.0971  0.0255
    5TCq2    C413879   3.410   4.065  14.938  0.5821 -0.5427  0.5035
    5TCq2    C513880   3.355   3.954  14.876  0.2872 -0.1741 -0.4620
    5TCq2    C613881   3.358   3.935  14.742  0.1974 -0.5257  0.0453
    5TCq2    C713882   3.414   4.032  14.655 -0.0678 -0.1112  0.0707
    5TCq2    C813883   3.292   3.819  14.684  0.2521 -0.6034  0.4420
    5TCq2    O413884   3.342   3.769  14.583 -0.5347 -0.0338 -0.5838
    5TCq2    C913885   3.408   4.080  15.082 -0.0999 -0.0064  0.1485
    5TCq2    O513886   3.366   3.977  15.146  0.5414  0.0181 -0.4533
    5TCq2    O613887   3.437   4.197  15.125  0.1796 -0.0078  0.4087
    5TCq2    H213888   3.511   4.242  14.913 -0.8234 -0.3115  0.7549
    5TCq2    H313889   3.312   3.877  14.939  0.1394  1.5001  1.4993
    5TCq2    H413890   3.421   4.010  14.550 -1.8166  0.4441 -0.1668
    6MPD1     C13891   3.600   0.863  12.904 -0.7774 -0.5978  0.1415
    6MPD1    C113892   3.485   0.905  12.963  0.7806 -0.3782 -0.1895
    6MPD1    C213893   3.404   0.815  13.025 -0.2210 -0.3447 -0.1570
    6MPD1    C313894   3.442   0.679  13.022  0.1314 -0.9711  0.4656
    6MPD1    C413895   3.563   0.638  12.967 -1.0166  0.7108 -0.2362
    6MPD1    C513896   3.647   0.731  12.912 -0.0947  0.0322 -0.8240
    6MPD1     H13897   3.302   0.839  13.055 -0.2998  0.9235 -1.4147
    6MPD1    H113898   3.602   0.537  12.962 -2.5068  0.0533  1.2307
    6MPD1    H213899   3.675   0.934  12.874 -1.1586 -0.2484  0.0184
    6MPD1    H313900   3.744   0.695  12.881 -0.2206 -0.0039 -1.1814
    6MPD1     N13901   3.363   0.575  13.077 -0.0411 -0.8053 -0.6571
    6MPD1    H513902   3.390   0.478  13.066 -1.3400 -1.5342  2.4454
    6MPD1    N113903   3.450   1.040  12.954 -0.2627  0.0510 -0.0996
    6MPD1    H613904   3.410   1.065  13.044 -0.5219  3.3865 -1.1621
    6MPD1    H713905   3.531   1.101  12.943  2.8883 -3.6016  2.6007
    7MPD2     C13906   2.861   0.289  13.703 -1.0883  0.0348  0.0889
    7MPD2    C113907   2.945   0.212  13.632  0.2749  0.1762  0.3013
    7MPD2    C213908   2.980   0.092  13.676  0.3269  0.7127  0.1024
    7MPD2    C313909   2.926   0.033  13.789 -0.0412  0.3562 -0.1506
    7MPD2    C413910   2.847   0.115  13.865 -0.5530 -1.1026  0.3016
    7MPD2    C513911   2.810   0.240  13.816 -0.3405 -0.2366 -0.2266
    7MPD2     H13912   3.050   0.041  13.611  0.4486  0.3067  0.5458
    7MPD2    H113913   2.797   0.092  13.958 -1.4557 -1.7476 -0.3480
    7MPD2    H213914   2.822   0.384  13.666  0.5417  0.7685  0.2552
    7MPD2    H313915   2.732   0.290  13.874  0.0798 -1.0282  1.0190
    7MPD2     N13916   2.965   4.623  13.835 -0.3253  0.0070 -0.3222
    7MPD2    H513917   2.947   4.601  13.932 -0.5619  0.5778 -0.2369
    7MPD2    N113918   2.995   0.246  13.503 -0.7922  0.2609 -0.3347
    7MPD2    H713919   3.043   0.169  13.456  0.7150  0.8360  0.2667
    8TMC3    C113920   3.069   4.409  13.813  0.9645  0.2373  0.5769
    8TMC3    C213921   3.172   4.424  13.901  0.0468  0.1296 -0.4964
    8TMC3    C313922   3.288   4.348  13.895  1.0702 -0.4367 -0.0723
    8TMC3    C413923   3.083   4.318  13.718 -0.8327 -0.0695 -0.1671
    8TMC3    C513924   3.198   4.255  13.697  0.6798  0.7604 -0.4873
    8TMC3    C613925   3.300   4.254  13.792 -0.2684  0.1493  0.0209
    8TMC3     C13926   3.016   4.532  13.751  0.4345  0.2885 -0.6014
    8TMC3     O13927   3.027   4.543  13.631  0.3559  0.0431 -0.2526
    8TMC3     H13928   3.174   4.517  13.957  1.8081 -2.3846  3.6248
    8TMC3    H113929   2.992   4.308  13.660 -1.6892 -2.3054  1.5407
    8TMC3    H213930   3.394   4.210  13.761 -1.0960 -0.2003 -1.9761
    8TMC3    C713931   3.241   4.249  13.556  0.3956 -0.0259  0.4912
    8TMC3    C813932   3.360   4.321  14.016 -0.2408  0.5508 -0.4164
    8TMC3    O113933   3.330   4.172  13.519 -0.3295  0.1624 -0.5525
    8TMC3    O213934   3.377   4.203  14.043 -0.3140 -0.4957  0.0268
    9TMC3    C113935   3.193   0.460  13.181  0.3836  0.2959 -0.0512
    9TMC3    C213936   3.219   0.344  13.115  0.5038  0.2465 -0.0923
    9TMC3    C313937   3.136   0.233  13.139 -0.7096  0.3872  0.0796
    9TMC3    C413938   3.091   0.469  13.277 -0.3224 -0.6643  0.0253
    9TMC3    C513939   3.017   0.360  13.305 -0.0277  0.1888 -0.0441
    9TMC3    C613940   3.047   0.240  13.243 -0.7021 -0.0933  0.3825
    9TMC3     C13941   3.241   0.588  13.140  0.3191  0.8724  0.2749
    9TMC3     O13942   3.190   0.687  13.197  0.8470 -0.2449 -0.2951
    9TMC3     H13943   3.299   0.332  13.043 -0.4720  0.9444 -1.2974
    9TMC3    H113944   3.077   0.561  13.333  0.4481 -0.5753  0.0726
    9TMC3    H213945   2.990   0.157  13.284 -2.7032  1.0273 -0.1447
    9TMC3    C713946   2.966   0.365  13.440 -0.1410 -0.1953 -0.0103
    9TMC3    C813947   3.203   0.108  13.113 -0.1233 -0.5094 -0.2488
    9TMC3    O113948   2.923   0.472  13.479  0.0664 -0.2485 -0.2089
    9TMC3    O213949   3.274   0.085  13.014  0.1034  0.1413  0.0216
   10MPD2     C13950   3.343   4.349  13.293 -0.6553  0.3080  0.0670
   10MPD2    C113951   3.238   4.407  13.372 -0.0866 -0.4819  0.0913
   10MPD2    C213952   3.178   4.529  13.334 -0.0574 -0.5211  0.0347
   10MPD2    C313953   3.229   4.603  13.226  0.2608  0.1033 -0.5957
   10MPD2    C413954   3.326   4.543  13.146  0.6187 -0.0400  0.2877
   10MPD2    C513955   3.374   4.415  13.177 -0.2940 -0.1246 -0.1981
   10MPD2     H13956   3.097   4.566  13.395 -1.2699 -1.1511 -1.1915
   10MPD2    H113957   3.357   4.579  13.048  0.1341 -2.8240 -0.8885
   10MPD2    H213958   3.402   4.266  13.328 -1.6753 -0.4787 -0.0776
   10MPD2    H313959   3.447   4.362  13.116  1.6789 -0.1641  2.2156
   10MPD2     N13960   3.182   0.018  13.218 -0.2258 -0.0981  0.0130
   10MPD2    H513961   3.114   0.041  13.289 -0.2317  0.6292 -0.2335
   10MPD2    N113962   3.190   4.357  13.493 -0.0298 -0.4570 -0.2201
   10MPD2    H713963   3.124   4.411  13.548  2.2333  1.4162  0.6503
   11MPD2     C13964   2.883   3.497  14.618 -0.1388 -0.8356  0.9331
   11MPD2    C113965   3.005   3.493  14.555 -0.3933 -0.4133 -1.2376
   11MPD2    C213966   3.106   3.578  14.601  0.3452 -0.7368  1.0187
   11MPD2    C313967   3.083   3.677  14.708  1.1373  0.0377 -0.1096
   11MPD2    C413968   2.958   3.668  14.770 -0.4851 -0.2597 -0.0465
   11MPD2    C513969   2.861   3.579  14.724  0.7072 -0.6263 -0.1040
   11MPD2     H13970   3.209   3.567  14.568  0.3027 -0.4595  0.7941
   11MPD2    H113971   2.942   3.726  14.860  1.8292 -1.1476  0.9404
   11MPD2    H213972   2.793   3.447  14.583  0.2673 -0.7664 -0.2172
   11MPD2    H313973   2.773   3.574  14.786 -1.0141  1.4592 -2.3604
   11MPD2     N13974   3.180   3.777  14.746 -0.0105  0.4188 -0.4450
   11MPD2    H513975   3.146   3.842  14.816  1.1071 -1.7516  2.0655
   11MPD2    N113976   3.039   3.397  14.459  0.0884 -0.0892 -0.8593
   11MPD2    H713977   3.135   3.399  14.426  1.0234  0.5766  1.8978
    1MPD1     C13978   0.806   1.626  16.844 -0.3333 -0.0973  0.6552
    1MPD1    C113979   0.773   1.503  16.891  0.7784  0.2555 -0.2090
    1MPD1    C213980   0.832   1.473  17.011  0.1177 -0.4640 -0.6030
    1MPD1    C313981   0.911   1.555  17.084 -1.0580 -0.1092  0.2335
    1MPD1    C413982   0.933   1.684  17.036  0.1197 -0.1305 -0.1793
    1MPD1    C513983   0.875   1.714  16.919  0.0122  0.3228 -0.3904
    1MPD1     H13984   0.826   1.370  17.043  1.2045  0.3520  2.2447
    1MPD1    H113985   1.007   1.750  17.081 -2.1929  0.9636  1.9868
    1MPD1    H213986   0.778   1.657  16.744  0.9514  0.7959  0.5730
    1MPD1    H313987   0.894   1.812  16.876 -0.8371  0.5967 -0.1340
    1MPD1     N13988   0.979   1.504  17.199 -0.0627 -0.9019  0.1169
    1MPD1    H513989   1.065   1.552  17.226  0.0690 -1.7960  1.2789
    1MPD1    N113990   0.696   1.413  16.813  0.6267  0.2270 -0.2255
    1MPD1    H613991   0.653   1.467  16.737 -0.6412 -3.2058 -1.9350
    1MPD1    H713992   0.753   1.353  16.754  0.3428 -0.3283  0.0729
    2MPD1     C13993   1.564   1.760   0.245  0.4474 -0.1504  0.5692
    2MPD1    C113994   1.620   1.639   0.221 -0.1060 -0.6575  0.1691
    2MPD1    C213995   1.562   1.559   0.120 -0.4203 -0.0086 -0.4207
    2MPD1    C313996   1.454   1.604   0.049 -0.5454 -0.6352 -0.2393
    2MPD1    C413997   1.411   1.730   0.072  0.4395  0.7466 -0.2105
    2MPD1    C513998   1.454   1.810   0.182 -0.3630  0.0754  0.7305
    2MPD1     H13999   1.604   1.459   0.113  1.1502  0.6627 -0.6053
    2MPD1    H114000   1.328   1.766   0.013 -0.0924 -0.1064  0.0064
    2MPD1    H214001   1.601   1.819   0.328  0.9730  0.3220 -0.0014
    2MPD1    H314002   1.413   1.907   0.208  0.4936  0.8072 -0.6507
    2MPD1     N14003   1.391   1.521  17.638 -0.4646  0.4268  0.3486
    2MPD1    H514004   1.413   1.422  17.637  3.3397  1.2880 -1.6247
    2MPD1    N114005   1.709   1.582   0.312 -0.4674  0.5979  0.3259
    2MPD1    H614006   1.751   1.497   0.276 -0.9091  0.6464 -0.3048
    2MPD1    H714007   1.778   1.640   0.360  0.0850  0.5936 -0.4579
    3TMC3    C114008   1.258   1.449  17.468 -0.0028  0.0624 -0.1259
    3TMC3    C214009   1.338   1.335  17.448 -0.1199  0.3570 -0.4665
    3TMC3    C314010   1.274   1.238  17.373  0.3658 -0.4766  0.2650
    3TMC3    C414011   1.128   1.460  17.415  0.0171  0.4551  0.2169
    3TMC3    C514012   1.079   1.357  17.344 -0.3241  0.5333  0.3386
    3TMC3    C614013   1.146   1.238  17.330  0.4748  0.6725  0.1974
    3TMC3     C14014   1.291   1.565  17.552  0.1362  1.0463  0.0180
    3TMC3     O14015   1.223   1.669  17.541  0.1883 -0.0194  0.1364
    3TMC3     H14016   1.440   1.329  17.484  0.2784 -0.0202 -1.6683
    3TMC3    H114017   1.064   1.539  17.452  0.7989  0.8390  0.7543
    3TMC3    H214018   1.092   1.150  17.298 -1.4481  1.9789 -0.1527
    3TMC3    C714019   0.963   1.380  17.260 -0.0668 -1.0156 -0.1368
    3TMC3    C814020   1.356   1.118  17.347 -0.1743 -0.6812 -0.1176
    3TMC3    O114021   0.882   1.289  17.244 -0.0470 -0.4739 -0.3844
    3TMC3    O214022   1.455   1.091  17.415 -0.2886 -0.1076  0.1775
    4MPD1     C14023   1.406   0.682  17.076 -0.4479  0.5209 -0.4375
    4MPD1    C114024   1.334   0.769  16.998  0.3627  0.0402 -0.5325
    4MPD1    C214025   1.298   0.894  17.048  0.7317 -0.2417  0.0266
    4MPD1    C314026   1.343   0.930  17.177 -0.4365  0.8244  0.2261
    4MPD1    C414027   1.414   0.839  17.257 -0.8236 -0.6242 -0.1988
    4MPD1    C514028   1.439   0.716  17.206  0.7722  0.4662  0.3521
    4MPD1     H14029   1.256   0.975  16.989  1.0572  1.2154  1.8365
    4MPD1    H114030   1.451   0.855  17.358 -3.3888  0.6824  0.5339
    4MPD1    H214031   1.446   0.589  17.036 -2.1646 -0.1748 -0.5466
    4MPD1    H314032   1.494   0.651  17.274 -1.0440 -1.1408  0.3032
    4MPD1     N14033   1.318   1.064  17.225  0.0680 -0.1308  0.3699
    4MPD1    H514034   1.260   1.118  17.162 -1.7867 -0.1079  2.0869
    4MPD1    N114035   1.311   0.743  16.861  0.5587  0.1237  0.1877
    4MPD1    H614036   1.302   0.644  16.840  1.1810 -0.0291  0.6211
    4MPD1    H714037   1.227   0.793  16.834 -0.3763 -0.7612  1.4340
    1TCq1    O114038   3.732   4.405  12.817  0.0019 -0.0827  0.0508
    1TCq1    C114039   3.672   4.467  12.717 -0.5685  1.0290 -0.3145
    1TCq1    O214040   3.561   4.450  12.667  0.0830  0.1418  0.2445
    1TCq1    C214041   3.761   4.572  12.669  0.0915  0.2599  0.1967
    1TCq1    C314042   3.707   4.666  12.594  0.1478 -0.6284  0.0125
    1TCq1    C414043   3.785   0.041  12.542  0.1149 -0.2556  0.3805
    1TCq1    C514044   3.915   0.049  12.579  0.5538  0.5451 -0.5203
    1TCq1    C614045   3.974   4.666  12.653  0.2033 -1.0353 -0.1473
    1TCq1    C714046   3.896   4.564  12.699  0.6734  0.4125 -0.4730
    1TCq1    C814047   4.106   4.677  12.712  0.5574 -0.4298  0.2115
    1TCq1    O414048   4.156   4.586  12.780  0.6254 -0.3865  0.3414
    1TCq1    C914049   3.715   0.154  12.489 -0.2576  0.5217  0.0883
    1TCq1    O514050   3.765   0.270  12.509  0.1506  0.4838  0.3436
    1TCq1    O614051   3.601   0.133  12.436 -0.5004 -0.3231 -0.2532
    1TCq1    H114052   3.799   4.461  12.861 -2.8247  2.7803  0.7143
    1TCq1    H214053   3.599   4.677  12.580  0.7063  2.5687 -1.8989
    1TCq1    H314054   3.970   0.131  12.534 -0.0528  1.8494  1.0859
    1TCq1    H414055   3.943   4.483  12.753  1.7319  0.6689 -0.9938
    2MPD1     C14056   4.576   0.169  12.654 -0.5130  0.4632  0.1826
    2MPD1    C114057   4.484   0.262  12.613  0.3500  0.3610  0.6577
    2MPD1    C214058   4.350   0.214  12.610  0.4068 -0.0057 -0.0309
    2MPD1    C314059   4.309   0.098  12.666 -1.2044 -0.8979  0.0977
    2MPD1    C414060   4.406   0.011  12.714 -0.4399 -0.7420 -0.0816
    2MPD1    C514061   4.532   0.049  12.698  0.5677  0.4018  0.4898
    2MPD1     H14062   4.284   0.283  12.558  1.9967 -0.7997 -3.1289
    2MPD1    H114063   4.389   4.635  12.758 -0.4599 -0.7290 -0.0601
    2MPD1    H214064   4.680   0.181  12.627 -1.3207  2.1872 -2.1964
    2MPD1    H314065   4.609   4.696  12.717  1.1614  0.6421 -0.9714
    2MPD1     N14066   4.173   0.062  12.656 -0.0454  0.2275  0.0903
    2MPD1    H514067   4.119   0.126  12.599  2.3024  3.0211  0.9856
    2MPD1    N114068   4.525   0.375  12.541 -0.2224 -0.1056  0.2075
    2MPD1    H614069   4.454   0.448  12.544 -0.5096 -0.2635 -2.6215
    2MPD1    H714070   4.603   0.424  12.585 -0.7100  1.1812 -0.3547
    1TCq1    O114071   2.544   1.508   2.753  0.3998 -0.2008 -0.0291
    1TCq1    C114072   2.529   1.618   2.685 -0.1485  0.3494 -0.1328
    1TCq1    O214073   2.620   1.676   2.629  0.1414  0.1130  0.3744
    1TCq1    C214074   2.449   1.699   2.769 -0.0779  0.1172  0.5293
    1TCq1    C314075   2.440   1.680   2.903 -0.5247  0.3043 -0.3101
    1TCq1    C414076   2.354   1.753   2.981 -0.0852 -0.1521  0.1244
    1TCq1    C514077   2.314   1.871   2.931 -0.1052 -0.1709 -0.1194
    1TCq1    C614078   2.335   1.901   2.801  1.0147 -0.2855  0.3340
    1TCq1    C714079   2.395   1.809   2.716  1.1347 -0.0804 -0.4672
    1TCq1    C814080   2.317   2.038   2.744  0.1413 -0.0716 -0.2585
    1TCq1    O414081   2.316   2.059   2.624 -0.3826 -0.5696  0.0634
    1TCq1    C914082   2.361   1.743   3.128  0.6508 -0.1619  0.2457
    1TCq1    O514083   2.358   1.631   3.184 -0.2903 -0.3535  0.2289
    1TCq1    O614084   2.359   1.853   3.182  0.1413 -0.3177 -0.2971
    1TCq1    H114085   2.461   1.464   2.780  0.3093 -0.6085 -0.9855
    1TCq1    H214086   2.479   1.596   2.959 -0.9098  0.5866  0.3875
    1TCq1    H314087   2.254   1.934   2.996  2.6362  0.0377  2.2179
    1TCq1    H414088   2.408   1.827   2.610  0.4373 -1.2069 -0.7493
    2MPD1     C14089   2.185   2.529   2.817  0.1783  0.1388 -0.2297
    2MPD1    C114090   2.152   2.457   2.936  0.5932 -0.3037  0.4924
    2MPD1    C214091   2.182   2.322   2.948  0.6941 -0.8262 -0.0066
    2MPD1    C314092   2.238   2.251   2.837  0.3811  0.4494 -0.1323
    2MPD1    C414093   2.287   2.330   2.732  0.9203  0.6004  0.0191
    2MPD1    C514094   2.251   2.463   2.716  0.3281  1.4633  0.1807
    2MPD1     H14095   2.168   2.261   3.037 -0.9587  1.5986  1.3852
    2MPD1    H114096   2.347   2.281   2.656 -1.6085 -0.6440 -1.1941
    2MPD1    H214097   2.167   2.635   2.800 -0.4107  0.0798  0.0447
    2MPD1    H314098   2.281   2.507   2.622 -2.6449  3.8209  0.3653
    2MPD1     N14099   2.267   2.118   2.847 -0.6631 -0.5292  0.0525
    2MPD1    H514100   2.236   2.069   2.930 -1.8737 -0.6384 -0.4615
    2MPD1    N114101   2.104   2.533   3.044 -0.4890 -0.1296  0.2798
    2MPD1    H614102   2.045   2.608   3.009  0.9679  0.4566 -0.8728
    2MPD1    H714103   2.048   2.482   3.112 -0.2775  1.3372  1.5459
    1MPD1     C14104   4.348   4.179  12.848  0.7959 -0.6890 -0.3700
    1MPD1    C114105   4.475   4.139  12.823  0.3065 -1.0391  0.3807
    1MPD1    C214106   4.576   4.226  12.847  0.1372 -0.6767 -0.4757
    1MPD1    C314107   4.555   4.359  12.890 -0.4035  0.1966 -1.1612
    1MPD1    C414108   4.425   4.386  12.912 -0.3333 -0.4134  0.8094
    1MPD1    C514109   4.322   4.301  12.887 -0.5603 -0.0729  0.1246
    1MPD1     H14110   4.677   4.189  12.832  0.3427  0.0189 -0.8145
    1MPD1    H114111   4.386   4.487  12.923  0.4330 -0.0887  0.6046
    1MPD1    H214112   4.266   4.109  12.836 -0.4508  0.4592  1.3986
    1MPD1    H314113   4.220   4.327  12.909 -1.0058 -1.7355  0.0734
    1MPD1     N14114   4.665   4.451  12.905 -0.0143 -0.1351 -0.8860
    1MPD1    H514115   0.039   4.422  12.885 -0.0456 -1.7300  1.3136
    1MPD1    N114116   4.487   4.014  12.761 -0.1022  0.2430  0.4020
    1MPD1    H614117   4.442   3.942  12.816 -3.2829  1.1514 -0.9884
    1MPD1    H714118   4.585   3.988  12.762  0.0509  0.7044 -3.1246
    2MPD1     C14119   3.708   1.245  11.935  0.4768  0.3814 -0.0642
    2MPD1    C114120   3.682   1.201  11.806  0.1314 -0.4750 -0.1329
    2MPD1    C214121   3.700   1.067  11.784 -0.0927  0.7096 -0.1242
    2MPD1    C314122   3.718   0.976  11.887  0.1985 -0.1736 -0.2655
    2MPD1    C414123   3.714   1.031  12.017  0.2877 -0.1034 -1.0394
    2MPD1    C514124   3.698   1.163  12.041  0.3650  0.2716  0.2076
    2MPD1     H14125   3.690   1.029  11.683  0.3640  1.3118 -0.3927
    2MPD1    H114126   3.717   0.958  12.098 -0.0659  0.9203 -0.0999
    2MPD1    H214127   3.712   1.351  11.955  0.8754  0.3050  0.2548
    2MPD1    H314128   3.720   1.190  12.143  1.3881 -1.8664  0.5584
    2MPD1     N14129   3.728   0.833  11.879 -0.4901 -0.1023  0.0840
    2MPD1    H514130   3.738   0.778  11.964 -1.0703 -0.7345 -0.2630
    2MPD1    N114131   3.684   1.281  11.693  0.4517 -0.0710  0.0524
    2MPD1    H614132   3.627   1.364  11.711 -0.0712  0.1300 -2.4465
    2MPD1    H714133   3.636   1.246  11.610 -0.3831  0.7931  0.1737
    3MPD1     C14134   3.562   4.685  11.219 -0.3794  0.8054 -0.0507
    3MPD1    C114135   3.613   4.630  11.335 -0.0969  0.4551  0.1293
    3MPD1    C214136   3.644   0.003  11.439 -0.1233  0.3835  0.1240
    3MPD1    C314137   3.643   0.135  11.421  0.2436  0.3132 -0.8825
    3MPD1    C414138   3.597   0.187  11.305 -0.1160  0.4913 -0.4862
    3MPD1    C514139   3.549   0.103  11.213  0.1651 -0.5968  0.1326
    3MPD1     H14140   3.682   4.686  11.534  1.9773  1.1553 -0.4191
    3MPD1    H114141   3.584   0.292  11.285 -3.1165  0.7138  2.6192
    3MPD1    H214142   3.529   4.624  11.135 -2.5876  1.3402  0.4511
    3MPD1    H314143   3.489   0.150  11.136 -0.1585 -1.4597 -0.1485
    3MPD1     N14144   3.675   0.218  11.534  0.3739  0.0571  0.4371
    3MPD1    H514145   3.680   0.172  11.624 -0.4322 -1.2526 -0.1703
    3MPD1    N114146   3.626   4.489  11.353  0.3840 -0.0395  0.4831
    3MPD1    H614147   3.693   4.456  11.283  0.1405 -1.9652  1.1584
    3MPD1    H714148   3.674   4.463  11.438  0.0835 -0.0853  0.6360
    4MPD2     C14149   0.031   0.515  13.001  0.7583  0.0849 -0.2018
    4MPD2    C114150   0.101   0.445  12.910  0.1455  0.1884  0.1620
    4MPD2    C214151   0.109   0.491  12.780 -0.2119 -0.4711 -0.2625
    4MPD2    C314152   0.031   0.595  12.745 -0.2824 -0.1222  0.4912
    4MPD2    C414153   4.696   0.671  12.837 -0.1254  0.2882  0.0463
    4MPD2    C514154   4.697   0.635  12.964  0.2598  1.1094  0.1905
    4MPD2     H14155   0.165   0.428  12.713  0.6837  2.2738 -2.0988
    4MPD2    H114156   4.641   0.759  12.805  0.1226  0.6380  0.5777
    4MPD2    H214157   0.025   0.487  13.106 -0.4232  0.4797 -0.1619
    4MPD2    H314158   4.642   0.691  13.039 -1.5278  1.3560 -1.3092
    4MPD2     N14159   0.018   0.619  12.609  0.7298 -0.6760  0.0480
    4MPD2    H514160   0.078   0.563  12.550  1.1655 -0.8799  0.6799
    4MPD2    N114161   0.153   0.320  12.936  0.1980 -0.2426  0.3601
    4MPD2    H714162   0.195   0.277  12.854  0.0801  1.7688 -0.7409
    5TMC3    C114163   0.177   0.117  13.033  0.4726 -0.0191 -0.6146
    5TMC3    C214164   0.073   0.036  13.046  0.5061  0.1038 -0.6067
    5TMC3    C314165   0.052   4.667  12.943 -0.2937  0.3508 -0.7291
    5TMC3    C414166   0.256   0.101  12.925  0.1667  0.0523 -0.2908
    5TMC3    C514167   0.237   0.007  12.823  0.1255  0.3788 -0.1287
    5TMC3    C614168   0.136   4.637  12.834  0.5704  0.0850  0.7044
    5TMC3     C14169   0.142   0.253  13.053 -0.5294  0.4836 -0.1702
    5TMC3     O14170   0.084   0.274  13.160  0.0772 -0.3502  0.4165
    5TMC3     H14171   4.717   0.057  13.120  2.3950  0.0443  1.3669
    5TMC3    H114172   0.344   0.164  12.913  0.1042 -0.1393 -1.8135
    5TMC3    H214173   0.112   4.568  12.754 -0.2915 -0.2810  1.2808
    5TMC3    C714174   0.249   0.070  12.697  0.6974  1.0837  0.3097
    5TMC3    C814175   4.648   4.578  12.951  0.3806  0.3073 -0.1220
    5TMC3    O114176   0.253   0.191  12.697 -0.3594  0.5453 -0.2502
    5TMC3    O214177   4.556   4.626  13.020  0.3011  0.2280 -0.4257
    6TMC3    C114178   3.751   0.627  11.773 -0.5809  0.6264 -0.7192
    6TMC3    C214179   3.725   0.557  11.660 -0.2999 -0.3749 -0.2475
    6TMC3    C314180   3.706   0.426  11.666 -0.7981  0.5956  0.1150
    6TMC3    C414181   3.768   0.562  11.896 -0.0362  0.0440 -0.5985
    6TMC3    C514182   3.765   0.422  11.887  1.0603 -0.4964  0.3286
    6TMC3    C614183   3.727   0.352  11.779  0.1017  0.2258 -0.4247
    6TMC3     C14184   3.737   0.766  11.765 -0.7855  0.1432  0.7796
    6TMC3     O14185   3.744   0.813  11.652  0.3892  0.1280  0.4285
    6TMC3     H14186   3.706   0.601  11.563  0.8152  1.2383  0.2605
    6TMC3    H114187   3.812   0.623  11.974  0.8641  0.0002 -1.0688
    6TMC3    H214188   3.710   0.245  11.787 -0.3149  0.4677  1.8435
    6TMC3    C714189   3.812   0.342  11.994 -0.1118  0.3294  0.1720
    6TMC3    C814190   3.682   0.359  11.537 -0.5047 -0.0162 -0.5091
    6TMC3    O114191   3.771   0.228  12.013  0.7922 -0.4487  0.0989
    6TMC3    O214192   3.679   0.433  11.439 -0.1956  0.1603  0.0942
    7MPD2     C14193   0.208   0.084  12.178 -0.5441  0.7650  0.4725
    7MPD2    C114194   0.163   0.171  12.277  0.1760  0.3832  0.0206
    7MPD2    C214195   0.196   0.144  12.411 -0.3413 -0.6362  0.4054
    7MPD2    C314196   0.242   0.026  12.451  0.1887 -0.4422  0.5690
    7MPD2    C414197   0.294   4.663  12.348 -0.2226 -0.3897  0.7100
    7MPD2    C514198   0.273   4.693  12.215  0.3121  0.3488 -0.1658
    7MPD2     H14199   0.137   0.194  12.487  0.6126 -1.0086  1.3853
    7MPD2    H114200   0.340   4.567  12.367 -0.2533  0.2409  3.9974
    7MPD2    H214201   0.209   0.109  12.072  2.6318 -2.0276 -0.1695
    7MPD2    H314202   0.315   4.636  12.133 -0.0941  0.6055 -0.5482
    7MPD2     N14203   0.250   4.706  12.586  0.0444  0.0568  0.3733
    7MPD2    H514204   0.291   4.613  12.597  0.7956  0.3969  0.4375
    7MPD2    N114205   0.107   0.294  12.243 -0.3566  0.2448  0.3550
    7MPD2    H714206   0.076   0.310  12.148  0.7919  2.9268  0.4281
    8TMC3    C114207   0.014   0.514  12.282  1.1698 -0.3331 -0.3644
    8TMC3    C214208   4.607   0.489  12.223  0.9353  0.2202 -0.5371
    8TMC3    C314209   4.508   0.583  12.260 -0.2259  0.2648  0.0294
    8TMC3    C414210   0.044   0.618  12.358  0.3642 -0.2768 -0.1750
    8TMC3    C514211   4.655   0.693  12.405 -0.2809  0.2614 -0.4109
    8TMC3    C614212   4.529   0.683  12.349  0.7664  0.4055 -0.1682
    8TMC3     C14213   0.082   0.397  12.329  0.2638 -0.0495  0.5781
    8TMC3     O14214   0.111   0.409  12.445 -0.4688  0.1537 -0.9651
    8TMC3     H14215   4.599   0.401  12.161 -0.6554  0.0173 -0.0420
    8TMC3    H114216   0.144   0.629  12.399  0.2709 -2.9384  0.7922
    8TMC3    H214217   4.446   0.722  12.406 -0.5294  0.5746 -2.1808
    8TMC3    C714218   4.654   0.710  12.549  0.0790 -0.0078 -0.0933
    8TMC3    C814219   4.371   0.554  12.247 -0.2520 -0.9055 -0.5266
    8TMC3    O114220   4.574   0.784  12.602  0.1664  0.5171  0.0334
    8TMC3    O214221   4.293   0.650  12.247 -0.2491 -0.1514 -0.1399
    9MPD2     C14222   4.211   0.231  12.283 -1.0665  0.0219 -0.0862
    9MPD2    C114223   4.227   0.356  12.233 -0.2496  0.0345  0.4990
    9MPD2    C214224   4.134   0.407  12.154 -0.4109 -1.0617  0.4857
    9MPD2    C314225   4.014   0.336  12.138 -0.2061  0.0769 -0.0148
    9MPD2    C414226   3.991   0.217  12.202 -0.0066 -0.4577 -0.0947
    9MPD2    C514227   4.097   0.164  12.263  0.1059 -0.6552  0.0878
    9MPD2     H14228   4.144   0.501  12.100 -0.5529 -0.8610  0.8059
    9MPD2    H114229   3.899   0.161  12.188 -0.1939 -0.0639 -0.4317
    9MPD2    H214230   4.280   0.181  12.350 -1.0273  0.4241  0.1712
    9MPD2    H314231   4.080   0.068  12.311  0.1461 -0.2427  0.9213
    9MPD2     N14232   3.931   0.388  12.043  0.8323  0.5424 -0.0487
    9MPD2    H514233   3.962   0.475  12.001  0.9751  1.2793  1.5892
    9MPD2    N114234   4.351   0.421  12.244  0.5054  0.5028  0.3071
    9MPD2    H714235   4.437   0.374  12.270 -0.0512 -0.5621  0.2182
    1MPD1     C14236   0.186   0.310  16.799  0.6562  0.2035 -0.1207
    1MPD1    C114237   0.112   0.210  16.743 -0.0293 -0.3138 -0.2943
    1MPD1    C214238   0.047   0.120  16.829 -0.4600 -0.1229  1.0417
    1MPD1    C314239   0.076   0.109  16.967 -0.3449 -0.4515 -0.6203
    1MPD1    C414240   0.151   0.213  17.021  0.2144 -0.1421 -0.0166
    1MPD1    C514241   0.202   0.312  16.937 -0.2510  0.2198  0.3392
    1MPD1     H14242   4.708   0.038  16.790 -1.3519  0.0579  2.0386
    1MPD1    H114243   0.172   0.209  17.127 -0.5150 -0.9182  0.0955
    1MPD1    H214244   0.227   0.398  16.749 -0.0285  0.9336  0.6113
    1MPD1    H314245   0.258   0.398  16.971  1.2645 -0.3822 -0.6182
    1MPD1     N14246   0.022   0.017  17.053  0.0271  0.0987 -0.7531
    1MPD1    H514247   0.040   0.040  17.150  2.4298 -0.7223 -0.9982
    1MPD1    N114248   0.087   0.216  16.603 -0.1357 -0.4354 -0.0193
    1MPD1    H614249   0.058   0.125  16.569 -0.9799  0.8640 -2.7576
    1MPD1    H714250   0.164   0.254  16.548  1.2289  1.1479  3.0098
    2MPD1     C14251   4.034   4.043  16.930 -0.5600  0.4070  0.0713
    2MPD1    C114252   4.120   4.117  16.849  0.6713 -0.0591  0.0259
    2MPD1    C214253   4.210   4.207  16.904 -0.3980 -0.3304 -0.8027
    2MPD1    C314254   4.218   4.221  17.045 -0.0810  0.2351 -0.5188
    2MPD1    C414255   4.149   4.139  17.122 -0.3425 -0.4291  0.2458
    2MPD1    C514256   4.054   4.051  17.067 -0.4836 -0.2267  0.3835
    2MPD1     H14257   4.263   4.277  16.840 -2.1855  0.3172 -1.5702
    2MPD1    H114258   4.152   4.149  17.230  0.3649 -1.8470  0.3602
    2MPD1    H214259   3.949   3.984  16.897  1.3114 -2.3776  0.2675
    2MPD1    H314260   3.995   3.993  17.137 -0.1297 -2.3081 -1.0549
    2MPD1     N14261   4.313   4.308  17.098  0.7964  0.1912 -0.7685
    2MPD1    H514262   4.349   4.374  17.030  1.4446  1.0520  0.4096
    2MPD1    N114263   4.095   4.106  16.711  0.2550 -0.2839  0.1234
    2MPD1    H614264   4.074   4.010  16.684 -0.5631  0.2927 -1.3082
    2MPD1    H714265   4.180   4.126  16.658 -1.3141 -0.3353 -2.4367
    3TCq2    C114266   4.351   4.323  17.228  0.3408  0.5138  0.1648
    3TCq2    O214267   4.311   4.267  17.328 -0.2687 -0.3970  0.8383
    3TCq2    C214268   4.473   4.399  17.239 -0.0309 -0.4659 -0.5848
    3TCq2    C314269   4.517   4.437  17.361  0.1983 -0.3428 -0.3133
    3TCq2    C414270   4.610   4.533  17.372  0.1218 -0.2421  0.0498
    3TCq2    C514271   4.674   4.580  17.266  0.6366 -0.1516 -0.8079
    3TCq2    C614272   4.631   4.548  17.144 -0.2362  0.3995  0.4329
    3TCq2    C714273   4.533   4.453  17.132  0.8544 -0.5498  0.2700
    3TCq2    C814274   4.672   4.619  17.021  0.4216  0.3881  0.0568
    3TCq2    O414275   4.646   4.581  16.906  0.8442 -0.0080  0.1319
    3TCq2    C914276   4.667   4.557  17.493  0.9075  0.6653 -0.3173
    3TCq2    O514277   4.629   4.492  17.589  0.0457  0.2844  0.5078
    3TCq2    O614278   0.049   4.629  17.500  0.9251  0.2231 -0.6101
    3TCq2    H214279   4.468   4.401  17.450  0.6496  0.5669  0.2976
    3TCq2    H314280   0.032   4.653  17.280 -1.2201  1.9958 -1.5541
    3TCq2    H414281   4.499   4.431  17.032 -1.2912 -0.6969  1.0209
    1TCq1    O114282   1.992   2.548  12.679 -0.2588  0.3187 -0.8336
    1TCq1    C114283   1.930   2.663  12.640 -0.0090 -0.7428  0.2403
    1TCq1    O214284   1.828   2.666  12.571  0.2196 -0.6188 -0.5148
    1TCq1    C214285   1.974   2.777  12.729 -0.0948  1.4082 -0.8714
    1TCq1    C314286   1.878   2.854  12.792 -0.1178  0.1454  0.0464
    1TCq1    C414287   1.916   2.947  12.887  0.1953  0.7318 -0.9570
    1TCq1    C514288   2.046   2.951  12.922 -1.2139  0.6366 -0.2255
    1TCq1    C614289   2.142   2.876  12.852  0.2475 -0.6719  0.5085
    1TCq1    C714290   2.101   2.783  12.759  0.6039  0.2649  0.6452
    1TCq1    C814291   2.282   2.869  12.901 -0.4522 -0.8454  0.4885
    1TCq1    O414292   2.347   2.792  12.834 -0.2636 -0.0113 -0.9825
    1TCq1    C914293   1.816   3.017  12.975  0.9437 -1.3136 -0.8447
    1TCq1    O514294   1.870   3.078  13.070  0.1142 -0.2766 -0.8429
    1TCq1    O614295   1.710   3.053  12.920  0.3187  0.2263  0.1531
    1TCq1    H114296   2.060   2.565  12.748 -2.0065 -0.6290  1.1147
    1TCq1    H214297   1.772   2.848  12.769 -0.2262  1.8324  0.1127
    1TCq1    H314298   2.075   3.010  13.009 -2.2995 -0.4928  0.9120
    1TCq1    H414299   2.167   2.712  12.710 -1.4612 -0.5307 -1.0357
    2MPD2     C14300   2.534   2.838  13.048  0.1794 -0.1529  0.5691
    2MPD2    C114301   2.439   2.940  13.074 -0.7169 -0.4796  0.3714
    2MPD2    C214302   2.473   3.032  13.171  0.4948 -0.3098  0.1383
    2MPD2    C314303   2.591   3.033  13.239 -0.1567 -0.4150  0.3008
    2MPD2    C414304   2.683   2.933  13.213 -0.0637  0.1145 -0.8085
    2MPD2    C514305   2.653   2.840  13.116 -0.5957  0.1391  0.4177
    2MPD2     H14306   2.394   3.098  13.205  0.4114 -0.3886  0.0989
    2MPD2    H114307   2.787   2.929  13.244 -0.3145 -0.9332 -0.0864
    2MPD2    H214308   2.514   2.752  12.985  2.0412  0.7625 -1.2464
    2MPD2    H314309   2.734   2.772  13.091  1.4124  2.3450  0.9916
    2MPD2     N14310   2.619   3.137  13.332  0.1595  0.1903  0.3991
    2MPD2    H514311   2.543   3.201  13.354  0.2275  0.2643  0.4176
    2MPD2    N114312   2.312   2.947  13.013 -0.2805  0.3681  0.1975
    2MPD2    H714313   2.245   3.006  13.062 -1.9698 -0.5749 -0.9661
    3TCq1    O114314   2.562   3.664  13.583 -0.2989  0.1981 -0.4490
    3TCq1    C114315   2.516   3.533  13.602  0.3063 -0.0563  0.2495
    3TCq1    O214316   2.412   3.498  13.654  0.3121  0.2273  0.2183
    3TCq1    C214317   2.632   3.446  13.581  0.3000  0.5975  0.3145
    3TCq1    C314318   2.752   3.486  13.626  0.7355 -0.6985  0.1491
    3TCq1    C414319   2.863   3.411  13.599  0.8042  0.2568  0.3055
    3TCq1    C514320   2.855   3.286  13.542 -0.2607  0.6944 -0.4909
    3TCq1    C614321   2.731   3.242  13.503 -0.1051 -0.3123 -0.1603
    3TCq1    C714322   2.617   3.316  13.523 -0.2497  0.8124  0.4921
    3TCq1    C814323   2.734   3.152  13.399  0.0967  1.3367  0.1994
    3TCq1    O414324   2.844   3.097  13.394  0.0983  0.0722 -0.0497
    3TCq1    C914325   2.987   3.456  13.642 -0.2488  0.6034 -0.3724
    3TCq1    O514326   3.077   3.374  13.689  0.2961  0.6172 -0.1686
    3TCq1    O614327   2.994   3.578  13.676 -0.3190  0.5221  0.3297
    3TCq1    H114328   2.649   3.676  13.539  0.4293 -2.3826  0.2417
    3TCq1    H214329   2.760   3.585  13.669  1.3815 -0.4456 -0.5558
    3TCq1    H314330   2.950   3.241  13.514 -0.6418  0.3670 -1.2311
    3TCq1    H414331   2.519   3.296  13.480  0.4127 -2.0613  0.3768
    1MPD2     C14332   1.302   4.375  15.359 -0.6336  0.1917 -0.1234
    1MPD2    C114333   1.261   4.292  15.257  0.0811  0.1529 -0.3381
    1MPD2    C214334   1.347   4.264  15.157  0.3464  0.3041  0.3581
    1MPD2    C314335   1.470   4.322  15.160  0.2568 -0.6845 -0.1887
    1MPD2    C414336   1.517   4.393  15.268  0.1186  0.0568 -0.6284
    1MPD2    C514337   1.431   4.414  15.370  0.5796  0.4145  0.4684
    1MPD2     H14338   1.313   4.203  15.074  0.8263 -1.7852  1.6891
    1MPD2    H114339   1.621   4.422  15.276  0.1428  0.0955 -1.0977
    1MPD2    H214340   1.234   4.375  15.444  0.1526  1.7969  0.5131
    1MPD2    H314341   1.481   4.436  15.463  0.6432  0.0730  0.5173
    1MPD2     N14342   1.568   4.309  15.060  0.0958 -1.6286  0.2015
    1MPD2    H514343   1.660   4.345  15.082 -0.6102  0.7412 -0.6864
    1MPD2    N114344   1.131   4.245  15.258  0.3246 -0.3831  0.0606
    1MPD2    H714345   1.063   4.278  15.326  0.3036  1.2726 -0.7739
    2TMC3    C114346   0.947   4.158  15.151  0.1715 -0.2849  0.2652
    2TMC3    C214347   0.915   4.064  15.063 -0.3666 -0.8293 -0.0690
    2TMC3    C314348   0.841   4.089  14.948  0.1461 -0.4856  0.0584
    2TMC3    C414349   0.908   4.288  15.118  0.8075  0.3237  0.2312
    2TMC3    C514350   0.823   4.304  15.015 -0.0181 -0.1066 -0.2498
    2TMC3    C614351   0.783   4.207  14.929 -0.5147  0.0206 -0.3193
    2TMC3     C14352   1.090   4.153  15.174  0.3030 -0.0275  0.0428
    2TMC3     O14353   1.150   4.075  15.100  0.5210  0.0271  0.4619
    2TMC3     H14354   0.951   3.963  15.080  1.7978 -0.0158  0.0931
    2TMC3    H114355   0.923   4.367  15.190  0.6862 -1.4188  2.1782
    2TMC3    H214356   0.715   4.224  14.847 -0.8111  0.8982  0.1072
    2TMC3    C714357   0.784   4.437  14.969  0.7598  0.5259  0.2895
    2TMC3    C814358   0.901   4.038  14.827 -0.0386 -0.3226 -0.3438
    2TMC3    O114359   0.672   4.476  14.947 -0.1606  0.6318 -0.1078
    2TMC3    O214360   0.852   4.078  14.723  0.4187 -0.2027 -0.0320
    3TCq1    O114361   1.733   0.049  14.500 -0.6219 -0.0707 -0.4216
    3TCq1    C114362   1.601   0.052  14.523  0.7762 -0.0885 -0.1930
    3TCq1    O214363   1.512   0.004  14.455  0.2412 -0.3010  0.0088
    3TCq1    C214364   1.578   0.134  14.639 -0.2370 -0.4547  1.0033
    3TCq1    C314365   1.661   0.240  14.652  0.4963  0.6814  0.2498
    3TCq1    C414366   1.606   0.341  14.723 -0.2404  0.3078 -0.5097
    3TCq1    C514367   1.470   0.358  14.747 -0.3328 -0.7381 -0.0674
    3TCq1    C614368   1.398   0.239  14.747  0.2049 -0.1208  1.0067
    3TCq1    C714369   1.450   0.125  14.687  0.4509 -0.3633 -0.2455
    3TCq1    C814370   1.253   0.249  14.784 -0.1428  0.1370  0.7620
    3TCq1    O414371   1.213   0.361  14.806 -0.7909  0.2068 -0.5369
    3TCq1    C914372   1.693   0.444  14.754 -0.2468  0.5456  0.2707
    3TCq1    O514373   1.810   0.445  14.706 -0.3397  0.1996  0.1333
    3TCq1    O614374   1.643   0.545  14.811 -0.1476  0.2888 -0.4288
    3TCq1    H114375   1.786   0.051  14.583  0.1381  1.4490 -0.9258
    3TCq1    H214376   1.764   0.238  14.619  0.9526 -1.3458  1.7596
    3TCq1    H314377   1.439   0.446  14.804  1.9245 -1.4395  2.2867
    3TCq1    H414378   1.399   0.031  14.672  0.1698 -0.1586 -0.5520
    4MPD2     C14379   0.973   0.190  14.874  0.1385 -0.4960 -0.0285
    4MPD2    C114380   1.072   0.091  14.845 -0.1745 -0.2829  0.2180
    4MPD2    C214381   1.040   4.685  14.873 -0.4971 -0.9234 -0.2715
    4MPD2    C314382   0.920   4.645  14.930 -0.3333  0.2369  0.0173
    4MPD2    C414383   0.817   0.014  14.940  0.2583  0.8024 -0.0294
    4MPD2    C514384   0.844   0.143  14.913  0.5656  0.1468  0.1947
    4MPD2     H14385   1.117   4.612  14.850 -2.5615 -2.8849 -1.0297
    4MPD2    H114386   0.717   4.704  14.968 -1.2687  4.1019 -1.7809
    4MPD2    H214387   0.990   0.295  14.857 -1.0034 -0.5373 -1.4632
    4MPD2    H314388   0.759   0.209  14.908 -0.7085 -1.5402 -0.4221
    4MPD2     N14389   0.908   4.507  14.964 -0.0804 -0.1296 -0.0742
    4MPD2    H514390   0.996   4.457  14.975 -1.1965 -1.7777  1.3408
    4MPD2    N114391   1.202   0.124  14.797  0.2027  1.0174 -0.1029
    4MPD2    H714392   1.280   0.059  14.800 -0.4375  0.3792  2.2972
    5TMC2    C114393   1.691   4.085  14.676  0.8870 -0.5321  0.2005
    5TMC2    C214394   1.792   4.025  14.736 -0.9183 -0.0132 -0.4875
    5TMC2    C314395   1.830   4.061  14.865  0.4365  0.7607  0.2210
    5TMC2    C414396   1.619   4.183  14.736 -0.0906 -0.6948  0.0833
    5TMC2    C514397   1.656   4.218  14.868  0.0625  0.3032  0.3597
    5TMC2    C614398   1.762   4.159  14.932 -1.1755 -0.8469  0.1343
    5TMC2     C14399   1.596   3.992  14.617  0.6843 -0.3290  0.0790
    5TMC2     O14400   1.633   3.914  14.531 -0.1156 -0.2611 -0.4096
    5TMC2     H14401   1.848   3.952  14.678 -0.2089  1.5902 -1.8074
    5TMC2    H114402   1.550   4.239  14.675  1.0138 -0.8299 -1.2787
    5TMC2    H214403   1.776   4.184  15.036  2.7646  2.6365 -1.2246
    5TMC2    C714404   1.539   4.258  14.934 -0.4308  0.0617  0.5447
    5TMC2    C814405   1.971   4.053  14.897 -0.1133  0.5343  0.0839
    5TMC2    O114406   1.428   4.244  14.882  0.6127 -0.0330  0.6663
    5TMC2    O214407   2.042   4.027  14.799 -0.4583 -0.3123  0.4058
    5TMC2    O514408   2.010   4.139  14.994  0.0676 -0.8328  0.7606
    5TMC2    H514409   1.964   4.141  15.080  1.0160  0.2509  1.2394
    6MPD2     C14410   1.083   3.901  14.622 -0.0336  0.7232 -0.2579
    6MPD2    C114411   1.125   3.961  14.738 -0.0045 -0.5352  0.0512
    6MPD2    C214412   1.259   3.987  14.763 -0.1312  0.2299  0.0484
    6MPD2    C314413   1.354   3.950  14.672 -0.3172 -0.5329  0.6243
    6MPD2    C414414   1.321   3.877  14.559 -0.6887 -0.3601 -0.3780
    6MPD2    C514415   1.188   3.859  14.534  0.6421 -0.3200  0.5268
    6MPD2     H14416   1.287   4.038  14.855 -1.6298 -0.1730  0.7255
    6MPD2    H114417   1.392   3.844  14.484  0.6458 -2.5423  1.8560
    6MPD2    H214418   0.977   3.888  14.604  0.1121 -0.9329  0.0368
    6MPD2    H314419   1.152   3.814  14.443 -0.8478  3.2968 -0.6583
    6MPD2     N14420   1.481   4.011  14.692 -0.3773 -0.2924 -0.0872
    6MPD2    H514421   1.490   4.087  14.759  0.7575 -1.1290  0.7001
    6MPD2    N114422   1.040   4.005  14.842 -0.3929 -0.0607  0.0459
    6MPD2    H714423   1.079   4.015  14.935  0.7467 -2.1708 -0.1941
  945NH4     N114424   0.846   4.030  12.267  0.4803 -0.7355  0.4272
  945NH4     H214425   0.786   4.039  12.182  1.5206  1.1641 -0.0966
  945NH4     H314426   0.893   3.938  12.275 -1.0361 -1.5248  0.3419
  945NH4     H414427   0.790   4.043  12.354 -0.3799 -1.1138 -0.0690
  945NH4     H514428   0.913   4.109  12.256 -1.4557  1.0386  1.3959
  946SOD     NA14429   4.706   3.795   8.373 -0.0574 -0.3798  0.0589
  947SOD     NA14430   4.036   3.265  15.026  0.2916 -0.4048  0.4074
  948SOD     NA14431   2.543   3.112  11.701 -0.2538  0.1153  0.4255
  949SOD     NA14432   2.744   2.036  17.046 -0.4750 -0.1075 -0.5115
  950SOD     NA14433   4.544   1.995   0.857  0.3005 -0.2093  0.0391
  951SOD     NA14434   0.629   4.267   1.577 -0.1108 -0.0545  0.1410
  952SOD     NA14435   1.445   3.595   6.504 -0.0025 -0.4482  0.7509
  953SOD     NA14436   1.042   2.803  13.124 -0.1802  0.0011 -0.1734
  954SOD     NA14437   1.812   2.226  11.266 -0.2857 -0.2219 -0.3980
  955SOD     NA14438   4.094   3.648   5.333 -0.3513  0.3331  0.1000
  956SOD     NA14439   1.008   1.069   1.135 -0.0807  0.0298 -0.1911
  957SOD     NA14440   2.663   3.380  11.460  0.2796  0.0674 -0.1693
  958SOD     NA14441   0.266   2.759   2.523  0.6057 -0.0970  0.1270
  959SOD     NA14442   1.782   3.173  10.266  0.0171  0.5946 -0.3107
  960SOD     NA14443   1.709   0.248  12.042  0.7566  0.0913 -0.4894
  961SOD     NA14444   2.299   2.633  11.768 -0.1275 -0.0333 -0.4663
  962SOD     NA14445   4.304   0.937  11.841 -0.0385  0.3896 -0.0930
  963SOD     NA14446   3.423   3.774  15.207  0.0230 -0.1962  0.1796
  964SOD     NA14447   1.703   3.143   9.987 -0.0957  0.3918  0.0732
  965SOD     NA14448   1.158   0.985   5.894 -0.1197  0.8635 -0.3086
  966SOD     NA14449   0.246   3.349  11.348 -0.5434  0.5249 -0.3029
  967SOD     NA14450   4.596   4.066  13.331 -0.3316  0.5552  0.0169
  968SOD     NA14451   0.301   0.984   2.160  0.1049 -0.2451 -0.1261
  969SOD     NA14452   2.665   0.062  14.551 -0.0539  0.3678  0.3396
  970SOD     NA14453   0.010   4.326  17.684 -0.3854 -0.2968 -0.0506
  971SOD     NA14454   1.788   3.795   0.958 -0.1436  0.3770  0.3120
  972SOD     NA14455   1.174   0.462  13.770 -0.2520  0.4795  0.0027
  973SOD     NA14456   1.472   4.581  10.418 -0.1421  0.3368 -0.6583
  974SOD     NA14457   3.058   0.691  16.728  0.1376 -0.1894  0.1561
  975SOD     NA14458   1.017   2.848   7.521  0.1679 -0.1920  0.2342
  976SOD     NA14459   2.880   2.283  12.643 -0.2601 -0.1373 -0.3864
  977SOD     NA14460   1.566   2.919  10.436  0.0417  0.1887  0.1588
  978SOD     NA14461   0.993   0.291   8.887 -0.2034 -0.2929 -0.2148
  979SOD     NA14462   4.481   4.281   3.384 -0.7407 -0.0298 -0.2210
  980SOD     NA14463   3.186   3.555  13.805  0.3937 -0.0322 -0.2838
  981SOD     NA14464   3.925   2.024   2.077 -0.1170  0.0835 -0.2734
  982SOD     NA14465   1.531   2.685  10.171  0.7292 -0.0355  0.4231
  983SOD     NA14466   4.461   3.423   1.187 -0.3658 -0.1201 -0.4163
  984SOD     NA14467   3.041   1.567   3.626 -0.1298  0.0050 -0.1693
  985SOD     NA14468   3.199   3.419  11.414 -0.3670  0.1809  0.1607
  986SOD     NA14469   3.291   2.563  14.135 -0.0098  0.1930  0.1998
  987SOD     NA14470   1.662   1.638  16.233 -0.0441  0.5175  0.5391
  988SOD     NA14471   1.778   2.695  10.407 -0.4640 -0.2762 -0.1414
  989SOD     NA14472   3.221   0.784   3.051 -0.1054  0.4454 -0.6394
  990SOD     NA14473   4.281   0.673   5.287  0.4244 -0.9369 -0.3526
  991SOD     NA14474   2.508   4.415   1.979 -0.0985 -0.0501 -0.4800
  992SOD     NA14475   0.509   2.704  12.941  0.2870 -0.2072 -0.3159
  993SOD     NA14476   3.230   2.233  15.777 -0.3480 -0.5546 -0.2705
  994SOD     NA14477   3.339   3.552  16.698 -0.5289  0.3606  0.0611
  995SOD     NA14478   3.532   4.272  11.269 -0.3331 -0.2321 -0.2637
  996SOD     NA14479   2.022   3.155  13.199 -0.0019  0.2799 -0.2688
  997SOD     NA14480   4.364   3.910   1.227 -0.2964 -0.0136  0.4974
  998SOD     NA14481   4.283   1.799  11.032 -0.3210  0.3409 -0.5377
  999SOD     NA14482   3.827   4.150  11.141 -0.3443  0.5837  0.0497
 1000SOD     NA14483   2.859   2.901   9.202 -0.2756 -0.0031  0.0472
 1001SOD     NA14484   3.340   0.069  12.792  0.2137 -0.4723  0.5595
 1002SOD     NA14485   1.783   3.925  15.275  0.3989 -0.2294  0.1107
 1003SOD     NA14486   2.076   3.701  10.315 -0.3519 -0.0576 -0.1657
 1004SOD     NA14487   3.502   2.406  14.329 -0.7664 -0.0843  0.6384
 1005SOD     NA14488   3.810   3.581  13.653  0.1312 -0.0437  0.1704
 1006SOD     NA14489   3.880   2.490  12.960 -0.5191  0.2246 -0.0297
 1007SOD     NA14490   4.047   3.030   1.258 -0.0113 -0.1628 -0.0514
 1008SOD     NA14491   2.700   1.864   3.952  0.0306 -0.2643 -0.2768
 1009SOD     NA14492   3.462   4.038   5.947 -0.5183  0.4728  0.1798
 1010SOD     NA14493   1.654   3.198   9.652 -0.4279 -0.5270 -0.5610
 1011SOL     OW14494   0.238   2.759   4.692 -0.3512  0.6849 -0.4195
 1011SOL    HW114495   0.334   2.763   4.694 -0.3507 -0.1431  1.7785
 1011SOL    HW214496   0.209   2.844   4.727 -1.7753  0.6086 -1.4446
 1012SOL     OW14497   0.739   4.298   6.963 -0.5611  0.0511 -0.2662
 1012SOL    HW114498   0.676   4.241   6.921  0.1897 -1.7385  1.0640
 1012SOL    HW214499   0.818   4.249   6.942 -0.0771  1.0611 -0.8192
 1013SOL     OW14500   1.267   4.625   5.541 -0.2045  0.2162 -0.5582
 1013SOL    HW114501   1.255   4.627   5.447 -2.1310  2.1811 -0.2662
 1013SOL    HW214502   1.357   4.653   5.556 -0.0922  0.1207 -1.0657
 1014SOL     OW14503   3.330   2.276   6.114 -0.1270 -0.0166 -0.1397
 1014SOL    HW114504   3.346   2.190   6.076 -0.3470 -0.3111  0.4440
 1014SOL    HW214505   3.300   2.321   6.034 -2.1337  1.7900  1.6461
 1015SOL     OW14506   0.750   3.109   3.087  0.3330 -0.1497  0.3104
 1015SOL    HW114507   0.665   3.087   3.125 -0.1844  2.1734  0.5139
 1015SOL    HW214508   0.722   3.166   3.015  2.5118  1.3303  0.6537
 1016SOL     OW14509   2.587   3.913   3.819 -0.2714 -0.6097  1.2420
 1016SOL    HW114510   2.563   3.836   3.870 -2.2301 -1.4196 -0.8512
 1016SOL    HW214511   2.527   3.897   3.746  2.3884  0.3439 -1.1644
 1017SOL     OW14512   2.648   1.254   5.335 -0.1551 -0.0143  0.1265
 1017SOL    HW114513   2.660   1.349   5.346 -0.1315  0.2608 -2.4338
 1017SOL    HW214514   2.562   1.231   5.370 -0.0365 -1.6481 -0.6458
 1018SOL     OW14515   3.968   2.457   6.448  0.0429  0.3704  0.0630
 1018SOL    HW114516   3.914   2.401   6.503  1.5684 -0.7745  0.4154
 1018SOL    HW214517   3.897   2.505   6.406 -0.1551 -1.5131 -1.7642
 1019SOL     OW14518   0.974   3.610  11.137  0.1728  0.4294  0.1367
 1019SOL    HW114519   0.958   3.528  11.091  2.2523 -1.7231  3.2875
 1019SOL    HW214520   1.010   3.660  11.064  2.2417 -1.5999 -0.2478
 1020SOL     OW14521   3.573   3.720  15.816 -0.3446  0.3812 -0.4606
 1020SOL    HW114522   3.601   3.796  15.866 -2.4892  1.0156 -0.2206
 1020SOL    HW214523   3.525   3.754  15.740  2.9102  1.1818 -2.1539
 1021SOL     OW14524   0.512   0.752  14.287  0.8434 -0.3627 -0.3264
 1021SOL    HW114525   0.469   0.802  14.218  2.0564 -1.9004 -2.1864
 1021SOL    HW214526   0.587   0.805  14.315  0.7716 -0.0708 -0.6973
 1022SOL     OW14527   1.344   0.860  12.075 -0.0926 -0.4158 -0.3048
 1022SOL    HW114528   1.383   0.947  12.082 -0.7533 -0.2562  1.3470
 1022SOL    HW214529   1.324   0.845  11.982  1.3800  0.3717 -0.7496
 1023SOL     OW14530   4.051   3.277   9.263 -0.5402 -0.5076  0.5988
 1023SOL    HW114531   4.122   3.275   9.198 -1.7487 -0.6758 -0.7058
 1023SOL    HW214532   4.107   3.248   9.336 -1.0869  0.9779  1.6076
 1024SOL     OW14533   3.144   1.686   4.335  0.2449 -0.3103 -0.2193
 1024SOL    HW114534   3.117   1.604   4.377  0.0845  0.2912  0.8674
 1024SOL    HW214535   3.110   1.669   4.247 -0.9676 -0.4192  0.2667
 1025SOL     OW14536   3.462   4.168   8.338 -0.6012  0.1379 -0.1943
 1025SOL    HW114537   3.428   4.257   8.343 -1.0765  0.0377 -1.8184
 1025SOL    HW214538   3.511   4.167   8.420  0.6583  1.0036 -0.9469
 1026SOL     OW14539   0.750   0.945   4.278  0.1411  0.1140  0.2365
 1026SOL    HW114540   0.721   0.882   4.212  0.6430 -0.0199  0.1433
 1026SOL    HW214541   0.831   0.972   4.235  0.4165  0.4633  0.9638
 1027SOL     OW14542   2.577   3.642  17.491 -0.3834 -0.5659 -0.1535
 1027SOL    HW114543   2.576   3.546  17.494  0.0068 -0.4482  3.1875
 1027SOL    HW214544   2.606   3.648  17.399 -3.4543  1.7176 -0.9731
 1028SOL     OW14545   2.145   0.734  14.630  0.4204 -0.0338  0.0746
 1028SOL    HW114546   2.071   0.794  14.619  0.6614  0.0316 -1.1648
 1028SOL    HW214547   2.106   0.669  14.688  1.8379  0.4935  1.6092
 1029SOL     OW14548   2.201   3.029   0.916  0.4856  0.1673  0.2477
 1029SOL    HW114549   2.224   3.097   0.852 -0.2849  0.0726 -0.1356
 1029SOL    HW214550   2.291   3.002   0.931  0.8846  1.4789  0.2000
 1030SOL     OW14551   4.232   3.676  10.952 -0.3244  0.6062  0.3450
 1030SOL    HW114552   4.160   3.614  10.945  0.4107 -0.2685  0.4312
 1030SOL    HW214553   4.259   3.674  10.860 -0.4065  2.7411  0.2967
 1031SOL     OW14554   0.743   3.231   8.164 -0.0747 -0.1975 -0.1392
 1031SOL    HW114555   0.759   3.226   8.258 -1.1053  0.7140  0.1001
 1031SOL    HW214556   0.755   3.323   8.141 -0.4753 -0.3205 -0.8487
 1032SOL     OW14557   0.920   0.158   3.805  0.4254  0.3548  0.4794
 1032SOL    HW114558   0.870   0.094   3.856 -0.6956  0.8062 -0.0428
 1032SOL    HW214559   0.930   0.100   3.730  0.1453  0.0718  0.6631
 1033SOL     OW14560   1.177   0.689   4.081  0.6012  0.3344  0.4575
 1033SOL    HW114561   1.233   0.629   4.131 -1.7489 -2.8164 -0.7156
 1033SOL    HW214562   1.233   0.761   4.050  2.0065 -1.7682 -1.8277
 1034SOL     OW14563   4.714   3.741   6.905  0.4503 -0.1881  0.2206
 1034SOL    HW114564   4.633   3.770   6.946  1.7231 -0.9915  3.2676
 1034SOL    HW214565   4.719   3.652   6.940  1.1045 -0.6610 -1.0764
 1035SOL     OW14566   3.007   4.264  16.238  0.1447  0.0515 -0.2455
 1035SOL    HW114567   3.091   4.309  16.246  0.3481 -0.4992  0.6769
 1035SOL    HW214568   2.940   4.319  16.279  0.3148  0.3631 -0.3827
 1036SOL     OW14569   2.857   4.297   7.726 -0.2207 -0.6783 -0.0605
 1036SOL    HW114570   2.896   4.353   7.793 -0.9429 -1.9038  1.3797
 1036SOL    HW214571   2.923   4.288   7.658 -0.8421  0.2466 -0.7965
 1037SOL     OW14572   2.224   1.640   7.631 -0.1836  0.8374 -0.1379
 1037SOL    HW114573   2.301   1.626   7.576 -0.6718  0.8720 -0.8208
 1037SOL    HW214574   2.258   1.655   7.720  0.4943 -2.7839  0.2420
 1038SOL     OW14575   2.586   0.870   2.452 -0.0239 -0.0640 -0.2679
 1038SOL    HW114576   2.511   0.812   2.441  0.9688 -1.7284  1.8702
 1038SOL    HW214577   2.532   0.949   2.448 -0.3393 -0.2678 -0.0890
 1039SOL     OW14578   0.621   2.463   5.409 -0.7282 -0.3816  0.2459
 1039SOL    HW114579   0.610   2.422   5.323 -0.9340 -1.2825  0.6919
 1039SOL    HW214580   0.530   2.451   5.435 -0.4142 -1.2096  0.9565
 1040SOL     OW14581   2.277   3.079   7.967 -0.8629  0.5736  0.1543
 1040SOL    HW114582   2.196   3.115   7.929 -2.4270 -1.6304  1.4332
 1040SOL    HW214583   2.241   3.034   8.043  1.7142 -1.9429 -0.1258
 1041SOL     OW14584   2.849   1.018   9.055 -0.2556 -0.6151  0.0088
 1041SOL    HW114585   2.916   1.013   9.122 -0.1133  3.0649  0.1305
 1041SOL    HW214586   2.834   0.923   9.054 -0.5961 -0.5543 -1.7068
 1042SOL     OW14587   0.822   3.148   9.184  0.3053  0.0337 -0.5965
 1042SOL    HW114588   0.810   3.144   9.279  0.2195  0.9167 -0.5658
 1042SOL    HW214589   0.808   3.242   9.173  2.1730  0.2830 -0.9104
 1043SOL     OW14590   0.008   0.192  15.923 -0.4624  0.4634  0.4382
 1043SOL    HW114591   4.720   0.135  16.000  2.7958 -0.8810 -0.1590
 1043SOL    HW214592   4.639   0.188  15.892 -0.4250  2.7620  0.0115
 1044SOL     OW14593   2.186   1.372   5.913 -0.1652 -0.1128  0.1351
 1044SOL    HW114594   2.123   1.404   5.849 -0.7862 -0.5860  0.5006
 1044SOL    HW214595   2.172   1.427   5.990  0.4211 -1.8506  1.4726
 1045SOL     OW14596   2.488   3.734   6.021  0.3563  0.2242  0.0560
 1045SOL    HW114597   2.562   3.691   5.979  1.4122  0.9385  1.1709
 1045SOL    HW214598   2.533   3.814   6.049 -1.0647  0.6478  1.1211
 1046SOL     OW14599   0.171   1.348   1.076 -0.6500 -0.8542  0.0350
 1046SOL    HW114600   0.092   1.366   1.025  0.6907  0.9140 -1.3896
 1046SOL    HW214601   0.218   1.325   0.996 -1.4066 -1.5865 -0.2050
 1047SOL     OW14602   2.809   2.304   5.931  0.1445  0.5840  0.6177
 1047SOL    HW114603   2.737   2.265   5.883  0.0097  2.8018 -0.9503
 1047SOL    HW214604   2.794   2.272   6.020 -3.3728 -0.0340 -0.2233
 1048SOL     OW14605   0.118   4.514   8.703  0.6073 -0.1145  0.3322
 1048SOL    HW114606   0.169   4.594   8.711 -0.8747  0.9139 -0.4024
 1048SOL    HW214607   0.185   4.445   8.703 -0.2458 -0.9616 -1.3501
 1049SOL     OW14608   3.862   3.009   3.717 -0.2683  0.2688 -0.5477
 1049SOL    HW114609   3.944   3.031   3.673  0.7563 -1.7884  0.3631
 1049SOL    HW214610   3.826   3.096   3.733 -1.6304 -0.3642 -0.1343
 1050SOL     OW14611   3.987   3.223   3.933  0.6851  0.2121 -0.9701
 1050SOL    HW114612   3.905   3.243   3.888  0.4911  1.4700 -0.0552
 1050SOL    HW214613   4.027   3.310   3.935  0.7034  0.1882 -0.2660
 1051SOL     OW14614   1.796   3.427  10.319 -0.5045 -0.4745 -0.2634
 1051SOL    HW114615   1.775   3.470  10.236  0.9657 -1.8121 -1.3537
 1051SOL    HW214616   1.704   3.417  10.344 -0.7512 -0.5151 -1.1842
 1052SOL     OW14617   1.586   0.676   3.213 -0.4401  0.5172 -0.0155
 1052SOL    HW114618   1.605   0.604   3.153  1.7037  0.3042  0.9352
 1052SOL    HW214619   1.566   0.635   3.297  1.4712  1.9108  1.1216
 1053SOL     OW14620   3.597   0.454  17.602  0.7611  0.0410 -0.4831
 1053SOL    HW114621   3.573   0.541  17.634 -1.0878 -0.0886 -1.5727
 1053SOL    HW214622   3.673   0.491  17.556  2.4506 -0.8939  1.5273
 1054SOL     OW14623   3.308   4.431   7.378  0.0144 -0.2203 -0.2856
 1054SOL    HW114624   3.370   4.505   7.378  0.4289 -0.5643  0.4007
 1054SOL    HW214625   3.231   4.459   7.330  0.9769  1.9604 -0.5495
 1055SOL     OW14626   0.023   1.634  11.917 -0.2432 -0.2985  0.3292
 1055SOL    HW114627   0.096   1.676  11.961 -0.5752 -1.5270  2.0036
 1055SOL    HW214628   0.041   1.644  11.823  0.6049 -1.1158  0.4148
 1056SOL     OW14629   2.931   4.471   2.110 -0.1107  0.5261 -0.5166
 1056SOL    HW114630   2.990   4.437   2.043  1.3724  0.5023  0.8190
 1056SOL    HW214631   2.913   4.553   2.063  0.5601  0.6150 -0.6131
 1057SOL     OW14632   4.131   0.723   9.291  0.2787 -0.1196 -0.2800
 1057SOL    HW114633   4.050   0.749   9.336 -1.0449 -2.3240 -1.4039
 1057SOL    HW214634   4.179   0.696   9.370 -0.0472 -0.9599 -0.3728
 1058SOL     OW14635   3.729   1.094   2.017  0.1332 -0.2501 -0.1222
 1058SOL    HW114636   3.795   1.153   2.054 -2.7833  2.3292  0.9439
 1058SOL    HW214637   3.652   1.150   2.022 -0.7232 -1.4328  0.0992
 1059SOL     OW14638   1.081   1.271   5.442 -0.3316  1.2130 -0.4612
 1059SOL    HW114639   1.081   1.182   5.406  0.5151 -0.0882  2.6855
 1059SOL    HW214640   1.166   1.264   5.487 -0.7365  1.6141  0.3556
 1060SOL     OW14641   2.629   3.551   4.688 -0.4960  0.1841 -0.5585
 1060SOL    HW114642   2.567   3.615   4.723  0.2289  0.0391  0.9957
 1060SOL    HW214643   2.691   3.607   4.641  1.4069 -1.3161  0.1726
 1061SOL     OW14644   2.639   0.329   5.123 -0.1657  0.1065  0.0928
 1061SOL    HW114645   2.615   0.328   5.031 -2.0296 -0.3296  0.5794
 1061SOL    HW214646   2.673   0.419   5.128 -1.5819  0.5740  1.2002
 1062SOL     OW14647   2.901   0.359   5.524 -0.6077  0.2537  0.1762
 1062SOL    HW114648   2.936   0.270   5.523 -0.2915  0.3769  0.3403
 1062SOL    HW214649   2.810   0.351   5.496 -0.3978 -1.6743  0.0038
 1063SOL     OW14650   1.593   1.218   9.575  0.0071 -0.2368 -0.4178
 1063SOL    HW114651   1.585   1.127   9.549 -0.2543 -0.8890  1.9612
 1063SOL    HW214652   1.687   1.226   9.591  0.2551 -1.4371 -1.3309
 1064SOL     OW14653   3.346   2.511   5.077  0.2602  0.4525 -0.3628
 1064SOL    HW114654   3.354   2.600   5.045  1.0335  0.3551 -0.4510
 1064SOL    HW214655   3.272   2.491   5.020  0.5460  1.5822 -1.1148
 1065SOL     OW14656   1.845   4.231   7.760  0.3994  0.7364  0.1332
 1065SOL    HW114657   1.773   4.265   7.707 -0.9753 -1.6549  0.4815
 1065SOL    HW214658   1.920   4.255   7.706  0.4129 -0.3445 -0.3200
 1066SOL     OW14659   2.788   3.445   1.672  0.3463 -0.2461  0.8509
 1066SOL    HW114660   2.756   3.359   1.698 -0.2782 -0.3870 -0.4085
 1066SOL    HW214661   2.869   3.447   1.724 -0.6396 -0.1710  2.3542
 1067SOL     OW14662   1.977   3.295  15.370  0.0214  0.2126 -0.3934
 1067SOL    HW114663   1.945   3.385  15.359 -0.2195 -0.0567 -1.8244
 1067SOL    HW214664   2.024   3.325  15.448 -1.4415 -0.3757  0.7428
 1068SOL     OW14665   4.110   3.934   8.210  0.3194  0.0134 -0.1208
 1068SOL    HW114666   4.155   3.883   8.142  0.2046 -0.2326 -0.0146
 1068SOL    HW214667   4.075   3.999   8.150  2.1011  0.4076 -0.7143
 1069SOL     OW14668   0.333   2.577   5.692  0.4228 -0.7549  0.2152
 1069SOL    HW114669   0.244   2.596   5.720  0.7562  3.6691 -1.6398
 1069SOL    HW214670   0.356   2.660   5.649 -1.6067  0.2438  1.0436
 1070SOL     OW14671   0.128   2.610   7.271 -0.1562 -0.2813 -0.3688
 1070SOL    HW114672   0.169   2.559   7.201  0.6400  1.7632 -1.3855
 1070SOL    HW214673   0.088   2.681   7.220  0.3570  0.5086  0.3496
 1071SOL     OW14674   2.397   4.220   0.148  0.1083 -0.1396 -0.2163
 1071SOL    HW114675   2.373   4.289   0.085  1.4228  0.8664  0.3768
 1071SOL    HW214676   2.327   4.159   0.128 -0.4592  1.0619 -1.9457
 1072SOL     OW14677   4.718   1.937   7.538  0.1262  0.1845  0.3239
 1072SOL    HW114678   4.700   1.925   7.632 -0.6230  0.6769  0.2452
 1072SOL    HW214679   0.015   1.846   7.513 -1.2810  0.2739 -1.0090
 1073SOL     OW14680   1.461   2.984  12.920  0.1776 -0.4969 -0.9694
 1073SOL    HW114681   1.451   2.920  12.990 -1.0844  1.2361  0.4501
 1073SOL    HW214682   1.551   3.010  12.940 -0.0444 -2.2638  2.3282
 1074SOL     OW14683   3.832   0.428   2.011 -0.0794 -0.1634  0.0430
 1074SOL    HW114684   3.861   0.461   2.096 -2.4579  0.2232  0.7050
 1074SOL    HW214685   3.760   0.375   2.044  1.5529 -1.8650  0.8909
 1075SOL     OW14686   1.522   1.930  13.020  0.2022  0.5523  0.4055
 1075SOL    HW114687   1.429   1.946  13.036  0.4865  0.8713  1.7345
 1075SOL    HW214688   1.544   1.983  12.943  3.4689 -1.4940 -0.0457
 1076SOL     OW14689   3.410   3.785   8.996 -0.6221 -0.3810 -0.1504
 1076SOL    HW114690   3.444   3.818   9.079 -2.5079 -1.6508  1.1135
 1076SOL    HW214691   3.352   3.715   9.026 -1.0866  0.1895  0.2819
 1077SOL     OW14692   3.397   0.962  10.706  0.2923  0.3608  0.0643
 1077SOL    HW114693   3.391   0.874  10.742 -0.3826  0.8157  1.0530
 1077SOL    HW214694   3.418   1.013  10.784  0.9477 -1.2153  0.9255
 1078SOL     OW14695   1.196   4.149  10.757  0.1100  0.0304 -0.1681
 1078SOL    HW114696   1.192   4.053  10.758  0.4802  0.0102 -0.8457
 1078SOL    HW214697   1.119   4.177  10.806  1.6933  0.8151  1.8817
 1079SOL     OW14698   1.560   3.268   5.952 -0.2820 -0.1698 -0.2358
 1079SOL    HW114699   1.535   3.360   5.949  0.5755  0.0093 -2.5322
 1079SOL    HW214700   1.590   3.249   5.863  0.2600 -1.8527  0.3080
 1080SOL     OW14701   3.694   2.732   7.622 -0.0101  0.3072 -0.3582
 1080SOL    HW114702   3.771   2.788   7.632  0.3235 -0.4780  1.4046
 1080SOL    HW214703   3.630   2.794   7.587 -0.4786  0.8279  1.4050
 1081SOL     OW14704   4.618   0.205   5.971  0.0706 -0.4743 -0.1799
 1081SOL    HW114705   4.610   0.125   5.919 -1.7915  0.1430 -0.8363
 1081SOL    HW214706   4.606   0.270   5.903  0.6008  0.7428  0.8979
 1082SOL     OW14707   1.050   2.885   4.681 -0.5022  0.4645  0.9458
 1082SOL    HW114708   1.032   2.793   4.661 -1.2397  0.9617 -0.7150
 1082SOL    HW214709   1.029   2.929   4.598 -2.5701 -2.1059  0.1186
 1083SOL     OW14710   4.645   4.580   3.934  0.8297 -0.0302 -0.2384
 1083SOL    HW114711   4.582   4.553   4.001 -1.4859 -0.0570 -2.4311
 1083SOL    HW214712   4.603   4.647   3.879  3.4503  1.6476 -0.1936
 1084SOL     OW14713   3.695   2.428   8.490  0.5882 -0.2921  0.1427
 1084SOL    HW114714   3.615   2.459   8.447  0.3728  1.1180  1.6057
 1084SOL    HW214715   3.741   2.378   8.423  0.1759 -1.0829  0.4473
 1085SOL     OW14716   3.557   1.533   7.411  0.1237 -0.0468  0.6943
 1085SOL    HW114717   3.559   1.618   7.454 -2.3098  0.2861  0.2011
 1085SOL    HW214718   3.493   1.484   7.464  0.8195 -1.1207  0.5327
 1086SOL     OW14719   2.249   2.226   8.481  0.1799  0.0607  0.1807
 1086SOL    HW114720   2.199   2.282   8.420 -0.5988  0.0461  0.8019
 1086SOL    HW214721   2.231   2.278   8.559  0.9533 -0.9815  1.0358
 1087SOL     OW14722   1.962   3.614  17.668 -0.1632 -0.4757  0.3145
 1087SOL    HW114723   1.912   3.651   0.053  0.7941 -1.4458  1.4667
 1087SOL    HW214724   1.893   3.601  17.602 -1.6490 -2.1731  2.1632
 1088SOL     OW14725   4.382   1.785   2.933  0.7092 -0.0311  0.0084
 1088SOL    HW114726   4.360   1.874   2.960 -1.0957 -0.3763 -0.2967
 1088SOL    HW214727   4.298   1.759   2.895  0.0843 -0.9567  2.0344
 1089SOL     OW14728   4.463   2.796  11.549 -0.4681  0.1868 -0.1092
 1089SOL    HW114729   4.534   2.822  11.490  2.2041 -2.5911  1.8766
 1089SOL    HW214730   4.453   2.701  11.544  1.9475 -0.0732  0.0183
 1090SOL     OW14731   2.966   1.126   6.165  0.1817 -0.7085  0.1999
 1090SOL    HW114732   3.030   1.080   6.111 -0.7583 -1.6554 -0.1109
 1090SOL    HW214733   2.892   1.066   6.155  0.0689 -0.1981 -2.0975
 1091SOL     OW14734   2.744   2.968   3.803  0.0235  0.0994 -0.3367
 1091SOL    HW114735   2.831   2.996   3.832  0.8482 -1.1517 -1.5879
 1091SOL    HW214736   2.757   2.940   3.712 -0.5713 -2.4413  0.3481
 1092SOL     OW14737   1.136   1.019   6.116  0.1271 -0.0239  0.2011
 1092SOL    HW114738   1.217   1.031   6.166  0.5847 -0.7687 -0.3415
 1092SOL    HW214739   1.105   0.931   6.138  0.4170  0.2709  1.7820
 1093SOL     OW14740   2.380   0.026   5.577  0.7214  0.7883 -0.1830
 1093SOL    HW114741   2.288   4.718   5.576  0.6741  0.9197  0.2182
 1093SOL    HW214742   2.376   0.114   5.614  1.0092 -0.5918  3.1685
 1094SOL     OW14743   4.301   2.359   3.981 -0.5593 -0.0049  0.7395
 1094SOL    HW114744   4.352   2.330   3.906 -1.5975 -0.5085  0.2443
 1094SOL    HW214745   4.245   2.427   3.943 -1.5962 -1.5722 -0.5078
 1095SOL     OW14746   1.294   4.032   6.653 -0.0222  0.2900  0.0473
 1095SOL    HW114747   1.200   4.031   6.635  0.0578  1.8136 -0.4631
 1095SOL    HW214748   1.288   4.075   6.738 -0.8080 -0.4100  0.3461
 1096SOL     OW14749   0.556   3.310   1.174  0.0414  0.5150 -0.3891
 1096SOL    HW114750   0.494   3.379   1.197  1.1327  1.2418  0.3862
 1096SOL    HW214751   0.536   3.290   1.083 -1.0034  0.6460 -0.1838
 1097SOL     OW14752   2.603   1.588   3.563  0.5017 -1.0174  0.4449
 1097SOL    HW114753   2.538   1.559   3.627 -0.0335 -0.4928  0.1419
 1097SOL    HW214754   2.602   1.683   3.558  2.0197 -0.8617  3.2043
 1098SOL     OW14755   4.669   2.069   4.868 -0.3213  0.6786 -0.0099
 1098SOL    HW114756   4.711   2.104   4.789  1.1938 -0.6167  0.2208
 1098SOL    HW214757   4.690   2.135   4.934  0.6321 -0.0238  0.3876
 1099SOL     OW14758   2.730   0.179  13.316 -0.1620 -0.1348  0.0829
 1099SOL    HW114759   2.677   0.170  13.395  0.9628  0.6533  0.9245
 1099SOL    HW214760   2.678   0.239  13.264 -2.0262 -0.4328  1.6126
 1100SOL     OW14761   3.460   4.643   7.472 -0.0356 -0.3900 -0.5733
 1100SOL    HW114762   3.517   4.662   7.397  0.6814 -1.8111 -0.3769
 1100SOL    HW214763   3.526   4.663   7.538  2.3664 -1.4883 -2.6380
 1101SOL     OW14764   0.995   2.587  15.768 -0.3944  0.0422  0.0068
 1101SOL    HW114765   0.954   2.567  15.684 -0.5864 -3.6038  0.9518
 1101SOL    HW214766   0.958   2.510  15.811  1.1839 -2.1989 -2.6413
 1102SOL     OW14767   2.583   2.911   7.784 -0.6557 -0.3249  0.2213
 1102SOL    HW114768   2.607   2.923   7.876 -0.5172  0.1058  0.1289
 1102SOL    HW214769   2.515   2.844   7.782  0.9455 -1.9015 -1.3602
 1103SOL     OW14770   0.159   4.716   9.016  0.1988 -0.6603 -0.0029
 1103SOL    HW114771   0.070   4.686   8.998  0.5119 -0.0534 -2.6338
 1103SOL    HW214772   0.182   0.024   8.928  0.0331 -0.6356 -0.0379
 1104SOL     OW14773   0.934   0.810   3.221  0.3487 -0.4188  0.3174
 1104SOL    HW114774   0.919   0.716   3.229  3.9911 -1.0307 -0.0802
 1104SOL    HW214775   0.884   0.844   3.295 -0.2605 -2.9470  1.0524
 1105SOL     OW14776   0.141   2.993   3.152 -0.1798  0.7648 -0.5553
 1105SOL    HW114777   0.097   3.077   3.164 -1.2981  0.5605 -3.0506
 1105SOL    HW214778   0.065   2.934   3.160 -1.1065  1.7922 -1.7659
 1106SOL     OW14779   0.351   0.079  16.058 -0.7110 -0.3165 -0.0981
 1106SOL    HW114780   0.439   0.060  16.090  0.8922  1.5986 -3.3470
 1106SOL    HW214781   0.348   0.175  16.051 -1.1794 -0.3050  0.2171
 1107SOL     OW14782   1.759   3.235   6.343 -0.6281 -0.1048 -0.2610
 1107SOL    HW114783   1.744   3.189   6.261 -0.3660  3.6529 -2.4008
 1107SOL    HW214784   1.855   3.240   6.341 -0.4997 -2.9364 -0.7502
 1108SOL     OW14785   3.007   0.974   3.632 -0.1570 -0.3086  0.2207
 1108SOL    HW114786   2.933   1.017   3.674 -1.1796 -2.3411  0.5361
 1108SOL    HW214787   3.028   0.905   3.694 -0.7573 -0.8536 -0.1773
 1109SOL     OW14788   4.107   0.358   3.029  0.5880 -0.8099 -0.2774
 1109SOL    HW114789   4.079   0.442   3.065 -1.3173 -0.5708 -2.3214
 1109SOL    HW214790   4.035   0.329   2.972  1.2732  0.3528 -1.7388
 1110SOL     OW14791   4.610   3.633   2.393  0.2589 -0.0903  0.1352
 1110SOL    HW114792   4.589   3.540   2.396  0.4999 -0.1970 -1.4156
 1110SOL    HW214793   4.598   3.654   2.485 -0.9128  0.2499 -0.0973
 1111SOL     OW14794   2.818   2.781  16.196 -0.0994 -0.0752 -0.4355
 1111SOL    HW114795   2.735   2.775  16.244  0.4627 -1.4840  0.3501
 1111SOL    HW214796   2.791   2.800  16.106  3.1570 -1.6365 -1.7403
 1112SOL     OW14797   0.825   3.227   1.111 -0.4283 -0.1683 -0.1639
 1112SOL    HW114798   0.734   3.204   1.126 -0.5664  0.7086  0.3487
 1112SOL    HW214799   0.815   3.322   1.106 -0.7121 -0.0514  2.6806
 1113SOL     OW14800   2.439   3.418  12.246 -0.1562 -0.3199 -0.1769
 1113SOL    HW114801   2.517   3.421  12.301 -0.1475  2.7944 -0.3970
 1113SOL    HW214802   2.377   3.452  12.311 -0.8399 -0.7954 -0.5751
 1114SOL     OW14803   0.967   0.380   2.325 -0.8843  0.2481  0.5371
 1114SOL    HW114804   1.023   0.309   2.293 -1.1283  1.3077 -2.2314
 1114SOL    HW214805   0.879   0.352   2.300 -0.0993 -2.3573  0.7341
 1115SOL     OW14806   2.270   4.701  10.106 -0.6141 -0.0870 -0.1545
 1115SOL    HW114807   2.196   0.034  10.135 -0.4596 -2.0984  3.9466
 1115SOL    HW214808   2.345   0.023  10.146 -0.8129  1.1802 -1.1238
 1116SOL     OW14809   2.860   2.013   4.326 -0.3885 -0.5600  0.6958
 1116SOL    HW114810   2.876   2.013   4.420 -1.6473  0.3470  0.8949
 1116SOL    HW214811   2.913   2.090   4.303 -1.8420  0.6804  1.4751
 1117SOL     OW14812   4.056   3.954   9.494  0.4248  0.0920 -0.5317
 1117SOL    HW114813   4.065   4.007   9.573 -1.3102  0.9276 -0.8835
 1117SOL    HW214814   4.099   4.012   9.431 -1.6711 -0.3726 -2.4276
 1118SOL     OW14815   0.374   2.251   8.708 -0.0727 -0.1388  0.1767
 1118SOL    HW114816   0.410   2.331   8.746 -0.5609  0.0115  0.3266
 1118SOL    HW214817   0.452   2.197   8.694 -0.9654 -1.2119 -0.7040
 1119SOL     OW14818   0.163   3.076  17.095 -0.2966  0.0773 -0.3409
 1119SOL    HW114819   0.240   3.110  17.049 -1.2868  2.9130  0.1077
 1119SOL    HW214820   0.114   3.154  17.120 -2.0788 -1.3969  0.7638
 1120SOL     OW14821   4.206   2.300   7.662 -0.2435  0.3086  0.5938
 1120SOL    HW114822   4.186   2.310   7.755  0.3550 -1.2468  0.8877
 1120SOL    HW214823   4.292   2.341   7.660 -0.0985 -0.0944 -1.0092
 1121SOL     OW14824   1.162   4.257   4.358 -0.2986  0.0621 -0.2501
 1121SOL    HW114825   1.253   4.284   4.371 -0.0258 -0.5955 -0.8236
 1121SOL    HW214826   1.166   4.162   4.358 -0.0652  0.0719 -0.6628
 1122SOL     OW14827   2.121   1.136   3.990  0.0397 -0.1005  0.0723
 1122SOL    HW114828   2.065   1.060   3.974 -0.2106 -0.4205  2.3954
 1122SOL    HW214829   2.210   1.101   3.984 -0.9460 -3.0698  2.7784
 1123SOL     OW14830   0.234   1.153   6.856  0.1538  0.5408 -0.3412
 1123SOL    HW114831   0.139   1.167   6.862  0.2023  0.2050  1.1590
 1123SOL    HW214832   0.237   1.190   6.768  0.7686  1.7853  0.2088
 1124SOL     OW14833   2.844   3.425   3.405 -0.3125  0.1647  0.4886
 1124SOL    HW114834   2.847   3.508   3.357 -0.7884 -1.4752 -2.3638
 1124SOL    HW214835   2.748   3.428   3.410 -0.2734  1.1957  0.6781
 1125SOL     OW14836   2.117   2.485  15.959  0.7174  0.0902 -0.0345
 1125SOL    HW114837   2.139   2.543  15.887  1.3542  0.4504  0.4559
 1125SOL    HW214838   2.187   2.421  15.968  1.3342  1.4008  4.3332
 1126SOL     OW14839   2.993   0.644   6.012 -0.1139  0.3768 -0.1998
 1126SOL    HW114840   3.049   0.571   6.040  0.4448  0.3857 -1.2556
 1126SOL    HW214841   3.018   0.710   6.076  1.5097 -0.0727 -0.3582
 1127SOL     OW14842   3.651   2.269   3.894 -0.0203 -0.1368 -0.3087
 1127SOL    HW114843   3.560   2.251   3.867  0.1766  0.9408 -1.6775
 1127SOL    HW214844   3.694   2.189   3.863 -1.0138 -1.1179  0.8125
 1128SOL     OW14845   1.063   2.567   3.493 -0.3752 -0.2986 -0.0162
 1128SOL    HW114846   1.034   2.601   3.408 -0.1860 -0.4894 -0.1550
 1128SOL    HW214847   1.021   2.628   3.554  0.7175 -1.0366  1.4546
 1129SOL     OW14848   0.217   0.431   0.204  0.1021  0.4546  0.0947
 1129SOL    HW114849   0.200   0.392   0.118 -0.3044  1.5100 -0.2982
 1129SOL    HW214850   0.132   0.443   0.247  0.1092  1.0803 -0.0675
 1130SOL     OW14851   0.776   1.326   2.523 -0.6088 -0.8065  0.6156
 1130SOL    HW114852   0.804   1.346   2.612  0.3888  0.0189  0.1274
 1130SOL    HW214853   0.776   1.414   2.486 -2.5429 -0.4135  1.5709
 1131SOL     OW14854   4.294   0.563  12.704  0.1484  0.5486  0.0858
 1131SOL    HW114855   4.319   0.651  12.734  1.5057 -0.0891  0.8538
 1131SOL    HW214856   4.329   0.504  12.771 -0.8401  1.3849  1.3505
 1132SOL     OW14857   3.095   3.498   1.427  0.4274 -0.8381 -0.3455
 1132SOL    HW114858   3.094   3.409   1.394  0.1270 -0.7961 -0.4484
 1132SOL    HW214859   3.123   3.467   1.513  0.9570 -1.0838 -0.6100
 1133SOL     OW14860   2.823   1.203   4.153 -0.5987 -0.0151  0.4068
 1133SOL    HW114861   2.888   1.133   4.141 -0.5652  0.1543 -0.3966
 1133SOL    HW214862   2.754   1.155   4.198 -0.9115 -1.1686 -1.3390
 1134SOL     OW14863   4.155   0.182   8.001  0.0511 -0.2347  0.0373
 1134SOL    HW114864   4.205   0.100   8.006  0.7194  0.2066  0.7224
 1134SOL    HW214865   4.152   0.206   7.909  2.7933 -2.9122 -0.7536
 1135SOL     OW14866   1.550   2.075   2.729 -0.1897  0.1212 -0.0966
 1135SOL    HW114867   1.592   1.993   2.703  2.4747  1.1923  0.8139
 1135SOL    HW214868   1.460   2.065   2.700 -0.8585 -0.3566  2.1322
 1136SOL     OW14869   0.316   1.165   9.503 -0.3521 -0.1934  0.6328
 1136SOL    HW114870   0.279   1.146   9.589 -1.8111 -1.2971 -0.2603
 1136SOL    HW214871   0.266   1.113   9.441 -1.3441  0.5898  0.7694
 1137SOL     OW14872   3.629   4.036  15.853 -0.0379  0.4520 -0.2278
 1137SOL    HW114873   3.618   4.066  15.943  0.9935 -1.0123  0.3877
 1137SOL    HW214874   3.562   4.094  15.818 -0.7527  0.1818  0.6846
 1138SOL     OW14875   3.056   3.676  13.423 -0.2206 -0.4645  0.5941
 1138SOL    HW114876   3.006   3.662  13.504 -0.9344 -1.3250  0.0117
 1138SOL    HW214877   3.140   3.685  13.467 -0.8444  1.8263  1.3213
 1139SOL     OW14878   4.430   0.067   8.413  0.2253  0.1179  0.4665
 1139SOL    HW114879   4.425   0.037   8.322  2.1210 -1.5918  0.9196
 1139SOL    HW214880   4.388   4.711   8.450 -1.0152  0.5584 -0.0289
 1140SOL     OW14881   1.664   1.628  16.867  0.1242 -0.3153  0.3273
 1140SOL    HW114882   1.653   1.540  16.831  0.4008 -0.4091  0.4681
 1140SOL    HW214883   1.744   1.662  16.826  1.1392 -1.5726  1.2621
 1141SOL     OW14884   1.818   4.155   8.865 -0.3938  0.3533  0.3373
 1141SOL    HW114885   1.848   4.163   8.955  1.3225 -3.6125  0.0744
 1141SOL    HW214886   1.729   4.190   8.872 -0.9805 -1.1201  0.2347
 1142SOL     OW14887   2.717   4.083  16.841 -0.8040 -0.0524  0.4605
 1142SOL    HW114888   2.626   4.114  16.839 -1.1117 -0.8482  1.7523
 1142SOL    HW214889   2.756   4.166  16.867 -1.0182  0.8726 -2.2437
 1143SOL     OW14890   2.367   4.371   7.598 -0.3273  0.5641 -0.4124
 1143SOL    HW114891   2.451   4.417   7.599 -0.0828  0.1511 -2.6668
 1143SOL    HW214892   2.389   4.288   7.556  1.5145  0.4861  0.7170
 1144SOL     OW14893   3.130   0.437  12.574 -0.4585 -0.4228 -0.1502
 1144SOL    HW114894   3.051   0.419  12.524 -0.9149  0.6201  0.1927
 1144SOL    HW214895   3.181   0.466  12.498  0.0930 -0.8472  0.0549
 1145SOL     OW14896   1.156   4.256  13.948 -0.0705 -0.0070 -0.6739
 1145SOL    HW114897   1.181   4.213  14.030 -0.4255  3.0284  1.0207
 1145SOL    HW214898   1.233   4.233  13.896  0.4534  0.3198 -0.0536
 1146SOL     OW14899   4.531   3.097  11.925 -0.6362 -0.6154 -0.4518
 1146SOL    HW114900   4.448   3.144  11.914 -0.5413  0.0763  1.9131
 1146SOL    HW214901   4.494   3.013  11.952 -0.0461 -0.5150  0.6584
 1147SOL     OW14902   0.384   1.731   8.413  0.0871  0.4934  0.2862
 1147SOL    HW114903   0.335   1.723   8.495 -0.0302 -1.8950 -0.0157
 1147SOL    HW214904   0.316   1.764   8.354 -1.0176 -1.8106  0.2909
 1148SOL     OW14905   1.651   1.512  11.639  0.3936  0.0101  0.0626
 1148SOL    HW114906   1.718   1.573  11.608  0.6232 -0.6527 -0.7202
 1148SOL    HW214907   1.633   1.547  11.727 -1.5536 -0.3610 -0.1923
 1149SOL     OW14908   4.209   2.140  10.789 -0.1440  0.2941 -0.0878
 1149SOL    HW114909   4.198   2.158  10.696  1.5480 -0.8648 -0.5175
 1149SOL    HW214910   4.219   2.225  10.833 -2.5746  0.5546 -0.0292
 1150SOL     OW14911   0.598   1.213  16.967  0.5821 -0.0137 -0.0216
 1150SOL    HW114912   0.521   1.270  16.971  0.1386 -0.7049  1.3659
 1150SOL    HW214913   0.648   1.273  16.911  1.0113  0.4732  0.8919
 1151SOL     OW14914   1.274   3.541   1.725  0.1414  0.2297 -0.2623
 1151SOL    HW114915   1.321   3.457   1.721  0.5292  0.5088 -1.8694
 1151SOL    HW214916   1.347   3.600   1.740 -0.6111  1.9556 -3.2249
 1152SOL     OW14917   0.460   1.788   9.662  0.0397 -0.1008  0.6897
 1152SOL    HW114918   0.519   1.729   9.615 -0.4746 -0.8072  0.9414
 1152SOL    HW214919   0.376   1.768   9.620  0.4663  0.6503 -0.5369
 1153SOL     OW14920   0.519   2.201   9.465  0.3314  0.1295 -0.0893
 1153SOL    HW114921   0.518   2.184   9.559  0.7927 -1.4401 -0.3779
 1153SOL    HW214922   0.612   2.190   9.446  0.2265  1.1085 -1.1341
 1154SOL     OW14923   4.054   1.599   3.052 -0.0708  0.1476 -0.2002
 1154SOL    HW114924   4.037   1.660   2.980 -1.8956 -2.0354 -1.6033
 1154SOL    HW214925   4.002   1.632   3.126  1.8499 -0.5797  1.4897
 1155SOL     OW14926   3.035   2.660  16.073 -0.1965 -0.1900 -0.2063
 1155SOL    HW114927   2.946   2.684  16.100  0.6015  1.4953  0.9332
 1155SOL    HW214928   3.071   2.742  16.040  0.1088 -1.1003 -2.1328
 1156SOL     OW14929   2.604   4.441   2.455 -0.5452 -0.5728  0.0091
 1156SOL    HW114930   2.620   4.347   2.456 -0.1116 -0.4641  1.6808
 1156SOL    HW214931   2.622   4.459   2.547  0.9115 -0.0511 -0.3845
 1157SOL     OW14932   0.214   4.389   7.956  0.2340  0.1032 -0.0675
 1157SOL    HW114933   0.171   4.461   7.910  1.8356 -0.3298 -2.2547
 1157SOL    HW214934   0.151   4.366   8.025  0.2603  0.7369  0.1642
 1158SOL     OW14935   2.793   2.699   9.117  0.0036 -0.3866  0.1143
 1158SOL    HW114936   2.804   2.642   9.041 -0.7185  0.8511 -0.9144
 1158SOL    HW214937   2.804   2.635   9.188 -2.1257 -2.0030 -1.0081
 1159SOL     OW14938   1.158   4.673   3.363  0.6282  0.0760 -0.2988
 1159SOL    HW114939   1.172   0.007   3.286 -0.6150 -0.2375 -0.7519
 1159SOL    HW214940   1.247   4.641   3.375  0.4411 -0.7892 -1.2600
 1160SOL     OW14941   2.621   0.064  12.962 -0.0359 -0.7042 -0.9364
 1160SOL    HW114942   2.707   0.063  13.004  0.2225 -1.7808 -1.4858
 1160SOL    HW214943   2.603   4.691  12.968 -0.1797 -0.8475 -3.6992
 1161SOL     OW14944   1.480   0.354   7.914 -0.2815  0.4945  0.0691
 1161SOL    HW114945   1.476   0.410   7.836  3.5140  0.1732 -0.3700
 1161SOL    HW214946   1.459   0.419   7.980 -1.3601  1.2237 -0.9866
 1162SOL     OW14947   0.319   3.046   7.993 -0.1435  0.5504  0.3557
 1162SOL    HW114948   0.304   2.971   8.050 -0.6816  0.3470 -0.0512
 1162SOL    HW214949   0.368   3.004   7.922  0.4369  1.4567  0.2208
 1163SOL     OW14950   3.079   0.014  12.181  0.0849  0.2879  0.2074
 1163SOL    HW114951   3.168   0.039  12.205  0.0535  0.1032  0.5086
 1163SOL    HW214952   3.076   4.645  12.212 -2.2198  1.2419  2.8004
 1164SOL     OW14953   3.185   2.111   8.787  0.2730  0.5813 -0.0469
 1164SOL    HW114954   3.136   2.121   8.706 -0.6785 -0.2184  0.4372
 1164SOL    HW214955   3.155   2.024   8.812 -0.4144  0.8561  0.0878
 1165SOL     OW14956   2.709   2.817  11.169  0.1182  0.0429 -0.2841
 1165SOL    HW114957   2.758   2.865  11.103 -0.0930  0.5051 -0.1093
 1165SOL    HW214958   2.664   2.748  11.120 -0.5053  1.1785 -1.3259
 1166SOL     OW14959   2.465   3.919   5.526  0.2226 -0.8644  0.6105
 1166SOL    HW114960   2.470   3.907   5.431  2.4256 -1.4351  0.7947
 1166SOL    HW214961   2.401   3.852   5.547  0.5355 -0.7195  2.0337
 1167SOL     OW14962   3.591   0.469   6.468 -0.4855  0.8693 -0.5437
 1167SOL    HW114963   3.680   0.475   6.503 -0.1838 -2.1484 -0.8363
 1167SOL    HW214964   3.572   0.558   6.438 -0.5441  1.0942  0.1741
 1168SOL     OW14965   0.137   3.906   3.613  0.2616  0.0600  0.5049
 1168SOL    HW114966   0.051   3.894   3.573  0.2755 -2.3996  1.2052
 1168SOL    HW214967   0.201   3.872   3.551  0.3442 -0.7809  1.0490
 1169SOL     OW14968   0.497   2.058   1.657 -0.3839 -0.2325  0.3026
 1169SOL    HW114969   0.454   2.115   1.720 -3.6096 -0.1286 -2.0012
 1169SOL    HW214970   0.586   2.057   1.694 -1.6250 -1.5338  3.2076
 1170SOL     OW14971   3.698   2.674   8.697  0.6697  0.1267  0.8266
 1170SOL    HW114972   3.709   2.765   8.670 -0.6017  0.0570  0.0838
 1170SOL    HW214973   3.731   2.627   8.621 -1.9049 -0.6330  0.1703
 1171SOL     OW14974   1.233   4.635  10.882 -0.4626 -0.4538  0.3427
 1171SOL    HW114975   1.255   4.573  10.813  1.4094  0.1068  0.4125
 1171SOL    HW214976   1.306   4.697  10.875  0.8665 -2.3370 -2.3398
 1172SOL     OW14977   2.654   4.225   0.694  0.0581  0.2764  0.1400
 1172SOL    HW114978   2.572   4.257   0.731  0.0027 -1.2450  1.3221
 1172SOL    HW214979   2.673   4.143   0.739 -1.8276 -0.4206 -0.3464
 1173SOL     OW14980   3.018   3.279  15.597 -0.1450  1.0735 -0.6055
 1173SOL    HW114981   3.021   3.374  15.583  1.4404  0.9129 -1.3272
 1173SOL    HW214982   2.982   3.284  15.686 -1.2005 -2.1934 -0.8439
 1174SOL     OW14983   0.307   0.200   8.334  0.0303  0.1912 -0.1944
 1174SOL    HW114984   0.351   0.116   8.330 -0.0869 -0.0338  2.6905
 1174SOL    HW214985   0.249   0.192   8.410  2.8020  1.4278  2.0506
 1175SOL     OW14986   0.986   1.324   4.872 -0.0605 -0.0992  0.0332
 1175SOL    HW114987   1.069   1.367   4.891 -0.2240  0.4342 -0.4755
 1175SOL    HW214988   0.996   1.247   4.928 -2.1238 -1.6853 -1.7606
 1176SOL     OW14989   3.624   1.065   3.944  0.2517  0.0278  0.4412
 1176SOL    HW114990   3.709   1.022   3.950  0.3522  0.2824  0.8172
 1176SOL    HW214991   3.565   0.998   3.911  2.0522 -0.9227 -0.8531
 1177SOL     OW14992   1.269   4.443   8.473  0.9698 -0.5332  0.4195
 1177SOL    HW114993   1.321   4.505   8.523  0.7374  0.1240 -0.1552
 1177SOL    HW214994   1.279   4.479   8.385 -2.7904  0.6124  0.4361
 1178SOL     OW14995   0.916   1.180   2.845 -0.0518 -0.6330  0.1137
 1178SOL    HW114996   0.869   1.263   2.850  1.9839  0.5321  0.0728
 1178SOL    HW214997   0.908   1.148   2.935  3.2251 -0.0510  0.6337
 1179SOL     OW14998   4.381   2.930   7.120 -0.1298  0.3629  0.8900
 1179SOL    HW114999   4.365   2.933   7.214 -0.0598  1.2097  0.8735
 1179SOL    HW215000   4.371   3.020   7.089 -1.7176  1.4102  4.4387
 1180SOL     OW15001   4.372   1.779   2.317  0.8351 -0.6556 -0.0343
 1180SOL    HW115002   4.400   1.765   2.407 -1.1839  1.2125  0.8558
 1180SOL    HW215003   4.455   1.787   2.269  0.1199  0.2072 -1.1423
 1181SOL     OW15004   1.571   3.004   7.638  0.5444  0.1545 -0.0834
 1181SOL    HW115005   1.527   2.926   7.602  0.1104 -0.0990  0.9920
 1181SOL    HW215006   1.501   3.068   7.624  0.7341  0.2386 -0.6582
 1182SOL     OW15007   3.255   3.783   9.912 -0.5168  0.2771 -0.4092
 1182SOL    HW115008   3.182   3.759   9.969  0.0247 -1.9823 -0.6436
 1182SOL    HW215009   3.326   3.738   9.957 -0.3612  0.5324 -0.3992
 1183SOL     OW15010   2.470   1.254  16.111  0.1681 -0.0011 -0.4430
 1183SOL    HW115011   2.526   1.243  16.188  1.3437 -1.1165 -1.4609
 1183SOL    HW215012   2.414   1.326  16.140 -0.9744 -0.3852 -1.6822
 1184SOL     OW15013   3.862   3.161  11.856 -0.3263 -0.2404  0.1337
 1184SOL    HW115014   3.868   3.204  11.770  1.1052 -1.1258 -0.2156
 1184SOL    HW215015   3.915   3.212  11.916  1.5394 -1.6729 -0.2825
 1185SOL     OW15016   3.746   4.283   5.228  0.2097  0.7221  0.2629
 1185SOL    HW115017   3.658   4.323   5.223  0.6823  2.0115  2.1069
 1185SOL    HW215018   3.718   4.193   5.246 -1.4156  0.8905 -1.3755
 1186SOL     OW15019   2.493   0.490   1.593 -0.5031 -0.2223 -0.0230
 1186SOL    HW115020   2.523   0.547   1.664 -0.5223 -0.1537 -0.0703
 1186SOL    HW215021   2.573   0.477   1.541 -1.3993  1.4659 -1.8128
 1187SOL     OW15022   0.726   2.129   8.827  0.2432 -0.6684 -0.2395
 1187SOL    HW115023   0.723   2.034   8.816 -0.3701 -0.6848  0.0559
 1187SOL    HW215024   0.738   2.149   8.734 -0.8291 -1.5050 -0.5614
 1188SOL     OW15025   3.881   1.168   8.855 -0.2123 -0.1939 -0.2862
 1188SOL    HW115026   3.916   1.194   8.770 -1.8825 -0.9165 -1.2114
 1188SOL    HW215027   3.959   1.147   8.906 -1.5498 -0.5206  1.6179
 1189SOL     OW15028   3.428   1.017  17.447  0.7983  0.2253  0.5560
 1189SOL    HW115029   3.440   0.922  17.441 -1.7848 -0.0941  0.6483
 1189SOL    HW215030   3.518   1.047  17.430  0.6590  0.0677 -0.4485
 1190SOL     OW15031   4.699   0.326  13.505  0.7383  0.2537 -0.3031
 1190SOL    HW115032   0.033   0.388  13.459  0.0352  0.8464 -0.3460
 1190SOL    HW215033   4.640   0.391  13.544 -2.0649 -2.6366  0.3126
 1191SOL     OW15034   0.463   4.429   4.611  0.1299 -0.1819  1.1477
 1191SOL    HW115035   0.406   4.499   4.643 -1.0837 -0.6202 -0.0641
 1191SOL    HW215036   0.398   4.359   4.603 -1.9299  1.6953  1.3058
 1192SOL     OW15037   1.798   3.836   1.176  0.4390  0.1862 -0.4387
 1192SOL    HW115038   1.785   3.760   1.231 -0.9717  0.1273 -0.8434
 1192SOL    HW215039   1.864   3.895   1.212 -0.5245  0.7495  0.4042
 1193SOL     OW15040   3.420   0.346   1.600  0.0977 -0.5823 -0.1757
 1193SOL    HW115041   3.502   0.316   1.639 -0.1722  0.1732  0.9807
 1193SOL    HW215042   3.393   0.274   1.543 -1.1913  0.0207 -0.3250
 1194SOL     OW15043   1.245   3.208  16.965 -0.5860  0.7271  0.4017
 1194SOL    HW115044   1.200   3.213  16.881  1.4061  1.2619 -0.6488
 1194SOL    HW215045   1.218   3.119  16.985 -0.3182  0.5292 -0.1267
 1195SOL     OW15046   1.133   2.412  10.138  0.4895 -0.5220 -0.0307
 1195SOL    HW115047   1.064   2.425  10.203 -0.7818 -1.4333 -1.1853
 1195SOL    HW215048   1.109   2.325  10.107  0.5759 -1.0757  1.4372
 1196SOL     OW15049   2.463   1.544   6.262  0.1500 -0.1621  0.2598
 1196SOL    HW115050   2.415   1.592   6.330 -0.0970  1.2573 -0.9170
 1196SOL    HW215051   2.487   1.618   6.207  0.3977  0.4121  1.1300
 1197SOL     OW15052   1.308   3.299   5.574 -0.4143 -0.1246  0.2000
 1197SOL    HW115053   1.317   3.231   5.507  0.1696  1.2117 -1.0704
 1197SOL    HW215054   1.397   3.329   5.593 -0.1140  0.4005 -2.0914
 1198SOL     OW15055   0.860   3.652   4.039  0.2720 -0.4679 -0.4365
 1198SOL    HW115056   0.799   3.722   4.016  0.6523  0.2824  0.8702
 1198SOL    HW215057   0.866   3.606   3.955 -1.6028  0.7822 -1.2585
 1199SOL     OW15058   2.076   1.230  16.046 -0.0372 -0.0554  0.6015
 1199SOL    HW115059   2.057   1.137  16.047 -1.2231  0.1942  1.8657
 1199SOL    HW215060   2.092   1.253  15.954  1.2001 -0.4776  0.7122
 1200SOL     OW15061   3.145   4.275   0.080  0.5890 -0.7745  0.3114
 1200SOL    HW115062   3.226   4.271   0.028  1.0546  0.6245  0.9407
 1200SOL    HW215063   3.085   4.288   0.007  0.2847 -2.1027  0.3224
 1201SOL     OW15064   0.395   1.181   4.458 -0.0606  0.2364  0.5190
 1201SOL    HW115065   0.371   1.248   4.394  0.0686 -0.0314  0.1885
 1201SOL    HW215066   0.488   1.193   4.473 -0.1719  1.9098 -0.0886
 1202SOL     OW15067   2.959   3.163   8.805 -0.2750  0.2118  0.0806
 1202SOL    HW115068   2.920   3.123   8.728  1.0647 -2.3406  0.7298
 1202SOL    HW215069   3.043   3.119   8.809  1.1463  3.0466  1.5452
 1203SOL     OW15070   3.631   2.846   3.709  0.1372 -0.2151  0.0706
 1203SOL    HW115071   3.705   2.907   3.704  1.0259 -1.5426 -2.9367
 1203SOL    HW215072   3.553   2.895   3.684  0.8410  0.1048 -1.4668
 1204SOL     OW15073   4.306   4.089   8.924  0.1673  0.2826 -0.0217
 1204SOL    HW115074   4.257   4.107   8.844 -0.2946  0.1518  0.2317
 1204SOL    HW215075   4.260   4.008   8.948  1.8330 -0.2885  1.2801
 1205SOL     OW15076   0.826   0.171   8.188  0.0793  0.0091 -0.3567
 1205SOL    HW115077   0.764   0.229   8.233 -0.3895 -0.8635  0.1288
 1205SOL    HW215078   0.776   0.089   8.186 -2.4565  1.5238  0.6846
 1206SOL     OW15079   3.467   4.370   3.551 -0.1994  0.0635 -0.2327
 1206SOL    HW115080   3.461   4.457   3.590 -0.3204  0.3396 -0.8677
 1206SOL    HW215081   3.403   4.369   3.480  1.1885  0.1084 -1.4942
 1207SOL     OW15082   3.042   3.220   6.822  0.3031 -0.2535 -0.0535
 1207SOL    HW115083   3.036   3.145   6.762  0.6756  0.5328 -1.0741
 1207SOL    HW215084   3.013   3.176   6.902 -1.0895  1.3514  0.3213
 1208SOL     OW15085   2.224   0.704   5.412  0.6227 -0.4053 -0.2533
 1208SOL    HW115086   2.152   0.657   5.455  0.1622  0.5044 -0.0361
 1208SOL    HW215087   2.239   0.772   5.478  0.4768 -1.6201  1.0362
 1209SOL     OW15088   3.572   1.614   8.725 -0.4299  0.2493 -0.9050
 1209SOL    HW115089   3.515   1.688   8.704 -0.4774  0.1881 -0.9900
 1209SOL    HW215090   3.650   1.626   8.671 -0.2614 -0.4806 -0.8152
 1210SOL     OW15091   0.673   2.107   5.881 -0.4569 -0.2963  0.4097
 1210SOL    HW115092   0.669   2.130   5.974  0.5884  0.8006  0.1818
 1210SOL    HW215093   0.671   2.011   5.889  1.4809 -0.3886 -0.2923
 1211SOL     OW15094   1.712   4.086   6.362 -0.3544  0.0537  0.2532
 1211SOL    HW115095   1.702   4.117   6.272 -1.4893  1.1221  0.7547
 1211SOL    HW215096   1.622   4.084   6.394 -1.1624 -1.8243 -2.1679
 1212SOL     OW15097   0.082   2.558   0.262 -0.1969 -0.0645  0.6273
 1212SOL    HW115098   0.092   2.470   0.298 -0.4144 -0.4982 -0.3782
 1212SOL    HW215099   0.002   2.549   0.211  1.2694 -0.2867 -1.6210
 1213SOL     OW15100   0.548   0.279   8.233 -0.0936  0.0959  0.4012
 1213SOL    HW115101   0.459   0.245   8.249  0.0174 -0.0064  0.7909
 1213SOL    HW215102   0.547   0.312   8.143 -1.8136  0.2126  0.4561
 1214SOL     OW15103   4.208   2.375  10.957  0.3204  0.0615  0.3118
 1214SOL    HW115104   4.175   2.434  11.024  0.1491  1.8311 -1.3205
 1214SOL    HW215105   4.227   2.436  10.886 -0.7276 -0.0830 -0.0893
 1215SOL     OW15106   1.685   2.328   8.737  0.0069 -0.1190  0.2571
 1215SOL    HW115107   1.703   2.411   8.694  0.4131 -1.4106 -2.0624
 1215SOL    HW215108   1.591   2.320   8.720 -0.2241 -1.0055  1.9977
 1216SOL     OW15109   3.526   1.883   0.465  0.0836 -0.2306  0.2856
 1216SOL    HW115110   3.595   1.824   0.497  0.2505 -0.7178 -0.9579
 1216SOL    HW215111   3.464   1.893   0.537  1.5445  0.0537  1.5065
 1217SOL     OW15112   2.090   3.865   3.719  0.0754  0.2457  0.6147
 1217SOL    HW115113   2.031   3.863   3.794  1.3634 -3.9249  1.4938
 1217SOL    HW215114   2.099   3.772   3.698 -1.2566  0.5127 -1.1577
 1218SOL     OW15115   3.517   3.418  15.011  0.3521 -0.5365  0.5994
 1218SOL    HW115116   3.589   3.417  15.074  0.0506 -0.1848  0.9480
 1218SOL    HW215117   3.572   3.417  14.932  1.5387 -0.6423  1.4223
 1219SOL     OW15118   3.295   4.298  15.792  0.0182  0.1563  0.4926
 1219SOL    HW115119   3.344   4.375  15.823 -0.8987  0.6605  0.6823
 1219SOL    HW215120   3.241   4.290  15.870  1.7170 -1.0399  1.5434
 1220SOL     OW15121   3.400   0.118   1.453  0.3571  0.2272 -0.6453
 1220SOL    HW115122   3.384   0.153   1.365 -3.2574  0.2099  0.0220
 1220SOL    HW215123   3.471   0.056   1.437  2.2252  3.0202 -3.3024
 1221SOL     OW15124   2.118   4.609   3.927  0.4894 -0.0830 -0.6500
 1221SOL    HW115125   2.209   4.584   3.941  0.7775  2.0129  1.1866
 1221SOL    HW215126   2.122   4.705   3.931  2.1597 -0.1381 -0.9643
 1222SOL     OW15127   3.503   1.539   5.090 -0.1772  0.9613 -0.1961
 1222SOL    HW115128   3.520   1.445   5.088  3.5953  1.6597 -1.5833
 1222SOL    HW215129   3.467   1.557   5.003 -1.0656  1.5625  0.3010
 1223SOL     OW15130   2.989   1.552   0.688 -0.5578 -0.4764  0.3178
 1223SOL    HW115131   2.934   1.617   0.646 -1.2215 -1.6596 -0.6313
 1223SOL    HW215132   2.924   1.524   0.753 -1.4010  1.1714  0.1607
 1224SOL     OW15133   2.297   3.328   1.662 -0.0003  0.3936  0.0144
 1224SOL    HW115134   2.361   3.382   1.710  2.3425 -1.7815 -0.6653
 1224SOL    HW215135   2.320   3.352   1.572  0.3809 -1.0019 -0.2587
 1225SOL     OW15136   3.052   0.345   3.095 -0.1067 -0.1394 -0.5934
 1225SOL    HW115137   2.986   0.405   3.060  0.6911  1.2468  0.2736
 1225SOL    HW215138   3.046   0.373   3.187  0.8598 -2.1032  0.0575
 1226SOL     OW15139   1.550   1.369   9.024 -0.1602 -0.0977 -0.1747
 1226SOL    HW115140   1.573   1.332   9.109 -0.3496  0.0638 -0.0543
 1226SOL    HW215141   1.580   1.459   9.037 -0.2528 -0.3444  1.6874
 1227SOL     OW15142   3.645   0.643   3.042 -0.0002  0.0462 -0.0298
 1227SOL    HW115143   3.627   0.575   2.976 -0.7416 -1.5723  1.8235
 1227SOL    HW215144   3.726   0.660   2.994 -0.3097  3.2575  0.6027
 1228SOL     OW15145   2.017   1.120   1.718 -0.5276  0.3037 -0.4682
 1228SOL    HW115146   2.096   1.068   1.733  0.0631  1.5403  0.6621
 1228SOL    HW215147   2.012   1.117   1.623  0.4285 -2.1719 -0.4499
 1229SOL     OW15148   4.641   3.479   2.877 -0.2682 -0.1736 -0.1213
 1229SOL    HW115149   4.608   3.476   2.967  2.5928  0.3435  0.9408
 1229SOL    HW215150   4.709   3.544   2.893  1.7294 -2.5295  1.0590
 1230SOL     OW15151   3.176   1.011  12.857 -0.2037 -0.3223  0.2235
 1230SOL    HW115152   3.270   1.024  12.873 -0.4439  2.9909 -1.2146
 1230SOL    HW215153   3.167   1.060  12.775  0.5650 -0.5111  0.0241
 1231SOL     OW15154   3.148   4.142   4.585 -0.2809  0.7049 -0.3639
 1231SOL    HW115155   3.112   4.146   4.673 -3.1174 -2.4201 -1.4119
 1231SOL    HW215156   3.082   4.176   4.525 -1.9326 -0.2191  0.9493
 1232SOL     OW15157   0.933   4.220   3.047 -0.0823  0.2866 -1.0481
 1232SOL    HW115158   0.845   4.244   3.076  0.9734 -2.1411  4.1311
 1232SOL    HW215159   0.947   4.126   3.053 -0.7877  0.1246 -1.9552
 1233SOL     OW15160   4.573   2.894   5.950 -0.0757  0.2625 -0.4673
 1233SOL    HW115161   4.663   2.869   5.930 -0.0467 -1.2570  1.6472
 1233SOL    HW215162   4.591   2.934   6.035  2.5573 -2.0947  0.0467
 1234SOL     OW15163   4.540   2.646   5.663 -0.1898  0.1853 -0.2182
 1234SOL    HW115164   4.504   2.634   5.750  2.5014  0.5757  0.9378
 1234SOL    HW215165   4.468   2.635   5.600 -2.2929 -1.0453  2.4245
 1235SOL     OW15166   0.865   0.531  15.976 -0.1096 -0.0188 -0.3950
 1235SOL    HW115167   0.940   0.591  15.971  1.4042 -1.9166 -0.7884
 1235SOL    HW215168   0.799   0.576  15.924 -2.8829 -0.7709  2.4710
 1236SOL     OW15169   0.745   0.748   2.843 -0.7524 -0.1406  0.3152
 1236SOL    HW115170   0.821   0.797   2.873 -0.1865 -0.4785 -0.5838
 1236SOL    HW215171   0.770   0.747   2.751 -1.2901 -1.9293  0.1917
 1237SOL     OW15172   1.600   2.554  12.496 -0.1034  0.1700  0.2336
 1237SOL    HW115173   1.687   2.580  12.526 -1.0631  0.5937  2.6394
 1237SOL    HW215174   1.544   2.619  12.539 -0.7178 -0.9822  1.1795
 1238SOL     OW15175   3.695   0.418   9.863 -0.3093 -0.0362 -0.1506
 1238SOL    HW115176   3.741   0.363   9.799  1.1678  0.7349  0.2481
 1238SOL    HW215177   3.767   0.479   9.879 -2.2130  1.4974  2.5573
 1239SOL     OW15178   0.804   2.288  10.549 -0.0771  0.0584  0.1409
 1239SOL    HW115179   0.834   2.287  10.640  0.3800 -0.9799 -0.0128
 1239SOL    HW215180   0.811   2.380  10.526  1.6906 -0.2026 -0.3874
 1240SOL     OW15181   0.772   0.866   7.081 -0.1582  0.5736 -0.2010
 1240SOL    HW115182   0.733   0.948   7.051  1.6004  0.3686 -3.0810
 1240SOL    HW215183   0.820   0.836   7.004  0.2611  1.5436 -0.3289
 1241SOL     OW15184   2.743   1.537   1.960  0.1803 -0.3439 -0.6790
 1241SOL    HW115185   2.706   1.464   2.011 -0.4803  0.2898 -0.2632
 1241SOL    HW215186   2.713   1.511   1.873  2.7542 -0.3357 -1.5689
 1242SOL     OW15187   0.567   4.181  16.682  0.0349  0.1667  0.3856
 1242SOL    HW115188   0.555   4.258  16.737 -0.5396  1.1329 -1.0975
 1242SOL    HW215189   0.572   4.117  16.753  0.8216 -0.3813 -0.1661
 1243SOL     OW15190   3.666   4.435   2.475 -0.3961 -0.6172  0.0315
 1243SOL    HW115191   3.599   4.450   2.407 -1.5802  2.2544  1.8158
 1243SOL    HW215192   3.639   4.357   2.523 -0.6722 -0.2550  0.4668
 1244SOL     OW15193   2.312   1.322   8.777 -0.1197 -0.4194 -0.1916
 1244SOL    HW115194   2.321   1.345   8.685  1.1342 -1.6767 -0.3831
 1244SOL    HW215195   2.346   1.400   8.821 -0.1318 -0.7875  0.4867
 1245SOL     OW15196   3.473   1.701   0.207  0.0363  0.6810  0.4763
 1245SOL    HW115197   3.514   1.780   0.242 -2.2315  1.4795  1.3427
 1245SOL    HW215198   3.416   1.670   0.277  2.6584 -0.6231  2.0335
 1246SOL     OW15199   2.414   1.335   6.758  0.2866  0.5931 -0.0130
 1246SOL    HW115200   2.455   1.337   6.845 -2.0184 -2.9891  1.1942
 1246SOL    HW215201   2.485   1.364   6.701  0.1722 -0.1821 -0.5450
 1247SOL     OW15202   3.547   0.301  13.691  0.1611 -0.3862  0.1747
 1247SOL    HW115203   3.617   0.269  13.635 -1.7275 -1.5134 -1.5473
 1247SOL    HW215204   3.582   0.375  13.740 -0.2448 -1.2196  1.7451
 1248SOL     OW15205   2.954   3.315  15.837  0.4433  0.1618 -0.0619
 1248SOL    HW115206   2.927   3.250  15.902  1.1240 -1.1880 -1.1280
 1248SOL    HW215207   2.913   3.397  15.863 -1.7267  0.0163 -3.0074
 1249SOL     OW15208   3.502   1.425   4.113 -0.3924  0.2020 -0.6014
 1249SOL    HW115209   3.425   1.370   4.129 -0.5304  0.1351 -1.5175
 1249SOL    HW215210   3.551   1.389   4.187  1.2922 -2.0321 -2.7793
 1250SOL     OW15211   0.117   1.682   3.745  0.1709  0.0805  0.1955
 1250SOL    HW115212   0.040   1.668   3.800  0.3604 -0.8772  0.2192
 1250SOL    HW215213   0.187   1.674   3.810  0.5875 -1.1561 -0.4010
 1251SOL     OW15214   2.249   2.255   6.093  0.0084  0.1387 -0.2519
 1251SOL    HW115215   2.233   2.349   6.101  1.5233  0.3028  0.9235
 1251SOL    HW215216   2.312   2.264   6.021 -1.2502  0.0747 -1.3572
 1252SOL     OW15217   0.504   0.356  11.370  0.4021  0.0588 -0.3446
 1252SOL    HW115218   0.468   0.293  11.433  1.9392 -1.0150 -0.5514
 1252SOL    HW215219   0.573   0.398  11.420 -1.2544  0.7366  1.3913
 1253SOL     OW15220   4.649   4.653  12.333 -0.2634  0.2196 -0.0874
 1253SOL    HW115221   4.664   4.664  12.240 -1.2149  0.5111 -0.2036
 1253SOL    HW215222   0.011   4.608  12.350 -0.6610  0.5344  2.8224
 1254SOL     OW15223   4.506   3.684   3.331 -0.1367 -0.1361 -0.6811
 1254SOL    HW115224   4.419   3.711   3.303 -1.1189  0.0338  2.6157
 1254SOL    HW215225   4.567   3.703   3.259 -0.8132  0.8496 -0.9992
 1255SOL     OW15226   0.786   4.677  10.216 -0.5163 -0.2418  0.0481
 1255SOL    HW115227   0.721   0.024  10.201  1.2533  1.5650  0.6433
 1255SOL    HW215228   0.772   4.649  10.306  0.9517 -2.9957 -0.5528
 1256SOL     OW15229   2.284   0.900  17.272 -0.1263  0.1056  0.0319
 1256SOL    HW115230   2.222   0.843  17.318 -0.2964 -0.6498 -1.1171
 1256SOL    HW215231   2.336   0.945  17.338  1.4177  1.9180 -2.4140
 1257SOL     OW15232   3.219   3.513   2.753 -0.0695  0.6276 -0.6520
 1257SOL    HW115233   3.277   3.438   2.764 -1.1335 -0.0806  0.1124
 1257SOL    HW215234   3.228   3.559   2.836  1.0669  0.0505 -0.4630
 1258SOL     OW15235   3.595   1.035   5.156  0.9483  0.2838  0.2982
 1258SOL    HW115236   3.661   1.016   5.223 -0.4696 -1.5893  1.1555
 1258SOL    HW215237   3.514   1.010   5.199  1.3633 -0.9894  0.3425
 1259SOL     OW15238   3.216   0.931   2.862 -0.4032  0.5839 -0.4468
 1259SOL    HW115239   3.238   1.024   2.862 -0.2724  0.5453  2.0044
 1259SOL    HW215240   3.128   0.928   2.823 -1.7711 -2.1092  2.8495
 1260SOL     OW15241   1.447   3.016   4.400  0.4155  0.3071  0.0624
 1260SOL    HW115242   1.433   3.042   4.309 -1.9829 -2.3785 -0.3454
 1260SOL    HW215243   1.427   2.922   4.392  0.0330  0.5336 -1.7256
 1261SOL     OW15244   3.314   3.248   1.866 -0.4485 -0.2480 -0.1259
 1261SOL    HW115245   3.308   3.154   1.884 -2.5199 -0.3631 -1.4284
 1261SOL    HW215246   3.401   3.256   1.829 -0.6353 -0.0252 -0.5196
 1262SOL     OW15247   0.251   4.633   5.437  0.5992 -0.2985  0.0975
 1262SOL    HW115248   0.266   4.603   5.527  0.4957  1.3610  0.6732
 1262SOL    HW215249   0.164   4.595   5.428  0.5844 -0.7888  2.2338
 1263SOL     OW15250   2.709   2.174   5.599  0.2111 -0.2495  0.4100
 1263SOL    HW115251   2.689   2.171   5.506 -1.2633  1.2904  0.6646
 1263SOL    HW215252   2.759   2.256   5.592 -1.0484  0.4479 -0.2237
 1264SOL     OW15253   2.341   2.594  11.527 -0.2701  0.0148 -0.5609
 1264SOL    HW115254   2.315   2.551  11.446  0.0915 -2.1478  0.4673
 1264SOL    HW215255   2.435   2.576  11.522 -0.1401 -0.6656  4.1748
 1265SOL     OW15256   3.963   3.565   7.925 -0.1187 -0.2678 -0.5947
 1265SOL    HW115257   3.879   3.595   7.960  0.0755 -0.4912  0.0721
 1265SOL    HW215258   3.936   3.503   7.858  0.3939 -1.2696  0.1167
 1266SOL     OW15259   4.445   2.423   3.697 -0.4256  0.2301 -0.3665
 1266SOL    HW115260   4.468   2.515   3.685 -2.2833  0.6704 -0.6529
 1266SOL    HW215261   4.449   2.389   3.608 -1.0734 -1.0612  0.0969
 1267SOL     OW15262   3.397   3.393   8.787 -0.5834  0.3017 -0.0942
 1267SOL    HW115263   3.303   3.397   8.804 -0.8966 -0.6179 -1.5753
 1267SOL    HW215264   3.394   3.471   8.733  0.2979  1.9188  2.2061
 1268SOL     OW15265   3.291   3.294  14.690 -0.3749 -0.4862 -0.0600
 1268SOL    HW115266   3.284   3.304  14.785 -2.1918 -1.0383 -0.1374
 1268SOL    HW215267   3.335   3.377  14.673 -1.4018  0.3221  1.2207
 1269SOL     OW15268   4.485   3.492   2.619 -0.2138 -0.7896 -0.6310
 1269SOL    HW115269   4.553   3.486   2.686 -0.9720 -1.7396  0.0545
 1269SOL    HW215270   4.513   3.443   2.541 -1.3514  1.2054 -2.3052
 1270SOL     OW15271   2.185   3.598   1.828 -0.7174  0.3607  0.2113
 1270SOL    HW115272   2.110   3.637   1.872 -2.2190 -1.9917 -0.2820
 1270SOL    HW215273   2.183   3.508   1.862  1.4960 -0.5545 -2.1311
 1271SOL     OW15274   3.498   4.118   3.003 -0.0975  0.5869 -0.1546
 1271SOL    HW115275   3.589   4.144   3.014 -0.3260  1.4456 -0.3178
 1271SOL    HW215276   3.504   4.036   3.051 -1.2158  0.4748 -0.1916
 1272SOL     OW15277   1.866   2.560  15.705 -0.0106 -0.0000  0.3620
 1272SOL    HW115278   1.894   2.643  15.744  0.8175 -0.1970  0.1825
 1272SOL    HW215279   1.888   2.576  15.613  1.1216 -0.0470  0.6261
 1273SOL     OW15280   0.019   0.893   7.929  0.9021 -0.1223 -0.1961
 1273SOL    HW115281   4.676   0.840   7.881 -0.2822 -0.2131  1.5019
 1273SOL    HW215282   0.018   0.975   7.879  0.9195  0.3712  0.6286
 1274SOL     OW15283   1.278   2.208  13.458  0.3788  0.2171 -0.0561
 1274SOL    HW115284   1.295   2.301  13.440 -1.1924  0.6415  0.6010
 1274SOL    HW215285   1.228   2.219  13.539 -2.0437 -1.5275 -1.3106
 1275SOL     OW15286   1.189   0.131   6.406  0.6306 -0.2973  0.1886
 1275SOL    HW115287   1.149   0.066   6.348 -0.4262  0.3696  0.1704
 1275SOL    HW215288   1.271   0.089   6.434 -0.6121  0.4972  4.8793
 1276SOL     OW15289   2.205   3.143   8.673  0.2836 -0.5941  0.4312
 1276SOL    HW115290   2.295   3.153   8.642  0.3191 -2.2402 -0.0069
 1276SOL    HW215291   2.171   3.231   8.657 -0.7261 -0.8751  1.0080
 1277SOL     OW15292   3.250   4.482   1.667 -0.0145 -0.7317 -0.2350
 1277SOL    HW115293   3.228   4.569   1.631 -0.6209 -1.5175 -1.7720
 1277SOL    HW215294   3.230   4.429   1.590 -4.1057 -0.6128  0.7438
 1278SOL     OW15295   4.141   1.551  14.230  0.1413 -0.4306  0.4137
 1278SOL    HW115296   4.060   1.569  14.183  0.1739  2.5094  1.4601
 1278SOL    HW215297   4.203   1.537  14.158  0.8891  0.9396  0.7962
 1279SOL     OW15298   2.864   1.537   3.494 -0.4146  0.6976 -0.2998
 1279SOL    HW115299   2.857   1.544   3.399 -2.5206  1.7805 -0.0584
 1279SOL    HW215300   2.774   1.561   3.517 -0.4151  2.1846 -1.8508
 1280SOL     OW15301   2.348   1.183  16.831 -0.1324  0.2359  0.5128
 1280SOL    HW115302   2.328   1.184  16.925  1.4074  1.9861  0.8252
 1280SOL    HW215303   2.296   1.107  16.803 -2.2353  0.9453  2.4527
 1281SOL     OW15304   3.324   0.205  13.798  0.1252  0.1903  0.3380
 1281SOL    HW115305   3.279   0.159  13.728  1.1812  0.7639 -0.7192
 1281SOL    HW215306   3.409   0.224  13.757 -0.1453  0.9802  0.1307
 1282SOL     OW15307   2.175   1.230   8.193 -0.0496 -0.4490  0.0287
 1282SOL    HW115308   2.182   1.163   8.125  1.4278  0.0784 -0.3253
 1282SOL    HW215309   2.264   1.236   8.227 -0.3091 -0.7410  0.7482
 1283SOL     OW15310   0.003   1.737   9.264  0.1984 -0.2832 -0.1359
 1283SOL    HW115311   4.711   1.747   9.170  1.3621  0.7844 -0.1897
 1283SOL    HW215312   0.080   1.793   9.275  0.6389 -1.2810  2.0216
 1284SOL     OW15313   3.584   1.223   6.239  0.1333 -0.4630  0.3058
 1284SOL    HW115314   3.617   1.245   6.326 -0.5333 -1.0813  0.7156
 1284SOL    HW215315   3.524   1.295   6.220 -0.7427 -1.3067 -0.1454
 1285SOL     OW15316   3.854   3.219  13.933 -0.1140  0.6517 -0.0528
 1285SOL    HW115317   3.920   3.151  13.916  0.2365  1.9892 -3.9161
 1285SOL    HW215318   3.851   3.219  14.029 -1.5726 -0.1956 -0.1054
 1286SOL     OW15319   3.782   0.606   1.433  0.4711  0.0336 -0.1444
 1286SOL    HW115320   3.856   0.635   1.486 -0.5415 -0.1701  1.3704
 1286SOL    HW215321   3.752   0.531   1.484 -0.8129 -0.0498 -0.9977
 1287SOL     OW15322   0.913   3.523   3.769  0.5558 -0.0089 -0.1737
 1287SOL    HW115323   0.880   3.525   3.679  1.4026  1.6734 -0.4527
 1287SOL    HW215324   1.008   3.533   3.760  0.7372 -0.4719  1.1543
 1288SOL     OW15325   3.235   4.483  12.280 -0.1091 -0.9192 -0.2341
 1288SOL    HW115326   3.292   4.473  12.357  0.3261 -0.0072 -0.4331
 1288SOL    HW215327   3.287   4.427  12.222 -0.6467  0.1905 -1.7932
 1289SOL     OW15328   1.617   4.067  15.379 -0.4935 -0.1462  0.3032
 1289SOL    HW115329   1.640   4.159  15.392  1.2826 -0.5852  0.3072
 1289SOL    HW215330   1.532   4.056  15.421 -0.5112 -1.2165 -0.0038
 1290SOL     OW15331   4.126   3.522  13.297  0.0365 -0.6200 -0.0392
 1290SOL    HW115332   4.098   3.612  13.315  2.7816  0.1044  0.6463
 1290SOL    HW215333   4.206   3.515  13.349  1.6587 -0.0954 -2.4333
 1291SOL     OW15334   1.266   3.627   0.815 -0.4553 -0.0182 -0.5287
 1291SOL    HW115335   1.303   3.675   0.890 -0.4040  0.0384 -0.5896
 1291SOL    HW215336   1.242   3.539   0.844  1.5424 -0.0521  1.0395
 1292SOL     OW15337   0.078   0.127   7.764  0.2153  0.1895  0.1592
 1292SOL    HW115338   0.116   0.130   7.852 -1.4370 -0.2005  0.8967
 1292SOL    HW215339   4.707   0.154   7.770 -0.1780 -1.2530  0.6582
 1293SOL     OW15340   3.460   2.119   0.294  0.0828  0.4336  0.1851
 1293SOL    HW115341   3.484   2.034   0.332 -2.5749 -0.7521 -0.7366
 1293SOL    HW215342   3.462   2.171   0.375 -1.7374 -1.5896  1.5557
 1294SOL     OW15343   4.551   0.594   5.838  0.0490 -0.1181  0.7019
 1294SOL    HW115344   4.570   0.615   5.930 -2.0270  0.5652  0.9695
 1294SOL    HW215345   4.456   0.584   5.838  0.4718 -4.3815 -1.8932
 1295SOL     OW15346   1.806   4.156   1.638  0.7696 -0.2654 -0.4732
 1295SOL    HW115347   1.777   4.157   1.730  0.2656 -0.1472 -0.6323
 1295SOL    HW215348   1.858   4.076   1.628  0.4967 -0.4518 -0.4111
 1296SOL     OW15349   2.407   3.296  11.782  0.8910  0.1499 -0.5960
 1296SOL    HW115350   2.398   3.390  11.764 -1.5530  0.6724  3.5222
 1296SOL    HW215351   2.378   3.279  11.871  0.0208  0.5910 -0.8017
 1297SOL     OW15352   4.215   2.771   6.427 -0.2728  0.1168  0.1508
 1297SOL    HW115353   4.177   2.748   6.342 -0.9374  2.3817 -0.1533
 1297SOL    HW215354   4.169   2.847   6.460  0.3449  0.6405 -0.1992
 1298SOL     OW15355   1.114   3.391   7.167  0.1398 -0.7171  0.2002
 1298SOL    HW115356   1.078   3.458   7.226  0.3636 -0.5466  0.1416
 1298SOL    HW215357   1.034   3.380   7.116  0.6119 -1.3748 -0.3876
 1299SOL     OW15358   0.890   2.626  13.098  0.2039 -0.4909  0.1127
 1299SOL    HW115359   0.892   2.563  13.025 -1.5824  0.4304 -0.7400
 1299SOL    HW215360   0.800   2.627  13.132 -0.3526 -0.1680 -1.3319
 1300SOL     OW15361   3.062   1.938   2.365  0.3219 -0.1412  0.8275
 1300SOL    HW115362   2.992   1.903   2.421 -0.7272  0.6497  0.0115
 1300SOL    HW215363   3.015   1.970   2.288  2.1666  1.9601  0.6047
 1301SOL     OW15364   0.485   3.790  16.693 -0.2637 -0.3646 -0.6236
 1301SOL    HW115365   0.462   3.854  16.625 -1.4208  0.4293  0.5282
 1301SOL    HW215366   0.580   3.803  16.696 -0.0764 -1.9969  0.2084
 1302SOL     OW15367   1.471   1.977   3.202 -0.4942 -0.5294 -0.3296
 1302SOL    HW115368   1.413   1.988   3.127 -1.1389  0.6401  0.3359
 1302SOL    HW215369   1.429   1.898   3.237  1.7940 -1.1433  0.9844
 1303SOL     OW15370   4.016   4.092  11.236  0.3073 -0.1038 -0.4995
 1303SOL    HW115371   4.079   4.024  11.211  0.8786 -0.9164  3.1609
 1303SOL    HW215372   4.057   4.132  11.313 -2.8859 -0.3477  1.2881
 1304SOL     OW15373   2.332   1.133   4.352  0.2305 -0.0073 -0.3684
 1304SOL    HW115374   2.385   1.139   4.273 -0.5530 -0.5998 -0.9356
 1304SOL    HW215375   2.369   1.205   4.403  1.4370 -1.5034  0.8816
 1305SOL     OW15376   4.251   0.046   3.460 -0.7322  0.1803 -0.4379
 1305SOL    HW115377   4.218   4.679   3.441  0.1486 -0.2197 -0.0906
 1305SOL    HW215378   4.268   0.077   3.371  0.4200 -0.0855 -0.3116
 1306SOL     OW15379   3.760   4.139  17.334 -0.2053  0.0389  0.1367
 1306SOL    HW115380   3.714   4.115  17.253 -1.4777  0.5287  0.7125
 1306SOL    HW215381   3.688   4.179  17.383 -1.1158 -2.1820  0.6096
 1307SOL     OW15382   2.319   0.591  16.219 -0.0172  0.7310 -0.2512
 1307SOL    HW115383   2.365   0.594  16.135 -0.4644  0.1636 -0.5149
 1307SOL    HW215384   2.385   0.615  16.283 -1.0799 -0.8751  1.4320
 1308SOL     OW15385   4.384   1.138  11.725 -0.0859  0.5900 -0.0898
 1308SOL    HW115386   4.450   1.192  11.768  1.1136 -0.8565 -0.1360
 1308SOL    HW215387   4.374   1.194  11.648 -2.5844  1.7006  1.0530
 1309SOL     OW15388   4.372   1.702   3.221 -0.0895 -0.2820 -0.3295
 1309SOL    HW115389   4.311   1.775   3.213  0.9487  0.5836 -0.3796
 1309SOL    HW215390   4.411   1.693   3.134 -0.8994 -2.0885 -0.4962
 1310SOL     OW15391   2.843   1.672   8.447 -0.5506  0.0932  0.8684
 1310SOL    HW115392   2.783   1.598   8.451 -0.3435 -0.0888  0.5805
 1310SOL    HW215393   2.858   1.681   8.353  1.7789 -2.0673  1.0360
 1311SOL     OW15394   1.297   0.512  10.725  0.5137 -0.1300  0.3277
 1311SOL    HW115395   1.358   0.526  10.652  0.2702 -3.0292 -0.4189
 1311SOL    HW215396   1.228   0.466  10.678  1.3783 -1.6821  0.5934
 1312SOL     OW15397   1.913   4.293   1.438 -0.6661 -0.0775 -0.1542
 1312SOL    HW115398   1.880   4.253   1.518  0.2148  1.3975  0.9531
 1312SOL    HW215399   1.930   4.220   1.380 -0.1412 -0.6575  0.7266
 1313SOL     OW15400   1.719   1.326  17.562  0.1991 -0.0323  0.5845
 1313SOL    HW115401   1.766   1.410  17.555 -1.3733  0.8078  0.1470
 1313SOL    HW215402   1.737   1.275  17.483  0.1133  0.3770  0.2952
 1314SOL     OW15403   4.499   3.103   6.436 -0.4149  0.3747  0.6138
 1314SOL    HW115404   4.471   3.193   6.417 -1.6264 -0.1269  0.0684
 1314SOL    HW215405   4.426   3.068   6.487 -0.7799 -0.5875 -0.5801
 1315SOL     OW15406   3.199   3.278   9.291  0.2915  0.9502 -0.0325
 1315SOL    HW115407   3.225   3.291   9.200  1.4569 -0.7112  0.0553
 1315SOL    HW215408   3.136   3.207   9.281  1.0105  0.1742  0.9423
 1316SOL     OW15409   1.136   3.894   7.350  0.5193  0.0064 -0.6202
 1316SOL    HW115410   1.188   3.971   7.373  2.0182 -1.3797  0.5706
 1316SOL    HW215411   1.091   3.925   7.271 -1.9723 -0.0826  0.7731
 1317SOL     OW15412   2.099   3.603  12.818 -0.1391  0.4633  0.3068
 1317SOL    HW115413   2.027   3.641  12.768  0.1106 -0.7734 -0.9780
 1317SOL    HW215414   2.064   3.639  12.900 -1.7420 -1.7313  0.5807
 1318SOL     OW15415   3.959   0.407   3.531 -0.1536 -0.0517 -0.0892
 1318SOL    HW115416   3.963   0.503   3.529  0.3708 -0.0977 -1.3185
 1318SOL    HW215417   3.971   0.378   3.441  0.3712 -2.0726  0.6285
 1319SOL     OW15418   1.631   4.424  11.029  0.2541  0.0280  0.0971
 1319SOL    HW115419   1.655   4.497  10.972  0.1159 -1.5634 -1.9719
 1319SOL    HW215420   1.623   4.353  10.965  0.6028  1.0200 -1.0446
 1320SOL     OW15421   2.495   1.817   3.568  0.6693 -0.2587  0.2064
 1320SOL    HW115422   2.454   1.865   3.496  2.2491 -3.0109 -2.5091
 1320SOL    HW215423   2.432   1.848   3.633 -1.0931  2.4311 -2.7779
 1321SOL     OW15424   0.760   2.457   8.474  0.3997 -0.5057  0.1903
 1321SOL    HW115425   0.687   2.512   8.444  0.0338 -0.7019  0.7167
 1321SOL    HW215426   0.832   2.468   8.412  1.4997  0.8493  1.6968
 1322SOL     OW15427   4.558   1.539   3.377 -0.4384 -0.4160  0.2769
 1322SOL    HW115428   4.505   1.619   3.375 -2.3288 -1.6324  0.8885
 1322SOL    HW215429   4.517   1.495   3.302  0.0487 -0.8456  0.2628
 1323SOL     OW15430   0.923   0.115  11.560  0.0108  0.2293  0.0419
 1323SOL    HW115431   0.854   0.049  11.559  1.0541 -0.8922  0.7220
 1323SOL    HW215432   0.882   0.187  11.513 -2.4590 -1.0040  0.3397
 1324SOL     OW15433   2.545   0.819  12.969  0.2543  0.2180 -0.2758
 1324SOL    HW115434   2.480   0.757  12.935 -0.9815  1.0324  0.5639
 1324SOL    HW215435   2.608   0.762  13.014  1.0465 -2.0863 -4.3553
 1325SOL     OW15436   3.900   1.618   6.366 -0.3765 -0.0828  0.4947
 1325SOL    HW115437   3.986   1.651   6.341 -0.2203 -1.5513 -0.9150
 1325SOL    HW215438   3.853   1.702   6.373  1.4677  1.1526 -1.9638
 1326SOL     OW15439   1.782   3.335   8.197  0.4933 -0.0836  0.1371
 1326SOL    HW115440   1.809   3.325   8.288 -3.0835 -0.7884  1.1044
 1326SOL    HW215441   1.867   3.346   8.154  0.9311 -0.2413  0.9665
 1327SOL     OW15442   2.817   3.946  16.104  0.1150  0.2235  0.3788
 1327SOL    HW115443   2.830   3.935  16.010  2.2372  3.2613  0.3132
 1327SOL    HW215444   2.908   3.944  16.133 -0.1702  0.0406  1.2578
 1328SOL     OW15445   3.812   3.809   9.542 -0.2765  0.0352  0.1275
 1328SOL    HW115446   3.825   3.834   9.633 -0.0925 -0.1382  0.1485
 1328SOL    HW215447   3.887   3.851   9.501 -0.4261 -0.0191 -0.2070
 1329SOL     OW15448   1.827   0.788   7.982  0.1792  0.7446 -0.2699
 1329SOL    HW115449   1.879   0.743   7.915 -0.3087  1.3979 -1.0877
 1329SOL    HW215450   1.766   0.842   7.933 -0.8240 -0.3355 -0.2102
 1330SOL     OW15451   2.423   3.029   2.816 -0.1081  0.1273 -0.3505
 1330SOL    HW115452   2.501   3.074   2.847 -0.4891  1.2566 -1.0345
 1330SOL    HW215453   2.470   2.950   2.790  3.4072  1.9126  0.5694
 1331SOL     OW15454   3.491   4.034   8.871  0.3356 -0.5007  0.1554
 1331SOL    HW115455   3.561   3.977   8.840 -0.0059 -0.4385 -0.7367
 1331SOL    HW215456   3.448   3.969   8.927  1.3461 -0.4599  0.9751
 1332SOL     OW15457   2.758   3.295   6.685 -0.6006  0.3910  0.0121
 1332SOL    HW115458   2.714   3.256   6.761  0.5392 -1.2550 -0.1565
 1332SOL    HW215459   2.783   3.379   6.723  1.2106 -0.7363  1.3181
 1333SOL     OW15460   1.148   3.456  14.540  0.1156 -0.0136  0.6535
 1333SOL    HW115461   1.126   3.480  14.450  2.1203  3.5261  1.1054
 1333SOL    HW215462   1.165   3.362  14.546  0.3866  0.0591  0.9901
 1334SOL     OW15463   0.879   3.398  12.542 -0.0540 -0.1835 -0.4752
 1334SOL    HW115464   0.926   3.349  12.610 -1.9440  1.4730  2.0011
 1334SOL    HW215465   0.944   3.389  12.473  0.8635 -1.6935  0.5784
 1335SOL     OW15466   3.101   4.267  15.996 -0.0789 -0.7711  0.5002
 1335SOL    HW115467   3.043   4.270  16.073 -1.1752 -2.1207 -0.2850
 1335SOL    HW215468   3.043   4.243  15.924  0.1237  0.1519  0.0194
 1336SOL     OW15469   4.221   3.920   3.786  0.3293  0.2410 -0.1505
 1336SOL    HW115470   4.236   3.826   3.786 -1.8414 -0.1224 -1.2617
 1336SOL    HW215471   4.175   3.931   3.703 -0.1577  1.3262  0.2510
 1337SOL     OW15472   0.606   1.504   0.755  0.7789  0.0502  0.0919
 1337SOL    HW115473   0.693   1.471   0.730  1.5356  2.4648 -0.5154
 1337SOL    HW215474   0.632   1.589   0.791  2.7777 -1.0823  1.3569
 1338SOL     OW15475   3.721   3.527   8.530  0.0621  0.5737 -0.1232
 1338SOL    HW115476   3.791   3.507   8.469  0.8577 -0.3397  1.0855
 1338SOL    HW215477   3.735   3.612   8.572 -0.5671  1.1634 -1.1072
 1339SOL     OW15478   3.909   3.926   6.985  0.1008 -0.2041 -0.4073
 1339SOL    HW115479   3.959   3.931   7.067  1.6834 -0.0580 -1.3705
 1339SOL    HW215480   3.836   3.867   7.003  0.8987 -1.5259 -1.5111
 1340SOL     OW15481   0.042   1.030   4.186  0.3701 -0.2396 -0.4194
 1340SOL    HW115482   0.054   1.098   4.120  1.8870  0.7783  0.9439
 1340SOL    HW215483   4.669   1.014   4.183  0.3905  0.1788 -3.1517
 1341SOL     OW15484   2.556   0.569  17.613  0.2625  0.2412  0.3767
 1341SOL    HW115485   2.552   0.588  17.519  1.7530  0.1506  0.2872
 1341SOL    HW215486   2.648   0.591  17.626  0.7578 -1.7340  0.1801
 1342SOL     OW15487   2.315   4.593   4.924 -0.4789  0.0712 -0.0741
 1342SOL    HW115488   2.251   4.537   4.879  1.2501 -0.6016 -1.7015
 1342SOL    HW215489   2.283   4.682   4.910 -0.3896 -0.2387 -2.2612
 1343SOL     OW15490   2.426   2.949  11.581 -0.2347  0.2830  0.4077
 1343SOL    HW115491   2.372   2.884  11.626 -0.9608  1.1820  0.8343
 1343SOL    HW215492   2.416   2.923  11.489 -1.5665 -2.7219  1.4158
 1344SOL     OW15493   1.938   3.578  15.339 -0.9158 -0.0681  1.4527
 1344SOL    HW115494   1.975   3.649  15.391  0.3147  1.3201 -1.3336
 1344SOL    HW215495   1.949   3.618  15.253 -0.5879  1.3184  2.1457
 1345SOL     OW15496   0.273   2.887   8.200 -0.1973 -0.0434  0.1054
 1345SOL    HW115497   0.353   2.926   8.234  0.6656 -0.6090 -1.2938
 1345SOL    HW215498   0.266   2.806   8.251  0.6852 -0.8800 -1.0990
 1346SOL     OW15499   2.970   2.965   6.694  0.3620  0.0976  0.0642
 1346SOL    HW115500   2.927   2.932   6.615 -1.4290  0.0944  1.0257
 1346SOL    HW215501   2.908   2.942   6.764  1.5956 -3.3470  0.0625
 1347SOL     OW15502   1.879   0.741  10.015  0.3450 -0.2635  0.2596
 1347SOL    HW115503   1.852   0.673  10.076  2.1505 -2.4423 -1.3503
 1347SOL    HW215504   1.801   0.788   9.983  0.5872  1.3021  1.9708
 1348SOL     OW15505   3.220   2.839   7.520  0.3647  0.0801  0.4114
 1348SOL    HW115506   3.126   2.855   7.507  0.3639  0.7611  1.2759
 1348SOL    HW215507   3.245   2.912   7.577  0.0412  0.2930  0.2838
 1349SOL     OW15508   3.630   3.459   6.888 -0.6811  0.1509 -0.1602
 1349SOL    HW115509   3.585   3.401   6.827 -0.0532 -2.1783  1.5988
 1349SOL    HW215510   3.568   3.457   6.962 -0.6632  2.3781 -0.0946
 1350SOL     OW15511   1.367   2.118   6.536 -0.0585  0.7027 -0.1779
 1350SOL    HW115512   1.309   2.088   6.466 -0.0684  0.3024  0.0063
 1350SOL    HW215513   1.448   2.067   6.531 -1.1275 -1.0062 -0.0019
 1351SOL     OW15514   0.218   0.021   6.351 -0.1672 -0.1516  0.4635
 1351SOL    HW115515   0.311   0.009   6.331 -0.2072 -1.0157  0.8214
 1351SOL    HW215516   0.176   0.024   6.265 -1.2699  0.4620  1.0180
 1352SOL     OW15517   1.111   3.532   8.114  0.1018 -0.2667 -0.6893
 1352SOL    HW115518   1.027   3.494   8.142 -0.1181  0.0225 -0.9487
 1352SOL    HW215519   1.153   3.447   8.101  1.2942  0.5534 -2.1438
 1353SOL     OW15520   1.453   3.878   1.688  0.4029 -0.4739  0.1401
 1353SOL    HW115521   1.485   3.892   1.598  1.6325  0.4666  0.7325
 1353SOL    HW215522   1.363   3.858   1.661  0.2066  0.2781  0.2272
 1354SOL     OW15523   0.349   4.441  16.598 -0.2691 -0.2791  0.2645
 1354SOL    HW115524   0.286   4.513  16.608 -0.2654  0.1310 -2.8214
 1354SOL    HW215525   0.399   4.446  16.679 -1.7625 -2.1099  1.3018
 1355SOL     OW15526   3.719   0.327   7.737 -0.0439 -0.3637 -0.2759
 1355SOL    HW115527   3.677   0.265   7.797  1.2063 -1.2209 -0.2839
 1355SOL    HW215528   3.648   0.391   7.731 -0.4848 -0.9631 -1.3121
 1356SOL     OW15529   2.947   1.867  12.171 -0.1350 -0.3917 -0.2341
 1356SOL    HW115530   2.881   1.908  12.116  0.0905  0.6371  0.2430
 1356SOL    HW215531   2.893   1.795  12.203 -1.7801  1.3163  0.8803
 1357SOL     OW15532   1.957   3.791  15.538  0.0575  0.2131  0.1272
 1357SOL    HW115533   2.001   3.819  15.619  1.7216  0.4401 -0.8540
 1357SOL    HW215534   1.941   3.871  15.488  0.4952  0.8300  0.9724
 1358SOL     OW15535   4.170   2.085   5.519 -0.1288 -0.4775 -0.3257
 1358SOL    HW115536   4.243   2.024   5.530  0.0925 -0.0091  0.8643
 1358SOL    HW215537   4.177   2.092   5.424 -0.9336  1.8681 -0.1989
 1359SOL     OW15538   1.436   3.689  13.989  0.1192 -0.3422  0.0605
 1359SOL    HW115539   1.423   3.624  13.920 -0.5623 -0.8470  0.6647
 1359SOL    HW215540   1.415   3.631  14.062 -1.0765  0.6636  0.5159
 1360SOL     OW15541   0.370   1.739   7.472 -0.2071  0.2527 -0.0741
 1360SOL    HW115542   0.341   1.826   7.446  3.4693  1.1519 -1.2236
 1360SOL    HW215543   0.466   1.747   7.473 -0.3590  1.9568  0.3575
 1361SOL     OW15544   2.835   3.542  15.089  0.0882 -0.3826  0.1877
 1361SOL    HW115545   2.896   3.500  15.028  0.3958 -0.8136  0.7968
 1361SOL    HW215546   2.886   3.617  15.119 -1.4805  0.2496  1.2778
 1362SOL     OW15547   4.429   0.089  17.356  0.4800  0.5469 -0.6686
 1362SOL    HW115548   4.380   0.134  17.425  2.0727  0.8014  0.3016
 1362SOL    HW215549   4.380   0.008  17.369 -0.1121  0.7692 -1.5137
 1363SOL     OW15550   1.297   3.909  10.408 -0.6421  0.0635  0.8037
 1363SOL    HW115551   1.274   3.998  10.434 -0.9716 -0.1676  1.3040
 1363SOL    HW215552   1.220   3.877  10.362 -0.0658 -0.6210  0.3161
 1364SOL     OW15553   3.970   1.253   5.824 -0.6497 -0.2308  0.8446
 1364SOL    HW115554   4.049   1.283   5.779 -0.2008 -1.4055  0.8686
 1364SOL    HW215555   3.970   1.158   5.818 -1.4690 -0.1525 -0.4060
 1365SOL     OW15556   1.680   4.468   4.870 -0.3182  0.3475 -0.2534
 1365SOL    HW115557   1.682   4.435   4.960 -1.2660  2.5899  0.6002
 1365SOL    HW215558   1.671   4.561   4.891 -0.0107 -0.0858  1.8470
 1366SOL     OW15559   0.274   0.950   5.270 -0.0064 -0.0701  0.0556
 1366SOL    HW115560   0.346   0.925   5.212  0.4753 -1.6919  1.3630
 1366SOL    HW215561   0.221   0.995   5.203  0.2281 -1.9201 -1.3649
 1367SOL     OW15562   3.824   2.068   3.353 -0.0430  0.1325 -0.1511
 1367SOL    HW115563   3.796   2.053   3.262  0.4735  0.5616 -0.3820
 1367SOL    HW215564   3.741   2.082   3.399  0.2277 -1.8390  0.9120
 1368SOL     OW15565   2.749   4.180  17.678 -0.2114 -0.0438 -0.7668
 1368SOL    HW115566   2.696   4.101  17.667  0.8863 -0.9347  0.3408
 1368SOL    HW215567   2.822   4.173  17.617 -1.1199 -1.9669 -1.6129
 1369SOL     OW15568   2.543   0.636  11.462  0.3221 -0.4231 -0.3871
 1369SOL    HW115569   2.555   0.576  11.535  1.8633  0.0933 -0.2043
 1369SOL    HW215570   2.631   0.624  11.426  1.0306 -0.4140  1.3310
 1370SOL     OW15571   3.357   1.625  14.275  0.1559  0.4555  0.5756
 1370SOL    HW115572   3.276   1.645  14.228 -0.1194 -0.6111  0.5940
 1370SOL    HW215573   3.402   1.571  14.211  1.7288 -1.1623  3.0495
 1371SOL     OW15574   0.276   1.486   9.241 -0.1913  0.0828 -0.2642
 1371SOL    HW115575   0.346   1.461   9.181  1.1132  3.5274 -0.1801
 1371SOL    HW215576   0.291   1.581   9.243 -1.2640  0.2957 -1.8081
 1372SOL     OW15577   0.365   3.323   3.302  0.5426  0.4345 -0.3385
 1372SOL    HW115578   0.431   3.328   3.233  0.5173  0.4645 -0.3605
 1372SOL    HW215579   0.393   3.396   3.358 -0.0060  1.5515 -1.5349
 1373SOL     OW15580   3.861   1.408  17.431  0.5099 -0.3956  0.1860
 1373SOL    HW115581   3.863   1.329  17.486  0.5565 -0.1912  0.4725
 1373SOL    HW215582   3.939   1.456  17.458  0.3032 -0.3569  0.7122
 1374SOL     OW15583   2.740   4.712   7.442  0.0097  0.1314  0.3086
 1374SOL    HW115584   2.694   4.671   7.368  1.4832  2.9236 -2.1698
 1374SOL    HW215585   2.699   0.077   7.450 -1.9204 -0.8927  1.2731
 1375SOL     OW15586   1.930   0.999  16.046  0.3421  0.1763  0.0713
 1375SOL    HW115587   1.986   0.959  15.979 -1.1485  0.5835 -1.4184
 1375SOL    HW215588   1.925   0.926  16.107 -2.4016 -0.5520 -1.0355
 1376SOL     OW15589   0.503   3.009   8.345  0.0046  0.1304  0.6838
 1376SOL    HW115590   0.528   2.993   8.436  2.7742 -1.3931 -0.3548
 1376SOL    HW215591   0.461   3.093   8.361  1.1245  0.9822 -1.0292
 1377SOL     OW15592   2.813   3.301   4.236  0.4815 -0.4420 -0.2028
 1377SOL    HW115593   2.770   3.349   4.307  0.0647  3.8356 -3.3743
 1377SOL    HW215594   2.747   3.324   4.171 -1.1376 -0.0147  1.5822
 1378SOL     OW15595   0.985   2.515  13.458 -0.1784 -0.4247  0.1619
 1378SOL    HW115596   1.050   2.455  13.493  1.2931  0.4160 -1.1160
 1378SOL    HW215597   1.038   2.561  13.393  2.1211 -0.9617  1.6527
 1379SOL     OW15598   2.113   3.413  14.679  0.6542 -0.4652 -0.3000
 1379SOL    HW115599   2.145   3.503  14.678  0.0777 -0.2386  1.6979
 1379SOL    HW215600   2.049   3.428  14.609 -0.1445 -0.8903  0.3361
 1380SOL     OW15601   3.354   2.044  12.370 -0.4491 -0.5595 -0.4559
 1380SOL    HW115602   3.266   2.076  12.349  0.0046 -1.2074 -3.3485
 1380SOL    HW215603   3.344   1.948  12.366  0.7256 -0.6890 -0.2552
 1381SOL     OW15604   0.895   3.450   5.509  0.4349  0.3278 -0.2948
 1381SOL    HW115605   0.898   3.543   5.487  0.3263  0.8007  1.6491
 1381SOL    HW215606   0.958   3.445   5.581 -1.4451 -0.2477  1.3251
 1382SOL     OW15607   3.482   0.609  16.648 -0.0344  0.2386 -0.2931
 1382SOL    HW115608   3.552   0.580  16.589  0.9849  1.7676  0.1641
 1382SOL    HW215609   3.442   0.688  16.611 -1.3403 -1.3992 -2.4012
 1383SOL     OW15610   1.993   0.585   7.097  0.1896 -0.6196 -0.3318
 1383SOL    HW115611   2.037   0.614   7.177  0.6941  1.6770 -1.4388
 1383SOL    HW215612   2.064   0.574   7.034 -0.5260  2.1858 -1.6307
 1384SOL     OW15613   2.498   0.221   6.374 -0.5162 -0.2828 -0.5349
 1384SOL    HW115614   2.419   0.170   6.359 -0.2332 -0.3553 -1.7515
 1384SOL    HW215615   2.515   0.198   6.465  0.7511 -3.2722 -1.5288
 1385SOL     OW15616   0.451   0.847   5.481 -0.2433 -0.1214  0.5336
 1385SOL    HW115617   0.402   0.903   5.420 -0.6707 -1.3247 -0.2358
 1385SOL    HW215618   0.517   0.913   5.503 -2.0188  0.8475  2.9280
 1386SOL     OW15619   2.935   2.032   6.735 -0.0243 -0.5131  0.2860
 1386SOL    HW115620   2.971   1.974   6.803  1.7148 -2.9607 -2.7064
 1386SOL    HW215621   2.992   2.108   6.743 -2.6820  1.7780 -2.5555
 1387SOL     OW15622   0.190   2.599   1.103 -0.3639  0.3942  0.1626
 1387SOL    HW115623   0.156   2.592   1.192  0.2555  2.4905  0.5568
 1387SOL    HW215624   0.280   2.605   1.134 -0.7539  1.2960  1.1380
 1388SOL     OW15625   2.737   0.346   3.309  0.3188 -0.0336  0.1335
 1388SOL    HW115626   2.707   0.435   3.291 -0.4594 -0.4081 -0.4555
 1388SOL    HW215627   2.762   0.354   3.401  0.5144  2.0861 -0.1153
 1389SOL     OW15628   1.212   3.195  14.570 -0.2868 -0.0884  0.3930
 1389SOL    HW115629   1.259   3.223  14.649  0.5572 -0.6096  0.0653
 1389SOL    HW215630   1.275   3.127  14.547 -0.6828 -0.1036 -0.6368
 1390SOL     OW15631   2.589   1.159  15.678  0.9891 -0.3228  0.0669
 1390SOL    HW115632   2.581   1.217  15.754  0.4767 -1.5335  0.9370
 1390SOL    HW215633   2.683   1.171  15.666  1.0494  0.1551  0.9845
 1391SOL     OW15634   0.620   3.712   6.588  0.6313  0.3907 -0.1411
 1391SOL    HW115635   0.536   3.672   6.607  0.0206  1.5316 -0.4347
 1391SOL    HW215636   0.674   3.642   6.624  0.4996  0.1097 -0.4925
 1392SOL     OW15637   2.185   0.294   1.406  0.1266  0.1503  1.1515
 1392SOL    HW115638   2.216   0.376   1.367 -0.0038  0.3200  1.4023
 1392SOL    HW215639   2.114   0.331   1.458 -0.2264 -1.9125  2.1433
 1393SOL     OW15640   0.288   0.476   3.518  0.8501  0.2607 -0.3243
 1393SOL    HW115641   0.276   0.397   3.465  1.9652  0.6301 -1.1199
 1393SOL    HW215642   0.211   0.465   3.574  2.0237  1.3232  1.4910
 1394SOL     OW15643   2.689   3.176   6.911 -0.4909  0.1430  0.1777
 1394SOL    HW115644   2.641   3.114   6.965 -0.7879  0.6173  0.4557
 1394SOL    HW215645   2.752   3.112   6.878 -0.3720  0.5166 -0.3246
 1395SOL     OW15646   3.004   0.574   2.054  0.6770  0.4254 -0.1301
 1395SOL    HW115647   3.060   0.583   1.977  1.0703 -0.4620  0.0502
 1395SOL    HW215648   2.938   0.509   2.027 -0.4082  2.0196 -1.3281
 1396SOL     OW15649   0.299   0.106   0.667  0.4960  0.2169 -0.0010
 1396SOL    HW115650   0.209   0.138   0.663  0.1331 -0.8815 -0.6681
 1396SOL    HW215651   0.318   0.108   0.573  1.4125 -1.8888  0.1584
 1397SOL     OW15652   1.544   3.825   5.828 -0.1826  0.5891 -0.4059
 1397SOL    HW115653   1.579   3.869   5.906 -1.2610 -1.4463  1.2121
 1397SOL    HW215654   1.522   3.904   5.778  1.7316  2.8307  2.2475
 1398SOL     OW15655   1.280   0.286  13.685 -0.5189 -0.0731 -0.2800
 1398SOL    HW115656   1.297   0.222  13.616 -0.5035 -0.2168 -0.1426
 1398SOL    HW215657   1.310   0.245  13.766 -1.1936  0.2685  0.1428
 1399SOL     OW15658   4.672   0.685   6.075 -0.0345 -0.5560 -0.1413
 1399SOL    HW115659   4.642   0.656   6.161 -3.5579  1.4943 -0.7013
 1399SOL    HW215660   4.665   0.780   6.075  5.0515 -0.1782  0.6919
 1400SOL     OW15661   4.311   3.248   4.526 -0.1929 -0.2303 -0.0268
 1400SOL    HW115662   4.352   3.203   4.453  0.2139  0.0305  0.0421
 1400SOL    HW215663   4.243   3.294   4.476 -0.0039  0.2543  0.1576
 1401SOL     OW15664   3.063   3.902  15.523  0.0188  0.9964 -0.4070
 1401SOL    HW115665   3.131   3.952  15.568 -0.0169 -1.2164  2.0673
 1401SOL    HW215666   3.090   3.925  15.434  0.5489  0.4825 -0.3768
 1402SOL     OW15667   1.010   0.839   1.813 -0.1947 -0.4567 -0.3805
 1402SOL    HW115668   0.963   0.758   1.796 -2.9733  1.5137 -2.0813
 1402SOL    HW215669   1.022   0.879   1.727 -1.4028  0.2473 -0.2132
 1403SOL     OW15670   3.572   0.021   8.978 -0.0820 -0.3013 -0.0624
 1403SOL    HW115671   3.477   0.030   8.986 -0.1098 -0.6777  0.0198
 1403SOL    HW215672   3.576   4.693   8.896 -3.1806  1.3687 -1.1844
 1404SOL     OW15673   2.961   4.707   0.259 -0.1178  0.0156 -0.0423
 1404SOL    HW115674   3.025   4.681   0.192  1.2153  2.6829  0.2277
 1404SOL    HW215675   2.928   4.620   0.284  2.1327 -0.4628  1.3217
 1405SOL     OW15676   3.622   2.706   4.649 -0.0608  0.1443  0.0648
 1405SOL    HW115677   3.626   2.620   4.690  0.9191  0.0013 -0.3131
 1405SOL    HW215678   3.574   2.675   4.572 -1.9448  3.0326  0.0895
 1406SOL     OW15679   2.026   3.731   6.617 -0.1508  0.4064 -0.2364
 1406SOL    HW115680   2.078   3.748   6.695 -0.4714 -1.0108  0.2775
 1406SOL    HW215681   2.046   3.813   6.572 -0.9530  0.6805 -0.0950
 1407SOL     OW15682   0.023   0.170   4.416 -0.2056  0.3969 -0.0062
 1407SOL    HW115683   0.010   0.082   4.380  0.4623 -0.6401  2.3118
 1407SOL    HW215684   0.100   0.199   4.366  0.3606  0.6146  0.9976
 1408SOL     OW15685   0.634   1.785   3.007  0.8487  0.4910  0.1654
 1408SOL    HW115686   0.584   1.710   2.975  1.4039  0.3850 -0.4511
 1408SOL    HW215687   0.680   1.808   2.926  1.2003  0.2114  0.2845
 1409SOL     OW15688   4.059   1.065  12.421 -0.0871 -0.5696 -0.7151
 1409SOL    HW115689   3.985   1.124  12.410 -0.7555 -1.6570 -2.0441
 1409SOL    HW215690   4.053   1.016  12.339  0.7437 -0.4619 -0.8480
 1410SOL     OW15691   1.934   3.069  10.436  0.5481  0.4493 -0.2711
 1410SOL    HW115692   2.009   3.020  10.404 -0.0371 -0.1163 -0.7911
 1410SOL    HW215693   1.897   2.988  10.472 -1.7313  0.7401 -1.9766
 1411SOL     OW15694   1.949   0.758   3.765  0.3277 -0.1167 -0.4871
 1411SOL    HW115695   1.867   0.773   3.813  0.1269 -1.2330 -0.4822
 1411SOL    HW215696   1.925   0.724   3.679  0.6352 -3.8982  0.9378
 1412SOL     OW15697   4.531   2.675   4.749 -0.0561  0.3380 -0.3863
 1412SOL    HW115698   4.559   2.655   4.838 -0.1694 -1.4372 -0.7359
 1412SOL    HW215699   4.570   2.602   4.701 -0.8275  0.4841 -1.2249
 1413SOL     OW15700   2.428   4.707   4.680  0.4869  0.5003  0.0133
 1413SOL    HW115701   2.348   0.034   4.700  0.6103  1.1571 -1.0421
 1413SOL    HW215702   2.473   4.717   4.763 -1.2582 -1.1226  1.1532
 1414SOL     OW15703   0.132   0.622   7.122  0.4475 -0.1423  0.7104
 1414SOL    HW115704   0.223   0.593   7.117  0.2317 -0.4768 -1.3139
 1414SOL    HW215705   0.120   0.612   7.217  0.8137  1.3337  0.9004
 1415SOL     OW15706   3.999   3.848   5.408 -0.8270 -0.1800 -0.2158
 1415SOL    HW115707   3.939   3.921   5.419  0.5335  0.6660  1.5371
 1415SOL    HW215708   4.051   3.901   5.347 -0.4054 -1.0684 -0.6261
 1416SOL     OW15709   1.780   0.224   3.113 -0.3577  0.1818 -0.3078
 1416SOL    HW115710   1.862   0.249   3.156 -0.9665  1.7539 -0.0774
 1416SOL    HW215711   1.773   0.132   3.139 -0.1607 -0.0642 -1.1353
 1417SOL     OW15712   3.558   0.169   4.755  0.3725  0.6721 -0.2960
 1417SOL    HW115713   3.523   0.230   4.820 -3.3986  2.4948 -3.9462
 1417SOL    HW215714   3.476   0.149   4.708 -0.0444  0.0308  0.7093
 1418SOL     OW15715   3.555   0.093  12.848 -0.2079  0.0392 -0.4583
 1418SOL    HW115716   3.636   0.144  12.839 -0.3234  0.4688  0.9607
 1418SOL    HW215717   3.573   0.061  12.937  0.8732  0.8116 -0.3986
 1419SOL     OW15718   0.991   0.501   6.176  0.2875  0.2284  0.2036
 1419SOL    HW115719   0.947   0.561   6.236  0.6428  0.5499  0.1377
 1419SOL    HW215720   1.051   0.563   6.134 -0.0214  2.6790  3.3726
 1420SOL     OW15721   4.568   1.605   6.318 -0.2854 -0.2822  0.1906
 1420SOL    HW115722   4.602   1.558   6.242 -2.4096 -1.2614 -0.1411
 1420SOL    HW215723   4.555   1.536   6.382  0.3884  0.7945  1.4820
 1421SOL     OW15724   0.696   0.180   9.184  0.2031 -0.6383 -0.4281
 1421SOL    HW115725   0.637   0.220   9.248 -1.0401 -0.3113 -1.7875
 1421SOL    HW215726   0.632   0.126   9.138 -0.8393 -0.6187  1.0082
 1422SOL     OW15727   3.865   1.454   4.423 -0.0416  0.3164  0.1358
 1422SOL    HW115728   3.865   1.416   4.511 -1.7824 -1.1097 -0.4716
 1422SOL    HW215729   3.911   1.536   4.439  1.7357 -0.1418 -2.6222
 1423SOL     OW15730   3.081   1.031   7.949  0.2151  0.4675  0.0631
 1423SOL    HW115731   3.152   0.967   7.943  0.4638  0.8594 -1.1507
 1423SOL    HW215732   3.023   0.985   7.888 -0.9464  2.7312 -0.5691
 1424SOL     OW15733   3.144   2.617   9.442 -0.3608 -0.3328 -0.0912
 1424SOL    HW115734   3.123   2.559   9.368 -0.8790 -0.7294  0.3619
 1424SOL    HW215735   3.239   2.609   9.451 -0.4376 -1.1238  0.0601
 1425SOL     OW15736   3.176   3.079   7.703 -0.6089  0.2825 -0.1023
 1425SOL    HW115737   3.141   3.126   7.627 -2.4440 -1.3891 -0.2819
 1425SOL    HW215738   3.088   3.049   7.726  0.4749 -2.4542  0.3679
 1426SOL     OW15739   0.253   1.757   7.147 -0.2957 -0.3528  0.5759
 1426SOL    HW115740   0.308   1.783   7.074  1.0922  0.3030  1.8529
 1426SOL    HW215741   0.272   1.665   7.166  0.6608  0.1360  2.0427
 1427SOL     OW15742   3.203   2.693  17.547  0.3378  0.6315 -0.4101
 1427SOL    HW115743   3.281   2.682  17.492  1.1028 -0.8451  0.9500
 1427SOL    HW215744   3.144   2.681  17.473 -0.8829  2.7672  0.2207
 1428SOL     OW15745   2.147   1.152  15.451  0.1517 -0.0574 -0.1239
 1428SOL    HW115746   2.081   1.111  15.508 -0.2796  2.6444  1.3647
 1428SOL    HW215747   2.115   1.241  15.432  3.1432  1.0286 -0.1242
 1429SOL     OW15748   1.518   4.029   6.946 -0.1746 -0.3463  0.0823
 1429SOL    HW115749   1.528   4.109   6.894  1.0917 -0.9151 -0.5421
 1429SOL    HW215750   1.579   4.032   7.019  1.3234  3.0370 -1.2783
 1430SOL     OW15751   0.347   4.671   1.520  0.0358  0.3536 -0.1881
 1430SOL    HW115752   0.433   4.674   1.478  0.9290  1.1504  1.6613
 1430SOL    HW215753   0.294   4.603   1.478 -0.0790 -0.6543  1.5597
 1431SOL     OW15754   0.903   0.088   9.333  0.6788  0.1238 -0.4796
 1431SOL    HW115755   0.844   0.129   9.269 -0.8697 -1.6077 -0.1779
 1431SOL    HW215756   0.847   0.074   9.409  0.9737 -0.0115 -0.2888
 1432SOL     OW15757   3.382   0.475   5.957 -0.1126  0.2441 -0.2009
 1432SOL    HW115758   3.313   0.434   6.009 -1.8646  2.5146 -0.7729
 1432SOL    HW215759   3.418   0.396   5.915  0.5897  0.5187 -0.1214
 1433SOL     OW15760   3.210   0.449   0.101  0.2906 -0.2933  0.2688
 1433SOL    HW115761   3.241   0.416   0.185 -0.5346 -3.2721 -0.5917
 1433SOL    HW215762   3.181   0.365   0.064  1.3633 -2.1020  3.5786
 1434SOL     OW15763   1.642   2.167   5.948 -0.8304 -0.0180 -0.1318
 1434SOL    HW115764   1.659   2.257   5.920  0.4144 -0.2392 -0.0704
 1434SOL    HW215765   1.691   2.125   5.877  0.3327  1.1892 -0.0364
 1435SOL     OW15766   3.649   1.049   5.585  0.1643 -0.1730  0.0782
 1435SOL    HW115767   3.685   1.129   5.624 -0.6266  1.4990 -2.6020
 1435SOL    HW215768   3.558   1.065   5.611 -0.4873 -0.6695 -1.8850
 1436SOL     OW15769   3.439   0.948   8.674 -0.1450  0.1162  0.3176
 1436SOL    HW115770   3.499   1.010   8.715  0.5378  2.0247 -3.6002
 1436SOL    HW215771   3.361   1.003   8.673  0.1958  0.5976  0.4741
 1437SOL     OW15772   4.266   0.289   1.911 -0.3589 -0.1214  0.4492
 1437SOL    HW115773   4.173   0.266   1.919 -0.5646  0.9728  1.2214
 1437SOL    HW215774   4.264   0.346   1.835 -0.5432 -0.1256  0.4511
 1438SOL     OW15775   1.073   1.780   5.299  0.0123  0.5358  0.1183
 1438SOL    HW115776   1.073   1.685   5.307  0.2285  0.5090 -0.1916
 1438SOL    HW215777   1.000   1.786   5.237  0.7377  1.3521 -0.6768
 1439SOL     OW15778   3.334   2.662   7.689  0.2009 -0.3585 -0.4135
 1439SOL    HW115779   3.276   2.725   7.645 -1.5782 -0.9475  1.1005
 1439SOL    HW215780   3.384   2.724   7.741  3.6577 -2.8614 -0.7296
 1440SOL     OW15781   1.875   2.731   6.904  0.4380 -0.0677 -0.5643
 1440SOL    HW115782   1.802   2.718   6.843  0.6011 -1.5992 -0.4371
 1440SOL    HW215783   1.921   2.808   6.872  1.0579 -0.6303 -1.0306
 1441SOL     OW15784   0.380   3.817   4.728  0.2558 -0.3449 -0.0377
 1441SOL    HW115785   0.407   3.758   4.799  0.2478  0.6141  0.7567
 1441SOL    HW215786   0.464   3.856   4.701  0.8048  0.3118  2.6349
 1442SOL     OW15787   3.557   0.776  12.486 -0.6489  0.1381  0.7435
 1442SOL    HW115788   3.503   0.734  12.553  0.5228  0.7252  2.0384
 1442SOL    HW215789   3.639   0.784  12.535 -0.4465  0.4034  0.3597
 1443SOL     OW15790   1.763   4.489   0.516  0.4220 -0.3036  0.3987
 1443SOL    HW115791   1.761   4.517   0.607  0.8970  0.0076  0.3132
 1443SOL    HW215792   1.701   4.545   0.469  3.0595  0.8075 -1.7724
 1444SOL     OW15793   4.289   2.019   2.692  0.7272  0.4199  0.7521
 1444SOL    HW115794   4.318   2.101   2.652  1.0419 -0.2282 -0.3380
 1444SOL    HW215795   4.294   2.038   2.786 -0.5230  0.5587  0.7897
 1445SOL     OW15796   2.950   4.539  14.105 -0.1496 -0.4013 -0.1256
 1445SOL    HW115797   3.012   4.572  14.170 -1.0687 -1.3603  1.2587
 1445SOL    HW215798   2.897   4.485  14.164 -1.6801  1.3240  0.0820
 1446SOL     OW15799   0.660   0.669   1.178  0.4352 -0.5158 -0.3546
 1446SOL    HW115800   0.693   0.740   1.233 -0.1766  0.4105 -1.1861
 1446SOL    HW215801   0.567   0.685   1.196  0.7126 -0.8142  1.3124
 1447SOL     OW15802   2.259   0.819  10.259 -0.1479 -0.3718  0.1028
 1447SOL    HW115803   2.336   0.874  10.271 -0.8582  1.1027 -1.9549
 1447SOL    HW215804   2.205   0.881  10.209  1.1631  0.6754  0.0146
 1448SOL     OW15805   0.578   3.690   3.199 -0.2132  0.0406  0.7936
 1448SOL    HW115806   0.497   3.699   3.250 -1.2084  1.2583 -1.0202
 1448SOL    HW215807   0.612   3.615   3.248 -0.3141 -0.5814 -0.1014
 1449SOL     OW15808   3.019   0.644   0.154 -0.0763  0.1959 -0.1818
 1449SOL    HW115809   3.072   0.571   0.121 -0.9133 -1.2097  1.5749
 1449SOL    HW215810   3.082   0.668   0.222 -0.0281  0.5814 -0.3628
 1450SOL     OW15811   2.805   2.470  14.809  0.5178  0.9097  0.4997
 1450SOL    HW115812   2.890   2.468  14.765 -0.3882 -0.3531 -1.1644
 1450SOL    HW215813   2.833   2.519  14.887 -3.4078  1.7607  1.3710
 1451SOL     OW15814   2.012   1.224   1.473  0.3190  0.0366  0.1869
 1451SOL    HW115815   2.102   1.235   1.444  0.3678  2.8674  1.4487
 1451SOL    HW215816   1.969   1.287   1.416 -0.7975 -1.9692 -1.2011
 1452SOL     OW15817   3.073   3.494   4.759  0.0003 -0.1018  0.2862
 1452SOL    HW115818   3.000   3.551   4.781 -0.1933  0.1898 -1.1361
 1452SOL    HW215819   3.028   3.412   4.739 -3.3285  1.8227 -0.0743
 1453SOL     OW15820   3.559   0.890   8.992  0.0614  0.1499  0.5808
 1453SOL    HW115821   3.603   0.957   9.043  1.6577 -0.8450  0.5108
 1453SOL    HW215822   3.467   0.902   9.017 -0.3601  0.6871 -1.2182
 1454SOL     OW15823   1.397   3.603   3.033  0.5352  0.2205 -0.6153
 1454SOL    HW115824   1.306   3.627   3.016  0.0735 -0.6563  0.5863
 1454SOL    HW215825   1.441   3.645   2.959 -0.0564  2.6090  0.4116
 1455SOL     OW15826   2.042   3.291   6.346 -0.0745 -0.5766 -0.1347
 1455SOL    HW115827   2.079   3.369   6.387 -1.1890 -0.7526  1.1965
 1455SOL    HW215828   2.059   3.310   6.253  0.0156 -0.9720 -0.1975
 1456SOL     OW15829   4.258   3.143   8.074 -0.3623  0.2872  0.2253
 1456SOL    HW115830   4.348   3.163   8.101 -0.0878 -0.1146 -0.3715
 1456SOL    HW215831   4.209   3.197   8.135 -0.2497  0.2757  0.3245
 1457SOL     OW15832   1.026   4.297   5.728 -0.1508 -0.2816 -0.5240
 1457SOL    HW115833   0.980   4.251   5.658  0.4447 -2.8380  0.7482
 1457SOL    HW215834   0.954   4.328   5.782 -0.9693  0.9331 -2.3445
 1458SOL     OW15835   4.705   2.807   7.116 -0.6999  0.1091  0.2169
 1458SOL    HW115836   4.717   2.784   7.024  0.1056 -1.0503  0.6109
 1458SOL    HW215837   4.683   2.899   7.109 -1.7490 -0.1652 -0.0429
 1459SOL     OW15838   1.248   0.509   4.282 -0.3638  0.0589 -0.1532
 1459SOL    HW115839   1.315   0.534   4.345 -0.5597 -0.6320  0.3319
 1459SOL    HW215840   1.253   0.417   4.308 -0.3506 -0.5360 -2.3256
 1460SOL     OW15841   4.434   2.012   5.054  0.4848  0.0186 -0.0916
 1460SOL    HW115842   4.406   2.074   5.122 -0.0866  1.9835 -2.1315
 1460SOL    HW215843   4.526   2.000   5.080  0.1060  0.3922  1.4379
 1461SOL     OW15844   4.410   2.829  11.892 -0.1724  0.5409 -0.2490
 1461SOL    HW115845   4.331   2.793  11.853 -1.1190  1.9875  0.3598
 1461SOL    HW215846   4.449   2.753  11.937  0.1757 -0.7162 -2.6890
 1462SOL     OW15847   2.115   3.990   5.395  0.0423  0.3794  0.1371
 1462SOL    HW115848   2.041   3.990   5.457 -2.0011  0.7486 -2.3030
 1462SOL    HW215849   2.098   4.069   5.344 -2.2649  0.1467  0.5388
 1463SOL     OW15850   1.654   4.208   3.681  0.4568  0.2305 -0.4701
 1463SOL    HW115851   1.635   4.300   3.663  1.2344  1.1420  3.4182
 1463SOL    HW215852   1.577   4.183   3.630 -0.9411  3.5946 -0.0120
 1464SOL     OW15853   1.800   4.414   6.921 -0.4507  0.3041  0.8417
 1464SOL    HW115854   1.738   4.478   6.888  0.5503  1.1948  0.6830
 1464SOL    HW215855   1.742   4.338   6.921  0.6421 -0.5339 -1.0920
 1465SOL     OW15856   4.091   0.279  12.860  0.0990  0.0480  0.0585
 1465SOL    HW115857   4.170   0.333  12.848  1.4226 -2.0055 -0.5690
 1465SOL    HW215858   4.039   0.303  12.783  1.7633  1.9799 -0.4694
 1466SOL     OW15859   1.675   0.054   8.910  0.5766  0.4339 -0.5726
 1466SOL    HW115860   1.765   0.079   8.932  1.0813 -0.1566 -1.9725
 1466SOL    HW215861   1.700   0.007   8.831  1.7516 -0.6709  0.4383
 1467SOL     OW15862   2.930   2.901   5.164  0.4435  0.3650 -0.7772
 1467SOL    HW115863   2.866   2.972   5.154 -0.4172 -0.5345 -1.5795
 1467SOL    HW215864   3.003   2.951   5.201 -0.1270  1.2345 -0.8122
 1468SOL     OW15865   1.523   2.143  15.432  0.2683  0.4030  0.0256
 1468SOL    HW115866   1.488   2.125  15.520  0.0370  0.7010 -0.0085
 1468SOL    HW215867   1.578   2.220  15.441  0.3374  0.5230 -1.5542
 1469SOL     OW15868   2.739   3.145   4.804  0.2583  0.3602 -0.3678
 1469SOL    HW115869   2.708   3.224   4.760  1.4865  0.0951 -1.7106
 1469SOL    HW215870   2.807   3.184   4.858 -0.8468 -0.3456  1.5443
 1470SOL     OW15871   2.310   2.909   7.670 -1.0071 -0.8209 -0.2116
 1470SOL    HW115872   2.257   2.834   7.696 -0.1640 -0.7789  1.6345
 1470SOL    HW215873   2.316   2.955   7.753 -1.3304 -1.7371  0.3203
 1471SOL     OW15874   3.945   1.613   4.039 -0.4444  0.0867  1.0137
 1471SOL    HW115875   3.853   1.631   4.020 -0.1793  0.3310  0.0156
 1471SOL    HW215876   3.971   1.552   3.970  0.6785  1.3954  0.2924
 1472SOL     OW15877   2.957   2.597   3.300 -0.1676  0.2316  0.4808
 1472SOL    HW115878   2.903   2.534   3.347  1.2282  0.1472  1.9731
 1472SOL    HW215879   3.011   2.627   3.373  0.3950  2.4210 -0.8336
 1473SOL     OW15880   3.068   3.383   8.432 -0.1908  0.1069 -0.2815
 1473SOL    HW115881   3.035   3.299   8.463  1.1417 -0.5231 -0.5921
 1473SOL    HW215882   3.152   3.358   8.394  0.1661 -0.5936  0.9990
 1474SOL     OW15883   3.557   2.154   4.156 -0.1305  0.3792 -0.0215
 1474SOL    HW115884   3.564   2.156   4.252 -0.7878 -0.3267  0.0368
 1474SOL    HW215885   3.650   2.140   4.136 -0.8603 -0.4758 -2.7924
 1475SOL     OW15886   4.554   3.904   0.517 -0.0106  0.3344 -0.2782
 1475SOL    HW115887   4.640   3.942   0.533 -0.0682 -0.0157  0.8787
 1475SOL    HW215888   4.500   3.938   0.588  0.8075  0.9507  0.0385
 1476SOL     OW15889   4.410   0.822   7.648  0.0084 -0.7175  0.7693
 1476SOL    HW115890   4.448   0.896   7.600  1.0594 -2.5025 -1.1370
 1476SOL    HW215891   4.363   0.865   7.720  2.5429  0.6198  1.6550
 1477SOL     OW15892   3.457   2.956   4.911 -0.0166  0.4614  0.4282
 1477SOL    HW115893   3.536   2.948   4.858 -1.7370  0.9992 -2.2389
 1477SOL    HW215894   3.485   3.029   4.967  0.9347 -2.1780  3.3323
 1478SOL     OW15895   3.870   2.104   8.526 -0.4111 -0.6692 -0.3208
 1478SOL    HW115896   3.860   2.152   8.444  1.8951 -0.2411 -0.3510
 1478SOL    HW215897   3.790   2.051   8.525 -0.8266 -0.0656  1.6065
 1479SOL     OW15898   2.592   1.903   4.559 -0.1739  0.4589  0.2228
 1479SOL    HW115899   2.583   1.952   4.477  0.3860  1.3469  0.6802
 1479SOL    HW215900   2.619   1.973   4.618  1.6089  1.5329 -1.8413
 1480SOL     OW15901   0.769   2.476   3.593 -0.4827 -1.1475  0.0871
 1480SOL    HW115902   0.707   2.409   3.565 -2.2049  0.3829  0.1619
 1480SOL    HW215903   0.854   2.433   3.601  0.0843  0.1688  1.0941
 1481SOL     OW15904   2.978   1.113   3.402  0.0389  0.0027 -0.2364
 1481SOL    HW115905   2.995   1.072   3.486 -0.5787 -1.3143 -0.7520
 1481SOL    HW215906   2.884   1.128   3.398 -0.1346 -0.2118  3.7159
 1482SOL     OW15907   3.924   4.510  14.323 -0.0615  0.1062 -0.1764
 1482SOL    HW115908   3.906   4.541  14.412 -2.4376 -1.9936  0.0688
 1482SOL    HW215909   4.010   4.476  14.346  0.1953  0.8487 -0.0326
 1483SOL     OW15910   3.575   3.876   5.833 -0.0735 -0.2812 -0.4371
 1483SOL    HW115911   3.662   3.904   5.804  1.1102 -2.5995  0.9238
 1483SOL    HW215912   3.600   3.808   5.896  1.1813  1.5473  1.0664
 1484SOL     OW15913   4.371   1.616   7.238 -0.4019  0.4464 -0.4571
 1484SOL    HW115914   4.420   1.551   7.189  0.6060  0.8586  0.0064
 1484SOL    HW215915   4.323   1.665   7.171  2.0786 -0.8023 -3.1361
 1485SOL     OW15916   0.633   2.895   7.990  0.0047  0.4997 -0.1591
 1485SOL    HW115917   0.589   2.925   7.910  0.4769 -1.3911 -1.1181
 1485SOL    HW215918   0.691   2.970   8.009  0.3094  0.0607  0.6435
 1486SOL     OW15919   3.674   2.541  15.666  0.5522 -0.1088  0.1744
 1486SOL    HW115920   3.766   2.533  15.692  0.5346 -0.0078  0.2665
 1486SOL    HW215921   3.659   2.635  15.667  0.3563 -0.1335 -0.6841
 1487SOL     OW15922   2.748   0.613   3.346  0.7430  0.7170 -0.1278
 1487SOL    HW115923   2.744   0.701   3.384 -0.6216  0.6852 -0.2059
 1487SOL    HW215924   2.793   0.568   3.417  0.2476  0.1423 -0.1835
 1488SOL     OW15925   3.046   1.935   5.349  0.4826 -0.2543  0.1017
 1488SOL    HW115926   3.135   1.941   5.313  0.1507 -0.9196 -0.8164
 1488SOL    HW215927   3.002   1.886   5.280 -1.9430  0.2460  1.3132
 1489SOL     OW15928   0.604   3.805   4.415  0.8149  0.2085 -0.2122
 1489SOL    HW115929   0.616   3.722   4.368  0.7307  0.7229 -1.1466
 1489SOL    HW215930   0.519   3.826   4.377  0.2545 -2.5266 -0.4606
 1490SOL     OW15931   4.144   1.992   5.775  0.4069  0.2826 -0.4730
 1490SOL    HW115932   4.143   2.019   5.683  0.3772 -0.8194 -0.7941
 1490SOL    HW215933   4.170   1.901   5.765  1.7927  0.7950 -1.7164
 1491SOL     OW15934   4.566   1.226   1.363  0.2955 -0.0069 -0.0638
 1491SOL    HW115935   4.656   1.215   1.333  1.1001 -1.4929  2.8821
 1491SOL    HW215936   4.580   1.273   1.445 -0.2283 -1.1698  0.6899
 1492SOL     OW15937   2.625   4.446   2.718  0.5976 -0.1769  0.1174
 1492SOL    HW115938   2.673   4.382   2.771  0.1210 -0.7626 -0.1589
 1492SOL    HW215939   2.544   4.427   2.764  0.7295  0.3016  0.5510
 1493SOL     OW15940   2.208   1.171   5.556  0.1568 -0.0777 -0.2779
 1493SOL    HW115941   2.267   1.246   5.551  1.1348 -0.8499 -0.1496
 1493SOL    HW215942   2.234   1.143   5.468 -2.0156 -0.9388 -0.6492
 1494SOL     OW15943   1.497   0.966   5.532 -0.1190 -0.1908  0.5438
 1494SOL    HW115944   1.536   0.990   5.448 -1.5568  1.7123  0.4093
 1494SOL    HW215945   1.532   0.877   5.537  0.4709  0.0846  1.4454
 1495SOL     OW15946   3.749   2.466   6.832  0.5477 -0.2883  0.3791
 1495SOL    HW115947   3.698   2.547   6.833 -0.1086 -0.6905 -0.6907
 1495SOL    HW215948   3.738   2.434   6.922  1.5651  0.0608  0.6249
 1496SOL     OW15949   0.193   4.483  16.293  0.4229  0.2736 -0.0052
 1496SOL    HW115950   0.228   4.399  16.322  2.4556  1.2215  0.3038
 1496SOL    HW215951   0.216   4.483  16.200  0.0227  1.6136 -0.0953
 1497SOL     OW15952   3.887   2.246   5.560 -0.1502 -0.3060 -0.0889
 1497SOL    HW115953   3.966   2.279   5.517 -0.7144 -0.1843 -1.0283
 1497SOL    HW215954   3.849   2.327   5.595  2.0624  0.3461  0.7887
 1498SOL     OW15955   3.645   0.699   2.263  0.1688  0.1939 -0.0412
 1498SOL    HW115956   3.680   0.741   2.342 -0.1517 -2.2726  1.4114
 1498SOL    HW215957   3.556   0.736   2.259  1.0546  2.5446  1.8419
 1499SOL     OW15958   1.770   3.689   5.779  0.0349  0.3335 -0.3042
 1499SOL    HW115959   1.677   3.710   5.786  0.1654  0.6240  0.5539
 1499SOL    HW215960   1.779   3.684   5.683  1.6100 -1.9571 -0.0505
 1500SOL     OW15961   0.411   3.253   8.147 -0.0099 -0.1646  0.1350
 1500SOL    HW115962   0.404   3.243   8.242 -2.3547 -1.8889 -0.2406
 1500SOL    HW215963   0.399   3.166   8.110  0.8705 -0.2805  0.1104
 1501SOL     OW15964   2.820   3.564   5.658  0.2475 -0.1740  0.4007
 1501SOL    HW115965   2.763   3.517   5.597 -1.7998 -1.7613  3.5359
 1501SOL    HW215966   2.850   3.632   5.599  2.1514 -0.6624  0.8070
 1502SOL     OW15967   3.472   2.829   7.850  0.2116 -0.1022 -0.5385
 1502SOL    HW115968   3.420   2.815   7.929 -1.2331 -0.1490 -1.5016
 1502SOL    HW215969   3.556   2.841   7.895 -0.5163  3.8789 -0.2183
 1503SOL     OW15970   2.738   4.625  13.597 -0.0099 -0.4927  0.0867
 1503SOL    HW115971   2.673   4.695  13.602  0.6563  0.3185 -2.2023
 1503SOL    HW215972   2.815   4.666  13.635  0.9347 -1.5410 -0.7039
 1504SOL     OW15973   0.331   3.027   0.012  0.9867  0.6757  0.7839
 1504SOL    HW115974   0.236   3.038   0.012  0.9337  0.2479  2.1887
 1504SOL    HW215975   0.353   3.026  17.606 -2.3173  0.0347  0.0114
 1505SOL     OW15976   4.157   1.760   5.377 -0.1300 -0.1682 -0.4055
 1505SOL    HW115977   4.090   1.826   5.364  0.3504  0.1651 -1.1637
 1505SOL    HW215978   4.160   1.711   5.295  0.8841  1.2091 -1.1817
 1506SOL     OW15979   0.151   2.888   2.119 -0.3796 -0.3604  0.2024
 1506SOL    HW115980   0.173   2.806   2.073  0.0100 -0.5590  0.7504
 1506SOL    HW215981   0.077   2.921   2.068 -0.4093 -0.3278  0.2673
 1507SOL     OW15982   3.093   0.076  17.057  0.1197 -0.1838 -0.3352
 1507SOL    HW115983   3.158   0.093  16.988 -0.4451  0.5997 -0.6714
 1507SOL    HW215984   3.127   0.142  17.118 -2.8027  0.9267  0.0864
 1508SOL     OW15985   1.811   1.289   1.733 -0.1410  0.5158 -0.5431
 1508SOL    HW115986   1.807   1.315   1.641  1.0638  3.9218  0.3506
 1508SOL    HW215987   1.879   1.222   1.736 -2.4494 -1.6706  1.7070
 1509SOL     OW15988   2.487   1.946   4.997 -0.8573 -0.1493 -0.2841
 1509SOL    HW115989   2.455   2.021   5.047 -1.8232  0.2951 -1.5653
 1509SOL    HW215990   2.438   1.876   5.039  1.2884  0.7050  3.6047
 1510SOL     OW15991   1.672   2.174   4.801  0.4060  0.0215 -0.3752
 1510SOL    HW115992   1.584   2.195   4.834  1.0823  0.7200  1.0129
 1510SOL    HW215993   1.701   2.250   4.751 -1.1439  0.2686 -0.8992
 1511SOL     OW15994   3.683   2.181   7.252  0.6326  0.5557  0.3575
 1511SOL    HW115995   3.667   2.104   7.198 -4.3167  1.3327  0.6374
 1511SOL    HW215996   3.664   2.142   7.338  0.9994  0.2788  0.3083
 1512SOL     OW15997   2.153   4.548   7.654 -0.0834 -0.7621  0.6879
 1512SOL    HW115998   2.236   4.510   7.626  0.3904  2.9165 -2.9391
 1512SOL    HW215999   2.186   4.597   7.729 -2.8235  0.7732  0.9064
 1513SOL     OW16000   1.448   4.537   5.878 -0.2991 -0.1714 -0.0330
 1513SOL    HW116001   1.407   4.594   5.942 -0.8102  1.2535 -1.6358
 1513SOL    HW216002   1.375   4.476   5.871 -0.4120 -0.2090  1.5017
 1514SOL     OW16003   2.360   3.865   4.712 -0.2197  0.1772 -0.6084
 1514SOL    HW116004   2.323   3.843   4.798  0.4629  1.1742 -0.0511
 1514SOL    HW216005   2.374   3.960   4.710 -1.2034  0.3513  0.6772
 1515SOL     OW16006   4.247   2.925  12.124 -0.0299 -0.5875 -0.0562
 1515SOL    HW116007   4.298   2.896  12.048  0.9919  1.2981 -0.0906
 1515SOL    HW216008   4.313   2.956  12.187 -1.0309 -0.1712  0.7827
 1516SOL     OW16009   4.655   0.815  10.272 -0.3471 -0.5828 -0.3651
 1516SOL    HW116010   4.620   0.821  10.361  2.9072 -0.7610  0.9155
 1516SOL    HW216011   4.569   0.806  10.231 -1.1754 -0.8588  1.4398
 1517SOL     OW16012   0.236   0.313   5.634 -0.2864  0.1805 -0.2344
 1517SOL    HW116013   0.195   0.226   5.637 -0.1204  0.1612  1.1859
 1517SOL    HW216014   0.170   0.371   5.596 -0.0812  0.2706 -0.4597
 1518SOL     OW16015   1.073   2.554   8.545  0.4338 -0.4683 -0.3941
 1518SOL    HW116016   1.027   2.579   8.465 -0.3854  0.1508  0.2671
 1518SOL    HW216017   1.088   2.461   8.528 -0.1674 -0.7049  0.3667
 1519SOL     OW16018   3.274   2.379  15.938  0.0540 -0.0842 -0.3042
 1519SOL    HW116019   3.369   2.386  15.940  0.0615 -0.3368  0.1311
 1519SOL    HW216020   3.260   2.394  16.031  1.1913 -2.8363  0.3156
 1520SOL     OW16021   2.184   3.747   1.593  0.2434 -0.0610 -0.8021
 1520SOL    HW116022   2.194   3.671   1.651  0.7208  0.7400  0.1538
 1520SOL    HW216023   2.154   3.695   1.518  0.7489 -2.2737  0.5367
 1521SOL     OW16024   3.727   1.291   5.713  0.0629  0.0148  0.2946
 1521SOL    HW116025   3.816   1.294   5.748  0.5469 -0.0704 -0.9359
 1521SOL    HW216026   3.669   1.319   5.784  0.2452  4.3585 -1.2528
 1522SOL     OW16027   3.487   3.390   6.391  0.0203  0.1442  0.1351
 1522SOL    HW116028   3.392   3.385   6.383 -0.1088  1.9331  0.5577
 1522SOL    HW216029   3.509   3.313   6.338  1.0601 -0.2639  1.1668
 1523SOL     OW16030   0.081   2.096   4.615  0.4945  0.4265 -0.0991
 1523SOL    HW116031   0.042   2.154   4.549 -0.3565 -0.0130  0.0203
 1523SOL    HW216032   0.115   2.027   4.558  1.7713  0.3924  0.7083
 1524SOL     OW16033   3.279   2.488  11.638 -0.1750 -0.2761 -0.1205
 1524SOL    HW116034   3.204   2.443  11.677  0.6546 -1.6049 -0.0580
 1524SOL    HW216035   3.309   2.425  11.572 -0.7900 -0.5806 -0.1106
 1525SOL     OW16036   2.296   3.136   3.606  0.7211  0.3258  0.3763
 1525SOL    HW116037   2.287   3.048   3.568  2.7932 -0.1506  0.9471
 1525SOL    HW216038   2.389   3.138   3.628  1.1043  1.1150 -1.2894
 1526SOL     OW16039   4.384   1.017  16.914  0.1516  0.4330  0.0415
 1526SOL    HW116040   4.466   0.970  16.929  1.4693  2.5632 -0.4504
 1526SOL    HW216041   4.412   1.103  16.883 -1.5338  0.8260 -0.4241
 1527SOL     OW16042   2.101   2.524   5.666  0.0357  0.3681  0.2970
 1527SOL    HW116043   2.073   2.435   5.688  0.1829  0.7622  2.1016
 1527SOL    HW216044   2.018   2.573   5.665  1.0399  2.0963  1.9434
 1528SOL     OW16045   4.171   2.806   0.851 -0.2051  0.2307 -0.2779
 1528SOL    HW116046   4.130   2.783   0.768 -1.8096 -1.5636  1.0013
 1528SOL    HW216047   4.265   2.801   0.833 -0.6898 -0.6438 -2.5436
 1529SOL     OW16048   0.992   0.902  12.246  0.3837  0.9119 -0.1410
 1529SOL    HW116049   0.950   0.980  12.284 -2.8223 -1.6758  1.6538
 1529SOL    HW216050   0.981   0.914  12.152  2.5073 -0.3961 -0.5367
 1530SOL     OW16051   0.370   2.375   5.482 -0.3484  0.1874  0.0536
 1530SOL    HW116052   0.350   2.450   5.538  0.0462  2.1046 -2.4045
 1530SOL    HW216053   0.357   2.302   5.543 -1.8405 -0.9924 -1.6845
 1531SOL     OW16054   4.432   4.591  10.938  0.4118 -0.0241  0.2853
 1531SOL    HW116055   4.482   4.612  10.858  0.2782 -1.7791 -0.2576
 1531SOL    HW216056   4.506   4.584  10.998 -0.0579 -0.5658  0.7978
 1532SOL     OW16057   2.357   3.011   5.090  0.1179 -0.1727  0.0546
 1532SOL    HW116058   2.368   3.067   5.166 -0.4422 -0.4761  0.3524
 1532SOL    HW216059   2.390   2.927   5.124 -0.3666 -0.0469  0.8305
 1533SOL     OW16060   0.097   1.863   6.361 -0.1236 -0.8136 -0.4034
 1533SOL    HW116061   0.125   1.864   6.452 -0.8561  2.9633 -0.2191
 1533SOL    HW216062   0.096   1.957   6.342 -1.3263 -0.5210  1.1067
 1534SOL     OW16063   3.013   4.366  17.551  0.2226 -0.1886  0.0510
 1534SOL    HW116064   2.963   4.310  17.491 -0.8403 -1.6962  2.3197
 1534SOL    HW216065   3.006   4.448  17.503  1.4103 -0.9105 -1.3381
 1535SOL     OW16066   3.790   2.092   8.103  0.7248  0.3140  0.8095
 1535SOL    HW116067   3.855   2.094   8.033 -0.4815 -1.1125 -0.3430
 1535SOL    HW216068   3.746   2.009   8.090  1.7868 -0.2913  1.0663
 1536SOL     OW16069   1.783   3.139   3.204 -0.0703  0.1255 -0.0780
 1536SOL    HW116070   1.717   3.190   3.157 -0.3028 -1.0274 -0.9800
 1536SOL    HW216071   1.733   3.057   3.209 -1.0189  0.7184  0.2317
 1537SOL     OW16072   1.093   0.773  12.459  0.3583  0.2672  0.5168
 1537SOL    HW116073   1.050   0.807  12.381 -2.8250 -0.8466  1.7982
 1537SOL    HW216074   1.140   0.852  12.487 -0.1361  0.1789  1.5996
 1538SOL     OW16075   4.530   0.130  13.742 -0.2991  0.2552 -0.0982
 1538SOL    HW116076   4.449   0.122  13.692 -0.1973 -4.6022  0.5168
 1538SOL    HW216077   4.593   0.094  13.680  1.2008  0.3721  1.3279
 1539SOL     OW16078   1.304   2.255  14.874 -0.4730 -0.3555  0.4926
 1539SOL    HW116079   1.279   2.334  14.921 -1.3726 -1.4225  1.7960
 1539SOL    HW216080   1.275   2.183  14.929 -0.4117 -0.5133  0.3169
 1540SOL     OW16081   0.443   4.701   3.924 -0.0913  0.3165 -0.2742
 1540SOL    HW116082   0.365   4.649   3.942 -0.2493  0.7979  0.4317
 1540SOL    HW216083   0.509   4.641   3.958 -0.4152  0.1498  0.0513
 1541SOL     OW16084   4.428   1.991   9.212  0.2065 -0.0374  0.6897
 1541SOL    HW116085   4.349   2.014   9.260 -1.4765  0.1131 -2.1850
 1541SOL    HW216086   4.489   1.942   9.268 -0.5368 -1.9600 -0.1941
 1542SOL     OW16087   1.554   1.003   0.295  0.6266 -0.9958  0.2789
 1542SOL    HW116088   1.499   1.070   0.336 -1.1487 -1.7316 -0.9153
 1542SOL    HW216089   1.635   1.054   0.297 -1.0470  1.6977 -0.3688
 1543SOL     OW16090   3.256   3.405   9.533 -0.5327  0.1497  0.2762
 1543SOL    HW116091   3.236   3.344   9.462 -1.0671  0.8517 -0.1713
 1543SOL    HW216092   3.345   3.418   9.499 -0.4873  1.2492  0.8448
 1544SOL     OW16093   3.061   1.356   6.276 -0.4711 -0.0070  0.1981
 1544SOL    HW116094   3.028   1.279   6.231  0.0263 -0.9100  1.3630
 1544SOL    HW216095   3.109   1.320   6.351 -1.6905  0.0762  1.0099
 1545SOL     OW16096   1.489   1.073   7.589 -0.4096 -0.1464 -0.4434
 1545SOL    HW116097   1.442   1.153   7.610 -2.2593 -0.8260 -2.0152
 1545SOL    HW216098   1.429   1.007   7.624 -0.6473 -0.2344 -1.0183
 1546SOL     OW16099   2.624   2.994   3.247 -0.2021 -0.2723 -0.0697
 1546SOL    HW116100   2.719   2.987   3.254 -0.3020 -1.4367  0.0453
 1546SOL    HW216101   2.606   3.074   3.197  0.8994 -0.1850 -0.3388
 1547SOL     OW16102   3.433   4.594  13.735 -0.1385 -0.0445 -0.5385
 1547SOL    HW116103   3.409   4.659  13.670 -0.0159 -0.6782 -1.2126
 1547SOL    HW216104   3.483   4.649  13.796  1.7877 -1.2444 -1.0287
 1548SOL     OW16105   0.702   0.683   3.889  0.6356 -0.3450 -0.0022
 1548SOL    HW116106   0.757   0.613   3.853 -0.2011 -1.5724  1.1427
 1548SOL    HW216107   0.629   0.690   3.828  1.2033 -0.2579 -0.6732
 1549SOL     OW16108   3.281   3.746  15.388  0.2713 -0.3646  0.1033
 1549SOL    HW116109   3.241   3.663  15.364 -1.5638  0.7341 -0.6642
 1549SOL    HW216110   3.254   3.740  15.479  0.6357  2.5161  0.4107
 1550SOL     OW16111   2.484   2.008   9.274 -0.2135 -0.0244 -0.1365
 1550SOL    HW116112   2.414   1.945   9.292  0.0264  0.7048  3.3506
 1550SOL    HW216113   2.543   1.955   9.220 -0.7839 -0.9672  0.1508
 1551SOL     OW16114   0.635   2.986  17.076  0.1777 -0.7874 -0.1791
 1551SOL    HW116115   0.590   3.055  17.125  0.8401 -0.4412 -0.0483
 1551SOL    HW216116   0.643   3.023  16.988 -0.3389 -1.0709 -0.3411
 1552SOL     OW16117   0.561   2.299  15.239 -0.9462 -0.1944 -0.6119
 1552SOL    HW116118   0.549   2.295  15.334  0.7780 -0.1809 -0.4019
 1552SOL    HW216119   0.509   2.222  15.218  0.0239 -1.0464  0.1435
 1553SOL     OW16120   0.802   1.881   7.868 -0.1297 -0.4054 -0.5656
 1553SOL    HW116121   0.865   1.872   7.797 -0.1479 -1.5239 -0.4346
 1553SOL    HW216122   0.845   1.953   7.915  0.5118 -1.1107 -0.0796
 1554SOL     OW16123   1.729   1.551   2.514 -0.1511  0.0590  0.5530
 1554SOL    HW116124   1.748   1.575   2.423 -0.7880 -0.8124  0.1865
 1554SOL    HW216125   1.759   1.622   2.570  2.2981  0.5180 -1.3209
 1555SOL     OW16126   2.783   2.608   6.867 -0.6616  0.2816 -0.4312
 1555SOL    HW116127   2.801   2.642   6.780  1.3692  0.9445  0.2547
 1555SOL    HW216128   2.857   2.549   6.879 -1.5270 -0.8371 -0.5893
 1556SOL     OW16129   3.356   4.225   7.164 -0.4355  0.3529  0.6483
 1556SOL    HW116130   3.451   4.231   7.151 -0.1110 -0.1646  2.7339
 1556SOL    HW216131   3.354   4.232   7.259  1.0804  4.8252  0.3409
 1557SOL     OW16132   4.286   0.748  11.975  0.4013  0.2521  0.8621
 1557SOL    HW116133   4.350   0.683  11.946  0.6353  0.9569 -0.2221
 1557SOL    HW216134   4.282   0.732  12.069  0.0642 -3.1476  0.2536
 1558SOL     OW16135   3.904   0.106  12.929 -0.3498 -0.1260  0.7023
 1558SOL    HW116136   3.980   0.157  12.902 -1.6086  1.7085  0.5654
 1558SOL    HW216137   3.842   0.155  12.875  0.8721 -0.6008 -1.1219
 1559SOL     OW16138   0.142   2.096   9.095  0.7953 -0.6181  0.0863
 1559SOL    HW116139   0.100   2.169   9.141  3.2218 -0.1459  1.5313
 1559SOL    HW216140   0.131   2.122   9.004  1.5114  2.0188  0.7597
 1560SOL     OW16141   2.876   3.060  15.924  0.6567  0.1572  0.7097
 1560SOL    HW116142   2.804   3.095  15.976 -1.3455  0.7876 -2.5233
 1560SOL    HW216143   2.840   3.039  15.838  2.3438 -0.0836  0.0550
 1561SOL     OW16144   4.612   0.173   3.880 -0.5485  0.4928 -0.4975
 1561SOL    HW116145   4.524   0.192   3.914 -0.2706 -0.3598  0.6982
 1561SOL    HW216146   4.585   0.173   3.788  0.8603 -0.7187 -0.9131
 1562SOL     OW16147   0.773   4.357   5.279 -1.1582 -0.0820  0.3092
 1562SOL    HW116148   0.740   4.390   5.195  0.7666 -1.8207 -1.1145
 1562SOL    HW216149   0.789   4.267   5.252 -1.2263 -0.5970  1.9835
 1563SOL     OW16150   0.448   4.671  16.905  1.0399  0.1981  0.5953
 1563SOL    HW116151   0.444   0.017  16.973 -0.1964  0.4340  0.2878
 1563SOL    HW216152   0.506   4.699  16.834  1.0186  1.7595  1.1925
 1564SOL     OW16153   3.722   3.100   9.222 -0.0344 -0.6148 -0.4535
 1564SOL    HW116154   3.720   3.013   9.181 -1.5116 -0.4611 -0.6929
 1564SOL    HW216155   3.736   3.078   9.314  0.3251 -0.4432 -0.4663
 1565SOL     OW16156   1.631   4.604   2.109 -0.1158  0.4561  0.4271
 1565SOL    HW116157   1.597   4.543   2.043 -0.5125  2.1930 -0.9816
 1565SOL    HW216158   1.723   4.609   2.086 -0.6629  0.5635 -1.7366
 1566SOL     OW16159   2.502   1.844   7.465  0.4374 -0.4471 -0.0154
 1566SOL    HW116160   2.538   1.775   7.519  0.4153 -0.5396 -0.1178
 1566SOL    HW216161   2.498   1.918   7.525 -3.0799 -0.4464 -0.2128
 1567SOL     OW16162   0.834   1.406   1.704 -0.1115 -0.1642  0.1854
 1567SOL    HW116163   0.816   1.319   1.740  1.7352 -0.5344  0.1972
 1567SOL    HW216164   0.795   1.468   1.766  0.0808  1.5345 -1.3963
 1568SOL     OW16165   0.637   3.076   2.355  0.4220  0.1862 -0.3284
 1568SOL    HW116166   0.570   3.091   2.288 -0.2743  1.6311  0.6912
 1568SOL    HW216167   0.602   3.131   2.425 -0.4487 -1.4911  0.5367
 1569SOL     OW16168   4.151   4.493   5.097  0.1097 -0.6322 -0.4533
 1569SOL    HW116169   4.219   4.553   5.129 -0.0767 -0.4155 -0.4649
 1569SOL    HW216170   4.089   4.552   5.055 -0.5527 -0.2823  1.0363
 1570SOL     OW16171   2.866   0.731  15.251  0.3037  0.2806 -0.5080
 1570SOL    HW116172   2.936   0.695  15.197  0.8647  0.6144 -0.0040
 1570SOL    HW216173   2.922   0.765  15.321 -0.8266  0.6630  0.2178
 1571SOL     OW16174   3.841   4.546   5.256 -0.0835  0.4216  0.5029
 1571SOL    HW116175   3.811   4.457   5.274  0.6393  0.1528  0.3772
 1571SOL    HW216176   3.860   4.555   5.162 -0.6642 -1.5179  0.2062
 1572SOL     OW16177   0.966   0.267  14.185  0.3720  0.1209 -0.4593
 1572SOL    HW116178   1.035   0.218  14.229  0.4712 -1.2433 -2.1782
 1572SOL    HW216179   0.900   0.198  14.185  0.1358  0.3363  0.4546
 1573SOL     OW16180   3.311   2.915   6.373 -0.3397 -0.7179  0.1429
 1573SOL    HW116181   3.280   2.825   6.376 -5.3020  0.9740 -1.0613
 1573SOL    HW216182   3.225   2.956   6.366 -0.3927 -0.9763 -0.7684
 1574SOL     OW16183   0.284   2.225   4.996  0.1486 -0.4774  0.3195
 1574SOL    HW116184   0.323   2.211   5.082  0.4409  2.6917  0.6965
 1574SOL    HW216185   0.192   2.249   5.010 -0.1447 -1.7164  0.4716
 1575SOL     OW16186   3.407   2.010   7.244  0.2617 -0.3331 -0.1843
 1575SOL    HW116187   3.401   2.020   7.339  0.8686  1.0045 -0.2938
 1575SOL    HW216188   3.432   1.918   7.241  4.0299  0.5792  3.5197
 1576SOL     OW16189   4.077   4.194   8.055  0.2699 -0.4370  0.5072
 1576SOL    HW116190   4.070   4.264   7.990 -1.4807 -1.4586 -0.4122
 1576SOL    HW216191   4.000   4.145   8.025  1.2210  0.7759 -3.8955
 1577SOL     OW16192   2.238   1.953  11.980 -0.2280  0.3710  0.1094
 1577SOL    HW116193   2.212   1.880  12.036 -0.6198  0.3673 -0.0733
 1577SOL    HW216194   2.248   1.910  11.896 -0.9938 -1.5693  1.0067
 1578SOL     OW16195   3.010   0.916   4.777  0.2650 -0.5133  0.3262
 1578SOL    HW116196   2.995   1.010   4.765 -0.7611 -1.0065 -2.2430
 1578SOL    HW216197   3.043   0.895   4.690 -0.6646  2.9500 -0.8679
 1579SOL     OW16198   4.409   3.934   7.274  0.4769 -0.4105  0.2101
 1579SOL    HW116199   4.446   3.860   7.321 -0.6665 -2.0372 -1.4740
 1579SOL    HW216200   4.473   3.992   7.317  2.7606 -2.1266 -0.8725
 1580SOL     OW16201   0.551   1.157   8.781  0.3631  0.3638  0.0341
 1580SOL    HW116202   0.510   1.143   8.866 -0.0161  1.4523  0.0301
 1580SOL    HW216203   0.642   1.135   8.801  0.1974 -0.3014  0.0672
 1581SOL     OW16204   4.389   0.448  13.542  0.2494  0.1661  0.0339
 1581SOL    HW116205   4.315   0.431  13.601  1.5063 -0.3576  1.4537
 1581SOL    HW216206   4.349   0.436  13.456 -0.5082 -0.5188  0.4798
 1582SOL     OW16207   2.834   4.597   7.195  0.3433 -0.5301 -0.3461
 1582SOL    HW116208   2.887   4.634   7.125  1.6971  1.6909  1.8474
 1582SOL    HW216209   2.886   4.592   7.276  1.9004 -1.0429 -1.3841
 1583SOL     OW16210   4.589   3.631  12.484 -0.3574  0.0003  0.0744
 1583SOL    HW116211   4.598   3.614  12.578  2.1131  3.3234  0.4676
 1583SOL    HW216212   4.681   3.649  12.463  0.1962 -3.7862 -0.6597
 1584SOL     OW16213   4.146   3.314   4.303 -0.4389  0.0434 -0.1242
 1584SOL    HW116214   4.105   3.397   4.282 -0.8645  0.6569  3.1162
 1584SOL    HW216215   4.167   3.267   4.222 -4.4928  1.8787 -2.2135
 1585SOL     OW16216   2.832   4.632   9.836 -0.4415 -0.7483  0.3698
 1585SOL    HW116217   2.834   4.541   9.865  2.0579 -0.4272  1.1839
 1585SOL    HW216218   2.754   4.672   9.875 -0.9269 -2.0978  0.7635
 1586SOL     OW16219   3.567   4.316   0.800 -0.5245  0.4930  0.1530
 1586SOL    HW116220   3.502   4.382   0.776 -0.5690  0.8247  1.1631
 1586SOL    HW216221   3.526   4.276   0.876 -2.5125 -1.2861 -1.8912
 1587SOL     OW16222   0.776   3.105   7.724  0.5041  0.2123  0.0445
 1587SOL    HW116223   0.833   3.182   7.726 -0.7007  1.1003  0.3461
 1587SOL    HW216224   0.704   3.141   7.776 -1.4809 -2.2544 -0.9899
 1588SOL     OW16225   4.412   1.972   5.426  0.2227 -0.1179 -0.0131
 1588SOL    HW116226   4.408   1.893   5.480 -3.4760 -0.4912 -0.8065
 1588SOL    HW216227   4.468   1.932   5.359 -0.3213 -0.5173 -0.2396
 1589SOL     OW16228   2.375   2.205   8.050  0.5919  0.0408 -0.1521
 1589SOL    HW116229   2.411   2.209   8.139  1.9828  1.4962 -0.7953
 1589SOL    HW216230   2.316   2.131   8.065 -0.6986  0.9937 -0.5152
 1590SOL     OW16231   4.338   4.087  13.371 -0.5092 -0.1959  0.5508
 1590SOL    HW116232   4.313   4.162  13.426  0.9381  1.6172 -1.2501
 1590SOL    HW216233   4.342   4.019  13.438 -2.5843 -0.9907 -0.1300
 1591SOL     OW16234   3.202   1.532  15.476  0.6574 -0.2192  0.2612
 1591SOL    HW116235   3.162   1.463  15.422  2.0714  0.5015 -1.6986
 1591SOL    HW216236   3.143   1.606  15.458  0.0738 -1.1908 -1.7883
 1592SOL     OW16237   3.473   1.297  17.287  0.4590 -0.0828  0.2400
 1592SOL    HW116238   3.540   1.237  17.319  1.0321 -0.8324 -2.3386
 1592SOL    HW216239   3.513   1.382  17.306  1.1975 -0.8328  2.0204
 1593SOL     OW16240   1.840   2.051   5.784  0.1380  0.2685 -0.1117
 1593SOL    HW116241   1.845   1.988   5.712 -2.9432 -0.2304  0.0973
 1593SOL    HW216242   1.898   2.000   5.839 -1.6080 -2.8216 -1.1504
 1594SOL     OW16243   1.172   0.238   7.944  0.9470 -1.1180 -0.1027
 1594SOL    HW116244   1.195   0.289   8.022  3.2296 -2.7314  0.2957
 1594SOL    HW216245   1.131   0.300   7.884 -0.0238 -1.5227  0.1446
 1595SOL     OW16246   0.511   0.175  11.590  0.1798  0.1602 -0.1510
 1595SOL    HW116247   0.576   0.110  11.617 -0.1434 -0.0351  0.1412
 1595SOL    HW216248   0.544   0.240  11.652 -1.4392  1.0138 -0.1911
 1596SOL     OW16249   2.218   4.330   8.999 -0.1550 -1.3156  0.0372
 1596SOL    HW116250   2.265   4.392   9.055  0.4641 -1.5936 -0.1670
 1596SOL    HW216251   2.291   4.296   8.946  1.5830 -0.1549  1.6884
 1597SOL     OW16252   3.038   4.162   1.370 -0.0549 -0.4800 -0.4195
 1597SOL    HW116253   3.053   4.137   1.279  0.5278  0.3052 -0.5525
 1597SOL    HW216254   3.045   4.077   1.412  0.4151 -0.1642  0.1570
 1598SOL     OW16255   3.953   0.099   3.887 -0.2303  0.0085  0.5252
 1598SOL    HW116256   3.954   0.170   3.952 -0.4518 -0.8485  1.4645
 1598SOL    HW216257   3.889   0.129   3.823  1.3238  1.8554 -0.1623
 1599SOL     OW16258   4.211   2.625   3.882 -0.3055  0.1961  0.2246
 1599SOL    HW116259   4.129   2.671   3.862 -0.0789 -0.4320 -2.1274
 1599SOL    HW216260   4.268   2.696   3.910 -1.0932  1.7960 -2.1903
 1600SOL     OW16261   4.652   2.716   6.578  1.3057  0.4398  0.1964
 1600SOL    HW116262   4.671   2.695   6.669 -0.3137 -3.6429 -0.3865
 1600SOL    HW216263   4.576   2.772   6.590  0.7584  0.4141 -2.9716
 1601SOL     OW16264   2.683   2.258   3.867 -0.5182 -0.0139 -0.0843
 1601SOL    HW116265   2.618   2.304   3.813  1.4250  2.7974  0.0226
 1601SOL    HW216266   2.694   2.186   3.804 -1.0455  1.1401 -1.4799
 1602SOL     OW16267   1.193   0.680   6.746  0.0984 -0.6579  1.0646
 1602SOL    HW116268   1.181   0.720   6.832  0.0885  3.4579 -0.8343
 1602SOL    HW216269   1.222   0.595   6.779  1.4995 -1.3893 -2.0314
 1603SOL     OW16270   1.892   2.033   6.860  0.4046  0.0529  0.2027
 1603SOL    HW116271   1.982   2.033   6.892  0.5978 -0.1756 -0.3382
 1603SOL    HW216272   1.865   1.942   6.848  0.8857  0.0223 -0.6602
 1604SOL     OW16273   1.301   2.107   3.017  0.4320 -0.5941 -0.0205
 1604SOL    HW116274   1.256   2.122   3.101  1.6289 -1.0104  0.6918
 1604SOL    HW216275   1.222   2.122   2.965 -0.9063 -3.5465  1.1472
 1605SOL     OW16276   1.115   0.339   5.752  0.5798 -0.2623  0.2047
 1605SOL    HW116277   1.206   0.348   5.722  0.4016  0.2194 -0.1816
 1605SOL    HW216278   1.078   0.288   5.679 -3.7129 -0.0027  2.2226
 1606SOL     OW16279   1.242   1.848   3.401 -0.7562  0.1056  0.2529
 1606SOL    HW116280   1.243   1.940   3.424 -1.3761  0.7491 -2.2512
 1606SOL    HW216281   1.326   1.808   3.423 -0.5432  0.2921 -0.2202
 1607SOL     OW16282   0.568   4.066   1.600  0.2209 -0.3387 -0.5938
 1607SOL    HW116283   0.623   4.000   1.558  0.7417  0.2153 -0.7830
 1607SOL    HW216284   0.494   4.016   1.634  0.2147  1.0910  1.5000
 1608SOL     OW16285   3.747   3.425  15.187 -0.3312  0.0578  0.5516
 1608SOL    HW116286   3.749   3.354  15.252  0.5294 -0.6380 -0.2201
 1608SOL    HW216287   3.841   3.438  15.172 -0.8433 -0.0100 -2.7922
 1609SOL     OW16288   2.602   0.318   7.806 -0.1392 -0.9540 -0.4497
 1609SOL    HW116289   2.571   0.407   7.791  1.4286 -0.0819  1.3935
 1609SOL    HW216290   2.692   0.317   7.773  0.0900 -0.0668  0.1460
 1610SOL     OW16291   1.866   3.847  11.709 -1.0510  0.2983  0.5941
 1610SOL    HW116292   1.901   3.778  11.765 -0.2103  1.6613  1.7554
 1610SOL    HW216293   1.934   3.909  11.734 -0.1186 -0.2068 -0.6386
 1611SOL     OW16294   4.190   3.549  14.444 -0.2766 -0.1421  0.3974
 1611SOL    HW116295   4.164   3.641  14.456  0.4907 -0.0638  1.4818
 1611SOL    HW216296   4.167   3.511  14.529 -1.3947 -2.5503 -0.9963
 1612SOL     OW16297   1.271   2.420  15.341  0.1933 -0.5545 -0.3633
 1612SOL    HW116298   1.226   2.481  15.282 -3.0814  0.3409  3.0048
 1612SOL    HW216299   1.271   2.343  15.286  2.0474 -1.3755  0.7911
 1613SOL     OW16300   2.208   2.893   8.219  0.0421 -0.5838  0.7874
 1613SOL    HW116301   2.141   2.916   8.284  0.9745  3.8236  0.2016
 1613SOL    HW216302   2.255   2.824   8.264  0.8200  0.6956  1.9202
 1614SOL     OW16303   4.271   0.983   3.127  0.3704 -0.1001  0.1977
 1614SOL    HW116304   4.225   0.901   3.110 -0.7813  0.5181  0.3050
 1614SOL    HW216305   4.197   1.038   3.099 -0.4467 -1.9722 -1.3697
 1615SOL     OW16306   3.236   2.149  10.312  0.2706 -0.1857 -0.1932
 1615SOL    HW116307   3.203   2.147  10.402  3.2180  1.5313  0.9644
 1615SOL    HW216308   3.240   2.056  10.292  0.0069 -0.0442 -0.8761
 1616SOL     OW16309   0.694   4.171   3.801 -0.1293  0.3901  0.4860
 1616SOL    HW116310   0.605   4.198   3.826 -0.1045 -0.1844  1.2043
 1616SOL    HW216311   0.681   4.124   3.719 -0.7311  0.8337  0.3200
 1617SOL     OW16312   2.276   4.672   2.915  0.1095 -0.5587  0.3391
 1617SOL    HW116313   2.327   4.717   2.848  0.7973  0.0872  1.3112
 1617SOL    HW216314   2.307   4.582   2.906  2.9238  0.4983 -0.3712
 1618SOL     OW16315   2.464   4.015   6.533 -0.6257  0.3355 -0.3054
 1618SOL    HW116316   2.465   3.937   6.478  1.8134 -0.2842  0.5943
 1618SOL    HW216317   2.404   3.990   6.602 -1.7933  0.3294 -1.3245
 1619SOL     OW16318   0.351   2.215   6.528  0.2070  0.1823 -0.9448
 1619SOL    HW116319   0.292   2.148   6.495  1.1815 -0.7484 -0.8099
 1619SOL    HW216320   0.432   2.191   6.481  1.6643  0.8906  1.2157
 1620SOL     OW16321   1.239   1.879   4.351  0.1243 -0.3886  0.4557
 1620SOL    HW116322   1.214   1.804   4.296 -0.7459  0.3343 -0.1425
 1620SOL    HW216323   1.246   1.944   4.282  0.3559 -0.6797  0.2050
 1621SOL     OW16324   1.670   1.614   2.230  0.6891 -0.2223  0.2867
 1621SOL    HW116325   1.671   1.690   2.173  0.3669 -1.0250 -0.7911
 1621SOL    HW216326   1.583   1.580   2.213  0.5182 -0.0117  0.7389
 1622SOL     OW16327   0.089   3.197   8.062 -0.7019 -0.1510  0.0534
 1622SOL    HW116328   0.158   3.145   8.022  0.6992  0.6389  1.4689
 1622SOL    HW216329   0.118   3.282   8.029  1.4103 -0.0432  2.2511
 1623SOL     OW16330   1.822   2.053  16.285 -0.0129 -0.2909 -0.1260
 1623SOL    HW116331   1.846   2.069  16.194 -1.2048 -0.4375 -0.4588
 1623SOL    HW216332   1.813   2.144  16.316 -1.2829 -1.0128  1.6387
 1624SOL     OW16333   3.648   4.688  13.098 -0.2687  0.2742 -0.6149
 1624SOL    HW116334   3.702   4.608  13.103 -0.4922  0.2099  0.9798
 1624SOL    HW216335   3.685   0.023  13.166  0.6313 -2.1040  0.8779
 1625SOL     OW16336   2.347   1.626   9.168  0.3055  0.9311  0.0522
 1625SOL    HW116337   2.282   1.692   9.189  0.4938  0.8098  1.0176
 1625SOL    HW216338   2.424   1.660   9.213  0.6745 -3.0154  2.4352
 1626SOL     OW16339   1.278   0.292   3.726  0.2880 -0.7125  0.2219
 1626SOL    HW116340   1.314   0.228   3.665 -0.5902 -2.5997  1.6914
 1626SOL    HW216341   1.215   0.324   3.661  1.2983 -1.3703 -1.0682
 1627SOL     OW16342   2.716   1.554  16.374  0.0445 -0.3093 -0.2445
 1627SOL    HW116343   2.677   1.605  16.303 -1.0927 -0.3529  0.3510
 1627SOL    HW216344   2.725   1.470  16.330 -1.6270 -1.1645  1.0306
 1628SOL     OW16345   3.308   4.142   2.471  0.8426  0.0723 -0.1593
 1628SOL    HW116346   3.311   4.238   2.473  1.5374  0.0797 -1.4006
 1628SOL    HW216347   3.244   4.132   2.401  1.1507 -1.1236 -0.2775
 1629SOL     OW16348   3.040   0.280   7.134 -0.0810  0.0289 -0.0378
 1629SOL    HW116349   3.106   0.313   7.073 -1.1847  0.0716 -1.2099
 1629SOL    HW216350   2.965   0.338   7.121  0.4893  0.4950 -1.2217
 1630SOL     OW16351   4.009   3.487  14.990 -0.8424 -0.0726 -0.1815
 1630SOL    HW116352   3.984   3.567  15.037  0.1350 -0.3670  0.8456
 1630SOL    HW216353   4.061   3.525  14.919  2.5329 -2.1807  1.1195
 1631SOL     OW16354   3.438   0.052   5.994  0.7141  0.2855  0.0130
 1631SOL    HW116355   3.464   0.085   6.081 -0.2520 -1.4836  0.9756
 1631SOL    HW216356   3.418   4.682   6.012 -0.0146  0.7902  1.7786
 1632SOL     OW16357   3.649   2.840   8.048 -0.0146  0.6767 -0.2907
 1632SOL    HW116358   3.641   2.745   8.042  3.3762  0.3702 -0.0139
 1632SOL    HW216359   3.693   2.857   8.132  0.6981  0.2001 -0.5654
 1633SOL     OW16360   0.698   2.161  15.057 -0.4708  0.8574 -0.6003
 1633SOL    HW116361   0.653   2.193  14.979 -1.8136 -2.4213 -1.1937
 1633SOL    HW216362   0.663   2.214  15.128  2.8222  1.1853  0.7465
 1634SOL     OW16363   3.945   2.507  15.793  0.0621 -0.5396 -0.3229
 1634SOL    HW116364   4.014   2.536  15.733 -1.1371 -0.0140 -1.4447
 1634SOL    HW216365   3.986   2.428  15.829 -1.5541 -1.3685 -0.3235
 1635SOL     OW16366   3.611   2.187   4.823  0.0373 -0.0103 -0.4467
 1635SOL    HW116367   3.531   2.239   4.824  0.0088 -0.0564 -0.3838
 1635SOL    HW216368   3.647   2.215   4.907 -0.1825 -0.9834 -0.0305
 1636SOL     OW16369   1.164   0.919   3.189 -0.0605 -0.6476  0.0598
 1636SOL    HW116370   1.089   0.871   3.222  0.9148 -2.6115 -0.6090
 1636SOL    HW216371   1.209   0.852   3.139  0.2929 -0.8290  0.6166
 1637SOL     OW16372   3.936   0.966   5.828 -0.0476  0.2789  0.5249
 1637SOL    HW116373   3.982   0.904   5.772 -1.6036  0.0521 -0.5081
 1637SOL    HW216374   3.865   0.911   5.859  0.6759 -1.7264 -1.3928
 1638SOL     OW16375   0.868   3.431   9.375  0.1055 -0.1000 -0.0214
 1638SOL    HW116376   0.879   3.513   9.425  1.0371 -0.1607 -0.1306
 1638SOL    HW216377   0.957   3.396   9.372  0.7406  1.3530  1.1383
 1639SOL     OW16378   3.175   2.317   6.669  0.0585 -0.1508 -0.1001
 1639SOL    HW116379   3.184   2.239   6.723 -0.1740 -0.3513 -0.3554
 1639SOL    HW216380   3.216   2.376   6.733 -2.3735 -1.1689  2.4185
 1640SOL     OW16381   0.256   0.349   8.787 -0.2329  0.6084 -0.4000
 1640SOL    HW116382   0.188   0.357   8.854  0.4055  0.1363  0.2899
 1640SOL    HW216383   0.264   0.440   8.756  1.5677  0.6034  0.0726
 1641SOL     OW16384   4.555   1.113  17.228  0.4041  0.1434 -0.5018
 1641SOL    HW116385   4.571   1.037  17.172  1.0791 -1.7740  2.2548
 1641SOL    HW216386   4.489   1.060  17.272  0.4932 -0.8063 -1.5199
 1642SOL     OW16387   2.484   0.003  12.426 -0.4850 -0.2796  0.4983
 1642SOL    HW116388   2.535   4.648  12.399  3.5144  1.7485  2.2973
 1642SOL    HW216389   2.430   0.028  12.351  2.9449  1.7412 -1.3388
 1643SOL     OW16390   2.150   4.199   4.880 -0.2689  0.6599  0.5517
 1643SOL    HW116391   2.131   4.291   4.864  1.5861  1.5159  3.3087
 1643SOL    HW216392   2.215   4.178   4.813 -1.0075  1.0542 -0.2873
 1644SOL     OW16393   3.690   0.647   4.412  0.1334 -0.0199  0.2183
 1644SOL    HW116394   3.667   0.691   4.494 -0.8507 -0.6424  0.2722
 1644SOL    HW216395   3.606   0.663   4.369  0.7846  0.5813 -0.8329
 1645SOL     OW16396   1.094   3.094   6.970  0.1962 -0.5086 -0.1010
 1645SOL    HW116397   1.019   3.051   7.013 -0.2099  0.9874  0.6741
 1645SOL    HW216398   1.129   3.021   6.919  1.2312  0.1024 -0.2487
 1646SOL     OW16399   0.383   1.996   9.060 -0.1412 -0.1348 -0.3942
 1646SOL    HW116400   0.296   2.029   9.083 -0.2962  1.6442 -3.5216
 1646SOL    HW216401   0.421   2.080   9.036 -2.5765  0.9187 -0.6228
 1647SOL     OW16402   2.893   0.122  10.510  0.4626  0.1230 -0.3779
 1647SOL    HW116403   2.871   0.117  10.603  0.7767  2.1805 -0.1995
 1647SOL    HW216404   2.824   0.171  10.465 -0.3948 -1.5254 -0.8406
 1648SOL     OW16405   1.193   2.787   5.989 -0.3537  0.3589  0.2585
 1648SOL    HW116406   1.135   2.822   6.058  0.5076  1.0242  0.6381
 1648SOL    HW216407   1.139   2.715   5.955  0.6259 -0.4158  0.3307
 1649SOL     OW16408   3.021   3.933   1.506  0.0295 -0.2500  0.2861
 1649SOL    HW116409   3.027   3.883   1.425  0.8184 -0.7788  0.6778
 1649SOL    HW216410   2.929   3.930   1.535 -0.5631 -1.8366 -1.7238
 1650SOL     OW16411   0.060   1.571   3.013 -0.4098 -0.4163 -0.8030
 1650SOL    HW116412   0.116   1.523   2.951  1.6142  0.0869  0.6478
 1650SOL    HW216413   0.027   1.499   3.068  0.7687 -2.3526 -2.6280
 1651SOL     OW16414   1.021   0.280   6.788  0.5189  0.4115  0.5762
 1651SOL    HW116415   1.083   0.352   6.796  2.1700 -0.9501  0.1174
 1651SOL    HW216416   1.006   0.272   6.694  2.3026 -1.5070  0.4422
 1652SOL     OW16417   3.557   1.735   7.863 -0.0818 -0.1425 -0.1953
 1652SOL    HW116418   3.621   1.773   7.923  0.7231 -0.7014 -0.6939
 1652SOL    HW216419   3.587   1.644   7.861  2.0243  0.5654 -0.1547
 1653SOL     OW16420   0.658   3.983   8.077 -0.3493 -0.5496 -0.5223
 1653SOL    HW116421   0.671   3.930   8.156 -2.9509 -1.0645 -0.4541
 1653SOL    HW216422   0.712   3.936   8.013 -0.3435 -1.8681  0.4536
 1654SOL     OW16423   0.011   0.876   7.000 -0.2257  0.6773 -0.1332
 1654SOL    HW116424   4.708   0.792   7.039  2.1569  0.5887  1.1194
 1654SOL    HW216425   0.104   0.883   7.020 -0.4529  1.6061  0.6537
 1655SOL     OW16426   1.836   2.872   4.619  0.0327  1.0012  0.3171
 1655SOL    HW116427   1.923   2.857   4.655 -0.0330 -0.4878 -0.1403
 1655SOL    HW216428   1.810   2.961   4.641 -0.1903  1.3293 -1.2860
 1656SOL     OW16429   3.606   4.029   4.045  0.0261  0.8574 -0.1405
 1656SOL    HW116430   3.551   4.005   3.970 -0.3698 -2.4453  1.2407
 1656SOL    HW216431   3.693   4.001   4.017 -0.0038 -0.7287  1.3753
 1657SOL     OW16432   2.399   2.614   0.837  0.4176 -0.2448 -0.3608
 1657SOL    HW116433   2.444   2.535   0.865  1.1971  0.2061 -0.3455
 1657SOL    HW216434   2.471   2.676   0.825  2.6809 -2.6146  1.1208
 1658SOL     OW16435   0.782   0.273   8.787 -0.2270  0.0051  0.2693
 1658SOL    HW116436   0.696   0.312   8.772  0.7940  2.4498  0.7859
 1658SOL    HW216437   0.823   0.283   8.701  1.5244  0.9095  1.1983
 1659SOL     OW16438   2.190   2.933   3.854  0.4256 -0.3935  0.2773
 1659SOL    HW116439   2.155   2.882   3.780 -0.4762  0.0398  0.4070
 1659SOL    HW216440   2.282   2.943   3.829  0.4870  1.3321  1.1812
 1660SOL     OW16441   1.063   0.936  16.669 -0.5379  0.0794  0.2210
 1660SOL    HW116442   1.022   0.858  16.705 -0.1189  0.1002  0.7384
 1660SOL    HW216443   0.998   1.004  16.689 -1.0154 -0.5219  0.7079
 1661SOL     OW16444   0.594   0.048   6.559 -0.1399 -0.5005 -0.4151
 1661SOL    HW116445   0.680   0.031   6.521  0.1099  1.1890 -0.6223
 1661SOL    HW216446   0.587   4.699   6.623 -0.1288  0.2760  0.4312
 1662SOL     OW16447   1.614   2.553   4.840  0.4370 -0.0196  0.5259
 1662SOL    HW116448   1.547   2.501   4.797  0.6559  0.9032 -0.9134
 1662SOL    HW216449   1.607   2.640   4.801 -1.7304 -0.2895  0.3408
 1663SOL     OW16450   2.397   1.418   5.734 -0.3204  0.6428  0.2441
 1663SOL    HW116451   2.322   1.384   5.782 -0.0904 -2.2626 -1.4838
 1663SOL    HW216452   2.464   1.396   5.798 -2.2315 -1.0685  1.6667
 1664SOL     OW16453   2.347   0.488   9.070 -0.3518  0.1741 -0.1369
 1664SOL    HW116454   2.309   0.475   9.157  0.9206  2.4328  0.7673
 1664SOL    HW216455   2.422   0.541   9.096 -2.6429  2.4126  1.9024
 1665SOL     OW16456   2.806   0.896   7.381  0.4578  0.1023  0.5113
 1665SOL    HW116457   2.779   0.986   7.396  1.2051  0.5454 -0.7233
 1665SOL    HW216458   2.756   0.870   7.303 -0.2514  1.3929  0.5441
 1666SOL     OW16459   2.558   3.208   7.896  0.2363 -0.6315  0.0585
 1666SOL    HW116460   2.523   3.291   7.863  1.4566  0.9384  2.7488
 1666SOL    HW216461   2.479   3.157   7.915  0.2725 -0.8452 -0.3552
 1667SOL     OW16462   3.192   2.480  16.204  0.1741  0.2566 -0.2519
 1667SOL    HW116463   3.133   2.545  16.166 -0.3341 -0.8014 -1.2566
 1667SOL    HW216464   3.127   2.419  16.240  1.0600 -0.1805  0.6345
 1668SOL     OW16465   2.902   2.073   8.897 -0.3284 -0.1995 -0.6755
 1668SOL    HW116466   2.926   2.138   8.831 -2.5332 -2.2814 -3.5257
 1668SOL    HW216467   2.938   1.990   8.865 -1.5113 -0.9117 -0.1630
 1669SOL     OW16468   4.267   0.239  17.537 -0.0872  0.4848  0.1218
 1669SOL    HW116469   4.214   0.169  17.575 -0.4070  0.5309 -0.2443
 1669SOL    HW216470   4.194   0.281  17.493  0.7416  0.7797 -0.9599
 1670SOL     OW16471   2.811   0.344   4.339 -0.4981 -0.1812 -0.4171
 1670SOL    HW116472   2.805   0.249   4.346 -1.1188 -0.1138 -0.0669
 1670SOL    HW216473   2.783   0.363   4.249 -0.8307  0.0311 -0.2702
 1671SOL     OW16474   1.629   1.555   7.485  0.8053 -0.2782 -0.1071
 1671SOL    HW116475   1.688   1.484   7.459 -0.6972 -0.5025 -2.8771
 1671SOL    HW216476   1.608   1.534   7.576  1.1377 -3.2849 -0.7160
 1672SOL     OW16477   2.464   0.517   9.591 -0.3322 -0.1967  0.0876
 1672SOL    HW116478   2.453   0.451   9.523  0.3576  1.4606 -1.6267
 1672SOL    HW216479   2.523   0.582   9.553  0.1173 -1.1294 -0.7868
 1673SOL     OW16480   4.409   2.022   4.766 -0.0415  0.2224  0.1778
 1673SOL    HW116481   4.381   1.994   4.853  3.3785 -1.2326  0.8195
 1673SOL    HW216482   4.494   2.059   4.792 -0.2262 -0.2101  1.3951
 1674SOL     OW16483   1.260   0.214  17.678  0.4927 -0.0347  0.8712
 1674SOL    HW116484   1.184   0.269   0.007  0.2153 -0.0076 -0.5111
 1674SOL    HW216485   1.269   0.219  17.583 -1.0618 -2.4695  0.5919
 1675SOL     OW16486   2.476   0.586  17.326 -0.0894  0.5537 -0.0476
 1675SOL    HW116487   2.533   0.552  17.258 -2.5228 -1.0859 -1.2740
 1675SOL    HW216488   2.438   0.505  17.359 -1.4209  1.9256  1.8184
 1676SOL     OW16489   0.643   3.422  11.725 -0.0225  0.2944  0.1703
 1676SOL    HW116490   0.602   3.353  11.672 -5.0560  3.2933  0.1804
 1676SOL    HW216491   0.577   3.433  11.793 -0.3310 -0.5078  0.0014
 1677SOL     OW16492   4.119   2.400  13.210 -0.2645  0.0344  0.2994
 1677SOL    HW116493   4.095   2.456  13.136  0.0462 -0.0482  0.1349
 1677SOL    HW216494   4.140   2.459  13.283  2.3817 -0.5585  0.0019
 1678SOL     OW16495   1.722   0.788  14.818 -0.2811  0.2514  0.2322
 1678SOL    HW116496   1.686   0.700  14.828  0.6528 -0.0920  0.5558
 1678SOL    HW216497   1.644   0.842  14.828 -1.3325 -0.8867 -1.7235
 1679SOL     OW16498   2.448   0.235   3.633  0.6408 -0.2580  0.2908
 1679SOL    HW116499   2.389   0.260   3.561 -1.0656 -0.9902  1.4425
 1679SOL    HW216500   2.436   0.140   3.638 -0.4005 -0.1594 -0.3802
 1680SOL     OW16501   1.396   1.235   8.530 -0.0293 -0.0934 -0.0957
 1680SOL    HW116502   1.429   1.147   8.547  0.8354  0.5622  1.5587
 1680SOL    HW216503   1.418   1.280   8.612  0.5886  1.1174 -0.9291
 1681SOL     OW16504   3.700   1.767  11.463 -0.3378  0.2144  0.0046
 1681SOL    HW116505   3.727   1.739  11.376 -0.8081  2.3522 -0.8204
 1681SOL    HW216506   3.761   1.727  11.524  0.1458 -0.0470 -0.6576
 1682SOL     OW16507   2.078   3.414   6.085 -0.4756 -0.0019  0.4292
 1682SOL    HW116508   1.995   3.445   6.049  0.3092  1.3273 -0.2286
 1682SOL    HW216509   2.135   3.491   6.078 -0.6031  0.1618  1.2790
 1683SOL     OW16510   3.340   4.124   1.983 -0.0115 -0.1015  0.2703
 1683SOL    HW116511   3.420   4.144   1.933 -0.4262  1.5433  0.2671
 1683SOL    HW216512   3.326   4.209   2.024 -3.4968 -0.9513  0.8149
 1684SOL     OW16513   4.234   2.259   6.845  0.2526 -0.0092  0.1212
 1684SOL    HW116514   4.224   2.293   6.934  0.3162 -0.8252  0.4369
 1684SOL    HW216515   4.147   2.227   6.823  0.6574 -1.5226  0.6944
 1685SOL     OW16516   2.946   0.763   9.115  0.1927  0.1159 -0.3098
 1685SOL    HW116517   2.938   0.789   9.207 -2.3823  1.8347 -1.0060
 1685SOL    HW216518   3.040   0.765   9.100  0.2106 -1.8890 -0.5484
 1686SOL     OW16519   1.164   4.116   8.134 -0.3112  0.0361 -1.0313
 1686SOL    HW116520   1.149   4.121   8.039  3.7021 -0.5995 -1.6688
 1686SOL    HW216521   1.119   4.036   8.162  1.6059 -0.8480 -0.5076
 1687SOL     OW16522   1.402   1.990   4.855  0.1953 -0.0142 -0.5078
 1687SOL    HW116523   1.381   1.932   4.782 -0.6432 -0.0525 -0.2369
 1687SOL    HW216524   1.326   1.977   4.912  0.6475  0.6201  0.2495
 1688SOL     OW16525   1.354   3.628   5.766  0.3536  0.1140  0.0415
 1688SOL    HW116526   1.422   3.688   5.797  2.1740 -2.3653  0.7639
 1688SOL    HW216527   1.275   3.669   5.801 -1.2604 -4.1056  1.3641
 1689SOL     OW16528   2.096   1.977   9.019  0.6101  0.4111 -0.4574
 1689SOL    HW116529   2.184   1.989   9.054  0.3944  0.0916  0.1972
 1689SOL    HW216530   2.080   2.067   8.990  0.0503 -0.3163 -2.4109
 1690SOL     OW16531   1.473   0.930  14.832 -0.7178 -0.0509 -0.4866
 1690SOL    HW116532   1.429   0.846  14.823  0.1818 -0.6734  0.9841
 1690SOL    HW216533   1.402   0.991  14.811 -1.9869 -1.4824 -0.2937
 1691SOL     OW16534   3.102   2.484  11.345  0.4030 -0.5408 -0.0483
 1691SOL    HW116535   3.154   2.564  11.338 -1.3198  0.5708 -0.1612
 1691SOL    HW216536   3.166   2.418  11.372  2.0654  0.5061 -1.4701
 1692SOL     OW16537   2.925   3.425   3.720 -0.2241 -0.5144 -0.3755
 1692SOL    HW116538   2.975   3.345   3.735 -0.1099 -0.0912  1.4745
 1692SOL    HW216539   2.846   3.397   3.673 -1.0114  0.0540  0.6032
 1693SOL     OW16540   1.382   0.477  15.464  0.7505  0.2170 -0.0617
 1693SOL    HW116541   1.454   0.533  15.493 -1.0564  1.3170  2.2282
 1693SOL    HW216542   1.427   0.417  15.404  0.0482  0.2007 -0.5728
 1694SOL     OW16543   1.085   0.801  10.928  0.0834 -0.1968  0.4401
 1694SOL    HW116544   1.145   0.802  11.002 -0.8148 -0.9100  1.1708
 1694SOL    HW216545   1.138   0.765  10.856 -1.6313 -0.8413 -0.5253
 1695SOL     OW16546   4.153   3.667   8.342 -0.2261  0.3406  0.5437
 1695SOL    HW116547   4.066   3.655   8.304  0.4163  0.6248 -1.0637
 1695SOL    HW216548   4.185   3.733   8.280 -0.4071  1.0445  1.2002
 1696SOL     OW16549   1.750   3.294  13.174 -0.2895 -0.4819  0.4666
 1696SOL    HW116550   1.663   3.275  13.210 -0.3643  0.9915  1.0607
 1696SOL    HW216551   1.769   3.213  13.127  0.1074  0.6350 -1.3147
 1697SOL     OW16552   1.160   3.407   1.211  0.5543 -0.5877  0.9811
 1697SOL    HW116553   1.107   3.464   1.267  1.4725  0.1279  1.1352
 1697SOL    HW216554   1.174   3.334   1.271 -2.2127 -0.3169  1.9346
 1698SOL     OW16555   4.680   3.585   6.546  0.3349 -0.3616 -0.1206
 1698SOL    HW116556   4.597   3.551   6.581 -0.1714  1.0676  0.0535
 1698SOL    HW216557   4.680   3.673   6.584  0.3494 -2.0885  3.8853
 1699SOL     OW16558   4.613   2.535   3.265 -0.5258 -0.3117  0.4789
 1699SOL    HW116559   4.630   2.490   3.348 -1.9092  0.8570  1.4082
 1699SOL    HW216560   4.533   2.492   3.234 -1.1366  1.2838 -0.1776
 1700SOL     OW16561   3.463   2.893   8.358 -0.3271 -0.6086 -0.3820
 1700SOL    HW116562   3.447   2.798   8.355  0.2128 -0.6957 -0.5008
 1700SOL    HW216563   3.423   2.912   8.443 -0.1606  0.3948 -0.5329
 1701SOL     OW16564   1.902   2.408  12.450  0.3107 -0.2386  0.5043
 1701SOL    HW116565   1.890   2.447  12.536  2.2749  1.0823  0.1710
 1701SOL    HW216566   1.909   2.491  12.403 -2.2360  0.3739  1.2154
 1702SOL     OW16567   2.406   0.865   6.520  0.2654  0.1214 -0.0900
 1702SOL    HW116568   2.501   0.863   6.532  0.2732 -1.9731 -0.5238
 1702SOL    HW216569   2.389   0.948   6.564 -0.3144 -0.5587  0.9949
 1703SOL     OW16570   0.657   2.588   7.501  0.4401  0.3379  0.6011
 1703SOL    HW116571   0.655   2.684   7.497  2.4492  0.2853 -2.1327
 1703SOL    HW216572   0.740   2.561   7.460  1.4024  0.9577  2.1241
 1704SOL     OW16573   3.386   1.280   4.539 -0.2826 -0.4042  0.4479
 1704SOL    HW116574   3.311   1.326   4.499  0.5768  1.4760  0.9695
 1704SOL    HW216575   3.442   1.358   4.536 -0.1826 -0.5920 -3.2301
 1705SOL     OW16576   4.559   2.763   2.608 -0.0737 -0.8103  0.6977
 1705SOL    HW116577   4.489   2.705   2.580 -1.8919  1.9063 -0.4708
 1705SOL    HW216578   4.515   2.810   2.679 -1.9027  0.5268 -1.3326
 1706SOL     OW16579   4.388   1.617  15.250  0.4096  0.4290 -0.4221
 1706SOL    HW116580   4.309   1.671  15.239  0.3000  0.3856  0.1230
 1706SOL    HW216581   4.435   1.618  15.167 -3.0220 -0.8876 -2.4029
 1707SOL     OW16582   3.785   0.399   6.281 -0.1203  0.2853  0.4733
 1707SOL    HW116583   3.838   0.478   6.286 -0.0746  0.2353  0.7869
 1707SOL    HW216584   3.833   0.352   6.213 -0.4911  0.9017 -0.2106
 1708SOL     OW16585   1.538   1.769  16.381 -0.1703  0.6733  0.0684
 1708SOL    HW116586   1.559   1.850  16.428 -0.1069  0.2752  0.7285
 1708SOL    HW216587   1.483   1.725  16.445 -0.3117  1.4672  0.4837
 1709SOL     OW16588   2.494   0.925   5.706 -0.0726  0.1622 -0.6499
 1709SOL    HW116589   2.571   0.978   5.729 -0.1405 -0.1885  0.3761
 1709SOL    HW216590   2.533   0.852   5.659  2.0241  1.8592 -1.5386
 1710SOL     OW16591   3.039   4.432   3.845  0.4056 -0.1750 -0.1571
 1710SOL    HW116592   2.946   4.410   3.841  0.3084 -0.3389  3.3112
 1710SOL    HW216593   3.078   4.344   3.846  0.8374  0.0420  1.6414
 1711SOL     OW16594   4.204   1.422   6.082  0.1705  0.1988  0.6588
 1711SOL    HW116595   4.152   1.346   6.056 -0.2244  0.1132  1.6888
 1711SOL    HW216596   4.141   1.489   6.055  0.2888  0.5130  1.1612
 1712SOL     OW16597   3.749   0.079   0.760 -0.2546 -0.4246 -0.8381
 1712SOL    HW116598   3.691   0.031   0.818 -1.8991  2.4677 -0.0751
 1712SOL    HW216599   3.683   0.128   0.711  0.6735  0.1629 -1.5112
 1713SOL     OW16600   1.660   1.975   6.564  0.4251 -0.4647 -0.6935
 1713SOL    HW116601   1.628   1.942   6.649  0.3771  0.0623 -0.5075
 1713SOL    HW216602   1.665   2.070   6.567 -0.1145 -0.3927 -2.3609
 1714SOL     OW16603   0.001   2.939  13.195 -0.9772 -0.0885  0.7330
 1714SOL    HW116604   0.045   2.866  13.150  0.3784  0.0534  1.8015
 1714SOL    HW216605   0.075   3.000  13.201  0.9983 -2.3613 -0.2841
 1715SOL     OW16606   0.870   4.618   2.722  0.5497  0.0783  0.2325
 1715SOL    HW116607   0.952   4.667   2.722 -0.0158  1.0331  1.6963
 1715SOL    HW216608   0.867   4.609   2.818  0.2404  1.5536  0.3509
 1716SOL     OW16609   4.687   4.572   6.010 -0.0793 -0.4782  0.1126
 1716SOL    HW116610   0.040   4.526   6.050  1.1795  1.3587 -0.0608
 1716SOL    HW216611   4.673   4.533   5.924 -0.0915 -2.5994  1.0793
 1717SOL     OW16612   1.581   4.554   7.252 -0.2434  0.7372  0.4144
 1717SOL    HW116613   1.597   4.611   7.327 -0.0618  2.2651 -0.7809
 1717SOL    HW216614   1.662   4.564   7.201  0.4752 -1.7673  1.0160
 1718SOL     OW16615   0.098   2.646  10.312 -0.0509 -0.3047  0.2276
 1718SOL    HW116616   0.077   2.553  10.321  2.9385 -0.8797  1.1353
 1718SOL    HW216617   0.043   2.695  10.373 -1.3620 -1.1076 -0.3201
 1719SOL     OW16618   2.044   2.989   1.604 -0.0979 -0.1070 -0.1633
 1719SOL    HW116619   2.138   2.982   1.626 -0.3472 -0.7780  0.7161
 1719SOL    HW216620   2.043   2.972   1.510  0.6947 -2.2096  0.1919
 1720SOL     OW16621   2.837   3.158   5.438 -0.3306 -0.2253 -0.3412
 1720SOL    HW116622   2.811   3.067   5.446  0.0309 -0.1928  1.3094
 1720SOL    HW216623   2.755   3.208   5.433  2.1702  4.1216  1.9224
 1721SOL     OW16624   4.593   0.999   1.848 -0.1441 -0.0425 -0.0979
 1721SOL    HW116625   4.653   0.950   1.792  0.7814  0.5347  0.3768
 1721SOL    HW216626   4.584   0.960   1.935  0.4800 -0.0779 -0.0456
 1722SOL     OW16627   1.265   2.685   9.185 -0.3630 -0.3158  0.7424
 1722SOL    HW116628   1.209   2.629   9.239  0.3401 -0.2392  1.5403
 1722SOL    HW216629   1.243   2.656   9.096  0.3113  2.3605 -0.3013
 1723SOL     OW16630   0.805   3.505   0.869 -1.2677 -0.1321 -0.3826
 1723SOL    HW116631   0.775   3.585   0.824 -4.6765 -1.5451 -0.5879
 1723SOL    HW216632   0.751   3.439   0.826  0.7685 -1.7698 -0.3823
 1724SOL     OW16633   4.225   1.978   6.660  0.4245  0.2311 -0.2247
 1724SOL    HW116634   4.268   2.026   6.590  0.2721  1.1914  0.3325
 1724SOL    HW216635   4.141   1.962   6.618  0.1020  0.8479  0.1848
 1725SOL     OW16636   0.873   2.136   8.591 -0.1261 -0.6214  0.2746
 1725SOL    HW116637   0.959   2.160   8.555 -1.3306  1.3900 -1.2927
 1725SOL    HW216638   0.846   2.060   8.540 -0.6191  0.9571 -1.8230
 1726SOL     OW16639   1.634   1.844  15.422  0.9520 -0.3689  0.4584
 1726SOL    HW116640   1.542   1.844  15.395  0.1539 -0.4001  3.1925
 1726SOL    HW216641   1.631   1.928  15.468 -0.4158 -0.2577  0.1827
 1727SOL     OW16642   1.126   3.633  13.150 -0.4219  0.4468  0.2582
 1727SOL    HW116643   1.199   3.606  13.205 -0.8330 -1.7940 -0.3002
 1727SOL    HW216644   1.094   3.552  13.111  1.9505  0.1354 -1.1067
 1728SOL     OW16645   1.215   1.868   9.432 -0.1961  0.0652  0.1218
 1728SOL    HW116646   1.236   1.916   9.512 -3.9179 -0.9307  1.6660
 1728SOL    HW216647   1.143   1.813   9.462  0.1640  0.6894  2.1338
 1729SOL     OW16648   3.333   2.070   7.530  0.6821 -0.1995  0.1626
 1729SOL    HW116649   3.355   2.161   7.510 -0.1799 -0.0986 -0.3546
 1729SOL    HW216650   3.352   2.056   7.623 -2.9161  1.1008  1.1186
 1730SOL     OW16651   1.953   0.660   7.767 -0.2895 -0.5386  0.2353
 1730SOL    HW116652   2.004   0.711   7.704  0.4746  0.1070  1.3682
 1730SOL    HW216653   1.871   0.629   7.730 -1.3007  1.1706  1.0372
 1731SOL     OW16654   4.443   4.383   7.489  0.1228 -0.2884  0.1020
 1731SOL    HW116655   4.433   4.478   7.501  2.2881 -0.2361  1.4398
 1731SOL    HW216656   4.427   4.369   7.395 -1.0111  0.1268  0.2314
 1732SOL     OW16657   0.335   1.402   0.714  0.0104  0.4704 -0.1741
 1732SOL    HW116658   0.323   1.465   0.785  1.3127  0.1838  0.2997
 1732SOL    HW216659   0.404   1.448   0.667 -0.6274  2.1431  0.5401
 1733SOL     OW16660   1.772   4.412   3.315 -0.6630  0.1870 -0.1433
 1733SOL    HW116661   1.714   4.336   3.311 -0.9560  0.4066 -0.0730
 1733SOL    HW216662   1.764   4.434   3.408  0.9305  2.5222 -0.5531
 1734SOL     OW16663   4.507   1.126   5.410  0.1770 -0.0385  0.2034
 1734SOL    HW116664   4.505   1.061   5.481 -1.2546  0.4627  0.6335
 1734SOL    HW216665   4.475   1.209   5.445  0.8120  0.1817  0.2560
 1735SOL     OW16666   1.900   4.228   5.438 -0.7067  0.0401  0.2936
 1735SOL    HW116667   1.816   4.185   5.422 -0.3266 -0.2844 -0.8268
 1735SOL    HW216668   1.909   4.186   5.523  1.3002  0.3273  0.2266
 1736SOL     OW16669   3.329   3.355   2.432  0.0136 -0.3841  0.5910
 1736SOL    HW116670   3.374   3.439   2.429 -2.2268  0.7116 -1.9118
 1736SOL    HW216671   3.379   3.307   2.366 -1.2606  0.6260 -1.1065
 1737SOL     OW16672   0.630   3.901   8.611 -0.6146  0.0139  0.5008
 1737SOL    HW116673   0.595   3.830   8.664 -0.5069 -0.9721 -0.7608
 1737SOL    HW216674   0.715   3.911   8.654  0.4174  0.4998 -1.6729
 1738SOL     OW16675   1.679   2.630   6.748  0.4652  0.5474 -0.4744
 1738SOL    HW116676   1.646   2.704   6.697 -1.4708 -0.5151 -0.7434
 1738SOL    HW216677   1.650   2.555   6.696 -1.3465  0.2892  0.9286
 1739SOL     OW16678   2.481   1.812   1.770 -0.7493 -0.3540  0.1227
 1739SOL    HW116679   2.571   1.809   1.740 -0.2062  2.4141  1.5254
 1739SOL    HW216680   2.443   1.743   1.714 -0.7219 -0.0418 -0.2786
 1740SOL     OW16681   1.944   2.106   9.384 -0.6449 -0.8820 -0.7027
 1740SOL    HW116682   1.989   2.076   9.463 -0.8399 -1.3097 -0.7529
 1740SOL    HW216683   1.920   2.023   9.344 -1.5925 -0.6693 -0.5744
 1741SOL     OW16684   1.814   0.663   6.243 -0.0356  0.2929 -0.1395
 1741SOL    HW116685   1.802   0.750   6.205  3.8797  0.2696 -1.3859
 1741SOL    HW216686   1.810   0.617   6.160  0.2268 -0.3773  0.2235
 1742SOL     OW16687   1.618   4.322   5.787 -0.5244 -0.1840 -0.3849
 1742SOL    HW116688   1.663   4.389   5.735 -0.7190 -1.2333 -1.9129
 1742SOL    HW216689   1.569   4.377   5.848 -0.1328 -1.4398  1.0490
 1743SOL     OW16690   3.838   1.036   8.424 -0.3741  0.0699  0.7418
 1743SOL    HW116691   3.854   1.017   8.331  3.9039 -1.6430  1.8330
 1743SOL    HW216692   3.742   1.041   8.425 -0.3999 -0.0818 -0.9590
 1744SOL     OW16693   3.161   0.192   0.011 -0.1327  0.1848  0.9043
 1744SOL    HW116694   3.227   0.158  17.638  0.6132  0.5780  1.5073
 1744SOL    HW216695   3.139   0.108   0.049 -0.4912 -0.6874 -1.2005
 1745SOL     OW16696   2.130   1.183   6.793  0.0978 -0.3911  0.2213
 1745SOL    HW116697   2.178   1.140   6.723  1.2280 -1.7525  1.8201
 1745SOL    HW216698   2.186   1.258   6.811  1.8082 -1.8559  0.9501
 1746SOL     OW16699   2.844   2.174  12.176 -0.5021 -0.3573  0.2050
 1746SOL    HW116700   2.790   2.112  12.127 -0.8169  1.1979 -1.4005
 1746SOL    HW216701   2.859   2.234  12.103 -0.4576  0.5972  1.0110
 1747SOL     OW16702   2.802   0.440   1.805 -0.9691  0.0630 -0.2124
 1747SOL    HW116703   2.857   0.471   1.734  0.4921  0.2273  1.0106
 1747SOL    HW216704   2.730   0.503   1.797  0.5342  1.5372 -2.0892
 1748SOL     OW16705   0.498   1.890   7.773  0.0221  0.7401  0.2097
 1748SOL    HW116706   0.547   1.865   7.694 -0.7728  1.0289 -0.3706
 1748SOL    HW216707   0.551   1.843   7.838 -0.6176 -1.4101 -0.8240
 1749SOL     OW16708   4.504   0.962   4.698 -0.1487 -0.3497 -0.8537
 1749SOL    HW116709   4.517   0.973   4.792  0.7638  0.2971 -1.0622
 1749SOL    HW216710   4.430   0.901   4.690 -0.9463  0.2488  2.0118
 1750SOL     OW16711   2.760   3.645   1.961  0.8242  0.0953 -0.2496
 1750SOL    HW116712   2.849   3.680   1.973  0.9478 -0.5620  0.8059
 1750SOL    HW216713   2.787   3.575   1.903  2.3178  1.8074 -1.6201
 1751SOL     OW16714   1.009   4.345   8.204 -0.4240 -0.0714 -0.0032
 1751SOL    HW116715   0.967   4.355   8.119  0.5533  0.7615 -0.3841
 1751SOL    HW216716   1.067   4.272   8.184  0.5052  0.1718  1.7750
 1752SOL     OW16717   1.109   3.792   3.940  0.1401 -0.3440 -0.1448
 1752SOL    HW116718   1.031   3.758   3.983  0.7335 -0.3335  0.9418
 1752SOL    HW216719   1.171   3.732   3.982  0.1786  1.0006  1.7032
 1753SOL     OW16720   0.029   2.406   6.078 -0.4111 -0.0988 -0.0405
 1753SOL    HW116721   4.662   2.423   6.109 -0.4173 -1.3968  0.6535
 1753SOL    HW216722   0.038   2.471   6.009 -3.5226  0.3086 -0.0313
 1754SOL     OW16723   0.549   0.221   2.475  0.2355  0.0500  0.2135
 1754SOL    HW116724   0.603   0.220   2.555  1.9986 -1.2401 -1.0121
 1754SOL    HW216725   0.485   0.286   2.504  0.4542  0.3527  0.0201
 1755SOL     OW16726   4.380   3.418   8.818 -0.0482  0.2363 -0.0491
 1755SOL    HW116727   4.436   3.487   8.782  0.5507 -1.8373 -3.1017
 1755SOL    HW216728   4.293   3.457   8.815  0.3901  1.2487  0.3870
 1756SOL     OW16729   3.018   3.638  15.578  0.0683  0.7369  0.1505
 1756SOL    HW116730   2.931   3.661  15.546 -0.5190 -1.4750  0.1800
 1756SOL    HW216731   3.042   3.730  15.583  0.5655  0.6470 -0.6710
 1757SOL     OW16732   3.344   4.517   6.057  0.0754  0.2411 -0.0967
 1757SOL    HW116733   3.276   4.464   6.099 -0.6163 -0.9320 -2.7387
 1757SOL    HW216734   3.312   4.520   5.967  1.4377  1.7411 -0.5281
 1758SOL     OW16735   3.754   2.812  11.945  0.2217 -0.2603 -0.0421
 1758SOL    HW116736   3.719   2.894  11.980  1.4006 -0.5272  1.7795
 1758SOL    HW216737   3.849   2.813  11.960  0.3058  3.9339 -0.9093
 1759SOL     OW16738   1.769   0.408   8.962  0.0344  0.0466  0.7197
 1759SOL    HW116739   1.852   0.448   8.937  0.1130 -0.6251 -0.0849
 1759SOL    HW216740   1.796   0.317   8.973 -0.1013 -0.5746 -4.1120
 1760SOL     OW16741   0.273   0.663  15.975  0.0404  0.3339  0.4980
 1760SOL    HW116742   0.234   0.697  16.056  0.5642  0.0606  0.8640
 1760SOL    HW216743   0.208   0.602  15.940 -0.6593  0.7669  1.0343
 1761SOL     OW16744   2.882   0.228   0.353  0.4677  0.0063  0.4289
 1761SOL    HW116745   2.922   0.153   0.309 -1.2333 -0.8491  0.3247
 1761SOL    HW216746   2.831   0.179   0.417 -1.6474  0.8965 -0.5613
 1762SOL     OW16747   3.615   1.141   8.783  0.1308 -0.0676 -0.0081
 1762SOL    HW116748   3.703   1.151   8.819 -1.1464  0.7535  2.9195
 1762SOL    HW216749   3.611   1.219   8.728 -0.1767 -0.8641 -1.1112
 1763SOL     OW16750   1.578   1.639  10.212 -0.1128 -0.0696  0.1719
 1763SOL    HW116751   1.627   1.606  10.288  3.0887 -0.5754 -2.1151
 1763SOL    HW216752   1.520   1.568  10.186  0.3526 -0.8542  1.3045
 1764SOL     OW16753   3.030   0.734   8.796 -0.6712  0.2685  0.8292
 1764SOL    HW116754   2.937   0.747   8.817 -1.4666  1.6734 -3.6757
 1764SOL    HW216755   3.053   0.691   8.879 -0.8697 -1.7527 -0.1575
 1765SOL     OW16756   1.575   3.205   6.526 -0.4335  0.2981  0.2793
 1765SOL    HW116757   1.619   3.213   6.442 -1.7952 -0.6934 -0.5388
 1765SOL    HW216758   1.639   3.251   6.581  1.8222 -0.9517 -1.3289
 1766SOL     OW16759   1.331   1.614   1.853  0.6373  0.0665 -0.1141
 1766SOL    HW116760   1.404   1.566   1.816  0.4451 -0.3524  0.0439
 1766SOL    HW216761   1.267   1.543   1.861  1.8318 -1.0668 -0.7324
 1767SOL     OW16762   0.747   2.206   9.087  0.0149 -0.1048 -0.4737
 1767SOL    HW116763   0.834   2.243   9.077  0.7744 -2.5329 -2.9509
 1767SOL    HW216764   0.726   2.182   8.997 -2.4075  0.2878 -0.0235
 1768SOL     OW16765   4.421   2.275  11.407 -0.2113 -0.1945 -0.2751
 1768SOL    HW116766   4.510   2.248  11.384  0.1209  0.9076 -0.3090
 1768SOL    HW216767   4.384   2.243  11.324  0.3112 -3.6026  0.8251
 1769SOL     OW16768   2.147   4.067   0.085 -0.2418  0.1951  0.5759
 1769SOL    HW116769   2.139   4.080  17.678 -2.0265 -1.3452  0.5014
 1769SOL    HW216770   2.162   3.972   0.085 -0.7582  0.1139  0.7126
 1770SOL     OW16771   3.308   3.774  11.718  0.3799 -0.3779 -0.1058
 1770SOL    HW116772   3.358   3.698  11.750 -1.2341 -1.7278 -0.7820
 1770SOL    HW216773   3.288   3.735  11.633 -3.8845 -2.0526  1.6442
 1771SOL     OW16774   3.672   3.390   8.837 -0.4626 -0.4574  0.0371
 1771SOL    HW116775   3.578   3.373   8.848 -0.3606 -0.9067  0.2263
 1771SOL    HW216776   3.680   3.406   8.743  1.5405 -0.6423  0.1766
 1772SOL     OW16777   2.150   1.522   7.061 -0.2091 -0.1988 -0.3681
 1772SOL    HW116778   2.189   1.582   7.125  1.2791 -1.4278 -0.1138
 1772SOL    HW216779   2.201   1.536   6.981 -0.5445 -0.0423 -0.5542
 1773SOL     OW16780   3.642   0.751   2.568  0.1979  0.1745 -0.3231
 1773SOL    HW116781   3.559   0.726   2.610 -0.0497 -1.6297 -1.8690
 1773SOL    HW216782   3.695   0.796   2.634 -0.8910  0.8285  0.1068
 1774SOL     OW16783   0.930   3.185  11.070  0.1987  0.0385 -0.0365
 1774SOL    HW116784   1.018   3.147  11.074  0.8919  1.8355  1.6129
 1774SOL    HW216785   0.928   3.215  10.979 -2.4238 -1.9121 -0.6219
 1775SOL     OW16786   2.882   1.688   2.778  0.3457  0.4517  0.1201
 1775SOL    HW116787   2.794   1.653   2.762  0.2989  0.9255 -0.6266
 1775SOL    HW216788   2.935   1.689   2.699 -2.2113 -1.4402 -1.6157
 1776SOL     OW16789   4.138   1.002   2.701 -0.5902 -0.4938 -1.1425
 1776SOL    HW116790   4.055   1.006   2.655 -1.2411  2.1400  0.2729
 1776SOL    HW216791   4.166   0.915   2.673 -0.6338 -0.8554 -0.0726
 1777SOL     OW16792   3.800   4.573   4.539 -0.3598  0.3737 -1.5584
 1777SOL    HW116793   3.737   4.504   4.518 -0.4493 -0.4416  1.5337
 1777SOL    HW216794   3.808   4.625   4.459 -1.1977  0.0687 -1.8492
 1778SOL     OW16795   0.044   1.982   2.631  0.0840  0.4103  0.2736
 1778SOL    HW116796   4.699   1.913   2.631  0.1542  0.3464  1.7914
 1778SOL    HW216797   0.070   1.994   2.539  3.2227  1.8269  1.3579
 1779SOL     OW16798   3.196   3.191  10.924 -0.5048  0.5614 -0.1966
 1779SOL    HW116799   3.224   3.268  10.974 -0.6343 -0.0330  0.7715
 1779SOL    HW216800   3.105   3.183  10.953 -0.7555  1.8094 -0.6185
 1780SOL     OW16801   1.661   1.660   1.762 -0.2027 -0.1230 -0.1728
 1780SOL    HW116802   1.747   1.626   1.737 -0.6620  0.5693 -2.7180
 1780SOL    HW216803   1.624   1.572   1.763  0.9264 -0.5678  1.4337
 1781SOL     OW16804   1.078   2.615   6.272 -0.3770  0.2771  0.1416
 1781SOL    HW116805   1.138   2.551   6.234 -0.0765 -1.3226  3.2484
 1781SOL    HW216806   1.018   2.640   6.202  0.6297 -0.3224 -0.9332
 1782SOL     OW16807   1.784   0.139   2.834 -0.0412 -0.0995  0.3091
 1782SOL    HW116808   1.869   0.096   2.832 -0.2367 -0.5624  1.7197
 1782SOL    HW216809   1.786   0.195   2.911 -0.2066  1.1821 -0.6326
 1783SOL     OW16810   4.372   4.510   6.356  1.1722  0.5027 -0.5537
 1783SOL    HW116811   4.317   4.480   6.284 -0.7451  3.7879 -0.4323
 1783SOL    HW216812   4.439   4.562   6.311  0.4671 -0.4007 -2.6507
 1784SOL     OW16813   3.029   2.352   7.584 -0.1578  0.0930  0.3844
 1784SOL    HW116814   2.950   2.316   7.545 -0.2337 -2.0076  2.4547
 1784SOL    HW216815   3.009   2.445   7.596 -1.6077  0.0892 -1.9702
 1785SOL     OW16816   0.617   2.204   8.566 -0.0043 -0.1598 -0.2912
 1785SOL    HW116817   0.702   2.211   8.524 -1.0617  0.6494 -2.3005
 1785SOL    HW216818   0.569   2.265   8.510  0.4835  1.3022  0.8790
 1786SOL     OW16819   0.133   2.556   4.826  0.0229  0.0232 -0.0283
 1786SOL    HW116820   0.164   2.629   4.772  0.5022  0.4669  0.8527
 1786SOL    HW216821   0.200   2.492   4.804  0.5989  0.3883  0.6754
 1787SOL     OW16822   3.351   3.660   5.714 -0.0707 -0.3639  0.2370
 1787SOL    HW116823   3.366   3.621   5.628 -0.5820 -0.2267  0.0829
 1787SOL    HW216824   3.319   3.746   5.685  0.1594 -0.1629  0.5659
 1788SOL     OW16825   2.731   1.163   7.435  0.3277  0.0867 -0.1811
 1788SOL    HW116826   2.646   1.179   7.477  0.2592  0.0706 -0.3163
 1788SOL    HW216827   2.714   1.200   7.349  1.6187  0.0071 -0.4680
 1789SOL     OW16828   1.029   1.939  16.718 -0.2050 -0.7573  0.3783
 1789SOL    HW116829   1.077   1.930  16.635 -1.6267  0.8262 -0.6145
 1789SOL    HW216830   1.091   1.895  16.776  0.9669  1.2049  0.5980
 1790SOL     OW16831   3.607   1.168  14.932  0.1790  0.0999 -0.6163
 1790SOL    HW116832   3.686   1.137  14.976 -0.3540  1.0852  1.0152
 1790SOL    HW216833   3.543   1.098  14.948  0.6561  0.4525  2.8596
 1791SOL     OW16834   1.646   0.938   3.216  0.4390  0.7503 -0.1506
 1791SOL    HW116835   1.646   0.843   3.223  0.7298  0.6671 -1.2035
 1791SOL    HW216836   1.580   0.958   3.149 -1.7819 -0.6597  1.6329
 1792SOL     OW16837   2.456   4.181   7.143  0.3224 -0.5329  0.0816
 1792SOL    HW116838   2.411   4.101   7.117 -0.6686 -0.7228  2.3208
 1792SOL    HW216839   2.547   4.155   7.131  0.5975  0.4891  0.0071
 1793SOL     OW16840   1.692   1.096   4.033  0.3686  0.4891  0.3680
 1793SOL    HW116841   1.651   1.040   3.967 -2.4578  0.3926  2.1998
 1793SOL    HW216842   1.731   1.169   3.985  0.3547 -0.0043 -0.3921
 1794SOL     OW16843   0.963   1.651   4.755  0.1273 -0.2596  0.3912
 1794SOL    HW116844   1.004   1.586   4.698  3.0991  2.9966 -1.1695
 1794SOL    HW216845   0.878   1.609   4.768 -0.0652 -0.1858 -0.6776
 1795SOL     OW16846   1.664   2.215   6.423  0.3226 -0.0235 -0.0691
 1795SOL    HW116847   1.739   2.193   6.368  1.5786  1.8020  0.9129
 1795SOL    HW216848   1.591   2.195   6.364 -1.3961 -2.3788  2.7965
 1796SOL     OW16849   1.408   0.959   8.561  0.3936  0.0097  0.2695
 1796SOL    HW116850   1.393   0.899   8.488  0.7141  0.2165  0.0307
 1796SOL    HW216851   1.322   0.951   8.601  0.7757 -0.8596  0.9326
 1797SOL     OW16852   3.034   2.871   9.386  0.1823 -0.3373  0.3206
 1797SOL    HW116853   3.088   2.924   9.443  0.6548 -0.3266 -0.1389
 1797SOL    HW216854   3.060   2.781   9.407  1.8790 -0.0150 -0.3804
 1798SOL     OW16855   1.704   3.291   0.008 -0.3833  0.6025  0.0096
 1798SOL    HW116856   1.660   3.214   0.044  2.1088  0.8200  3.5217
 1798SOL    HW216857   1.670   3.357   0.068  0.4637 -1.1150  2.3835
 1799SOL     OW16858   2.535   3.711   4.004 -0.0467  0.1700 -0.1536
 1799SOL    HW116859   2.450   3.752   4.022 -0.3726 -0.2600 -0.7189
 1799SOL    HW216860   2.513   3.628   3.962  1.0936 -0.6608  0.9274
 1800SOL     OW16861   1.754   3.125   4.637 -0.1077  0.0387 -0.3711
 1800SOL    HW116862   1.663   3.127   4.664  0.5026  3.1706  1.5394
 1800SOL    HW216863   1.792   3.196   4.689  0.7383  0.2505 -1.2709
 1801SOL     OW16864   0.599   3.966   7.183  0.2000 -0.8540 -0.5385
 1801SOL    HW116865   0.620   3.935   7.094  0.2602  1.2915 -1.2809
 1801SOL    HW216866   0.638   4.054   7.189 -1.3754 -0.0441 -1.9392
 1802SOL     OW16867   3.281   4.340   7.765  0.3642 -0.3388  0.1501
 1802SOL    HW116868   3.225   4.368   7.692  0.3835 -0.5963  0.0366
 1802SOL    HW216869   3.235   4.270   7.809  0.8023  0.5888  2.0688
 1803SOL     OW16870   4.696   3.101   7.130 -0.1427  0.5402  0.7054
 1803SOL    HW116871   4.615   3.150   7.148  0.0640  1.6424 -1.4393
 1803SOL    HW216872   0.001   3.162   7.062  0.5421 -0.6133 -0.0667
 1804SOL     OW16873   2.908   0.535   3.563 -0.4137  0.4654 -0.0859
 1804SOL    HW116874   2.843   0.540   3.633  2.4833  0.9223  2.5566
 1804SOL    HW216875   2.956   0.455   3.585  0.0558  0.5293 -0.8609
 1805SOL     OW16876   4.129   0.825   0.850 -0.4254 -0.1619  0.0440
 1805SOL    HW116877   4.224   0.824   0.841 -0.4227  1.0124 -0.0987
 1805SOL    HW216878   4.104   0.875   0.773 -0.9007 -1.1716 -0.4550
 1806SOL     OW16879   2.945   0.733   9.472  0.2316  0.1408  0.1202
 1806SOL    HW116880   3.026   0.733   9.420  1.6986 -0.8676  2.3627
 1806SOL    HW216881   2.967   0.710   9.563  1.0816  0.0584 -0.1026
 1807SOL     OW16882   1.576   4.134   4.631  0.8128 -0.1828 -0.3066
 1807SOL    HW116883   1.666   4.135   4.664  0.7027 -0.4549  0.0039
 1807SOL    HW216884   1.542   4.047   4.653 -1.3307  0.5661 -0.6678
 1808SOL     OW16885   4.266   4.485   4.284  0.2367  0.3293  0.0912
 1808SOL    HW116886   4.183   4.532   4.287 -1.1430 -2.2681  2.3186
 1808SOL    HW216887   4.233   4.397   4.297 -1.7635  1.1000  0.2211
 1809SOL     OW16888   2.348   2.198  10.502  0.0715 -0.2331  0.3537
 1809SOL    HW116889   2.314   2.109  10.496 -0.8314  0.1429 -0.0210
 1809SOL    HW216890   2.438   2.199  10.468  0.7854 -0.9768  2.2340
 1810SOL     OW16891   1.641   2.888   8.434 -0.3535 -0.1577 -0.1080
 1810SOL    HW116892   1.722   2.889   8.485 -0.7716 -0.9264  0.5746
 1810SOL    HW216893   1.584   2.851   8.502  1.9191 -2.4484  0.5587
 1811SOL     OW16894   2.384   1.317   6.405 -0.2325  0.4638 -0.0029
 1811SOL    HW116895   2.311   1.275   6.359 -0.4737  2.0122 -1.0226
 1811SOL    HW216896   2.407   1.394   6.354  1.9726 -1.4657 -1.9085
 1812SOL     OW16897   2.653   0.916  14.862  0.2543 -0.2627 -0.0700
 1812SOL    HW116898   2.649   0.844  14.926 -3.9813  0.4629  0.4513
 1812SOL    HW216899   2.668   0.864  14.783  1.0886  1.7940 -1.2334
 1813SOL     OW16900   4.179   1.901   7.268  0.3793 -0.0905 -0.4162
 1813SOL    HW116901   4.085   1.920   7.278  0.3466 -0.3851 -0.1588
 1813SOL    HW216902   4.210   1.961   7.337  2.2588 -0.3864 -1.0063
 1814SOL     OW16903   3.966   1.190   5.357  0.3987  0.0770 -0.0035
 1814SOL    HW116904   3.899   1.253   5.384  1.4221  1.6097 -1.0651
 1814SOL    HW216905   3.966   1.202   5.262  0.5525  1.0111  0.1109
 1815SOL     OW16906   2.687   1.978   6.498  0.3798 -0.2695  0.1629
 1815SOL    HW116907   2.715   1.887   6.506 -2.3202 -1.2698 -1.6284
 1815SOL    HW216908   2.683   2.015   6.587 -3.0808 -0.2056 -0.0108
 1816SOL     OW16909   3.742   2.985   4.389  0.2439  0.0761 -0.0240
 1816SOL    HW116910   3.832   2.954   4.391 -0.3128 -1.6619 -2.1677
 1816SOL    HW216911   3.728   2.989   4.484  1.1296  2.2543 -0.0008
 1817SOL     OW16912   1.164   1.416   3.505  0.1731 -0.6934 -0.6428
 1817SOL    HW116913   1.155   1.328   3.467 -0.8138 -0.5437 -0.7449
 1817SOL    HW216914   1.259   1.422   3.516  0.1956 -0.4885 -0.9568
 1818SOL     OW16915   1.175   0.186   9.320  0.2235  0.2327  1.1023
 1818SOL    HW116916   1.082   0.165   9.329 -0.1965  2.7002  2.4937
 1818SOL    HW216917   1.197   0.129   9.247 -1.0728  0.7685  0.2947
 1819SOL     OW16918   0.647   1.842   5.911  0.3708 -0.1702 -0.4488
 1819SOL    HW116919   0.565   1.810   5.949 -0.2934 -0.1023 -1.8404
 1819SOL    HW216920   0.704   1.839   5.988  1.6981 -2.5181 -1.5198
 1820SOL     OW16921   3.511   3.433  10.788  0.0392  0.7989  0.3440
 1820SOL    HW116922   3.489   3.438  10.881  1.8139  1.8284  0.6993
 1820SOL    HW216923   3.499   3.527  10.773  1.7860  0.9796  0.1053
 1821SOL     OW16924   2.639   1.735  14.782  0.2652 -0.7663 -0.2253
 1821SOL    HW116925   2.653   1.653  14.828 -1.2321 -0.8222  0.1259
 1821SOL    HW216926   2.730   1.766  14.783 -0.3545  0.9341  2.7696
 1822SOL     OW16927   1.957   2.308   3.856 -0.2067  0.4156  0.2507
 1822SOL    HW116928   1.903   2.384   3.878 -1.9466 -0.1358 -2.0939
 1822SOL    HW216929   1.882   2.249   3.850 -0.3192  0.4354  1.4373
 1823SOL     OW16930   1.197   2.257   6.099  0.5046 -0.2425  0.1761
 1823SOL    HW116931   1.244   2.311   6.162  1.6865 -0.4458 -0.5183
 1823SOL    HW216932   1.206   2.317   6.025  2.2920 -0.6872  0.0145
 1824SOL     OW16933   0.569   0.216  11.979 -0.1130 -0.6420 -0.2948
 1824SOL    HW116934   0.486   0.209  11.932  0.0161  0.0986 -0.6434
 1824SOL    HW216935   0.606   0.129  11.964 -1.0073 -1.3575  1.7233
 1825SOL     OW16936   4.121   2.830   1.186 -0.3586 -0.2576 -0.1246
 1825SOL    HW116937   4.133   2.829   1.091 -0.3843 -0.4797 -0.1259
 1825SOL    HW216938   4.044   2.775   1.197  0.3746 -1.3012 -0.1895
 1826SOL     OW16939   4.072   2.225  12.077 -0.1365 -1.0938  0.4217
 1826SOL    HW116940   4.145   2.249  12.020 -0.1071 -0.8440  0.5671
 1826SOL    HW216941   4.104   2.237  12.166 -2.0803  0.4328  0.9061
 1827SOL     OW16942   2.374   4.124   4.712 -0.2066 -0.0007  0.1589
 1827SOL    HW116943   2.422   4.155   4.789 -1.0358 -0.3222  0.8113
 1827SOL    HW216944   2.414   4.178   4.644  0.5102  0.1757  0.7282
 1828SOL     OW16945   2.515   3.550  12.740 -0.3499 -0.3259  0.7644
 1828SOL    HW116946   2.597   3.531  12.693  0.7061  3.1201  1.2260
 1828SOL    HW216947   2.498   3.460  12.768  1.6554 -0.4433  1.5811
 1829SOL     OW16948   2.664   2.141   3.493 -0.0192  0.0385  0.0578
 1829SOL    HW116949   2.626   2.228   3.505 -0.7590  0.0162 -2.2666
 1829SOL    HW216950   2.590   2.102   3.447  1.7445  0.5274 -3.1775
 1830SOL     OW16951   2.297   0.402   3.415  0.2118  0.2371  0.1825
 1830SOL    HW116952   2.259   0.322   3.378 -1.0009 -0.9580  4.0196
 1830SOL    HW216953   2.343   0.438   3.339  4.0082 -1.5704  1.6353
 1831SOL     OW16954   0.696   3.989  16.475 -0.2079  0.4891  0.8146
 1831SOL    HW116955   0.665   4.050  16.541  1.0039 -0.1957  2.0178
 1831SOL    HW216956   0.609   3.979  16.437  0.2454 -0.4078  0.0096
 1832SOL     OW16957   0.118   2.740   7.700  0.3480 -0.4019 -0.1051
 1832SOL    HW116958   0.161   2.781   7.625  0.2304 -1.4329 -0.7474
 1832SOL    HW216959   0.041   2.796   7.707  0.5001 -0.1666 -0.3278
 1833SOL     OW16960   1.219   0.873   7.452 -0.0524 -0.4603 -0.3870
 1833SOL    HW116961   1.229   0.952   7.399 -2.5038  0.9365  1.2420
 1833SOL    HW216962   1.226   0.905   7.542  1.5000  1.1218 -1.0690
 1834SOL     OW16963   3.446   1.052  10.464  0.4900 -0.2182  0.0470
 1834SOL    HW116964   3.399   0.993  10.405 -0.8944  0.2777  0.6726
 1834SOL    HW216965   3.429   1.007  10.547  1.0514 -2.9484 -1.3209
 1835SOL     OW16966   3.077   0.480   5.232  0.2618  0.1216 -0.0686
 1835SOL    HW116967   3.046   0.398   5.272  0.8552  0.6059  1.3836
 1835SOL    HW216968   3.004   0.541   5.230 -0.0021 -0.1915 -0.1153
 1836SOL     OW16969   0.258   3.022   7.267  0.8025  0.0907  0.3496
 1836SOL    HW116970   0.344   2.995   7.299  1.0750 -1.1588 -1.4313
 1836SOL    HW216971   0.256   2.969   7.187 -0.3781 -1.1095  1.1488
 1837SOL     OW16972   4.091   3.618   5.578 -0.5652  0.4284  0.0345
 1837SOL    HW116973   4.173   3.630   5.626 -0.9829 -3.3020  1.7088
 1837SOL    HW216974   4.072   3.528   5.604 -1.7264  0.3606 -1.0533
 1838SOL     OW16975   0.418   4.067  11.948  0.1898  0.2136 -0.0999
 1838SOL    HW116976   0.346   4.130  11.951 -0.6332 -0.7943  1.2530
 1838SOL    HW216977   0.384   4.015  11.875  0.2539 -0.0393  0.0539
 1839SOL     OW16978   4.071   1.546  15.476  0.1476 -0.2980 -0.0058
 1839SOL    HW116979   4.094   1.503  15.393  1.8180  0.2270  0.1814
 1839SOL    HW216980   4.084   1.637  15.449  0.7045 -0.3733 -0.0051
 1840SOL     OW16981   4.340   3.961   6.334  0.2601 -0.1100 -0.4287
 1840SOL    HW116982   4.412   4.006   6.290 -0.0653  1.4890  0.6305
 1840SOL    HW216983   4.266   4.017   6.309  0.1786  0.1803  0.4549
 1841SOL     OW16984   0.018   4.259   1.142 -0.2078 -0.2026 -0.1977
 1841SOL    HW116985   4.693   4.341   1.126  1.4800  0.6807 -0.4888
 1841SOL    HW216986   0.090   4.270   1.080 -0.7063 -3.1376 -1.3141
 1842SOL     OW16987   0.326   4.528  14.342 -0.0493 -0.4067 -0.3354
 1842SOL    HW116988   0.336   4.623  14.342 -0.7368 -0.3288  2.2932
 1842SOL    HW216989   0.281   4.515  14.258 -0.4575 -2.2026  0.1548
 1843SOL     OW16990   0.496   0.942   1.348 -0.2474  0.4569 -0.2742
 1843SOL    HW116991   0.584   0.910   1.324 -0.4590 -0.2185 -0.1612
 1843SOL    HW216992   0.467   0.986   1.269  1.8601  0.1672 -1.2174
 1844SOL     OW16993   4.341   0.366   4.076 -0.5281 -0.3581 -0.1365
 1844SOL    HW116994   4.289   0.447   4.080 -2.3023 -1.3634 -3.0722
 1844SOL    HW216995   4.366   0.358   3.984 -0.1983 -0.9713  0.0084
 1845SOL     OW16996   1.308   3.453   9.013  0.2271  0.1936  0.2436
 1845SOL    HW116997   1.294   3.548   9.007 -0.5639 -0.0669 -2.0314
 1845SOL    HW216998   1.397   3.446   8.981 -0.3297 -1.5374 -0.9269
 1846SOL     OW16999   2.095   0.602  15.911  0.5764 -0.1037  0.2068
 1846SOL    HW117000   2.025   0.567  15.855  2.1166 -3.5131  0.4366
 1846SOL    HW217001   2.105   0.695  15.893 -1.5685  0.2194  0.6268
 1847SOL     OW17002   4.114   4.571   8.619 -0.1389 -0.4581 -0.0092
 1847SOL    HW117003   4.096   4.490   8.666  0.1335 -0.2778  0.4064
 1847SOL    HW217004   4.085   4.636   8.683 -0.4581  0.9518 -1.5839
 1848SOL     OW17005   4.151   1.402  10.840 -0.4769 -0.1135 -0.4350
 1848SOL    HW117006   4.228   1.384  10.785 -0.4038 -3.2991  0.6927
 1848SOL    HW217007   4.107   1.466  10.783  0.7571  0.5427 -0.6528
 1849SOL     OW17008   1.503   0.512   3.440 -1.1242  0.4734 -0.6501
 1849SOL    HW117009   1.454   0.442   3.397  1.7317 -1.0706 -1.3759
 1849SOL    HW217010   1.567   0.467   3.495 -2.4969  1.4065  1.6986
 1850SOL     OW17011   0.990   4.448  11.373 -0.2626  0.3066  0.1761
 1850SOL    HW117012   1.082   4.421  11.364 -0.2770  0.2567  0.1782
 1850SOL    HW217013   0.975   4.501  11.295 -1.3168 -0.3110 -0.0333
 1851SOL     OW17014   0.855   2.622   2.287 -0.5829 -0.4765 -0.1715
 1851SOL    HW117015   0.872   2.705   2.332  1.9969 -1.0304 -0.0870
 1851SOL    HW217016   0.887   2.639   2.198  1.1684 -0.0414  0.5276
 1852SOL     OW17017   1.782   3.110   0.760 -0.2623 -0.4206  0.2247
 1852SOL    HW117018   1.840   3.107   0.684 -1.8247  4.7806 -1.1734
 1852SOL    HW217019   1.699   3.107   0.712 -0.4660  0.8199  0.4834
 1853SOL     OW17020   3.864   1.976   4.949 -0.3361  0.0439 -0.4239
 1853SOL    HW117021   3.838   2.068   4.950 -0.0212  0.1294  0.0191
 1853SOL    HW217022   3.840   1.955   5.040  0.0354  0.8040 -0.1529
 1854SOL     OW17023   0.704   4.336   3.119  0.2332 -0.3055  0.0330
 1854SOL    HW117024   0.686   4.341   3.213 -1.1535  1.3289 -0.3137
 1854SOL    HW217025   0.628   4.379   3.078  0.1599 -0.1832  0.2941
 1855SOL     OW17026   0.118   0.452  15.893  0.1241 -0.1942  0.2817
 1855SOL    HW117027   0.034   0.496  15.904  0.5821  0.4745  1.0759
 1855SOL    HW217028   0.084   0.363  15.880  2.1134 -0.9060 -0.0525
 1856SOL     OW17029   1.302   1.503  10.326  0.4425  0.2458 -0.3317
 1856SOL    HW117030   1.277   1.431  10.384  1.7207  1.1030  1.2844
 1856SOL    HW217031   1.310   1.580  10.383  0.5009 -0.0207  0.0236
 1857SOL     OW17032   3.814   0.403  16.765  0.2532 -0.1720 -0.9835
 1857SOL    HW117033   3.884   0.416  16.701 -1.0609  0.4210 -2.3210
 1857SOL    HW217034   3.739   0.457  16.740 -1.1056 -1.7753 -0.3549
 1858SOL     OW17035   3.056   4.264   6.323 -0.3544  0.3587 -0.4782
 1858SOL    HW117036   3.126   4.257   6.389  0.9224 -0.1994 -1.8961
 1858SOL    HW217037   2.976   4.251   6.374 -0.5575 -0.3040 -0.9601
 1859SOL     OW17038   0.353   1.152   6.151 -0.0774  0.2830  0.0110
 1859SOL    HW117039   0.433   1.123   6.109  0.4857  4.2410 -1.6498
 1859SOL    HW217040   0.355   1.102   6.232  0.3460 -0.1356 -0.2611
 1860SOL     OW17041   3.508   2.585   0.857 -0.4119  0.4949 -0.2339
 1860SOL    HW117042   3.438   2.608   0.918 -0.6467  1.7358 -0.9811
 1860SOL    HW217043   3.556   2.667   0.865  0.3182  0.1726 -1.3350
 1861SOL     OW17044   0.552   0.713   9.064  0.2355 -0.2337 -0.5668
 1861SOL    HW117045   0.560   0.800   9.103 -1.4132 -1.3083  2.1969
 1861SOL    HW217046   0.520   0.652   9.130  2.4133  0.5251  1.1877
 1862SOL     OW17047   1.728   4.115   5.097  0.1751 -0.1381  0.1047
 1862SOL    HW117048   1.822   4.106   5.079 -0.3104 -1.4539 -1.8082
 1862SOL    HW217049   1.687   4.048   5.043 -1.1504  1.4963 -0.9227
 1863SOL     OW17050   3.590   3.005   4.056 -0.0695 -0.0834  0.0107
 1863SOL    HW117051   3.625   3.091   4.033 -0.6146  0.4928  1.3239
 1863SOL    HW217052   3.609   3.002   4.150 -0.5889  0.5927  0.1356
 1864SOL     OW17053   2.215   0.214   1.789 -0.0492 -0.1800 -0.2029
 1864SOL    HW117054   2.235   0.191   1.880  3.0513  1.5772 -0.4511
 1864SOL    HW217055   2.154   0.286   1.802  0.8681  0.4487  0.6803
 1865SOL     OW17056   0.024   2.628   8.267  0.2844 -0.0040 -0.6315
 1865SOL    HW117057   0.053   2.710   8.227  1.3455  1.4342  3.1146
 1865SOL    HW217058   0.085   2.566   8.227  0.3330 -2.0420  2.5801
 1866SOL     OW17059   2.692   0.338   2.979  0.1418 -0.1855  0.3405
 1866SOL    HW117060   2.764   0.275   2.979 -0.1580 -0.5390 -1.1956
 1866SOL    HW217061   2.738   0.421   2.992 -0.1142  0.3476 -2.1517
 1867SOL     OW17062   0.106   2.233  12.111  0.4101  0.0047 -0.1325
 1867SOL    HW117063   0.096   2.138  12.103  0.0864 -0.1647  2.2297
 1867SOL    HW217064   0.058   2.257  12.190  2.5268  3.4071  0.1195
 1868SOL     OW17065   2.382   3.240   4.317 -0.1527  0.2793 -0.2443
 1868SOL    HW117066   2.420   3.215   4.401  0.4289  1.2967 -0.2204
 1868SOL    HW217067   2.306   3.182   4.304  1.2256 -1.2833 -1.3819
 1869SOL     OW17068   3.297   0.168   1.834  0.1386  0.1670  0.1389
 1869SOL    HW117069   3.308   0.129   1.921 -0.1446 -0.5727 -0.1653
 1869SOL    HW217070   3.304   0.260   1.860  1.0638  0.4735 -1.2178
 1870SOL     OW17071   3.359   3.585   3.429 -0.2445  0.1200 -0.2638
 1870SOL    HW117072   3.358   3.654   3.495  2.3963  0.2019 -0.3105
 1870SOL    HW217073   3.298   3.526   3.474  0.6771 -1.2961 -0.8909
 1871SOL     OW17074   3.005   3.777   1.967  0.6855  0.0691  0.1588
 1871SOL    HW117075   3.068   3.807   1.901  0.0488 -0.4525 -0.6864
 1871SOL    HW217076   3.023   3.819   2.052  3.6249  1.5359 -1.1748
 1872SOL     OW17077   0.786   3.468   8.083  0.2007 -0.5856  0.0514
 1872SOL    HW117078   0.817   3.531   8.149 -1.5917 -1.3286  1.5957
 1872SOL    HW217079   0.732   3.524   8.027  0.7259  0.8641  0.9959
 1873SOL     OW17080   1.682   0.395   3.998  0.1299 -0.0936  0.6871
 1873SOL    HW117081   1.686   0.440   4.083  0.5632  0.0998  0.5659
 1873SOL    HW217082   1.597   0.352   4.004  0.3693 -0.5949  0.4569
 1874SOL     OW17083   4.261   3.267   5.741 -0.0083 -0.2459 -0.3428
 1874SOL    HW117084   4.342   3.263   5.691  0.4890 -2.2351  0.6317
 1874SOL    HW217085   4.288   3.259   5.832 -0.2250  1.1452 -0.1478
 1875SOL     OW17086   2.161   3.525   4.244 -0.3300 -0.0731  0.2404
 1875SOL    HW117087   2.114   3.466   4.304  2.1821 -2.1911  0.1223
 1875SOL    HW217088   2.156   3.470   4.166 -0.9463 -0.5827  0.6336
 1876SOL     OW17089   0.609   1.139  14.646  0.5057 -0.1227  0.6480
 1876SOL    HW117090   0.592   1.168  14.557  0.3169  0.0421  0.7394
 1876SOL    HW217091   0.555   1.200  14.697  1.8252  0.9090  0.8171
 1877SOL     OW17092   4.671   0.373   9.961 -0.5689  0.1886  0.3279
 1877SOL    HW117093   4.634   0.455   9.926 -1.1581 -0.1578  0.1456
 1877SOL    HW217094   0.038   0.406   9.980 -0.9306 -0.1859  2.5773
 1878SOL     OW17095   2.121   1.640   7.350 -0.3827  0.1488 -0.0454
 1878SOL    HW117096   2.089   1.568   7.405 -0.5837  2.9201  3.5207
 1878SOL    HW217097   2.210   1.650   7.384 -1.2593 -0.9488  2.5565
 1879SOL     OW17098   4.425   2.214   5.269  0.3167  0.1143  0.0704
 1879SOL    HW117099   4.379   2.274   5.328  0.7930 -0.6367  1.2074
 1879SOL    HW217100   4.429   2.134   5.322  0.4353  1.3600  1.9259
 1880SOL     OW17101   3.115   4.137   8.058 -0.3971 -0.4883 -0.2663
 1880SOL    HW117102   3.045   4.075   8.079 -0.3636 -0.3834  0.1669
 1880SOL    HW217103   3.130   4.182   8.141 -0.2958 -1.0767  0.0350
 1881SOL     OW17104   2.687   2.935   9.363 -0.2897  0.2302  0.1990
 1881SOL    HW117105   2.715   2.913   9.452 -0.4301 -0.1423  0.1533
 1881SOL    HW217106   2.672   3.029   9.374  1.2925  0.3605  1.2226
 1882SOL     OW17107   2.168   1.544   8.324 -0.6380 -0.1153 -0.0585
 1882SOL    HW117108   2.128   1.489   8.256  2.3236 -0.1579 -1.7443
 1882SOL    HW217109   2.084   1.570   8.361  0.2225  2.3743  0.1653
 1883SOL     OW17110   0.354   3.838   3.354 -0.3694  0.9009  0.0115
 1883SOL    HW117111   0.270   3.876   3.324 -1.8522 -2.0350  0.4988
 1883SOL    HW217112   0.409   3.916   3.361  0.3558  0.4254 -0.4801
 1884SOL     OW17113   3.175   2.130   3.532 -0.6513 -0.4548  0.2063
 1884SOL    HW117114   3.119   2.204   3.557 -2.2323 -1.3873 -0.5382
 1884SOL    HW217115   3.192   2.150   3.440  0.4869 -0.7998  0.3466
 1885SOL     OW17116   2.913   3.647   3.164 -0.5860  0.1802 -0.2315
 1885SOL    HW117117   2.825   3.644   3.126 -0.0825 -0.9566 -1.2978
 1885SOL    HW217118   2.898   3.689   3.249 -0.8625 -2.7836  1.1996
 1886SOL     OW17119   1.295   2.007  13.702  0.1500  0.1079 -0.0646
 1886SOL    HW117120   1.362   2.031  13.638 -1.7032 -0.1292 -2.1175
 1886SOL    HW217121   1.240   2.085  13.689  1.3445  0.8356 -0.8029
 1887SOL     OW17122   0.953   3.673   1.276  0.4160 -0.1429 -0.1801
 1887SOL    HW117123   0.946   3.644   1.367 -0.6196  0.0458 -0.2007
 1887SOL    HW217124   0.904   3.755   1.265  0.6937 -0.4227 -3.2857
 1888SOL     OW17125   1.234   3.327   8.711  0.4516 -0.0310 -0.5767
 1888SOL    HW117126   1.299   3.396   8.719  0.1929  0.2666 -1.0204
 1888SOL    HW217127   1.164   3.373   8.757  1.8993 -0.9483  2.5192
 1889SOL     OW17128   4.038   1.870   8.624  0.2306  0.5728 -0.2841
 1889SOL    HW117129   4.104   1.861   8.555  0.2756 -0.2790 -0.1293
 1889SOL    HW217130   3.992   1.951   8.599 -1.5943 -0.3967 -0.0479
 1890SOL     OW17131   0.040   0.112   3.498 -0.4370 -0.5298 -0.1770
 1890SOL    HW117132   4.679   0.127   3.546  0.9082  1.9852  1.3961
 1890SOL    HW217133   0.099   0.131   3.571  1.9710 -1.0731 -1.9949
 1891SOL     OW17134   4.207   4.163   6.634 -0.0442  0.1629  0.0829
 1891SOL    HW117135   4.181   4.233   6.573  1.5509  3.8640  3.6678
 1891SOL    HW217136   4.301   4.157   6.618  0.2206  2.1413  0.8125
 1892SOL     OW17137   4.045   1.048   6.523 -0.3472 -0.6231 -0.1805
 1892SOL    HW117138   4.117   0.986   6.512 -0.3311 -1.1190  2.9013
 1892SOL    HW217139   4.059   1.107   6.449 -3.1801  0.9793  0.5554
 1893SOL     OW17140   2.880   3.016  15.141  0.1693  0.4280  0.4875
 1893SOL    HW117141   2.908   3.030  15.232  1.4163 -1.8509  0.4549
 1893SOL    HW217142   2.946   3.056  15.084 -0.3462  0.0409 -0.3810
 1894SOL     OW17143   0.688   1.626   5.290  0.0749 -0.0499 -0.2849
 1894SOL    HW117144   0.662   1.666   5.373 -2.2496 -0.4374 -0.8190
 1894SOL    HW217145   0.657   1.691   5.227  1.4737 -0.5844 -1.5144
 1895SOL     OW17146   4.297   3.830   6.059  0.2082 -0.1847  0.1868
 1895SOL    HW117147   4.204   3.834   6.079  0.4946 -0.7733  1.6930
 1895SOL    HW217148   4.341   3.875   6.131 -1.4629 -2.5459  2.6809
 1896SOL     OW17149   0.565   2.646   7.912 -0.7519 -0.0136  0.4228
 1896SOL    HW117150   0.564   2.718   7.975  1.4628  1.0641 -0.7916
 1896SOL    HW217151   0.654   2.638   7.878 -0.7067  2.6135 -0.0864
 1897SOL     OW17152   2.712   2.884   8.036 -0.4743 -0.2947  0.1171
 1897SOL    HW117153   2.638   2.923   8.083 -0.0209 -1.2291  1.6229
 1897SOL    HW217154   2.751   2.824   8.100  0.9762 -2.1597 -2.5406
 1898SOL     OW17155   0.693   4.060   9.864 -0.1817  0.4468 -0.3328
 1898SOL    HW117156   0.669   3.970   9.840 -1.3968  0.5662  0.4770
 1898SOL    HW217157   0.611   4.083   9.908  0.7541  1.8347  0.6474
 1899SOL     OW17158   0.371   3.984   0.568 -0.4948  0.4652 -0.1084
 1899SOL    HW117159   0.389   4.007   0.659  2.1772  0.1868 -0.5875
 1899SOL    HW217160   0.410   3.897   0.565 -0.0410  0.6117  1.7542
 1900SOL     OW17161   3.940   1.903   2.920 -0.1937 -0.0162  0.5886
 1900SOL    HW117162   3.887   1.913   2.840 -0.4843 -0.5772  0.7103
 1900SOL    HW217163   3.946   1.989   2.961 -0.6080  0.2611  0.0658
 1901SOL     OW17164   3.892   3.754  14.369 -0.4504  0.5734 -0.4100
 1901SOL    HW117165   3.974   3.777  14.412 -0.7656 -0.9052  0.9906
 1901SOL    HW217166   3.876   3.834  14.319 -0.3758  0.4110 -0.6985
 1902SOL     OW17167   0.930   1.673   2.892 -0.1032 -0.1735 -0.0138
 1902SOL    HW117168   0.983   1.747   2.862 -1.6953  1.2926  0.7922
 1902SOL    HW217169   1.005   1.627   2.930  0.8923  1.8738  0.4775
 1903SOL     OW17170   1.845   2.665   3.668 -0.5618 -0.5751  0.0411
 1903SOL    HW117171   1.914   2.714   3.622 -0.2372 -0.9779  0.0933
 1903SOL    HW217172   1.772   2.727   3.672 -0.8412 -0.9503  0.7288
 1904SOL     OW17173   2.390   0.291   0.788  0.6074 -0.4413 -0.3634
 1904SOL    HW117174   2.435   0.331   0.714 -0.2717 -1.2339 -1.3236
 1904SOL    HW217175   2.387   0.201   0.755  0.9066 -0.9759  1.0593
 1905SOL     OW17176   1.855   0.149   0.282 -0.2118  0.0060  0.3197
 1905SOL    HW117177   1.879   0.232   0.240 -0.7445 -1.2954 -2.5450
 1905SOL    HW217178   1.899   0.078   0.236 -1.6873 -0.3704 -0.5032
 1906SOL     OW17179   3.403   4.322   1.452  0.0918  0.0379  0.2684
 1906SOL    HW117180   3.365   4.238   1.426 -0.3873 -0.3232  2.1529
 1906SOL    HW217181   3.323   4.374   1.451 -0.8979 -1.4777  0.4445
 1907SOL     OW17182   4.620   0.794   8.166  0.1584 -0.1642 -0.2514
 1907SOL    HW117183   4.695   0.846   8.138  0.5462 -2.5416 -3.5766
 1907SOL    HW217184   4.593   0.747   8.087 -3.3010  1.3661  0.0271
 1908SOL     OW17185   4.645   0.626   6.715 -0.5183  0.0183  0.7319
 1908SOL    HW117186   4.621   0.548   6.665 -0.2820  0.9630 -0.8765
 1908SOL    HW217187   4.649   0.586   6.802  0.6853 -0.9555  0.2181
 1909SOL     OW17188   2.981   4.573   2.603  0.7895  0.4065  0.5829
 1909SOL    HW117189   3.064   4.620   2.595  0.9836  0.1517  1.1386
 1909SOL    HW217190   2.913   4.641   2.595  1.1997  0.8097  0.4906
 1910SOL     OW17191   4.471   0.356   6.378  0.5634 -0.1172 -0.2393
 1910SOL    HW117192   4.475   0.293   6.305  0.0388  1.4382 -1.6051
 1910SOL    HW217193   4.379   0.340   6.400  1.0247 -4.0094 -1.1132
 1911SOL     OW17194   0.404   1.296   3.291 -0.2272  0.0481  0.0350
 1911SOL    HW117195   0.475   1.349   3.254  0.0955  1.7859  3.1542
 1911SOL    HW217196   0.453   1.253   3.362  2.2001  2.8094  0.0491
 1912SOL     OW17197   2.409   0.832  13.371 -0.2804  0.6562 -0.6764
 1912SOL    HW117198   2.498   0.800  13.385  0.1638  2.2866  0.1792
 1912SOL    HW217199   2.360   0.790  13.442  0.2047 -0.6764 -1.1258
 1913SOL     OW17200   0.934   2.285   6.804  0.8017  0.1373 -0.5609
 1913SOL    HW117201   0.985   2.228   6.862  1.4999  0.7134 -0.6146
 1913SOL    HW217202   1.004   2.342   6.772  0.2051  0.6592 -0.9398
 1914SOL     OW17203   3.811   2.254   8.311 -0.5794  0.3065 -0.2610
 1914SOL    HW117204   3.885   2.295   8.266  0.9296  1.2744  3.0898
 1914SOL    HW217205   3.777   2.194   8.244 -0.9868 -1.4206  1.4784
 1915SOL     OW17206   3.855   1.120  15.016  0.7781  0.6646 -0.3778
 1915SOL    HW117207   3.854   1.024  15.017  0.3536  0.6870  1.4670
 1915SOL    HW217208   3.923   1.140  14.952  0.4403  1.4594 -0.4871
 1916SOL     OW17209   2.577   4.476   1.164 -0.0014 -0.0404  0.0068
 1916SOL    HW117210   2.626   4.394   1.157  0.3654  0.0830  1.1570
 1916SOL    HW217211   2.643   4.530   1.121  0.4054 -0.0271  0.6478
 1917SOL     OW17212   2.061   1.467  10.766 -0.7901  0.1594  0.4574
 1917SOL    HW117213   2.026   1.537  10.822 -0.0328  1.7161 -0.9863
 1917SOL    HW217214   2.046   1.392  10.823 -2.4452  1.1050  1.2422
 1918SOL     OW17215   4.528   0.239   6.835  0.0002  0.9047  0.1460
 1918SOL    HW117216   4.508   0.266   6.925 -0.6985 -0.6603  0.4579
 1918SOL    HW217217   4.588   0.310   6.811 -1.3275  2.0687  0.2527
 1919SOL     OW17218   2.587   3.169   9.295 -0.2487  0.1098 -0.6036
 1919SOL    HW117219   2.511   3.194   9.242 -1.2331  0.0482  0.8009
 1919SOL    HW217220   2.618   3.253   9.330  2.2157 -1.5532  1.1455
 1920SOL     OW17221   3.977   3.185   6.224 -0.1307  0.5106  0.3585
 1920SOL    HW117222   3.915   3.234   6.170 -0.8185  1.1076  1.7151
 1920SOL    HW217223   3.988   3.235   6.304  1.1337 -0.5299  0.8433
 1921SOL     OW17224   2.394   2.117   0.505 -0.7147 -0.0972 -0.6808
 1921SOL    HW117225   2.481   2.112   0.545  0.2377 -1.2531 -2.9222
 1921SOL    HW217226   2.365   2.026   0.496 -0.8234 -0.2144  0.9372
 1922SOL     OW17227   1.824   2.674   7.177  0.1464  0.6572  0.3816
 1922SOL    HW117228   1.842   2.584   7.202  1.5188  0.7140 -0.4107
 1922SOL    HW217229   1.849   2.671   7.084  0.7913 -2.2163  0.6582
 1923SOL     OW17230   4.584   3.871  13.431 -0.0930 -0.1772  0.5409
 1923SOL    HW117231   4.647   3.856  13.501 -2.2461  0.6065  2.6413
 1923SOL    HW217232   4.512   3.809  13.447  1.0272 -1.5583  0.2893
 1924SOL     OW17233   1.073   4.226   7.600 -0.1475 -0.2940 -0.1936
 1924SOL    HW117234   1.050   4.319   7.597 -0.8351 -0.4743 -0.4029
 1924SOL    HW217235   0.987   4.193   7.626 -0.2453 -0.7356 -1.0773
 1925SOL     OW17236   4.557   1.407   4.716 -0.4058  0.1218 -0.2005
 1925SOL    HW117237   4.496   1.375   4.650  0.6936  0.2019 -1.2539
 1925SOL    HW217238   4.545   1.347   4.790 -2.3014  0.2126 -0.4493
 1926SOL     OW17239   0.762   2.373   0.521 -0.4268  0.2192  0.3707
 1926SOL    HW117240   0.847   2.362   0.478 -1.0367 -2.4107 -0.1475
 1926SOL    HW217241   0.746   2.457   0.478  2.3038 -0.3126 -1.6915
 1927SOL     OW17242   2.198   1.815   6.010 -0.0934  0.2130  0.5461
 1927SOL    HW117243   2.255   1.823   6.087 -0.2946 -0.3803  0.7644
 1927SOL    HW217244   2.255   1.765   5.951 -1.2669  0.0788 -0.4660
 1928SOL     OW17245   1.036   1.633   8.069  0.5853  0.0946  0.0687
 1928SOL    HW117246   1.035   1.642   8.164 -0.3045 -0.2969  0.0960
 1928SOL    HW217247   0.943   1.644   8.050  0.0557 -0.2405  2.4879
 1929SOL     OW17248   3.515   2.668   6.876 -0.4151 -0.2812 -0.8370
 1929SOL    HW117249   3.510   2.589   6.930 -0.2890 -0.1147 -0.5846
 1929SOL    HW217250   3.434   2.711   6.904 -0.2368 -1.1608  1.0685
 1930SOL     OW17251   3.729   3.644   7.748 -0.4380  0.4316 -0.4517
 1930SOL    HW117252   3.666   3.598   7.693  0.0665  0.4186 -1.0256
 1930SOL    HW217253   3.669   3.650   7.822  0.9677 -1.4895  0.8516
 1931SOL     OW17254   4.456   3.648  17.145  0.1948 -0.4318 -0.0359
 1931SOL    HW117255   4.436   3.737  17.175  2.6588 -0.5850  2.0627
 1931SOL    HW217256   4.541   3.629  17.184  0.4148 -1.5026 -1.0377
 1932SOL     OW17257   0.315   0.551   9.362 -0.2369 -0.0226  0.0761
 1932SOL    HW117258   0.332   0.502   9.443 -0.8330  1.4605  1.0898
 1932SOL    HW217259   0.326   0.487   9.292 -1.4145 -1.0894  0.8751
 1933SOL     OW17260   2.162   1.402   1.703 -0.3855  0.0542 -0.3439
 1933SOL    HW117261   2.104   1.450   1.644 -0.2304  0.0904 -0.4670
 1933SOL    HW217262   2.126   1.314   1.706 -4.3941  1.7548  1.5743
 1934SOL     OW17263   4.323   0.241   3.270 -0.1287  0.1658  1.0864
 1934SOL    HW117264   4.386   0.171   3.260 -1.3473 -0.7835  0.1629
 1934SOL    HW217265   4.344   0.299   3.197 -3.0731  0.0940  0.1660
 1935SOL     OW17266   0.347   2.758  10.285  0.5073 -0.0886 -0.1373
 1935SOL    HW117267   0.390   2.720  10.362 -1.3102 -0.9874  0.4255
 1935SOL    HW217268   0.256   2.729  10.290  0.1265  1.2399  0.4925
 1936SOL     OW17269   0.046   1.270   8.056  0.1156 -0.2305 -0.4568
 1936SOL    HW117270   0.101   1.329   8.107 -1.2007  0.3109  0.3364
 1936SOL    HW217271   0.086   1.192   8.094 -2.1624 -1.0002  0.3839
 1937SOL     OW17272   4.493   2.945   7.577  0.1793 -0.0798 -0.0715
 1937SOL    HW117273   4.561   2.946   7.510 -0.1471 -0.1596 -0.4046
 1937SOL    HW217274   4.549   2.991   7.639  0.8302 -1.4631  0.3556
 1938SOL     OW17275   4.494   0.730   5.310  0.6997  0.0260  0.9354
 1938SOL    HW117276   4.560   0.739   5.242 -0.7366  0.2375 -0.4227
 1938SOL    HW217277   4.537   0.763   5.389 -0.0681 -0.5056  1.5757
 1939SOL     OW17278   3.374   3.012   3.870  0.3621  0.1453  0.6488
 1939SOL    HW117279   3.322   3.078   3.915  1.5340  2.7626 -1.8535
 1939SOL    HW217280   3.448   2.993   3.928 -0.4247 -2.0280  0.9362
 1940SOL     OW17281   4.283   4.098   1.134  0.3402 -0.5630 -0.3272
 1940SOL    HW117282   4.203   4.136   1.098 -0.0059 -0.0221  0.9796
 1940SOL    HW217283   4.349   4.166   1.118  1.4184 -1.2657  1.0968
 1941SOL     OW17284   1.682   3.459   2.781 -0.2516  0.1499 -0.3242
 1941SOL    HW117285   1.676   3.431   2.689 -1.2671 -0.2846 -0.1220
 1941SOL    HW217286   1.694   3.552   2.763  2.5495 -0.2360 -0.5315
 1942SOL     OW17287   4.515   2.278   6.766  0.7588  0.5211  0.6933
 1942SOL    HW117288   4.566   2.198   6.775  2.7074  1.6280 -0.5149
 1942SOL    HW217289   4.426   2.245   6.779 -0.5123  4.0221  1.0551
 1943SOL     OW17290   1.894   1.887   8.856 -0.3789 -0.4277  0.0228
 1943SOL    HW117291   1.844   1.811   8.886 -0.9628 -0.2364 -0.4641
 1943SOL    HW217292   1.956   1.912   8.925 -0.8663  0.7902  0.0097
 1944SOL     OW17293   3.675   2.086   8.782  0.1454 -0.4619 -0.3454
 1944SOL    HW117294   3.681   2.178   8.755 -0.3252 -0.2925  0.1291
 1944SOL    HW217295   3.688   2.083   8.876  2.3755  2.6792 -0.5222
 1945SOL     OW17296   3.733   3.611   9.808 -0.2270 -0.4442  0.2092
 1945SOL    HW117297   3.657   3.580   9.759  0.2712  0.9424 -1.4296
 1945SOL    HW217298   3.711   3.609   9.901  1.2228 -1.6776  0.5337
 1946SOL     OW17299   2.128   3.097   2.351 -0.5225  0.2063 -0.5941
 1946SOL    HW117300   2.143   3.188   2.325 -0.7780  0.5651  0.4886
 1946SOL    HW217301   2.049   3.080   2.299 -0.0272  1.0047 -1.6016
 1947SOL     OW17302   2.679   0.728   1.054  0.2212 -0.0393 -0.4002
 1947SOL    HW117303   2.602   0.688   1.013 -0.8230 -0.2735  1.8270
 1947SOL    HW217304   2.715   0.763   0.972 -0.8533  0.0420 -0.8398
 1948SOL     OW17305   2.141   0.506   8.245  0.1677  0.3585  0.5531
 1948SOL    HW117306   2.062   0.497   8.193 -1.1669  0.9941  2.4701
 1948SOL    HW217307   2.127   0.600   8.257  0.1917  0.4829 -0.3908
 1949SOL     OW17308   3.003   1.369  16.315  0.0286  0.5402 -0.4608
 1949SOL    HW117309   3.006   1.286  16.362  0.0824 -0.5022 -2.3277
 1949SOL    HW217310   3.079   1.353  16.260 -1.6275  0.1148 -2.6356
 1950SOL     OW17311   2.193   2.205   4.174 -0.3094 -0.5295 -0.1849
 1950SOL    HW117312   2.247   2.272   4.132  2.3355 -2.0730  0.7620
 1950SOL    HW217313   2.167   2.245   4.257  2.1484  4.5548 -1.8455
 1951SOL     OW17314   2.530   4.017   1.936 -0.5402  0.1363 -0.5714
 1951SOL    HW117315   2.499   3.928   1.919 -1.5463  0.7175 -1.7823
 1951SOL    HW217316   2.599   4.019   1.869 -1.2391 -0.3874 -1.3197
 1952SOL     OW17317   4.055   3.330   6.443  0.4423 -0.6305  0.6523
 1952SOL    HW117318   4.093   3.354   6.527  0.0328 -2.3637  1.3294
 1952SOL    HW217319   4.109   3.382   6.383  1.6362 -0.5218  1.8455
 1953SOL     OW17320   0.190   2.231   8.193 -0.6733  0.0922  0.3572
 1953SOL    HW117321   0.257   2.163   8.199 -0.0100  0.8842  1.8989
 1953SOL    HW217322   0.226   2.283   8.121 -0.5979 -1.0659 -0.4409
 1954SOL     OW17323   0.896   1.165  14.403 -0.4545 -0.2862 -0.2133
 1954SOL    HW117324   0.863   1.254  14.418 -0.4205  0.1419 -2.7587
 1954SOL    HW217325   0.969   1.164  14.465 -1.6364  3.3056  1.2748
 1955SOL     OW17326   2.579   1.317  15.879  0.1116  0.1123 -0.3527
 1955SOL    HW117327   2.532   1.290  15.958  1.4752  1.6915  0.9977
 1955SOL    HW217328   2.649   1.371  15.917 -0.6342 -0.3114  1.6391
 1956SOL     OW17329   0.769   1.584   7.081  0.0138 -1.0120  0.4736
 1956SOL    HW117330   0.768   1.615   6.991 -1.4467  1.6295  1.4289
 1956SOL    HW217331   0.847   1.618   7.126  0.0492 -2.5624  1.5915
 1957SOL     OW17332   4.691   4.225  15.618  0.0896  0.2529 -0.5667
 1957SOL    HW117333   4.689   4.280  15.540  0.1227  1.1471  0.0630
 1957SOL    HW217334   4.598   4.227  15.642  0.0320 -0.3897 -0.7383
 1958SOL     OW17335   2.340   3.545   7.426 -0.0176  0.4815 -0.2306
 1958SOL    HW117336   2.308   3.462   7.391  1.2877  0.4281 -1.2998
 1958SOL    HW217337   2.381   3.580   7.346  1.0471  0.4970  0.3134
 1959SOL     OW17338   3.184   0.919   1.945  0.1006 -0.0133  0.1726
 1959SOL    HW117339   3.206   0.950   2.033  1.5926 -2.0594  0.5266
 1959SOL    HW217340   3.096   0.955   1.937 -0.6874 -1.9853  0.0371
 1960SOL     OW17341   4.017   4.352   6.061  0.0164  0.1411 -0.6024
 1960SOL    HW117342   3.945   4.398   6.105 -1.1727 -1.8542 -0.4824
 1960SOL    HW217343   4.097   4.405   6.063  0.5633 -0.7391  0.5766
 1961SOL     OW17344   3.708   0.971   2.401  0.4371 -0.3152  0.5153
 1961SOL    HW117345   3.689   0.908   2.470 -2.8381  1.7000  1.4925
 1961SOL    HW217346   3.800   0.989   2.417  0.4840 -1.1898  1.1812
 1962SOL     OW17347   1.162   1.798   7.464  0.8423 -0.3671 -0.1051
 1962SOL    HW117348   1.140   1.856   7.390 -2.0623 -0.7082  0.4828
 1962SOL    HW217349   1.241   1.758   7.429 -0.8535 -1.1910 -3.0716
 1963SOL     OW17350   2.484   0.478   2.362  0.2798  0.0785 -1.0007
 1963SOL    HW117351   2.568   0.499   2.321  0.3745  1.6430 -0.0312
 1963SOL    HW217352   2.467   0.557   2.414  1.0087 -0.8375  0.6414
 1964SOL     OW17353   0.806   2.656   1.047  0.3171  0.0811 -0.1989
 1964SOL    HW117354   0.825   2.585   0.986 -1.0313 -0.9084  0.5071
 1964SOL    HW217355   0.783   2.717   0.976  1.1734  1.2295  0.5151
 1965SOL     OW17356   1.520   2.154   6.890 -0.1839 -0.2904  0.1117
 1965SOL    HW117357   1.608   2.184   6.871 -0.0479  0.5021  1.9432
 1965SOL    HW217358   1.536   2.060   6.895  0.0782 -0.2369  0.2643
 1966SOL     OW17359   1.014   3.518  16.814  0.0664 -0.0069 -0.0327
 1966SOL    HW117360   0.995   3.466  16.736 -0.1465  1.0627 -0.7071
 1966SOL    HW217361   1.014   3.604  16.770  0.3024  0.4476  0.8536
 1967SOL     OW17362   1.897   0.947   5.867  0.1138 -0.1281  0.1201
 1967SOL    HW117363   1.820   0.961   5.922 -0.4635 -1.8931 -0.2290
 1967SOL    HW217364   1.969   0.945   5.930 -0.0325  2.3798  0.3788
 1968SOL     OW17365   1.366   3.573   3.362  0.1521  0.4922 -0.1205
 1968SOL    HW117366   1.330   3.485   3.359  2.2995 -0.3465 -1.1508
 1968SOL    HW217367   1.400   3.586   3.274 -0.0803  0.7160 -0.1770
 1969SOL     OW17368   3.367   1.886  15.503 -0.6819 -0.6391  0.2889
 1969SOL    HW117369   3.378   1.855  15.413  1.5385 -0.1424  0.3903
 1969SOL    HW217370   3.417   1.819  15.549 -0.8442  0.1391  1.6067
 1970SOL     OW17371   0.417   4.166   4.780 -0.1894 -0.5831 -0.3058
 1970SOL    HW117372   0.435   4.083   4.824 -1.2519 -0.2817  0.6899
 1970SOL    HW217373   0.360   4.206   4.845 -0.1090 -0.4325 -0.3267
 1971SOL     OW17374   0.352   4.692   3.598  0.6644 -0.8188  0.6907
 1971SOL    HW117375   0.378   4.662   3.511  0.4757 -2.0612  1.0503
 1971SOL    HW217376   0.264   4.656   3.613  1.0545 -0.9296  2.6508
 1972SOL     OW17377   0.214   4.463  17.642 -0.4734  1.0480 -0.5634
 1972SOL    HW117378   0.166   4.540  17.610  0.8334  1.2323 -2.0480
 1972SOL    HW217379   0.278   4.455  17.572  0.4606  0.6785  0.3319
 1973SOL     OW17380   1.647   2.056   8.802  0.2296  0.1911  0.1621
 1973SOL    HW117381   1.682   2.143   8.786  0.6799 -0.3363 -1.6991
 1973SOL    HW217382   1.725   2.003   8.822  0.3163 -0.4156 -1.8171
 1974SOL     OW17383   0.580   1.904   7.250 -0.1439 -0.2935  0.8843
 1974SOL    HW117384   0.632   1.830   7.281  0.3026 -1.1859 -2.0240
 1974SOL    HW217385   0.602   1.904   7.157  2.2804 -0.0400  1.4573
 1975SOL     OW17386   2.618   1.890   9.022  0.1897 -0.3657  0.5707
 1975SOL    HW117387   2.673   1.908   8.946 -1.6733 -0.9133 -0.8897
 1975SOL    HW217388   2.624   1.795   9.026  2.2410 -0.2656  0.0292
 1976SOL     OW17389   2.004   3.396   9.715 -0.0173  0.1322  0.3862
 1976SOL    HW117390   2.016   3.420   9.807 -2.0667 -1.4490  1.0512
 1976SOL    HW217391   2.064   3.463   9.684  0.2906  0.6802  2.1581
 1977SOL     OW17392   4.643   2.401   4.781  0.5033  0.1549 -0.2892
 1977SOL    HW117393   4.678   2.386   4.693 -1.4309  0.6692 -1.1580
 1977SOL    HW217394   4.701   2.470   4.813  0.7034 -0.1846  0.0760
 1978SOL     OW17395   4.258   0.113   3.852  0.5478  0.3598  0.6443
 1978SOL    HW117396   4.236   0.162   3.773 -0.0439 -4.7919 -2.3852
 1978SOL    HW217397   4.172   0.096   3.889 -0.6554  1.5722 -1.6014
 1979SOL     OW17398   1.008   4.466   5.064 -0.3689  0.1248 -0.4328
 1979SOL    HW117399   0.982   4.510   4.983  1.0429  0.2444 -0.8187
 1979SOL    HW217400   1.033   4.378   5.036 -1.6001  0.4610 -2.6113
 1980SOL     OW17401   2.276   0.367   4.949 -0.1007 -0.2458  0.3763
 1980SOL    HW117402   2.282   0.428   5.023  0.2451  0.6241 -0.3735
 1980SOL    HW217403   2.194   0.402   4.914  0.0735 -1.6961 -1.4658
 1981SOL     OW17404   3.363   0.826   2.439  0.0934  0.1032  0.7649
 1981SOL    HW117405   3.373   0.738   2.476  0.7348 -0.5601 -0.9501
 1981SOL    HW217406   3.286   0.809   2.384 -0.1612  2.9631  0.2490
 1982SOL     OW17407   2.080   0.926  15.836 -0.4620 -0.4313 -0.1196
 1982SOL    HW117408   2.166   0.887  15.820 -0.6181 -0.5405 -0.6974
 1982SOL    HW217409   2.046   0.936  15.747 -0.6276  0.9279  0.0910
 1983SOL     OW17410   4.342   2.827   8.597  0.1417  0.0517  0.5219
 1983SOL    HW117411   4.400   2.758   8.565  0.7530  1.3243 -1.1473
 1983SOL    HW217412   4.302   2.791   8.676  0.5443 -1.3312  0.0993
 1984SOL     OW17413   3.237   1.442  11.161 -0.0899  0.1957 -0.2893
 1984SOL    HW117414   3.218   1.475  11.073  0.6874 -1.8647 -1.2339
 1984SOL    HW217415   3.158   1.479  11.200  0.0209 -1.3947  1.4552
 1985SOL     OW17416   3.328   4.164  15.387 -0.3516  0.3626 -0.0081
 1985SOL    HW117417   3.260   4.113  15.343 -2.0931  1.8527  0.9858
 1985SOL    HW217418   3.361   4.205  15.307  0.0377  0.7584  0.3544
 1986SOL     OW17419   1.261   4.211   6.860 -0.1191 -0.6966  0.2019
 1986SOL    HW117420   1.306   4.295   6.869  0.1912 -0.7983 -0.3464
 1986SOL    HW217421   1.262   4.183   6.951 -0.2358  1.0489  0.7320
 1987SOL     OW17422   4.607   1.800  15.361  0.0803  0.1622 -0.2342
 1987SOL    HW117423   4.663   1.776  15.434  3.7357  1.0652 -2.7457
 1987SOL    HW217424   4.564   1.717  15.342 -0.3291  0.4808 -0.7450
 1988SOL     OW17425   3.105   3.101   8.442 -0.1233 -0.1070  0.1997
 1988SOL    HW117426   3.193   3.137   8.429 -0.2118 -0.0411 -0.2069
 1988SOL    HW217427   3.086   3.069   8.354 -0.3905 -0.3166  0.3333
 1989SOL     OW17428   3.398   3.629  10.118  0.4029  0.0172  0.2549
 1989SOL    HW117429   3.440   3.679  10.188  2.4124  0.2964 -1.1329
 1989SOL    HW217430   3.344   3.574  10.174  2.8799 -1.8609  0.8242
 1990SOL     OW17431   3.493   4.560   3.142 -0.1165 -0.3984 -0.1169
 1990SOL    HW117432   3.418   4.555   3.083  0.3460  1.3482 -0.8632
 1990SOL    HW217433   3.451   4.558   3.228 -0.5615  3.7073 -0.2315
 1991SOL     OW17434   2.670   4.544   1.484  0.2854  0.3003 -0.0337
 1991SOL    HW117435   2.687   4.535   1.578 -1.8884  2.9135  0.6054
 1991SOL    HW217436   2.589   4.595   1.476 -0.0520 -0.6283 -2.6153
 1992SOL     OW17437   1.883   1.006  14.015  0.7313 -0.0759  0.1128
 1992SOL    HW117438   1.924   1.053  14.088  0.7826  2.2366 -1.4050
 1992SOL    HW217439   1.837   0.931  14.054 -1.2795  1.6252  0.9635
 1993SOL     OW17440   2.475   0.888   6.859  0.0389 -0.0223 -0.1540
 1993SOL    HW117441   2.495   0.809   6.908 -1.7392 -0.4325 -0.0899
 1993SOL    HW217442   2.530   0.873   6.781  0.4252  1.7380 -0.2317
 1994SOL     OW17443   2.099   1.782   8.134 -0.1259  0.0761  0.1684
 1994SOL    HW117444   2.020   1.773   8.081  0.8083 -0.2800 -1.1715
 1994SOL    HW217445   2.092   1.703   8.187  2.6887 -1.4550 -1.7186
 1995SOL     OW17446   1.415   3.020   6.390 -0.2349  0.5629 -0.3659
 1995SOL    HW117447   1.481   3.064   6.443  1.7701 -0.6155 -1.8906
 1995SOL    HW217448   1.388   3.090   6.330 -0.3348  1.2570  0.4963
 1996SOL     OW17449   0.804   3.615   1.524 -0.1439 -0.1232 -0.0284
 1996SOL    HW117450   0.850   3.576   1.598 -0.3478 -2.1423 -0.9672
 1996SOL    HW217451   0.774   3.538   1.476 -1.1937  0.2348  0.0437
 1997SOL     OW17452   2.920   3.652   2.897  0.0967  0.0814  0.1363
 1997SOL    HW117453   2.966   3.656   2.981  1.0319  2.5627 -0.4931
 1997SOL    HW217454   2.833   3.620   2.922  0.4996  1.8104  3.7858
 1998SOL     OW17455   3.392   0.086  12.576 -0.2736 -0.2712  0.6747
 1998SOL    HW117456   3.321   0.144  12.548  0.7061  0.2947 -0.6691
 1998SOL    HW217457   3.461   0.104  12.512  0.4183 -0.7014  1.2897
 1999SOL     OW17458   0.254   2.912   7.002 -0.3584 -0.0512 -0.1934
 1999SOL    HW117459   0.334   2.860   7.011 -0.4852 -0.2524 -0.2188
 1999SOL    HW217460   0.236   2.909   6.908  0.0580 -0.0019 -0.2746
 2000SOL     OW17461   3.235   3.921   1.873  0.4216 -0.0716  0.2444
 2000SOL    HW117462   3.251   4.005   1.916  2.5075  0.2391 -1.1838
 2000SOL    HW217463   3.253   3.948   1.784  1.8042 -3.0938 -0.3792
 2001SOL     OW17464   3.065   1.840   9.589 -0.4613 -0.4896 -0.6371
 2001SOL    HW117465   3.090   1.774   9.525 -0.4133  0.1685 -1.2894
 2001SOL    HW217466   3.001   1.795   9.645  0.4497 -1.6676 -0.5379
 2002SOL     OW17467   0.745   4.670  17.046 -0.1150 -0.7450 -0.4560
 2002SOL    HW117468   0.730   0.043  17.033 -0.3942 -0.5040  1.6185
 2002SOL    HW217469   0.773   4.658  17.137 -3.7140 -0.6948  0.6664
 2003SOL     OW17470   0.750   0.919   9.758  0.6333  0.0913 -0.1564
 2003SOL    HW117471   0.692   0.995   9.766  1.4317  0.9658 -2.8356
 2003SOL    HW217472   0.703   0.870   9.826  1.7416 -0.4732  0.2068
 2004SOL     OW17473   3.937   1.998  15.970  0.1263  0.4049  0.1477
 2004SOL    HW117474   3.941   1.964  16.060  0.2989 -2.2808 -0.8991
 2004SOL    HW217475   3.931   1.920  15.915  0.0777  0.7536 -0.3382
 2005SOL     OW17476   0.917   3.122  11.612  0.1990  0.0892  0.3277
 2005SOL    HW117477   1.011   3.125  11.631 -0.5643 -1.3692  4.2455
 2005SOL    HW217478   0.871   3.166  11.683  0.2978 -0.9022  0.9998
 2006SOL     OW17479   0.361   0.364   7.229 -0.2088  0.1211 -0.3331
 2006SOL    HW117480   0.393   0.426   7.163  0.4007 -0.1335 -0.2728
 2006SOL    HW217481   0.400   0.398   7.309  1.2569 -0.8326 -0.6468
 2007SOL     OW17482   1.036   4.209   3.719  0.0083  0.1515  0.0906
 2007SOL    HW117483   1.028   4.121   3.682  1.6455  0.0247  0.0086
 2007SOL    HW217484   1.059   4.191   3.810  1.8065 -2.5086 -0.8497
 2008SOL     OW17485   4.299   3.324   3.516 -0.6132 -0.1167  0.2411
 2008SOL    HW117486   4.376   3.373   3.487 -0.4764 -0.4203  0.0858
 2008SOL    HW217487   4.237   3.393   3.539  0.5322  1.4636 -1.3675
 2009SOL     OW17488   2.025   4.345   5.226 -0.7728  0.0752 -0.4047
 2009SOL    HW117489   1.954   4.322   5.166 -0.1481 -0.1806 -1.0509
 2009SOL    HW217490   1.993   4.305   5.307  0.5896 -0.6627 -0.2227
 2010SOL     OW17491   0.199   1.512   1.655  0.6405 -0.0280  0.2734
 2010SOL    HW117492   0.144   1.528   1.731  0.6441  0.0607  0.2567
 2010SOL    HW217493   0.284   1.514   1.700  1.0368 -0.1122 -0.4597
 2011SOL     OW17494   3.525   0.039   8.485 -0.0145 -0.7916 -0.2374
 2011SOL    HW117495   3.566   0.123   8.464 -0.0033 -0.6113  0.5445
 2011SOL    HW217496   3.514   4.721   8.398  1.3090  0.1768 -0.8448
 2012SOL     OW17497   0.080   0.318   8.251 -0.5327  0.3220  0.6047
 2012SOL    HW117498   0.023   0.342   8.324 -3.1403 -0.8864 -1.0576
 2012SOL    HW217499   0.162   0.287   8.291  0.8622  0.7878 -1.8890
 2013SOL     OW17500   1.516   0.628   0.559  0.0344  0.2049  0.3109
 2013SOL    HW117501   1.465   0.648   0.637  0.7399  0.5253  0.6930
 2013SOL    HW217502   1.475   0.678   0.489 -0.9928  4.1603  3.7625
 2014SOL     OW17503   0.728   2.249  11.775  0.5007 -0.2259 -0.1510
 2014SOL    HW117504   0.817   2.231  11.806  0.7761 -0.5230 -1.0982
 2014SOL    HW217505   0.747   2.291  11.691  0.7270 -1.0919 -0.5292
 2015SOL     OW17506   1.902   4.602   4.114  0.3197  0.2240 -0.0463
 2015SOL    HW117507   1.992   4.578   4.090 -0.5467 -3.1858  0.1019
 2015SOL    HW217508   1.850   4.525   4.089  1.1687 -0.5039  0.4262
 2016SOL     OW17509   0.298   1.731   4.274  0.3899  0.1005 -0.0353
 2016SOL    HW117510   0.297   1.821   4.305  0.8232 -0.0066  0.2798
 2016SOL    HW217511   0.207   1.710   4.298 -0.0032  0.4766 -1.1757
 2017SOL     OW17512   3.543   4.554   4.187  0.1495 -0.4316  0.3785
 2017SOL    HW117513   3.571   4.633   4.140  0.4593 -0.0816  1.1521
 2017SOL    HW217514   3.609   4.490   4.159  0.3099  0.4974 -1.4189
 2018SOL     OW17515   3.669   3.487  13.254 -0.1022  0.0906  0.0823
 2018SOL    HW117516   3.697   3.526  13.171  0.5832 -0.5877 -0.0060
 2018SOL    HW217517   3.576   3.485  13.234 -0.0453 -1.2533 -0.0779
 2019SOL     OW17518   4.454   2.763   6.917 -0.1789  0.1549 -0.5359
 2019SOL    HW117519   4.418   2.811   6.992 -0.6100  0.2626 -0.8129
 2019SOL    HW217520   4.373   2.718   6.893 -1.2551  0.0593  3.2162
 2020SOL     OW17521   4.176   1.043   8.469 -0.2307 -0.1390 -0.2415
 2020SOL    HW117522   4.245   0.981   8.492  0.2507  0.3395 -0.3965
 2020SOL    HW217523   4.118   0.982   8.423 -0.9764 -0.2144  0.8045
 2021SOL     OW17524   3.774   4.150   9.778  0.2394 -0.1509  0.4898
 2021SOL    HW117525   3.722   4.185   9.850 -0.4384  1.7168 -0.9004
 2021SOL    HW217526   3.809   4.065   9.805  3.2694  0.7868 -0.4833
 2022SOL     OW17527   3.829   1.649   8.646 -0.0305 -0.7611  0.3543
 2022SOL    HW117528   3.896   1.716   8.634 -1.5506  0.6565 -0.2162
 2022SOL    HW217529   3.849   1.588   8.576 -0.0781 -0.5355  0.1442
 2023SOL     OW17530   4.095   1.710  15.220  0.2558  0.8278 -0.0680
 2023SOL    HW117531   4.130   1.736  15.135  0.8966 -0.0066 -0.0592
 2023SOL    HW217532   4.028   1.648  15.190  2.7445 -1.1303 -1.5241
 2024SOL     OW17533   2.250   3.848   6.788  0.3822 -0.2443  0.2055
 2024SOL    HW117534   2.310   3.775   6.807 -0.8320 -1.8880 -2.4319
 2024SOL    HW217535   2.309   3.923   6.787 -0.9668  0.8467  2.3185
 2025SOL     OW17536   1.222   3.852   1.568 -0.5228  0.3873  0.4439
 2025SOL    HW117537   1.126   3.861   1.569 -0.4958  1.0972 -2.2677
 2025SOL    HW217538   1.232   3.883   1.478 -2.4503  2.5333  0.9456
 2026SOL     OW17539   4.073   2.149   3.444 -0.5053  0.1968  0.1835
 2026SOL    HW117540   4.065   2.220   3.380 -3.1199  0.3300  0.6628
 2026SOL    HW217541   3.984   2.115   3.431  0.3874 -2.2958  0.6661
 2027SOL     OW17542   3.158   0.398   4.062 -0.3761 -0.2894  0.1632
 2027SOL    HW117543   3.083   0.410   4.120  0.7989  0.9718  1.4113
 2027SOL    HW217544   3.168   0.303   4.063 -0.6077 -0.3168 -0.0295
 2028SOL     OW17545   1.285   3.229  12.162 -0.1987  0.6950 -0.0887
 2028SOL    HW117546   1.306   3.305  12.107 -1.3581  0.1494 -1.2634
 2028SOL    HW217547   1.372   3.190  12.166 -0.5538  0.0140  0.9197
 2029SOL     OW17548   2.471   1.930  15.123  0.1812 -0.7320 -0.3742
 2029SOL    HW117549   2.527   1.939  15.045  2.1327 -1.2920  0.9416
 2029SOL    HW217550   2.414   2.003  15.099 -0.1158 -0.5046  1.0403
 2030SOL     OW17551   4.072   0.128   4.462  0.1687 -0.2453 -0.6521
 2030SOL    HW117552   4.141   0.120   4.528  0.0887 -0.9833 -0.6635
 2030SOL    HW217553   4.100   0.069   4.391  1.3215 -0.0322 -0.3787
 2031SOL     OW17554   4.096   1.064  12.968 -0.0593  0.0624 -0.2847
 2031SOL    HW117555   4.128   1.136  12.913 -0.7196 -1.2760 -2.4073
 2031SOL    HW217556   4.013   1.104  12.993 -0.0220  0.8433 -1.3734
 2032SOL     OW17557   2.158   4.579   5.573  0.2232 -0.3954 -0.1813
 2032SOL    HW117558   2.170   4.491   5.609 -0.6267 -0.5971 -0.4044
 2032SOL    HW217559   2.146   4.627   5.654 -0.4352 -2.5452  1.0029
 2033SOL     OW17560   1.387   3.187   7.517 -0.1907 -0.6863 -0.0730
 2033SOL    HW117561   1.401   3.281   7.506 -1.1068 -0.3952  1.3780
 2033SOL    HW217562   1.336   3.179   7.436 -0.0276  1.3730 -0.3739
 2034SOL     OW17563   0.828   0.475   9.515 -0.6442  0.3990 -0.0346
 2034SOL    HW117564   0.794   0.510   9.433  0.3931 -0.4904 -0.8604
 2034SOL    HW217565   0.843   0.561   9.553  0.2588 -0.2559  1.1137
 2035SOL     OW17566   4.330   3.569   4.896 -0.2560  0.7553  0.0713
 2035SOL    HW117567   4.331   3.546   4.803  1.4295  1.2704 -0.0388
 2035SOL    HW217568   4.420   3.602   4.901  0.1697 -0.5746  1.0811
 2036SOL     OW17569   0.705   1.885   6.396  0.3808  0.4819  0.1737
 2036SOL    HW117570   0.713   1.902   6.490  1.4184 -0.8219  0.3198
 2036SOL    HW217571   0.647   1.809   6.387 -0.7677  1.4132 -0.3779
 2037SOL     OW17572   2.685   1.128   5.672  0.4406 -0.6096  0.3262
 2037SOL    HW117573   2.765   1.099   5.716  1.7161  1.2069 -0.8126
 2037SOL    HW217574   2.699   1.093   5.584  0.3593 -0.0719  0.0999
 2038SOL     OW17575   0.512   0.384   8.777 -0.1143 -0.4853 -0.2917
 2038SOL    HW117576   0.505   0.407   8.684  0.6680 -0.4573 -0.3430
 2038SOL    HW217577   0.424   0.350   8.791  0.4981 -0.8229  2.6839
 2039SOL     OW17578   4.248   2.333   7.087  0.4310 -0.3705 -0.0537
 2039SOL    HW117579   4.176   2.309   7.145  0.8671  1.3443  1.1687
 2039SOL    HW217580   4.326   2.323   7.141  0.8498  2.0180 -0.2325
 2040SOL     OW17581   2.632   1.199  16.829 -0.1298  0.3568  0.0832
 2040SOL    HW117582   2.536   1.191  16.827  0.1039 -2.9601  2.2310
 2040SOL    HW217583   2.635   1.291  16.804 -0.3403  0.1774 -0.6188
 2041SOL     OW17584   4.459   1.371  17.175  0.1317  0.7163 -0.4374
 2041SOL    HW117585   4.498   1.287  17.200 -0.3556  0.3909 -0.7769
 2041SOL    HW217586   4.421   1.349  17.090  0.3448 -1.8577  0.1116
 2042SOL     OW17587   3.156   0.999   5.968 -0.7272  0.2031  0.4166
 2042SOL    HW117588   3.225   1.054   5.931  1.1841 -0.9177  2.3482
 2042SOL    HW217589   3.213   0.941   6.017 -1.0167  1.0530  1.7552
 2043SOL     OW17590   0.204   3.570   7.459 -0.3306 -0.3624 -0.1235
 2043SOL    HW117591   0.299   3.566   7.469 -0.2488  0.7796 -0.3997
 2043SOL    HW217592   0.187   3.614   7.376  1.1751 -2.4816 -1.5573
 2044SOL     OW17593   0.133   3.547   6.341  1.0318 -0.5031 -0.4514
 2044SOL    HW117594   0.070   3.556   6.413 -0.0342  2.4648 -1.7797
 2044SOL    HW217595   0.140   3.453   6.324  3.7578 -0.9599  2.9556
 2045SOL     OW17596   2.387   2.144   9.917  0.4880 -0.3588  0.0898
 2045SOL    HW117597   2.335   2.068   9.890 -1.5954  0.3220  2.2111
 2045SOL    HW217598   2.471   2.109   9.949  0.7308 -1.6086 -1.9250
 2046SOL     OW17599   2.393   3.456   6.622 -0.2420 -0.2081  0.2168
 2046SOL    HW117600   2.391   3.366   6.654 -2.5410 -0.5751 -0.9558
 2046SOL    HW217601   2.401   3.451   6.526  2.1790  0.7642  0.3618
 2047SOL     OW17602   4.344   2.911   5.567  0.5115 -0.2065 -0.5305
 2047SOL    HW117603   4.408   2.875   5.505 -0.0978  2.0272 -2.4653
 2047SOL    HW217604   4.408   2.951   5.625  2.4609 -0.4851 -2.4775
 2048SOL     OW17605   1.878   2.336   7.912  0.0192  0.2032  0.2632
 2048SOL    HW117606   1.810   2.273   7.936  0.0987 -0.4174 -1.1645
 2048SOL    HW217607   1.906   2.377   7.994  1.8176 -0.4888 -0.0066
 2049SOL     OW17608   1.214   1.860   9.731  0.0946  0.0080 -0.2279
 2049SOL    HW117609   1.179   1.790   9.786 -0.2516 -0.6677 -1.2821
 2049SOL    HW217610   1.168   1.938   9.761  0.5344 -0.3838  1.4182
 2050SOL     OW17611   2.701   0.591   8.258 -0.1362 -0.4389  0.3073
 2050SOL    HW117612   2.673   0.524   8.196  3.2148 -2.2679  0.7527
 2050SOL    HW217613   2.619   0.637   8.279  0.4181  1.2787 -1.2465
 2051SOL     OW17614   2.433   1.260   3.575  0.0906 -0.5805  0.1400
 2051SOL    HW117615   2.384   1.210   3.510  0.1857  1.1685 -1.2676
 2051SOL    HW217616   2.414   1.350   3.549 -0.0921 -0.3020  1.2278
 2052SOL     OW17617   3.785   2.646   6.304  0.1395 -0.1481 -0.0399
 2052SOL    HW117618   3.857   2.627   6.243 -1.2040 -0.4748 -1.5365
 2052SOL    HW217619   3.716   2.585   6.277 -0.1791 -0.0880  0.6398
 2053SOL     OW17620   1.447   0.879   2.882 -0.4719 -0.0898 -0.4499
 2053SOL    HW117621   1.365   0.864   2.835  0.1665  2.0390 -2.2411
 2053SOL    HW217622   1.475   0.965   2.850 -3.4947  1.0147 -0.1016
 2054SOL     OW17623   2.460   4.218   2.094 -0.7935  0.0866  0.0221
 2054SOL    HW117624   2.483   4.147   2.033  0.1008  0.3791  0.0221
 2054SOL    HW217625   2.372   4.185   2.115 -1.1483  0.4457 -0.9009
 2055SOL     OW17626   4.014   2.142  11.006 -0.1432  0.4994 -0.0085
 2055SOL    HW117627   4.075   2.191  10.952  1.1891 -0.6152  0.4918
 2055SOL    HW217628   3.987   2.211  11.067 -0.2328 -0.9779  1.6550
 2056SOL     OW17629   1.253   3.247   2.918 -0.0998  0.4809 -0.0164
 2056SOL    HW117630   1.171   3.212   2.954 -0.7142  1.1078 -0.7734
 2056SOL    HW217631   1.219   3.319   2.864  0.9991  1.7861  1.0327
 2057SOL     OW17632   3.646   4.058   2.300  0.8119  0.2904  0.5157
 2057SOL    HW117633   3.596   3.980   2.277  1.5015 -0.8314  2.7978
 2057SOL    HW217634   3.606   4.082   2.384 -2.5752 -0.5487 -0.8645
 2058SOL     OW17635   4.704   1.284   2.354 -0.6091 -0.4737 -0.0891
 2058SOL    HW117636   4.632   1.340   2.327 -1.2694 -1.3174 -0.0988
 2058SOL    HW217637   4.647   1.238   2.416 -2.0193 -2.4892 -2.8604
 2059SOL     OW17638   2.780   0.550   7.569 -0.3819 -0.4101  0.3880
 2059SOL    HW117639   2.701   0.597   7.543 -0.2010  1.3900  3.1644
 2059SOL    HW217640   2.785   0.481   7.502  0.4781  0.0177  0.0222
 2060SOL     OW17641   3.618   3.128  12.296  0.3302 -0.3053  0.0660
 2060SOL    HW117642   3.665   3.091  12.371 -2.6380 -2.6383  0.7827
 2060SOL    HW217643   3.574   3.196  12.346 -0.4963  0.0917 -1.1825
 2061SOL     OW17644   1.861   3.585  15.764 -0.4572 -0.4010  0.0179
 2061SOL    HW117645   1.904   3.625  15.688  1.2795 -0.1677  1.1293
 2061SOL    HW217646   1.797   3.655  15.779  1.6885  1.4442  0.4134
 2062SOL     OW17647   1.961   1.061   3.751 -0.2131  0.5768 -0.0817
 2062SOL    HW117648   1.923   0.978   3.723  0.5174  0.0512  0.4692
 2062SOL    HW217649   2.051   1.033   3.766 -0.4325 -2.1660 -3.9054
 2063SOL     OW17650   2.822   2.483   6.250 -0.4290 -0.1906  0.3197
 2063SOL    HW117651   2.901   2.501   6.302 -0.3184 -1.3315  0.5679
 2063SOL    HW217652   2.859   2.478   6.162  0.7076  0.2468  0.7785
 2064SOL     OW17653   1.733   1.043   1.522  0.3188 -0.0685 -0.0692
 2064SOL    HW117654   1.774   0.964   1.487  2.4634  1.8484 -1.8843
 2064SOL    HW217655   1.761   1.112   1.462 -0.2522 -0.5140 -0.8524
 2065SOL     OW17656   4.499   3.053   5.728  0.3887 -0.1336  0.0263
 2065SOL    HW117657   4.530   2.993   5.796  1.6506  0.3525 -0.1014
 2065SOL    HW217658   4.544   3.130   5.764 -2.3063  1.4259 -0.0096
 2066SOL     OW17659   0.703   4.026  11.666 -0.2752 -0.5221  0.5633
 2066SOL    HW117660   0.702   3.936  11.635  0.0802 -0.5749  0.7071
 2066SOL    HW217661   0.724   4.026  11.760  0.2037  0.2762  0.4593
 2067SOL     OW17662   1.688   0.559  10.921 -0.3304  0.3086 -0.2954
 2067SOL    HW117663   1.757   0.615  10.955  1.2150 -0.2519 -2.5353
 2067SOL    HW217664   1.679   0.602  10.836 -2.0017 -1.0441 -0.8107
 2068SOL     OW17665   1.995   4.238   3.962  0.4768  0.1670  0.0409
 2068SOL    HW117666   2.076   4.192   3.940  0.0852 -0.0209 -0.9955
 2068SOL    HW217667   2.009   4.277   4.048  1.3434  1.6574 -0.7722
 2069SOL     OW17668   4.428   4.652   3.768  0.0997  0.1284  0.3811
 2069SOL    HW117669   4.355   4.710   3.788  0.1491 -0.2074  1.5045
 2069SOL    HW217670   4.468   4.713   3.706  1.4126 -1.4615 -0.3587
 2070SOL     OW17671   3.093   1.181  11.271  0.1618 -0.3224 -0.5603
 2070SOL    HW117672   3.185   1.185  11.244  0.6322 -0.3153  1.0256
 2070SOL    HW217673   3.105   1.111  11.336 -0.2439 -1.2415 -1.4759
 2071SOL     OW17674   0.599   2.457   2.959  0.1792  0.0553 -0.2303
 2071SOL    HW117675   0.529   2.394   2.946 -0.2320  0.5438 -0.3969
 2071SOL    HW217676   0.545   2.534   2.977  0.8612 -0.0042  2.0341
 2072SOL     OW17677   4.534   1.455   8.365  0.1823  0.2009  0.1667
 2072SOL    HW117678   4.508   1.372   8.326  0.9387  1.0007 -2.0498
 2072SOL    HW217679   4.549   1.509   8.287  2.7976 -0.7038  0.0487
 2073SOL     OW17680   1.402   4.515  12.381  0.5876  0.5243  0.1011
 2073SOL    HW117681   1.370   4.446  12.439  0.6755  0.0218 -0.4449
 2073SOL    HW217682   1.363   4.596  12.415 -1.2537  0.4169 -1.7038
 2074SOL     OW17683   1.280   2.574   7.484  0.4612 -0.3330 -0.1025
 2074SOL    HW117684   1.279   2.482   7.456 -0.2557  0.0550 -1.3275
 2074SOL    HW217685   1.275   2.609   7.395  1.4607 -0.3505 -0.1676
 2075SOL     OW17686   1.496   4.716   3.911 -0.3557 -0.1906 -0.3122
 2075SOL    HW117687   1.590   0.007   3.919 -0.2646  1.6559 -4.1433
 2075SOL    HW217688   1.462   0.059   3.973  0.8942  0.8736 -0.7189
 2076SOL     OW17689   3.960   2.141   2.563 -0.6295 -0.3122 -0.6556
 2076SOL    HW117690   4.025   2.079   2.529 -2.5780 -2.2783 -0.8114
 2076SOL    HW217691   3.890   2.078   2.580  0.7201 -1.4433  0.6917
 2077SOL     OW17692   3.980   2.256  15.878 -0.2576 -0.0828 -0.2275
 2077SOL    HW117693   3.987   2.225  15.787 -0.9762 -0.7397 -0.0630
 2077SOL    HW217694   3.975   2.167  15.915  0.4041 -0.4307 -0.9705
 2078SOL     OW17695   3.906   3.308  11.614  0.1695  0.3877  0.2348
 2078SOL    HW117696   3.947   3.394  11.623 -0.1730  0.7341 -1.3861
 2078SOL    HW217697   3.967   3.254  11.565 -2.0928 -1.5552 -0.4106
 2079SOL     OW17698   1.761   4.318   0.985 -0.2548 -0.4743 -0.0666
 2079SOL    HW117699   1.758   4.282   0.896  1.8504  1.3684 -0.8920
 2079SOL    HW217700   1.850   4.292   1.012 -0.9047  2.0013  4.5472
 2080SOL     OW17701   1.417   0.856   7.122 -0.6411  0.2249  0.1101
 2080SOL    HW117702   1.502   0.869   7.164  0.4655  1.3532 -2.4954
 2080SOL    HW217703   1.358   0.931   7.133 -0.1158  0.4341  1.4889
 2081SOL     OW17704   1.935   3.514   2.605  0.2817 -0.1215 -0.3911
 2081SOL    HW117705   1.919   3.581   2.538 -0.3918  2.1779  2.0783
 2081SOL    HW217706   1.866   3.449   2.590  0.9089 -1.0592  0.8270
 2082SOL     OW17707   0.131   1.976   1.918  0.3968 -0.0902  0.3487
 2082SOL    HW117708   0.194   1.905   1.908  0.0326 -0.3770  0.0591
 2082SOL    HW217709   0.117   1.968   2.012 -1.5165  1.4525  0.2070
 2083SOL     OW17710   3.514   2.640   7.225 -0.2846 -0.4567 -0.2361
 2083SOL    HW117711   3.582   2.601   7.280 -0.8755 -1.2011 -0.0308
 2083SOL    HW217712   3.429   2.625   7.266 -0.1986  0.4239  0.2535
 2084SOL     OW17713   0.890   0.482   7.018  0.0239  0.0683 -0.0886
 2084SOL    HW117714   0.925   0.425   7.086 -0.2159 -0.9287 -0.7932
 2084SOL    HW217715   0.909   0.434   6.937 -0.9345  0.3104 -0.4645
 2085SOL     OW17716   3.691   3.189  15.490 -0.0886 -0.0716  0.1043
 2085SOL    HW117717   3.603   3.209  15.459  0.2643  0.1797 -0.7134
 2085SOL    HW217718   3.724   3.278  15.491 -1.2449  0.3592  1.4305
 2086SOL     OW17719   3.053   2.792  13.283 -0.3003  0.3897 -0.0454
 2086SOL    HW117720   3.009   2.800  13.198  1.7927 -1.2370 -1.2732
 2086SOL    HW217721   3.146   2.782  13.262 -0.3001 -0.1410  0.2087
 2087SOL     OW17722   0.565   1.624   0.169 -0.0539  0.1007 -0.2508
 2087SOL    HW117723   0.575   1.595   0.260  0.2126  1.0230  0.0114
 2087SOL    HW217724   0.518   1.549   0.132  1.0904  0.0818 -1.6752
 2088SOL     OW17725   1.288   2.533   6.060  0.6960  0.0861 -0.5208
 2088SOL    HW117726   1.312   2.622   6.087  0.4015  0.3726 -1.1965
 2088SOL    HW217727   1.318   2.540   5.970  4.8683  1.5547  1.0018
 2089SOL     OW17728   4.199   2.745   9.749 -0.2261 -0.1157 -0.3180
 2089SOL    HW117729   4.190   2.800   9.826 -1.0184  0.6628 -0.9638
 2089SOL    HW217730   4.146   2.669   9.776 -0.0909 -0.7741 -1.8878
 2090SOL     OW17731   3.787   2.463   5.640 -0.1707  0.1180  0.2704
 2090SOL    HW117732   3.783   2.558   5.637 -0.7626  0.1820  3.6491
 2090SOL    HW217733   3.694   2.439   5.632 -0.2585  1.1715 -1.8382
 2091SOL     OW17734   3.046   2.029   8.264  0.5413  0.1190 -0.0255
 2091SOL    HW117735   2.966   2.025   8.211 -0.6426  0.3805  1.7358
 2091SOL    HW217736   3.029   1.962   8.330  0.9647  2.2763  2.2624
 2092SOL     OW17737   3.740   3.257   3.785 -0.1720  0.0715  0.1883
 2092SOL    HW117738   3.680   3.276   3.857 -0.5102 -2.4702  0.5585
 2092SOL    HW217739   3.712   3.320   3.719  0.2449  0.1234  0.0559
 2093SOL     OW17740   2.923   0.513  16.703  0.7949  0.6673 -0.3620
 2093SOL    HW117741   2.847   0.504  16.646 -0.2767  0.5343  1.0952
 2093SOL    HW217742   2.993   0.472  16.652 -0.0011  0.5029 -1.3321
 2094SOL     OW17743   2.039   2.976  15.116  0.0661  0.7325 -0.2910
 2094SOL    HW117744   2.101   2.987  15.044 -0.1823  1.1907 -0.4365
 2094SOL    HW217745   1.967   2.937  15.066 -0.6188  0.6011  0.8031
 2095SOL     OW17746   2.065   1.733   6.418  0.2927 -0.1074  0.0927
 2095SOL    HW117747   2.125   1.789   6.368 -0.1736  0.5621  0.2834
 2095SOL    HW217748   2.036   1.793   6.487 -1.8323  0.3385 -1.1872
 2096SOL     OW17749   0.991   2.076   6.125 -0.2347  0.6347 -0.0202
 2096SOL    HW117750   1.037   2.160   6.132 -1.6181  1.4895 -1.3404
 2096SOL    HW217751   1.000   2.059   6.032  1.6731  2.2727 -0.1421
 2097SOL     OW17752   1.719   1.843   2.647 -1.1233  0.5876  0.2560
 2097SOL    HW117753   1.796   1.896   2.626 -0.2283 -0.1503  1.6819
 2097SOL    HW217754   1.758   1.780   2.707 -1.9637 -0.4136 -0.2399
 2098SOL     OW17755   4.231   0.454   5.360  0.4462 -0.1489 -0.0458
 2098SOL    HW117756   4.148   0.448   5.407  0.7426 -0.6539  0.4077
 2098SOL    HW217757   4.235   0.366   5.323 -1.4587  0.2814 -1.2802
 2099SOL     OW17758   3.287   4.482   2.949  0.1978 -0.4029  0.6839
 2099SOL    HW117759   3.195   4.478   2.924  0.0524 -0.7317  1.2777
 2099SOL    HW217760   3.331   4.404   2.917  2.4919  1.3729 -0.5430
 2100SOL     OW17761   0.609   0.767   9.472 -0.2075 -0.1313  0.1679
 2100SOL    HW117762   0.608   0.863   9.469 -0.8598 -0.1689 -0.8131
 2100SOL    HW217763   0.704   0.758   9.481  0.1491 -0.6436 -3.8212
 2101SOL     OW17764   3.761   4.562   3.977 -1.0902 -0.1071  0.7364
 2101SOL    HW117765   3.821   4.609   3.919  2.3624 -1.9464  2.8344
 2101SOL    HW217766   3.699   4.632   3.996 -0.1088  0.6813  0.9680
 2102SOL     OW17767   4.175   4.105   3.988 -0.5669 -0.4596 -0.1366
 2102SOL    HW117768   4.148   4.125   3.899 -0.0487  0.4549 -0.0943
 2102SOL    HW217769   4.224   4.026   3.966 -0.9251 -0.8935  0.6242
 2103SOL     OW17770   2.204   3.776   5.552 -0.2604  0.1893  0.0237
 2103SOL    HW117771   2.181   3.857   5.506 -0.0360 -0.2400 -0.8434
 2103SOL    HW217772   2.160   3.793   5.635  0.3674 -1.3797  0.6781
 2104SOL     OW17773   3.810   2.306   6.638 -0.2101  0.0841  0.3466
 2104SOL    HW117774   3.878   2.278   6.700 -0.9470 -0.4245  0.9250
 2104SOL    HW217775   3.771   2.373   6.695  2.0549  0.4101  1.5116
 2105SOL     OW17776   3.312   2.143   8.268  0.3688 -0.0376 -0.3162
 2105SOL    HW117777   3.353   2.073   8.216 -3.4403 -2.3386 -0.2260
 2105SOL    HW217778   3.222   2.147   8.235  0.1482 -0.3929  0.2503
 2106SOL     OW17779   3.166   3.369   3.845  0.2825  0.2331 -0.5411
 2106SOL    HW117780   3.152   3.463   3.848  0.5695  0.3179 -2.0617
 2106SOL    HW217781   3.259   3.377   3.826  0.0624  0.8160 -1.3538
 2107SOL     OW17782   1.952   1.163  17.355  0.0215 -0.3118 -0.0950
 2107SOL    HW117783   1.969   1.198  17.268  0.5109 -1.0301 -0.2935
 2107SOL    HW217784   1.862   1.132  17.347  0.1803 -0.7438 -0.2089
 2108SOL     OW17785   0.792   3.452   4.466 -0.3414  0.4320 -0.7137
 2108SOL    HW117786   0.754   3.383   4.520  1.9491  0.4821  0.9623
 2108SOL    HW217787   0.759   3.529   4.512  1.2861  0.9525 -0.4254
 2109SOL     OW17788   0.023   0.091   0.577 -0.0963 -0.2056 -0.0501
 2109SOL    HW117789   0.063   0.088   0.490 -0.8768  0.2348 -0.4208
 2109SOL    HW217790   4.690   0.013   0.578 -2.1643  1.2497  1.2039
 2110SOL     OW17791   1.906   4.305   6.269  0.0280  0.0904 -0.5050
 2110SOL    HW117792   1.903   4.400   6.258 -1.4457  0.2093  0.7506
 2110SOL    HW217793   1.997   4.276   6.271  0.3469  1.0619 -0.9909
 2111SOL     OW17794   4.530   3.707   9.335  0.7528 -0.0191  0.2700
 2111SOL    HW117795   4.448   3.684   9.377  0.8354 -0.7805  0.0271
 2111SOL    HW217796   4.503   3.795   9.310  2.0974  0.1226 -0.7312
 2112SOL     OW17797   3.501   0.182   8.089  0.3505  0.5903 -0.0937
 2112SOL    HW117798   3.533   0.254   8.144 -0.3854  0.1087  0.9766
 2112SOL    HW217799   3.509   0.109   8.150 -1.2896 -0.3794 -1.0447
 2113SOL     OW17800   1.533   3.912   4.414  0.8220 -0.1979 -0.2760
 2113SOL    HW117801   1.572   3.999   4.413  1.6503 -0.5551  0.5372
 2113SOL    HW217802   1.605   3.854   4.440  0.8527 -0.6628 -1.3903
 2114SOL     OW17803   1.256   2.180  15.198 -0.6230  0.2080 -0.1741
 2114SOL    HW117804   1.162   2.164  15.205 -0.4262 -0.0879  1.9566
 2114SOL    HW217805   1.285   2.090  15.187 -2.0247 -0.2443 -0.1696
 2115SOL     OW17806   1.983   3.733   8.038  0.2054  0.3426 -0.3943
 2115SOL    HW117807   1.923   3.793   7.993 -1.3917 -1.7599 -1.0539
 2115SOL    HW217808   1.933   3.699   8.112 -1.5837 -0.3507 -1.9098
 2116SOL     OW17809   1.841   2.809   7.516 -0.1220  0.6266 -0.0918
 2116SOL    HW117810   1.916   2.753   7.492 -0.6525 -0.1245  0.0082
 2116SOL    HW217811   1.801   2.827   7.431 -1.5053 -1.4197  0.1157
 2117SOL     OW17812   1.487   3.568   4.538  0.6246  0.4673  0.4782
 2117SOL    HW117813   1.510   3.571   4.631  1.1658  1.4053  0.3066
 2117SOL    HW217814   1.575   3.569   4.502 -0.1808 -0.7107 -1.5078
 2118SOL     OW17815   1.953   1.223   5.689 -0.0519 -0.2151 -0.1772
 2118SOL    HW117816   1.918   1.194   5.605  1.1384 -1.0483 -0.3737
 2118SOL    HW217817   2.046   1.203   5.681  0.5489  2.0360  0.9647
 2119SOL     OW17818   3.108   3.602   2.372 -0.0401 -0.5896 -0.4017
 2119SOL    HW117819   3.163   3.680   2.360 -0.7918  0.1974  1.1206
 2119SOL    HW217820   3.076   3.634   2.457  0.8667  0.2043 -0.3538
 2120SOL     OW17821   1.048   3.336  16.011 -0.0069 -0.1054 -0.4676
 2120SOL    HW117822   1.120   3.329  15.948 -0.1917  3.0791 -1.0414
 2120SOL    HW217823   1.008   3.417  15.977  2.8823  0.6728 -2.0992
 2121SOL     OW17824   3.027   2.443   5.822 -0.1786  0.1370 -0.6317
 2121SOL    HW117825   2.963   2.513   5.833 -1.5486 -0.8753 -2.0827
 2121SOL    HW217826   2.967   2.371   5.842  0.7160 -0.7431 -1.1053
 2122SOL     OW17827   3.249   3.465   5.276  0.1808  0.1868  0.2022
 2122SOL    HW117828   3.322   3.408   5.251  0.6174  1.6023 -1.7122
 2122SOL    HW217829   3.191   3.394   5.304  2.3116 -2.0987 -1.1316
 2123SOL     OW17830   3.905   3.628  14.662 -0.8278 -0.5156 -0.5901
 2123SOL    HW117831   3.995   3.607  14.686 -0.4530  0.4167 -1.1391
 2123SOL    HW217832   3.921   3.651  14.570 -0.9290  1.8994 -0.0139
 2124SOL     OW17833   1.061   2.204   2.900  0.0234 -0.2710  0.3843
 2124SOL    HW117834   1.098   2.289   2.924  0.0661  0.3497 -1.8963
 2124SOL    HW217835   0.975   2.205   2.942 -0.1240 -2.5848  0.1510
 2125SOL     OW17836   2.096   2.868   4.681  0.2758 -0.0350 -0.1912
 2125SOL    HW117837   2.158   2.857   4.609  0.5941 -1.4782  0.3191
 2125SOL    HW217838   2.144   2.921   4.746  2.1376  1.6638 -2.9547
 2126SOL     OW17839   3.015   0.227   7.422  0.4164 -0.0004  0.0499
 2126SOL    HW117840   2.997   0.245   7.330 -0.5242  0.0185  0.2355
 2126SOL    HW217841   3.091   0.169   7.414  1.1485  0.9248  0.3244
 2127SOL     OW17842   1.549   0.264  10.106 -0.6146 -0.0127 -0.1216
 2127SOL    HW117843   1.552   0.359  10.097 -1.8296  0.3006  2.6175
 2127SOL    HW217844   1.472   0.266  10.163 -0.6920 -2.5956 -0.1645
 2128SOL     OW17845   0.218   0.804   8.349 -0.0099  0.3507  0.1400
 2128SOL    HW117846   0.259   0.732   8.397 -0.2772  1.5984  2.2280
 2128SOL    HW217847   0.250   0.782   8.261  0.3033  0.1689  0.3006
 2129SOL     OW17848   0.262   3.396  16.108 -0.0739 -0.2856 -0.1135
 2129SOL    HW117849   0.216   3.312  16.113 -3.5128  1.5823 -0.3713
 2129SOL    HW217850   0.193   3.460  16.125  0.0273 -0.5042  1.1190
 2130SOL     OW17851   2.167   2.162   3.806 -0.1226  0.3489 -0.2092
 2130SOL    HW117852   2.099   2.230   3.808  0.9190  1.4098 -0.7744
 2130SOL    HW217853   2.135   2.119   3.885 -0.2147 -1.4130 -1.2111
 2131SOL     OW17854   2.958   0.745   1.728 -0.0394 -0.1824  0.8466
 2131SOL    HW117855   2.906   0.807   1.779  0.5064  1.2351 -0.3281
 2131SOL    HW217856   2.894   0.724   1.660  0.3796 -0.9144  0.6723
 2132SOL     OW17857   4.602   1.213   3.404 -0.4214  0.2406 -0.5287
 2132SOL    HW117858   4.692   1.241   3.388 -0.8176  1.2814 -0.9541
 2132SOL    HW217859   4.561   1.177   3.325 -0.8497 -0.0820 -0.1598
 2133SOL     OW17860   0.015   3.426   8.655  0.0453 -0.7114 -0.6427
 2133SOL    HW117861   4.714   3.475   8.734 -0.8458 -0.0250 -1.3152
 2133SOL    HW217862   0.005   3.338   8.691  2.4632 -0.2730  1.0515
 2134SOL     OW17863   3.425   3.073   1.449 -0.3057 -0.0899  0.2198
 2134SOL    HW117864   3.400   2.994   1.496  0.0354 -1.7945 -2.4217
 2134SOL    HW217865   3.407   3.035   1.363 -2.6208  1.2813  0.0882
 2135SOL     OW17866   2.668   0.454  15.381  0.3557  1.0376  0.1591
 2135SOL    HW117867   2.633   0.419  15.299  1.8151  0.8852 -0.4079
 2135SOL    HW217868   2.720   0.529  15.353  0.5846  1.6334  2.1941
 2136SOL     OW17869   2.105   0.570  10.073  0.0603  0.0356  0.0709
 2136SOL    HW117870   2.068   0.653  10.103  0.9152  0.2427  0.5505
 2136SOL    HW217871   2.165   0.591  10.002  1.0265 -2.5975  0.1166
 2137SOL     OW17872   4.271   4.276  11.679  0.8673 -0.0739 -0.2345
 2137SOL    HW117873   4.260   4.194  11.727 -0.4630 -0.6253 -1.4915
 2137SOL    HW217874   4.345   4.315  11.726  2.0782 -2.8368  0.1571
 2138SOL     OW17875   1.321   3.736   8.550  0.2709  0.1575  0.1298
 2138SOL    HW117876   1.404   3.732   8.599  0.4954  1.7202 -0.1326
 2138SOL    HW217877   1.331   3.652   8.505 -0.8389  0.2081 -0.1932
 2139SOL     OW17878   3.523   1.356   8.662  0.2608  0.0210  0.1077
 2139SOL    HW117879   3.428   1.345   8.664  0.5003 -2.0909 -0.7061
 2139SOL    HW217880   3.536   1.448   8.686 -2.4905  0.0980  1.3089
 2140SOL     OW17881   0.796   3.233   5.362 -0.7657  0.8372  0.0998
 2140SOL    HW117882   0.833   3.311   5.404  2.8218  0.4804 -2.3191
 2140SOL    HW217883   0.832   3.169   5.424  1.9248  0.0001 -2.2879
 2141SOL     OW17884   3.416   1.134   5.933  0.3948  0.5424  0.3018
 2141SOL    HW117885   3.417   1.134   5.837  0.8053 -0.6466  0.3050
 2141SOL    HW217886   3.401   1.228   5.943 -0.7640  0.1374  2.5007
 2142SOL     OW17887   1.135   1.878   7.920  0.2444 -0.1915 -0.5077
 2142SOL    HW117888   1.077   1.865   7.994  0.6317  1.0028  0.0039
 2142SOL    HW217889   1.070   1.858   7.853 -1.3648 -1.0401  1.3111
 2143SOL     OW17890   1.445   2.771   6.858 -0.3835  0.3031  0.4207
 2143SOL    HW117891   1.460   2.859   6.824  0.6512  0.3940  1.1096
 2143SOL    HW217892   1.521   2.729   6.817 -2.2114 -1.3891 -1.2517
 2144SOL     OW17893   0.856   0.737   9.605  0.1929  0.4659 -0.1286
 2144SOL    HW117894   0.949   0.760   9.601  0.1468  0.9544  1.6419
 2144SOL    HW217895   0.813   0.802   9.659  1.7281  2.0538 -0.8168
 2145SOL     OW17896   3.985   0.679   8.785  0.1041  0.6584  0.2734
 2145SOL    HW117897   3.964   0.668   8.692  3.5066 -2.3733 -0.1147
 2145SOL    HW217898   3.902   0.661   8.830  0.1804 -0.2471  0.0474
 2146SOL     OW17899   0.132   3.779  16.858 -0.3266  0.1401 -0.3202
 2146SOL    HW117900   0.120   3.818  16.771 -1.7400  0.0315 -0.1725
 2146SOL    HW217901   0.046   3.765  16.897 -0.4901 -1.3147 -1.2082
 2147SOL     OW17902   1.989   3.699   0.944  0.1398 -0.0880  0.5067
 2147SOL    HW117903   2.045   3.770   0.976 -1.4761  0.8221  1.2908
 2147SOL    HW217904   2.053   3.643   0.899  0.7391  0.0159  1.2305
 2148SOL     OW17905   2.690   3.928   9.891  0.0699 -0.2848 -0.1903
 2148SOL    HW117906   2.666   3.976   9.970  1.3468  1.9135 -1.1475
 2148SOL    HW217907   2.606   3.938   9.846  0.1259 -1.1251 -0.4928
 2149SOL     OW17908   1.418   0.524   1.357  0.5479 -0.2036  0.8041
 2149SOL    HW117909   1.470   0.577   1.417  0.2412  2.0634 -0.9614
 2149SOL    HW217910   1.330   0.544   1.389  0.5893  3.7057 -1.5894
 2150SOL     OW17911   0.994   3.177   0.824 -0.1559 -0.0929  0.1262
 2150SOL    HW117912   0.972   3.140   0.910 -1.1062  0.2898  0.0487
 2150SOL    HW217913   1.055   3.249   0.841  1.3398 -1.2693 -0.2719
 2151SOL     OW17914   2.864   0.037   6.464 -0.5580  0.0512  0.2282
 2151SOL    HW117915   2.901   4.701   6.397  1.6354  3.2823 -1.3267
 2151SOL    HW217916   2.812   4.694   6.512 -0.4740 -1.3652 -1.5947
 2152SOL     OW17917   2.572   4.052   6.218 -0.3150 -0.2585  0.1280
 2152SOL    HW117918   2.569   4.054   6.123  1.9848 -2.0591  0.0299
 2152SOL    HW217919   2.645   3.996   6.243 -0.8925 -0.7709  0.6959
 2153SOL     OW17920   4.517   1.611  15.006  0.9428  0.8511 -0.2972
 2153SOL    HW117921   4.611   1.626  15.013  0.9848  0.0643  0.8434
 2153SOL    HW217922   4.477   1.685  14.961  0.5411  1.7895  1.6087
 2154SOL     OW17923   1.432   3.028   2.951 -0.1960  0.0493 -0.0371
 2154SOL    HW117924   1.424   3.011   2.857  1.0869  0.7561 -0.2762
 2154SOL    HW217925   1.376   3.106   2.950  2.1391  1.7302  0.8104
 2155SOL     OW17926   2.318   3.312  12.042 -0.0490  0.2874  0.1671
 2155SOL    HW117927   2.310   3.233  12.095 -0.5808 -0.6376 -1.2810
 2155SOL    HW217928   2.366   3.358  12.110 -1.7553  0.0828  1.4866
 2156SOL     OW17929   4.439   4.658   7.505  0.1273  0.4438 -0.4418
 2156SOL    HW117930   4.392   0.017   7.523  2.3530  1.8745 -0.9818
 2156SOL    HW217931   4.465   4.679   7.415  2.2874 -3.5274 -0.7863
 2157SOL     OW17932   2.868   1.094   5.075  0.0622  0.2270  0.3786
 2157SOL    HW117933   2.866   1.184   5.042  0.4832 -0.5366 -1.6971
 2157SOL    HW217934   2.780   1.066   5.051  0.3157  0.5471 -0.8773
 2158SOL     OW17935   4.200   3.195   0.616  0.9319 -0.1574 -0.1057
 2158SOL    HW117936   4.143   3.260   0.575 -0.7403 -0.2615  2.0834
 2158SOL    HW217937   4.215   3.234   0.702  2.0464  0.3265 -0.5273
 2159SOL     OW17938   4.643   2.119   7.371  0.0862  0.4180 -0.2982
 2159SOL    HW117939   4.662   2.042   7.424  1.3565  1.2016  0.3891
 2159SOL    HW217940   4.695   2.184   7.419 -2.0025  1.4312  0.5768
 2160SOL     OW17941   4.681   1.355   0.923 -0.2227 -0.1408  0.2458
 2160SOL    HW117942   4.630   1.434   0.906 -0.4727 -0.6367 -1.3375
 2160SOL    HW217943   4.621   1.287   0.954 -0.5546  0.5122  1.0415
 2161SOL     OW17944   3.490   3.799   1.813 -0.0263  0.4440 -0.1052
 2161SOL    HW117945   3.406   3.838   1.837 -0.5677  1.0171 -3.0388
 2161SOL    HW217946   3.550   3.869   1.785 -0.1555 -0.0974 -1.6975
 2162SOL     OW17947   1.241   1.191   5.817  0.0476  0.2183 -0.2481
 2162SOL    HW117948   1.263   1.263   5.876 -1.5374 -0.7985  1.5887
 2162SOL    HW217949   1.296   1.202   5.740  0.9590 -0.6825  0.2746
 2163SOL     OW17950   2.170   3.721  10.517  0.3973  0.0508 -0.2472
 2163SOL    HW117951   2.171   3.661  10.591 -0.1093 -0.3099 -0.5237
 2163SOL    HW217952   2.262   3.745  10.509  0.9186 -2.3006 -1.4120
 2164SOL     OW17953   4.236   3.290   5.200 -0.0687  0.2693 -0.0292
 2164SOL    HW117954   4.254   3.226   5.131 -0.6147 -0.4323  0.4817
 2164SOL    HW217955   4.292   3.252   5.268 -2.3491 -0.6114  1.3228
 2165SOL     OW17956   2.445   1.442  14.517 -0.0989  0.2673 -0.4894
 2165SOL    HW117957   2.397   1.521  14.491 -1.8703 -0.2359  1.2554
 2165SOL    HW217958   2.383   1.376  14.485 -1.9650  1.4898  0.6466
 2166SOL     OW17959   0.878   1.899   4.233 -0.2159  0.0656 -0.2398
 2166SOL    HW117960   0.912   1.872   4.148 -1.5371  0.5715 -0.9447
 2166SOL    HW217961   0.832   1.820   4.260  0.8855 -0.7295 -0.7221
 2167SOL     OW17962   4.452   0.827  17.605 -0.3944 -0.1783 -0.0413
 2167SOL    HW117963   4.482   0.917  17.592 -0.6358  0.2643  2.3357
 2167SOL    HW217964   4.386   0.829  17.674  1.2332  1.0078  1.5037
 2168SOL     OW17965   0.387   0.448   2.524 -0.1093  0.4454 -0.5107
 2168SOL    HW117966   0.332   0.480   2.595  0.0028 -0.2200 -0.1287
 2168SOL    HW217967   0.313   0.407   2.479  1.4602 -2.4629 -0.4013
 2169SOL     OW17968   4.375   1.867   7.797  0.3282  0.2827 -0.3587
 2169SOL    HW117969   4.341   1.779   7.785 -2.6731  1.8562 -3.5187
 2169SOL    HW217970   4.451   1.864   7.738  0.3414 -0.0487 -0.3222
 2170SOL     OW17971   4.682   3.459   7.103 -0.0802  0.1736 -0.3098
 2170SOL    HW117972   4.683   3.379   7.050  0.9306  1.0423 -1.6054
 2170SOL    HW217973   4.594   3.494   7.090  0.2824  0.8386 -0.9997
 2171SOL     OW17974   2.814   1.994   5.131 -0.0204 -0.0641  0.4115
 2171SOL    HW117975   2.807   2.058   5.059 -0.5978 -1.3118 -0.6538
 2171SOL    HW217976   2.894   1.946   5.110 -0.5832 -1.0702  0.5651
 2172SOL     OW17977   3.139   1.910   9.092  0.2034 -0.6635 -0.6915
 2172SOL    HW117978   3.195   1.953   9.156 -0.9998  0.4993 -0.4210
 2172SOL    HW217979   3.051   1.906   9.129 -0.3193 -3.0109 -2.1374
 2173SOL     OW17980   4.207   0.825  11.659  0.4035 -1.0487 -0.1758
 2173SOL    HW117981   4.268   0.800  11.589  0.1112 -1.7493 -0.1784
 2173SOL    HW217982   4.141   0.760  11.637 -1.3585  0.6479  0.1231
 2174SOL     OW17983   4.325   2.459   9.617 -0.2330 -0.0346 -0.5990
 2174SOL    HW117984   4.328   2.363   9.609 -1.7323  0.1801 -3.8860
 2174SOL    HW217985   4.417   2.475   9.635 -0.2043  0.3311 -1.0919
 2175SOL     OW17986   3.181   3.814   4.073  0.6552  0.1150 -0.0691
 2175SOL    HW117987   3.197   3.879   4.004  1.5451 -2.0155 -1.8601
 2175SOL    HW217988   3.270   3.799   4.105  0.7277  0.5067 -0.0872
 2176SOL     OW17989   3.699   2.606   3.019  0.3259 -0.2290 -0.3073
 2176SOL    HW117990   3.672   2.611   3.111  0.7483 -1.1304 -0.1358
 2176SOL    HW217991   3.648   2.675   2.976  0.4257  0.0088 -0.0391
 2177SOL     OW17992   0.693   0.207   2.698  0.3382 -0.5245  0.0352
 2177SOL    HW117993   0.648   0.216   2.782  1.1932  1.1126  0.3236
 2177SOL    HW217994   0.733   0.121   2.715  0.5589 -0.6131 -0.9225
 2178SOL     OW17995   2.080   4.572  14.387  0.1689 -0.2244 -0.0068
 2178SOL    HW117996   2.096   4.479  14.374 -0.3895 -0.1593 -1.1612
 2178SOL    HW217997   1.990   4.573  14.422  1.5438  1.1498  3.4831
 2179SOL     OW17998   1.355   1.657  15.454 -0.1554  0.4949 -0.2950
 2179SOL    HW117999   1.349   1.752  15.448  0.6354  0.4953 -1.1040
 2179SOL    HW218000   1.334   1.657  15.547 -1.9860 -0.5481 -0.7058
 2180SOL     OW18001   3.552   3.856   2.737  0.4033  0.5966  0.0510
 2180SOL    HW118002   3.521   3.775   2.697 -1.4091  1.3615 -0.0701
 2180SOL    HW218003   3.577   3.818   2.822 -2.2350 -1.3188 -0.0512
 2181SOL     OW18004   0.665   0.524   7.672  0.1918  0.0305 -0.3350
 2181SOL    HW118005   0.664   0.531   7.576 -1.5857  0.2908 -0.2925
 2181SOL    HW218006   0.597   0.458   7.683  2.1624 -2.2972 -2.1507
 2182SOL     OW18007   3.763   1.218  17.639 -0.3128  0.8059 -0.0833
 2182SOL    HW118008   3.843   1.250  17.680 -1.1228 -0.0633  2.1738
 2182SOL    HW218009   3.697   1.216   0.021 -0.3280 -1.9040 -0.1692
 2183SOL     OW18010   0.628   4.573   7.928 -0.2513 -0.0600 -0.3297
 2183SOL    HW118011   0.581   4.516   7.989 -0.5338  0.1856 -0.3181
 2183SOL    HW218012   0.553   4.599   7.875 -0.7653 -0.1258  0.3550
 2184SOL     OW18013   1.346   1.892   6.974  0.4038 -0.5638 -0.4552
 2184SOL    HW118014   1.288   1.950   7.024  0.3904 -0.0286 -1.0931
 2184SOL    HW218015   1.289   1.817   6.958 -0.6085  0.6383 -2.4506
 2185SOL     OW18016   3.865   1.257  13.021  0.0354 -0.3059 -0.0867
 2185SOL    HW118017   3.894   1.226  13.107 -0.9311 -2.3764 -0.5139
 2185SOL    HW218018   3.866   1.351  13.039 -0.3767 -0.3952  0.4044
 2186SOL     OW18019   0.470   3.261   0.918  0.3576 -0.3842  0.1829
 2186SOL    HW118020   0.550   3.212   0.901  1.0578  1.7657 -2.7818
 2186SOL    HW218021   0.405   3.194   0.899 -1.1170  1.1205 -0.0990
 2187SOL     OW18022   4.273   4.567   1.212  0.2839  0.1762  0.2223
 2187SOL    HW118023   4.314   4.650   1.236  0.7664  0.7042 -2.4863
 2187SOL    HW218024   4.191   4.571   1.261  0.6110  1.8277  0.6382
 2188SOL     OW18025   4.609   3.868   3.507 -0.2337 -0.0753  0.4733
 2188SOL    HW118026   4.571   3.816   3.436  0.9485 -0.2773 -0.0103
 2188SOL    HW218027   4.563   3.832   3.583 -0.3371 -2.4593 -0.7161
 2189SOL     OW18028   3.573   2.649  12.062  0.5234  0.4869  0.2694
 2189SOL    HW118029   3.520   2.623  11.987 -0.8112 -0.1782  1.4341
 2189SOL    HW218030   3.627   2.713  12.014  1.3762 -0.6983 -0.3525
 2190SOL     OW18031   3.912   1.770   5.801  0.2489 -0.2934  0.1803
 2190SOL    HW118032   3.954   1.849   5.835  1.7514  0.4224 -3.2165
 2190SOL    HW218033   3.902   1.798   5.710 -0.6766 -0.0825  0.3512
 2191SOL     OW18034   4.701   4.366   5.802 -0.1421  0.3109 -0.4305
 2191SOL    HW118035   4.673   4.361   5.711 -0.3775 -0.7720 -0.2940
 2191SOL    HW218036   0.066   4.325   5.806 -0.0565  0.7284  1.9731
 2192SOL     OW18037   2.280   2.978  14.930  0.2055  0.3939  0.3195
 2192SOL    HW118038   2.362   2.968  14.881  1.6198 -0.1400  2.8232
 2192SOL    HW218039   2.232   3.033  14.869  1.6817  0.7054 -0.5698
 2193SOL     OW18040   4.279   0.527   8.452 -0.5501 -0.0683  0.1572
 2193SOL    HW118041   4.279   0.447   8.400  0.2541 -0.9899  1.5991
 2193SOL    HW218042   4.289   0.487   8.538 -0.2806  2.3147  1.2315
 2194SOL     OW18043   4.271   1.929  17.415  0.0890 -0.3181 -0.3980
 2194SOL    HW118044   4.210   1.857  17.431  0.6823 -0.5052  1.0089
 2194SOL    HW218045   4.200   1.994  17.410 -2.2008 -2.8597 -0.7643
 2195SOL     OW18046   1.151   3.755   5.875  0.3661  0.0084  0.2224
 2195SOL    HW118047   1.102   3.712   5.945  0.1226  0.6370  0.4407
 2195SOL    HW218048   1.185   3.829   5.927 -0.6664  0.3309  0.4402
 2196SOL     OW18049   3.269   3.822   2.355  0.1628 -0.0848 -0.1322
 2196SOL    HW118050   3.253   3.886   2.425  3.2753  1.4892 -0.8741
 2196SOL    HW218051   3.342   3.856   2.303 -0.2247  2.6306  1.0730
 2197SOL     OW18052   1.593   4.427   6.192  0.4771 -0.5783 -0.5143
 2197SOL    HW118053   1.658   4.485   6.152 -1.1355  0.4735 -1.5904
 2197SOL    HW218054   1.654   4.381   6.250  0.7740  1.9887  1.2316
 2198SOL     OW18055   3.141   1.970   1.378  0.1407  0.2947 -0.4054
 2198SOL    HW118056   3.076   1.989   1.311 -0.4852  1.4200  0.5310
 2198SOL    HW218057   3.188   1.904   1.326  2.3357  0.0648  1.8899
 2199SOL     OW18058   3.437   2.725  12.545 -0.0960 -0.1141 -0.4732
 2199SOL    HW118059   3.380   2.798  12.570 -1.8738 -1.4088 -0.7314
 2199SOL    HW218060   3.472   2.759  12.463  1.1134 -1.2270 -0.4188
 2200SOL     OW18061   1.595   2.944   2.299  0.6552 -0.1409  0.0685
 2200SOL    HW118062   1.641   2.948   2.215 -1.4868  0.1222 -1.0853
 2200SOL    HW218063   1.670   2.917   2.353 -1.2495 -1.8995  1.8547
 2201SOL     OW18064   0.452   2.301   3.713  0.3741 -0.2811  0.4667
 2201SOL    HW118065   0.411   2.246   3.779  1.9971 -1.5263  0.4404
 2201SOL    HW218066   0.486   2.244   3.643  0.5098 -0.2793  0.5323
 2202SOL     OW18067   0.532   1.082  14.232  0.0647  0.5920  0.3929
 2202SOL    HW118068   0.583   1.155  14.199  1.0948  0.0933  0.8733
 2202SOL    HW218069   0.455   1.075  14.175  1.5661  0.2610 -1.5695
 2203SOL     OW18070   0.972   4.453  13.932  0.1709 -0.4754  0.1014
 2203SOL    HW118071   1.028   4.376  13.937 -2.1529 -2.1486  0.2349
 2203SOL    HW218072   1.018   4.514  13.991  0.5901  0.0792 -0.8022
 2204SOL     OW18073   3.631   4.311   6.681  0.0977  0.3546 -0.1692
 2204SOL    HW118074   3.708   4.262   6.709  0.4010 -0.2688 -2.0716
 2204SOL    HW218075   3.612   4.278   6.593  0.7142  3.1181 -1.3290
 2205SOL     OW18076   3.939   1.945   9.027 -0.1395  0.1721 -0.1708
 2205SOL    HW118077   3.956   2.038   9.037 -2.5794  0.6623 -0.4341
 2205SOL    HW218078   3.981   1.930   8.943 -1.3425 -0.0404 -0.7415
 2206SOL     OW18079   0.411   0.856  14.050  0.0431  0.2043 -0.1330
 2206SOL    HW118080   0.318   0.848  14.031  0.6600 -1.6989 -2.4996
 2206SOL    HW218081   0.421   0.939  14.002 -1.7647 -0.3729 -1.5134
 2207SOL     OW18082   1.946   4.264  11.700  0.1296 -0.5699 -0.0819
 2207SOL    HW118083   2.038   4.238  11.706  0.5544  0.9744  0.0354
 2207SOL    HW218084   1.944   4.322  11.624  0.0511 -0.7945 -0.2504
 2208SOL     OW18085   3.622   2.864  11.700  0.1087  0.2589 -0.6236
 2208SOL    HW118086   3.625   2.935  11.637  1.5063  1.5550  0.9090
 2208SOL    HW218087   3.688   2.894  11.763  1.8242  0.3853 -2.4840
 2209SOL     OW18088   2.459   4.621  16.640 -0.2797  0.0021  0.0426
 2209SOL    HW118089   2.390   4.686  16.626  0.6167  1.4369  2.3659
 2209SOL    HW218090   2.488   4.647  16.727 -1.7474 -0.1030  0.5600
 2210SOL     OW18091   1.105   0.047   5.190 -0.2066  0.2956  0.0066
 2210SOL    HW118092   1.098   4.675   5.206 -1.6141  0.4780  0.4150
 2210SOL    HW218093   1.172   0.073   5.253 -0.3476  0.0429  0.2554
 2211SOL     OW18094   4.480   1.411  16.671 -0.1391  0.1677  0.3440
 2211SOL    HW118095   4.562   1.460  16.678  0.4780 -0.7056 -0.6598
 2211SOL    HW218096   4.517   1.323  16.666 -0.5866  0.1288 -2.3833
 2212SOL     OW18097   2.860   2.736   2.110 -0.2994  0.4116 -0.3196
 2212SOL    HW118098   2.947   2.697   2.111  0.1679  1.4328 -0.2019
 2212SOL    HW218099   2.830   2.679   2.180 -4.4808  1.9144 -0.8745
 2213SOL     OW18100   1.995   1.291   5.122 -0.1240  0.1996 -0.1864
 2213SOL    HW118101   1.987   1.249   5.207  0.2930  0.3377 -0.0759
 2213SOL    HW218102   1.906   1.319   5.103  0.6696  3.0484  0.2338
 2214SOL     OW18103   3.962   1.469  11.542 -0.0888 -0.1469 -0.7572
 2214SOL    HW118104   3.952   1.533  11.472  0.7491  1.1157  0.2967
 2214SOL    HW218105   3.945   1.527  11.616  2.5626 -0.0606 -0.2161
 2215SOL     OW18106   1.481   0.714   6.152 -0.5258  0.6310 -0.4187
 2215SOL    HW118107   1.519   0.633   6.119 -0.3438  0.6188 -0.1744
 2215SOL    HW218108   1.485   0.704   6.247 -0.4446 -0.2420 -0.5134
 2216SOL     OW18109   2.228   0.110   4.878  0.5328  0.4655  0.2792
 2216SOL    HW118110   2.236   0.197   4.918 -0.7605  0.5641  0.3021
 2216SOL    HW218111   2.134   0.100   4.893  0.3818  0.5868 -0.6203
 2217SOL     OW18112   1.674   0.860  12.088  0.4678  0.1395 -0.8719
 2217SOL    HW118113   1.636   0.905  12.013  0.3234  1.4862  0.0164
 2217SOL    HW218114   1.700   0.777  12.047  1.3403  1.7927 -3.6458
 2218SOL     OW18115   2.377   2.953   3.351  0.6468  0.8206  0.0861
 2218SOL    HW118116   2.321   2.976   3.276 -1.9291 -1.2872  1.3884
 2218SOL    HW218117   2.461   2.985   3.318  0.4561  2.3540  1.0965
 2219SOL     OW18118   3.304   2.074   6.455 -1.0039 -0.0065  0.1936
 2219SOL    HW118119   3.228   2.103   6.403 -0.6071 -1.1116 -1.0275
 2219SOL    HW218120   3.347   2.157   6.476 -0.6979 -0.3538  0.9333
 2220SOL     OW18121   0.575   0.352  15.658 -0.4866  0.0689 -0.5480
 2220SOL    HW118122   0.635   0.413  15.616 -1.8487  1.8851  0.1201
 2220SOL    HW218123   0.494   0.402  15.666  0.8404  2.0735  0.5211
 2221SOL     OW18124   4.690   0.743   3.622  0.1583  0.2969  0.2450
 2221SOL    HW118125   4.675   0.692   3.702  1.2307  1.9318  1.4714
 2221SOL    HW218126   4.629   0.813   3.646  1.0525  1.2922 -0.3642
 2222SOL     OW18127   1.408   1.886   7.959  0.3020  0.7419  0.2698
 2222SOL    HW118128   1.394   1.830   8.036 -0.8453  1.0229  0.2639
 2222SOL    HW218129   1.324   1.891   7.913  0.0006  1.0270  0.8473
 2223SOL     OW18130   3.548   2.115   4.438  0.1362 -0.1041  0.0397
 2223SOL    HW118131   3.595   2.044   4.481  1.0575  1.2257  1.2108
 2223SOL    HW218132   3.602   2.188   4.467 -0.5250  1.2416 -2.0605
 2224SOL     OW18133   2.934   3.999   2.911 -0.7929 -0.3254 -0.0752
 2224SOL    HW118134   2.959   3.916   2.871 -2.2470  0.3261 -2.3813
 2224SOL    HW218135   2.989   4.051   2.853 -1.6746  2.5854  1.6949
 2225SOL     OW18136   2.676   2.362   3.155 -0.3301 -0.1922 -0.1555
 2225SOL    HW118137   2.677   2.453   3.124 -0.0966  0.0263  0.4989
 2225SOL    HW218138   2.595   2.329   3.116  0.6042 -2.1392 -0.4607
 2226SOL     OW18139   3.125   1.349   6.744  0.3470  0.3243 -0.0250
 2226SOL    HW118140   3.096   1.436   6.717  0.5924  0.9784  1.8490
 2226SOL    HW218141   3.183   1.378   6.814 -0.1486  0.7643  0.2019
 2227SOL     OW18142   1.691   0.031  11.354 -0.3795 -0.1509  0.0452
 2227SOL    HW118143   1.611   4.716  11.315  1.0384  0.1247 -3.0847
 2227SOL    HW218144   1.692   0.121  11.319  1.7169  0.1139  0.8239
 2228SOL     OW18145   0.537   2.251   3.272  0.3774  0.5133  0.2593
 2228SOL    HW118146   0.471   2.288   3.215 -0.9758 -0.0790  1.4415
 2228SOL    HW218147   0.551   2.161   3.242  1.3112  1.0986 -1.0373
 2229SOL     OW18148   4.641   3.501   7.865 -0.4942 -0.1724  0.3767
 2229SOL    HW118149   4.715   3.444   7.844 -0.8159 -1.6517  3.3222
 2229SOL    HW218150   4.631   3.554   7.786 -0.7540  0.1068  0.5973
 2230SOL     OW18151   0.117   3.187   7.432 -0.1093 -0.3064 -0.7191
 2230SOL    HW118152   0.133   3.148   7.518  0.6886  1.6680  0.0281
 2230SOL    HW218153   0.156   3.119   7.377 -0.9042  0.5854 -2.3826
 2231SOL     OW18154   4.398   3.167  16.383 -0.9440 -0.6015 -0.0255
 2231SOL    HW118155   4.378   3.155  16.475  0.3143  1.6999  0.5399
 2231SOL    HW218156   4.484   3.125  16.384  0.2153  1.7299 -0.0691
 2232SOL     OW18157   2.773   4.109   3.795 -0.0509  0.0460  0.2946
 2232SOL    HW118158   2.714   4.035   3.805 -1.4357  1.0497 -0.3325
 2232SOL    HW218159   2.707   4.179   3.791  1.0384  1.1487  1.3765
 2233SOL     OW18160   2.800   4.114   4.154  0.5753 -0.0131 -0.2796
 2233SOL    HW118161   2.793   4.026   4.116 -1.1487 -0.2924  0.6756
 2233SOL    HW218162   2.865   4.147   4.092 -0.5084  0.6159 -1.0802
 2234SOL     OW18163   0.737   3.033   5.958 -0.7828 -0.4541 -0.3613
 2234SOL    HW118164   0.683   2.969   5.910  0.4287 -2.4419  0.9185
 2234SOL    HW218165   0.808   3.024   5.894  0.9635  1.5601  1.3504
 2235SOL     OW18166   1.588   2.871   6.624  0.0296  0.3646  0.1050
 2235SOL    HW118167   1.548   2.956   6.607  0.7084  1.0066  1.7083
 2235SOL    HW218168   1.682   2.887   6.617  0.1712  0.5903  2.5153
 2236SOL     OW18169   1.624   3.365   9.194  0.2330 -0.2210 -0.4120
 2236SOL    HW118170   1.557   3.345   9.260  2.5209  0.1559  2.0224
 2236SOL    HW218171   1.678   3.286   9.190 -0.7600 -0.8710 -0.8482
 2237SOL     OW18172   2.954   4.653   3.250 -0.9981  0.3750 -0.0884
 2237SOL    HW118173   2.896   4.716   3.207 -1.4197  0.1490  0.1554
 2237SOL    HW218174   2.918   4.569   3.223  0.8337 -0.9033  1.4092
 2238SOL     OW18175   1.127   2.291   8.544  0.9158  0.4482 -0.2784
 2238SOL    HW118176   1.166   2.286   8.631  0.6752 -0.3381 -0.2104
 2238SOL    HW218177   1.187   2.234   8.495  0.7774 -0.3547  0.4812
 2239SOL     OW18178   1.379   0.064   7.291 -0.1676  0.3596  0.4316
 2239SOL    HW118179   1.411   0.095   7.376  0.1226 -0.6981  0.7130
 2239SOL    HW218180   1.292   0.034   7.318 -1.7814  2.0237 -2.9436
 2240SOL     OW18181   3.261   1.019   7.625  0.0050  0.0979 -0.9858
 2240SOL    HW118182   3.334   1.046   7.681  0.2785 -1.3520 -0.6481
 2240SOL    HW218183   3.278   1.058   7.539 -0.9553 -1.1610 -1.7370
 2241SOL     OW18184   4.068   1.360  17.087 -0.1515 -0.3604  0.3286
 2241SOL    HW118185   4.060   1.348  16.992 -2.9405 -0.3526  0.5620
 2241SOL    HW218186   3.978   1.380  17.111 -0.9544 -3.7331  0.0883
 2242SOL     OW18187   2.498   2.777   8.363 -0.5496 -0.2730  0.6628
 2242SOL    HW118188   2.515   2.771   8.457 -0.6649 -1.4466  0.6138
 2242SOL    HW218189   2.445   2.700   8.341  0.9277 -1.3050  0.6896
 2243SOL     OW18190   3.542   0.190   3.794 -0.4671  0.3625 -0.0911
 2243SOL    HW118191   3.614   0.202   3.732  1.4178 -0.4705  1.9180
 2243SOL    HW218192   3.467   0.182   3.735  0.2012 -0.2771 -0.8461
 2244SOL     OW18193   0.370   1.987   1.393 -0.2881 -0.1400  0.2476
 2244SOL    HW118194   0.449   2.037   1.413 -0.3125 -1.0812  2.6803
 2244SOL    HW218195   0.310   1.995   1.467 -0.5094 -0.8497  0.1479
 2245SOL     OW18196   0.630   4.138   6.506  0.3386  0.1877 -0.1849
 2245SOL    HW118197   0.677   4.074   6.453 -0.9768  0.3323 -1.5508
 2245SOL    HW218198   0.543   4.143   6.464  0.1093  0.5709  0.3384
 2246SOL     OW18199   2.417   2.586   7.163 -0.0146  0.1968  0.2524
 2246SOL    HW118200   2.329   2.585   7.200  0.2433 -0.2467  0.8486
 2246SOL    HW218201   2.468   2.620   7.236 -0.5236 -1.1107  1.1995
 2247SOL     OW18202   2.565   3.709   1.064 -0.5434 -0.3394  0.3175
 2247SOL    HW118203   2.625   3.635   1.074 -0.3560 -0.2876 -0.4130
 2247SOL    HW218204   2.616   3.780   1.102  1.0082 -1.2391 -0.0923
 2248SOL     OW18205   4.203   3.800  14.103 -0.3233 -0.2430 -0.2588
 2248SOL    HW118206   4.132   3.770  14.047 -0.7255  2.0926 -1.0423
 2248SOL    HW218207   4.168   3.879  14.144 -1.6169 -0.6646 -0.5573
 2249SOL     OW18208   1.667   0.512   5.922  0.0855  1.1894  0.1232
 2249SOL    HW118209   1.690   0.424   5.891 -0.8578 -0.5323  4.4093
 2249SOL    HW218210   1.751   0.559   5.918  1.5708 -1.7196 -2.7679
 2250SOL     OW18211   4.119   4.076   5.676 -0.1294  0.4486  0.0548
 2250SOL    HW118212   4.051   4.136   5.647  0.5052  0.7469 -0.8226
 2250SOL    HW218213   4.058   4.004   5.694  0.6095  0.2022  1.5929
 2251SOL     OW18214   0.165   1.556   6.336 -1.1230  0.2025  0.1299
 2251SOL    HW118215   0.226   1.511   6.278 -4.2603 -1.0800 -2.1933
 2251SOL    HW218216   0.124   1.623   6.281 -0.0814  0.0062 -0.8767
 2252SOL     OW18217   3.645   4.174   3.551 -0.1931  0.1975  0.2129
 2252SOL    HW118218   3.686   4.165   3.465  0.9459 -0.0808  0.7924
 2252SOL    HW218219   3.575   4.238   3.536 -0.6403  0.4801  3.5619
 2253SOL     OW18220   0.453   3.669   5.312  0.0485  0.2540 -0.6216
 2253SOL    HW118221   0.460   3.706   5.224 -0.6945 -0.2370 -0.8837
 2253SOL    HW218222   0.425   3.579   5.296  0.2755 -0.1692  1.3771
 2254SOL     OW18223   1.995   1.409  14.893 -0.0228  0.2172 -0.7588
 2254SOL    HW118224   1.956   1.471  14.954 -0.3539 -0.8471  0.1182
 2254SOL    HW218225   1.932   1.339  14.912 -0.3166  0.4460 -0.8971
 2255SOL     OW18226   1.402   1.600   2.148 -0.4240 -0.5456 -0.8585
 2255SOL    HW118227   1.309   1.606   2.170 -0.0046  0.2902  0.6974
 2255SOL    HW218228   1.406   1.644   2.064 -2.1991 -1.6806 -1.5387
 2256SOL     OW18229   2.248   1.449  16.745  0.2226  0.4298 -0.3069
 2256SOL    HW118230   2.290   1.493  16.820  0.2306  0.5786 -0.3977
 2256SOL    HW218231   2.288   1.366  16.768 -0.3537 -0.5544 -2.8284
 2257SOL     OW18232   4.088   4.570   8.327 -0.1527 -0.1645  0.5377
 2257SOL    HW118233   4.008   4.616   8.352 -0.7938 -1.8304  1.6365
 2257SOL    HW218234   4.144   4.579   8.404 -1.1865 -0.5414  1.3389
 2258SOL     OW18235   4.528   0.290  13.191  0.2764  0.2239  0.0357
 2258SOL    HW118236   4.509   0.198  13.212  2.0037 -0.0914  0.2635
 2258SOL    HW218237   4.621   0.302  13.172  0.2463  0.6924  0.1915
 2259SOL     OW18238   1.049   1.899   8.265  0.7077 -0.5435 -0.0198
 2259SOL    HW118239   0.972   1.873   8.316 -0.5274  1.5191 -0.8347
 2259SOL    HW218240   1.104   1.822   8.277  0.9898  0.2354  3.6500
 2260SOL     OW18241   0.227   2.407  11.948  0.2911  0.2519  0.3114
 2260SOL    HW118242   0.312   2.425  11.990 -0.2328 -0.7188  1.7861
 2260SOL    HW218243   0.189   2.333  11.995 -0.3586  0.3997  0.0256
 2261SOL     OW18244   2.795   0.993  10.975 -0.3359 -0.1061  0.4850
 2261SOL    HW118245   2.704   0.989  11.002 -0.7356 -0.2561 -0.8756
 2261SOL    HW218246   2.789   1.033  10.888 -1.7148 -3.1888 -0.8366
 2262SOL     OW18247   1.954   3.918   1.578  0.0660 -0.0190 -0.7275
 2262SOL    HW118248   2.006   3.849   1.619  0.0263  0.0867 -0.4986
 2262SOL    HW218249   1.952   3.904   1.484  1.0396 -0.5732 -0.6676
 2263SOL     OW18250   2.717   3.758   9.623  0.8131  0.2350 -0.6669
 2263SOL    HW118251   2.670   3.793   9.698  2.0355 -0.3957  0.3938
 2263SOL    HW218252   2.693   3.665   9.631 -0.3035  0.5238 -0.5881
 2264SOL     OW18253   3.729   0.725   6.839 -0.0548  0.5467  0.5050
 2264SOL    HW118254   3.782   0.673   6.779 -0.7151 -0.3987  0.7378
 2264SOL    HW218255   3.682   0.650   6.876  0.8795 -0.2111  0.1691
 2265SOL     OW18256   3.418   3.412  11.321  0.0728 -0.4508 -0.2175
 2265SOL    HW118257   3.401   3.342  11.258 -1.7679 -0.5575  0.3941
 2265SOL    HW218258   3.494   3.379  11.370 -0.0251  1.5304  1.2782
 2266SOL     OW18259   0.198   1.945   7.997  0.9334  0.0085  0.0190
 2266SOL    HW118260   0.246   1.938   8.080  0.9419 -0.7593 -0.0532
 2266SOL    HW218261   0.256   2.004   7.948 -1.2337  3.6270  1.8080
 2267SOL     OW18262   2.183   1.383   7.947 -0.2149  0.6322 -0.7638
 2267SOL    HW118263   2.109   1.441   7.924 -0.1580  2.3445  3.3291
 2267SOL    HW218264   2.181   1.343   8.034 -1.4498  1.5942 -0.3374
 2268SOL     OW18265   2.739   1.696   6.502  0.0953 -0.2622 -0.3441
 2268SOL    HW118266   2.793   1.698   6.423  0.6105 -2.5618 -0.0472
 2268SOL    HW218267   2.795   1.651   6.566 -1.1343 -0.2371  0.7613
 2269SOL     OW18268   0.392   3.185   3.679 -0.0067 -0.1006  0.7289
 2269SOL    HW118269   0.358   3.109   3.632 -1.0184  1.4951 -1.1527
 2269SOL    HW218270   0.482   3.182   3.646 -0.6024 -0.5895 -0.8551
 2270SOL     OW18271   4.118   0.485   1.744  0.4831  0.1002  0.9014
 2270SOL    HW118272   4.084   0.562   1.699 -0.5434 -1.4519 -0.9664
 2270SOL    HW218273   4.042   0.430   1.764  0.2624 -0.1041 -0.5130
 2271SOL     OW18274   1.455   0.157   8.196 -0.0488 -0.1314  0.2028
 2271SOL    HW118275   1.393   0.142   8.267  1.2564  0.1676  1.4026
 2271SOL    HW218276   1.415   0.115   8.120  0.0353 -0.0400  0.1077
 2272SOL     OW18277   3.785   0.673  12.203  0.1903 -0.0212 -0.1526
 2272SOL    HW118278   3.760   0.627  12.283 -0.1711  1.5020  0.6079
 2272SOL    HW218279   3.878   0.680  12.223  0.0578 -0.2254  0.5041
 2273SOL     OW18280   2.044   3.935  12.967  0.2188 -0.0224  0.4355
 2273SOL    HW118281   2.051   4.031  12.962  0.5781 -0.1298 -1.4991
 2273SOL    HW218282   2.138   3.913  12.967  0.3108  0.3237 -1.0540
 2274SOL     OW18283   4.322   2.173  11.155  0.1050  0.3288  0.1651
 2274SOL    HW118284   4.275   2.247  11.116  0.4960 -0.1227 -1.1492
 2274SOL    HW218285   4.282   2.096  11.116  3.2187 -1.2746  0.1624
 2275SOL     OW18286   4.357   1.027  12.034  0.3179  0.2190  0.3721
 2275SOL    HW118287   4.304   1.091  12.082  1.0023  0.8625  0.2754
 2275SOL    HW218288   4.433   1.023  12.091  0.2189  1.0832  0.5687
 2276SOL     OW18289   2.261   2.199   6.553  0.0438 -0.1965 -0.5236
 2276SOL    HW118290   2.213   2.239   6.481  0.2683 -1.4073 -1.3459
 2276SOL    HW218291   2.301   2.127   6.505 -1.9494 -2.8579  1.8361
 2277SOL     OW18292   2.760   3.524   1.050 -0.0701  0.0442 -0.8249
 2277SOL    HW118293   2.841   3.570   1.073 -1.4137  1.9607  0.0412
 2277SOL    HW218294   2.793   3.448   1.002 -0.1576 -0.7157  0.2921
 2278SOL     OW18295   4.555   1.188   8.708 -0.3755  0.2495 -0.1263
 2278SOL    HW118296   4.559   1.098   8.739  1.2887 -0.9638 -3.9866
 2278SOL    HW218297   4.470   1.195   8.665 -1.0448 -0.4778  1.0651
 2279SOL     OW18298   1.187   1.019  16.429  0.1156  0.2382  0.2151
 2279SOL    HW118299   1.140   1.042  16.349 -0.5038 -0.0113  0.5116
 2279SOL    HW218300   1.121   0.972  16.479 -2.5194  1.9542 -1.6166
 2280SOL     OW18301   3.196   1.187   4.959 -0.5746 -0.1063  0.6905
 2280SOL    HW118302   3.136   1.211   4.888  1.7767 -0.8777 -1.5728
 2280SOL    HW218303   3.262   1.148   4.902  0.6393  1.4431  1.0490
 2281SOL     OW18304   3.561   3.951  15.336  0.2270 -0.2419 -0.5152
 2281SOL    HW118305   3.511   4.033  15.334 -0.8947 -0.9148  0.1677
 2281SOL    HW218306   3.596   3.947  15.247  1.0271  1.2520 -0.2802
 2282SOL     OW18307   4.151   0.192   2.563  0.2098 -0.0524 -0.2078
 2282SOL    HW118308   4.215   0.141   2.612 -1.5404 -0.5244  1.6054
 2282SOL    HW218309   4.166   0.162   2.473 -0.4813 -0.2953 -0.2425
 2283SOL     OW18310   1.419   2.364   6.701 -0.0878  0.0763  0.5868
 2283SOL    HW118311   1.449   2.312   6.776 -0.2576  1.1121  1.3706
 2283SOL    HW218312   1.376   2.297   6.648  1.4433  1.1095 -1.9817
 2284SOL     OW18313   0.564   1.245   6.511 -0.0727  0.0986  0.1431
 2284SOL    HW118314   0.592   1.293   6.588 -0.2932  1.4524 -0.6220
 2284SOL    HW218315   0.520   1.174   6.559  0.6947  0.2131  1.0124
 2285SOL     OW18316   3.326   1.438   7.558  0.1743  0.3231 -0.6561
 2285SOL    HW118317   3.282   1.354   7.544  3.6696 -1.3180 -1.7812
 2285SOL    HW218318   3.244   1.483   7.541  0.1879  0.7515  0.3875
 2286SOL     OW18319   1.344   1.706  13.721  0.1237  0.0076  0.2770
 2286SOL    HW118320   1.290   1.774  13.680  0.5063 -0.2983 -0.7382
 2286SOL    HW218321   1.301   1.692  13.805 -0.8312 -0.8960 -0.3572
 2287SOL     OW18322   4.295   3.918   3.372  0.3586 -0.0803  0.4082
 2287SOL    HW118323   4.341   3.988   3.326 -0.7798  0.7019  0.4641
 2287SOL    HW218324   4.272   3.858   3.301  0.1912 -0.2508  0.6085
 2288SOL     OW18325   0.977   1.549   6.261 -0.6663 -0.5976  0.5935
 2288SOL    HW118326   1.024   1.616   6.212 -2.4156  0.1631 -0.0239
 2288SOL    HW218327   0.994   1.469   6.211  2.2332  0.0039  0.6134
 2289SOL     OW18328   0.202   4.444   6.105 -0.2864 -0.3763 -0.1676
 2289SOL    HW118329   0.231   4.387   6.033  1.3596 -2.5004  2.1781
 2289SOL    HW218330   0.252   4.523   6.085  2.2051 -1.4571  1.7463
 2290SOL     OW18331   0.136   1.075   1.681  0.2809  0.2495  0.6155
 2290SOL    HW118332   0.179   1.015   1.621  1.3948  0.4541  1.2049
 2290SOL    HW218333   0.145   1.156   1.630  1.4006  0.2736  0.8574
 2291SOL     OW18334   1.555   3.695   8.204  0.4215  0.0669 -0.3569
 2291SOL    HW118335   1.488   3.642   8.247  0.2383 -0.5504 -1.4245
 2291SOL    HW218336   1.515   3.713   8.119 -1.9157  2.0401  1.1205
 2292SOL     OW18337   2.593   1.842   8.703  0.1547 -0.3698  0.0311
 2292SOL    HW118338   2.630   1.755   8.713 -2.2899 -1.2644  1.3182
 2292SOL    HW218339   2.599   1.851   8.608 -1.4090  0.6987  0.0285
 2293SOL     OW18340   0.154   2.653   6.410 -0.1785  0.2906  0.1617
 2293SOL    HW118341   0.070   2.677   6.449  0.8434  1.9980  1.3553
 2293SOL    HW218342   0.184   2.586   6.471 -1.8714  1.0840  1.8670
 2294SOL     OW18343   0.980   3.340   4.318  0.1808 -0.1801  0.4786
 2294SOL    HW118344   1.046   3.405   4.343  0.1063  0.2547 -0.4326
 2294SOL    HW218345   0.902   3.383   4.353  0.1285 -0.2398  0.4367
 2295SOL     OW18346   4.230   0.566  10.911  0.1141 -0.8895 -0.2375
 2295SOL    HW118347   4.136   0.547  10.904 -0.4104  1.8368 -0.5166
 2295SOL    HW218348   4.268   0.485  10.946 -0.7613 -0.5415  1.5302
 2296SOL     OW18349   2.916   1.862   3.840  0.2775  0.6390 -0.4655
 2296SOL    HW118350   2.964   1.823   3.767 -0.3362  1.3914 -1.2575
 2296SOL    HW218351   2.952   1.950   3.834  1.2018  0.2801 -0.2199
 2297SOL     OW18352   3.344   2.831  15.812 -0.5437  0.3126 -0.0706
 2297SOL    HW118353   3.284   2.878  15.870 -0.9373 -1.2403  0.7823
 2297SOL    HW218354   3.412   2.796  15.869 -0.6603 -0.8143 -0.6288
 2298SOL     OW18355   2.807   1.993   7.646  0.4742  0.2586  0.4884
 2298SOL    HW118356   2.826   2.053   7.574  0.9473 -0.6632 -0.1536
 2298SOL    HW218357   2.711   1.993   7.646  0.4708  0.6889 -0.1192
 2299SOL     OW18358   4.309   4.179   3.498 -0.0859  0.2099 -0.0424
 2299SOL    HW118359   4.273   4.178   3.586 -2.7128  0.4969 -1.1063
 2299SOL    HW218360   4.285   4.091   3.469 -0.0602 -0.0102  0.6139
 2300SOL     OW18361   4.467   4.700   8.091 -0.2878  0.2132 -0.0235
 2300SOL    HW118362   4.519   4.630   8.052 -1.8399 -0.6511 -0.5494
 2300SOL    HW218363   4.386   4.649   8.097 -0.4535  0.7854  2.3282
 2301SOL     OW18364   0.424   4.496   8.333 -0.0709  0.8441  0.6511
 2301SOL    HW118365   0.442   4.417   8.385  1.3923  2.3072  2.4037
 2301SOL    HW218366   0.429   4.466   8.243 -1.5409 -1.1370  1.2247
 2302SOL     OW18367   4.180   2.984   8.420 -0.0380 -0.5007 -0.0817
 2302SOL    HW118368   4.243   2.930   8.467  0.4143 -0.8022 -1.0298
 2302SOL    HW218369   4.175   2.937   8.336 -0.5879 -1.5719  0.5516
 2303SOL     OW18370   2.253   0.391   2.611 -0.4825  0.2299 -0.1475
 2303SOL    HW118371   2.311   0.398   2.688  0.6413  0.0942 -0.9730
 2303SOL    HW218372   2.226   0.479   2.584 -2.1727 -0.3393 -0.3080
 2304SOL     OW18373   3.688   4.051   5.010 -0.2433  0.4320 -0.1056
 2304SOL    HW118374   3.665   4.035   5.102 -0.0127  0.3782 -0.0564
 2304SOL    HW218375   3.626   3.989   4.973  0.1889 -0.7710  1.1823
 2305SOL     OW18376   2.038   1.171   0.528  0.1673  0.2210 -0.5664
 2305SOL    HW118377   2.112   1.121   0.493  0.0057  0.5306 -1.3512
 2305SOL    HW218378   2.086   1.223   0.592 -0.1181  1.7227 -1.5730
 2306SOL     OW18379   4.350   0.936   1.502 -0.3032  0.6246 -0.2586
 2306SOL    HW118380   4.256   0.918   1.512  0.5011 -1.9705  2.6741
 2306SOL    HW218381   4.370   0.943   1.409 -0.4666  0.3826 -0.3110
 2307SOL     OW18382   4.334   3.122   4.992  0.2529  0.4944 -0.1666
 2307SOL    HW118383   4.425   3.109   5.020 -0.2080 -2.0010  0.1338
 2307SOL    HW218384   4.350   3.131   4.898 -1.4934  2.2092 -0.2976
 2308SOL     OW18385   4.004   3.371   1.576 -0.0212 -0.7484 -0.3367
 2308SOL    HW118386   4.016   3.403   1.486  0.9764  0.4954  0.2333
 2308SOL    HW218387   4.052   3.288   1.574 -1.6046 -1.6376 -1.1521
 2309SOL     OW18388   2.036   4.520   8.871 -0.1667  0.5754  0.2299
 2309SOL    HW118389   2.076   4.437   8.894 -0.8182  0.1164 -0.2940
 2309SOL    HW218390   2.111   4.574   8.843  0.5570 -0.0352  0.9958
 2310SOL     OW18391   3.552   3.540   1.862 -0.5291  0.2862  0.4324
 2310SOL    HW118392   3.520   3.624   1.829 -2.8668 -0.3603  1.0615
 2310SOL    HW218393   3.623   3.512   1.804 -0.1928  0.6001  0.6952
 2311SOL     OW18394   3.612   4.224   5.514  0.1281 -0.4538  0.6617
 2311SOL    HW118395   3.610   4.319   5.524  0.2589 -0.5684  1.8568
 2311SOL    HW218396   3.547   4.199   5.580  0.7570 -1.2162  0.9947
 2312SOL     OW18397   2.992   1.372   7.182 -0.1841 -0.0663 -0.2680
 2312SOL    HW118398   2.957   1.285   7.164  0.9241 -0.1753 -1.8561
 2312SOL    HW218399   3.016   1.362   7.274  0.7920  0.3225 -0.4780
 2313SOL     OW18400   0.911   1.084  11.723  0.5000  0.3200  0.0294
 2313SOL    HW118401   0.837   1.038  11.682 -0.6987  2.5113 -0.2740
 2313SOL    HW218402   0.897   1.175  11.699 -2.6448 -0.3467 -0.7041
 2314SOL     OW18403   0.388   0.226   9.571  0.1753 -0.1354  0.1646
 2314SOL    HW118404   0.473   0.236   9.614 -0.3381 -0.2132  1.1927
 2314SOL    HW218405   0.358   0.312   9.601  0.7349  0.7214 -1.7590
 2315SOL     OW18406   1.760   1.504   5.319  0.3919  0.1614 -0.0485
 2315SOL    HW118407   1.755   1.448   5.241  1.6037  0.3981 -0.2963
 2315SOL    HW218408   1.667   1.525   5.317  0.4378  0.5260  2.6978
 2316SOL     OW18409   3.461   0.414   7.823  0.2265  0.5533  0.2575
 2316SOL    HW118410   3.445   0.507   7.804  1.8029  0.7723  0.0365
 2316SOL    HW218411   3.402   0.402   7.897  0.1403 -1.1543 -0.0816
 2317SOL     OW18412   1.491   2.236  12.877 -0.4166 -0.5606 -0.4672
 2317SOL    HW118413   1.487   2.159  12.820 -0.8887 -1.6683  1.0522
 2317SOL    HW218414   1.581   2.223  12.907 -0.8285  0.6950  1.3143
 2318SOL     OW18415   4.009   2.013   7.950 -0.2585  0.7870 -0.7646
 2318SOL    HW118416   4.090   2.043   7.990  0.4668 -0.8599 -0.9775
 2318SOL    HW218417   4.023   2.050   7.863 -0.2548  2.4137 -0.0620
 2319SOL     OW18418   0.837   1.492   3.424  0.1901 -0.5126  0.2855
 2319SOL    HW118419   0.924   1.525   3.447  0.9897 -0.5898 -2.6162
 2319SOL    HW218420   0.799   1.474   3.509 -1.2262 -0.3370 -0.3146
 2320SOL     OW18421   0.171   1.586  10.383  0.1432  0.1896 -0.6430
 2320SOL    HW118422   0.224   1.592  10.462 -0.7437  1.0131 -0.1101
 2320SOL    HW218423   0.166   1.491  10.371 -2.1775  0.2858 -0.4726
 2321SOL     OW18424   1.035   1.648   8.388  0.3303  0.1536  0.3468
 2321SOL    HW118425   0.942   1.630   8.401  0.6729 -1.1216  0.9689
 2321SOL    HW218426   1.069   1.649   8.478 -1.2884  1.3310  0.9457
 2322SOL     OW18427   1.823   0.145   1.995 -0.3471  0.1668 -0.0096
 2322SOL    HW118428   1.816   0.050   1.984  0.3345  0.1433 -0.2786
 2322SOL    HW218429   1.879   0.140   2.073 -0.4885 -3.0791 -0.1280
 2323SOL     OW18430   2.006   2.588   6.213  0.3921 -0.1900 -0.2456
 2323SOL    HW118431   1.934   2.607   6.153  1.1444  0.2251 -1.0107
 2323SOL    HW218432   1.970   2.619   6.296 -0.3221 -1.0700 -0.2282
 2324SOL     OW18433   4.582   1.549  12.151  0.1408 -0.1684  0.1519
 2324SOL    HW118434   4.649   1.573  12.216  0.8319  2.3516 -1.4952
 2324SOL    HW218435   4.625   1.558  12.066  0.5867  4.2020  0.8306
 2325SOL     OW18436   2.350   3.971   0.893 -0.2480  0.2311  0.4371
 2325SOL    HW118437   2.276   4.032   0.883  0.0590  0.0626 -2.7555
 2325SOL    HW218438   2.356   3.942   0.803 -0.3427 -0.7033  0.7354
 2326SOL     OW18439   4.116   4.253   2.207  0.4720  0.2140  0.7720
 2326SOL    HW118440   4.021   4.247   2.205  0.5018 -0.1512  0.2740
 2326SOL    HW218441   4.141   4.171   2.251  0.6909 -1.9872 -3.3858
 2327SOL     OW18442   2.214   4.455  12.812  0.1614 -0.0828  0.1860
 2327SOL    HW118443   2.164   4.518  12.863 -0.1226 -0.2023  0.0560
 2327SOL    HW218444   2.256   4.512  12.748  1.0966 -0.0205  0.8571
 2328SOL     OW18445   2.412   1.616   0.862  0.0730  0.1077 -0.1477
 2328SOL    HW118446   2.322   1.603   0.835  0.3507  0.5689 -1.2726
 2328SOL    HW218447   2.405   1.577   0.949  0.2796  0.8580  0.2042
 2329SOL     OW18448   0.101   2.417   7.046 -0.1283  0.3198 -0.2861
 2329SOL    HW118449   0.105   2.325   7.074 -4.6162 -0.3557 -1.8184
 2329SOL    HW218450   0.009   2.433   7.023 -0.1601  0.5212 -0.0110
 2330SOL     OW18451   1.411   2.329  10.211 -0.5589 -0.4873 -0.5340
 2330SOL    HW118452   1.429   2.405  10.266  2.2586 -0.7045 -1.1654
 2330SOL    HW218453   1.324   2.345  10.176 -0.5854 -0.4527 -0.4515
 2331SOL     OW18454   1.268   0.122  13.472  0.1669  0.2018 -0.2601
 2331SOL    HW118455   1.266   0.030  13.447 -1.0302  0.7602 -2.2026
 2331SOL    HW218456   1.304   0.171  13.398  1.6304  0.1106  0.3785
 2332SOL     OW18457   0.873   1.723  16.145 -0.3583  0.1214  0.3763
 2332SOL    HW118458   0.952   1.680  16.113 -1.4017 -2.6298  1.4376
 2332SOL    HW218459   0.845   1.778  16.073  2.9647 -0.6666 -1.5335
 2333SOL     OW18460   2.209   1.967   5.102  0.0943  0.3068  0.0339
 2333SOL    HW118461   2.216   2.025   5.026  2.1082  0.8820  0.6620
 2333SOL    HW218462   2.205   1.878   5.068 -1.0692  0.5932 -0.5663
 2334SOL     OW18463   0.121   2.154  14.734 -0.5970 -1.1797  0.1817
 2334SOL    HW118464   0.123   2.069  14.690 -0.4525 -0.6035 -0.9499
 2334SOL    HW218465   0.160   2.200  14.658  0.6327 -3.9237 -0.8419
 2335SOL     OW18466   0.451   2.671   1.759 -0.2782  0.2578  0.2597
 2335SOL    HW118467   0.471   2.596   1.702  0.6303  0.7055 -0.0091
 2335SOL    HW218468   0.539   2.696   1.787  0.2969 -2.0781  0.5499
 2336SOL     OW18469   0.379   1.544   5.762 -0.0362 -0.1017  0.9295
 2336SOL    HW118470   0.410   1.528   5.851  3.3456 -0.3069 -0.2926
 2336SOL    HW218471   0.453   1.516   5.708  1.5875  0.0183  3.0811
 2337SOL     OW18472   1.980   2.521   8.113 -0.0764 -0.3091  0.3642
 2337SOL    HW118473   1.929   2.599   8.137  0.3414 -0.3478  1.3914
 2337SOL    HW218474   2.065   2.552   8.079 -0.1073 -0.9030 -0.2494
 2338SOL     OW18475   4.388   0.739   3.997 -0.2301  0.4480  0.6316
 2338SOL    HW118476   4.313   0.680   3.999 -0.6845  1.0523  1.8259
 2338SOL    HW218477   4.359   0.806   4.059 -0.8091  0.2549  0.5636
 2339SOL     OW18478   1.383   0.462  16.838  0.2981 -0.2873 -0.2904
 2339SOL    HW118479   1.477   0.451  16.823  0.1836 -1.1001 -0.3924
 2339SOL    HW218480   1.343   0.381  16.805  0.6594 -1.2231  1.5498
 2340SOL     OW18481   1.528   2.761   9.080 -0.1859 -0.1166 -0.3106
 2340SOL    HW118482   1.607   2.707   9.073 -0.1043 -0.0824  0.3208
 2340SOL    HW218483   1.475   2.706   9.138  0.2911 -0.5917 -0.3187
 2341SOL     OW18484   2.686   1.232   4.913 -0.0585 -0.1855 -0.1975
 2341SOL    HW118485   2.594   1.227   4.937  0.1968  1.8639  1.2004
 2341SOL    HW218486   2.689   1.298   4.843 -1.4914 -0.4468 -0.5153
 2342SOL     OW18487   0.408   0.525  11.813  0.5699 -0.0720 -0.0999
 2342SOL    HW118488   0.492   0.481  11.805  1.0259  0.8588 -0.3892
 2342SOL    HW218489   0.399   0.533  11.908  0.2110  0.7603 -0.1997
 2343SOL     OW18490   2.270   4.426   1.967 -0.4855 -0.3949  0.1337
 2343SOL    HW118491   2.210   4.490   1.931  1.0809  1.9504  1.7198
 2343SOL    HW218492   2.211   4.351   1.977 -0.7516 -0.1280  0.5135
 2344SOL     OW18493   3.024   0.676   9.735 -0.5376 -1.2964 -0.3995
 2344SOL    HW118494   3.097   0.619   9.758  1.5589  0.9838 -1.4121
 2344SOL    HW218495   2.949   0.650   9.789 -0.2450  0.0005  0.6356
 2345SOL     OW18496   0.895   1.277  11.513  0.1081  0.0670  0.1312
 2345SOL    HW118497   0.822   1.280  11.452  1.1487  0.4391 -1.0833
 2345SOL    HW218498   0.899   1.359  11.563 -1.6679 -0.0098  0.4239
 2346SOL     OW18499   1.532   3.216   2.315 -0.0185  0.7068 -0.1336
 2346SOL    HW118500   1.438   3.201   2.328  0.2872 -0.7382  0.4327
 2346SOL    HW218501   1.564   3.126   2.311  0.2745  0.6955  2.5175
 2347SOL     OW18502   1.089   2.250   8.051  0.0335  0.7850  0.6586
 2347SOL    HW118503   1.150   2.309   8.095  2.1111 -1.6669  1.0930
 2347SOL    HW218504   1.119   2.237   7.961 -2.7183 -0.9828 -0.0129
 2348SOL     OW18505   4.175   0.979   3.465 -1.1807  0.0492 -0.1858
 2348SOL    HW118506   4.229   1.058   3.463 -0.3224 -0.5360 -0.0986
 2348SOL    HW218507   4.150   0.985   3.557  0.1622  0.3961  0.1601
 2349SOL     OW18508   3.897   1.613  14.101 -0.3890  0.2162 -0.2310
 2349SOL    HW118509   3.853   1.573  14.025  1.1506 -0.2160 -0.8849
 2349SOL    HW218510   3.902   1.702  14.067 -0.3953  0.4316  0.3505
 2350SOL     OW18511   1.590   3.807  12.994  0.1277  0.5336  0.4569
 2350SOL    HW118512   1.658   3.865  12.960  0.1988  0.1197 -0.1161
 2350SOL    HW218513   1.551   3.761  12.919 -1.5671  0.7050  1.2449
 2351SOL     OW18514   0.326   2.565   6.944  0.4517 -0.0177  0.3040
 2351SOL    HW118515   0.329   2.572   6.848 -1.8599  0.5328  0.2589
 2351SOL    HW218516   0.250   2.514   6.972  0.0661  0.6047  0.3912
 2352SOL     OW18517   1.504   2.117  16.256  0.3302 -0.2397 -0.0556
 2352SOL    HW118518   1.469   2.123  16.345 -3.2793 -2.4030 -1.3162
 2352SOL    HW218519   1.600   2.114  16.262  0.2383 -0.4247  1.2680
 2353SOL     OW18520   4.037   3.288  14.771 -0.1034  0.1677 -0.0241
 2353SOL    HW118521   3.971   3.278  14.703  1.6744  1.2074 -1.9227
 2353SOL    HW218522   4.090   3.363  14.745  1.6165 -1.4200 -1.1156
 2354SOL     OW18523   3.010   3.488   1.874 -0.3784 -0.9142  0.0836
 2354SOL    HW118524   3.013   3.581   1.897  1.4238 -0.8491 -0.4142
 2354SOL    HW218525   3.029   3.438   1.954 -2.7616  1.1106  1.9031
 2355SOL     OW18526   4.041   1.440   2.086 -0.1136 -0.0910 -0.2483
 2355SOL    HW118527   3.947   1.430   2.101 -0.7968  0.9793 -3.7696
 2355SOL    HW218528   4.066   1.522   2.129 -0.7522  0.1106 -0.2587
 2356SOL     OW18529   4.307   4.108   7.936 -0.4735  0.1155 -0.5612
 2356SOL    HW118530   4.221   4.096   7.977  0.0291 -1.1841  0.0991
 2356SOL    HW218531   4.273   4.141   7.853 -0.0958  0.0115 -0.7588
 2357SOL     OW18532   3.369   0.738   2.066  0.3029  0.1494 -0.1189
 2357SOL    HW118533   3.316   0.707   1.993  0.6099 -0.3015 -0.1510
 2357SOL    HW218534   3.299   0.795   2.098  0.8206  1.3175 -1.0766
 2358SOL     OW18535   4.555   1.142  13.172 -0.3191  0.0818  0.0371
 2358SOL    HW118536   4.626   1.178  13.224 -1.7970  1.7729  0.8670
 2358SOL    HW218537   4.557   1.201  13.097 -1.0567 -1.8591 -1.5254
 2359SOL     OW18538   2.534   0.551   6.117 -0.2778 -0.0076 -0.0992
 2359SOL    HW118539   2.473   0.480   6.092 -0.3489 -0.5846  1.7010
 2359SOL    HW218540   2.531   0.546   6.213  0.9783  1.4974  0.0150
 2360SOL     OW18541   1.047   1.344   3.914  0.2661 -0.1725  0.6215
 2360SOL    HW118542   1.039   1.271   3.852  1.6971 -0.5367  0.8823
 2360SOL    HW218543   1.045   1.285   3.989  0.8714  1.2504  1.7369
 2361SOL     OW18544   1.811   2.000   6.260  0.7513 -0.1828  0.2116
 2361SOL    HW118545   1.783   1.908   6.263 -0.1859  0.1294  1.0504
 2361SOL    HW218546   1.886   1.997   6.320  0.5643  0.6523  0.4812
 2362SOL     OW18547   4.262   1.899  10.820 -0.8174  0.0065 -0.1147
 2362SOL    HW118548   4.271   1.878  10.728  1.9799  0.1405  0.1375
 2362SOL    HW218549   4.238   1.992  10.812 -2.5799 -0.4729 -0.3670
 2363SOL     OW18550   2.686   3.576   2.342 -0.5453 -0.1368  0.7633
 2363SOL    HW118551   2.655   3.617   2.261  1.3914 -0.7487 -0.2755
 2363SOL    HW218552   2.753   3.514   2.312  0.0062  0.7255  0.2133
 2364SOL     OW18553   1.096   2.562   7.168 -0.1584  0.7801 -0.0711
 2364SOL    HW118554   1.166   2.578   7.105 -1.2719  1.2395 -1.1844
 2364SOL    HW218555   1.079   2.468   7.155 -1.7086  0.8618  1.4163
 2365SOL     OW18556   1.873   3.697  10.410  0.5462  0.1233  0.0791
 2365SOL    HW118557   1.810   3.768  10.422 -0.1274 -0.3403 -0.7469
 2365SOL    HW218558   1.859   3.650  10.492 -0.7584 -0.6289 -0.5892
 2366SOL     OW18559   1.844   1.932   4.837  0.5753  0.7563 -0.0683
 2366SOL    HW118560   1.932   1.964   4.854  0.0369  3.2918 -2.0380
 2366SOL    HW218561   1.785   2.006   4.825 -1.7697 -1.1721 -0.6474
 2367SOL     OW18562   2.748   0.198   6.255 -0.5357  0.1983 -0.0743
 2367SOL    HW118563   2.652   0.204   6.256 -0.3999  2.1921  0.6444
 2367SOL    HW218564   2.758   0.164   6.344 -1.1347  1.3747  0.4385
 2368SOL     OW18565   1.217   3.083   7.836 -0.3929  0.2362 -0.2344
 2368SOL    HW118566   1.290   3.081   7.899  0.8653  0.9632 -1.6670
 2368SOL    HW218567   1.212   3.174   7.807 -0.0532  0.5533  0.6906
 2369SOL     OW18568   0.073   3.516  16.826 -0.2580  0.0235  0.5955
 2369SOL    HW118569   0.123   3.596  16.844  1.1632 -0.6322 -0.4821
 2369SOL    HW218570   0.011   3.539  16.757  0.0806 -0.2607  0.1932
 2370SOL     OW18571   1.372   3.215  17.323 -0.6193 -0.8294 -0.3695
 2370SOL    HW118572   1.375   3.130  17.279  0.2735  0.0409 -1.9856
 2370SOL    HW218573   1.395   3.275  17.253 -0.6796 -2.5585 -1.8685
 2371SOL     OW18574   2.771   2.841   8.871  0.0546  0.4776  0.3540
 2371SOL    HW118575   2.724   2.881   8.944  0.0219  1.6841 -0.3087
 2371SOL    HW218576   2.844   2.808   8.923 -1.5409 -2.2963  0.7793
 2372SOL     OW18577   3.326   2.988   7.282 -0.1112 -0.8960  0.1634
 2372SOL    HW118578   3.238   2.965   7.312 -0.4522 -1.4737 -1.2814
 2372SOL    HW218579   3.321   2.981   7.187 -1.8931 -0.5442  0.2287
 2373SOL     OW18580   0.956   1.948   6.922 -0.0180 -0.1643 -0.9282
 2373SOL    HW118581   0.917   1.875   6.874 -1.2248  0.4108 -0.7938
 2373SOL    HW218582   1.037   1.966   6.874  0.7133  0.2125  0.4405
 2374SOL     OW18583   3.215   2.686   4.540  0.1918  0.0096  0.3027
 2374SOL    HW118584   3.262   2.754   4.490 -3.5708  1.2470 -1.5694
 2374SOL    HW218585   3.128   2.726   4.539  0.8259  1.3998  0.5178
 2375SOL     OW18586   1.471   4.610  11.198 -0.0223  0.5759  0.1353
 2375SOL    HW118587   1.505   4.533  11.153  0.6681  1.2800 -0.5554
 2375SOL    HW218588   1.481   4.674  11.127  1.2661 -1.2641 -1.3519
 2376SOL     OW18589   3.309   4.097   6.868 -1.0467 -0.0300 -0.2327
 2376SOL    HW118590   3.289   4.191   6.874  1.1712  0.3887  0.7320
 2376SOL    HW218591   3.358   4.093   6.786 -0.1300 -1.8126  0.4150
 2377SOL     OW18592   2.503   0.551   3.224 -0.0091 -0.0528 -0.4490
 2377SOL    HW118593   2.463   0.624   3.176 -0.4167 -0.5343 -0.8360
 2377SOL    HW218594   2.572   0.600   3.270  0.1851  0.2038 -1.0068
 2378SOL     OW18595   1.656   1.744   3.937  0.1946 -0.2964 -0.2971
 2378SOL    HW118596   1.732   1.802   3.930  0.1590  0.0744  2.2619
 2378SOL    HW218597   1.641   1.716   3.847 -0.5574  2.3042 -0.9541
 2379SOL     OW18598   3.697   1.335   8.442  0.6960  0.1569  0.3735
 2379SOL    HW118599   3.645   1.375   8.511 -0.7594  1.5390 -1.5144
 2379SOL    HW218600   3.708   1.246   8.475  3.1418  0.6306  0.8169
 2380SOL     OW18601   2.649   1.479   8.431  0.9050 -0.2996  0.4068
 2380SOL    HW118602   2.566   1.516   8.399  0.7340 -1.1702 -0.1455
 2380SOL    HW218603   2.620   1.388   8.438  0.5650 -0.1365  1.1771
 2381SOL     OW18604   3.476   2.631  11.773  0.3176  0.3706  0.0608
 2381SOL    HW118605   3.400   2.592  11.730  0.2660  0.6708 -0.1135
 2381SOL    HW218606   3.505   2.697  11.710  1.3600 -0.4778 -0.3585
 2382SOL     OW18607   3.689   4.294  15.610  0.5816  0.0503 -0.4977
 2382SOL    HW118608   3.657   4.204  15.606  0.2518  0.2379 -2.3116
 2382SOL    HW218609   3.730   4.292  15.696 -0.0879  3.2373 -0.1153
 2383SOL     OW18610   0.261   1.693   1.889 -0.2857  0.1735  0.2674
 2383SOL    HW118611   0.355   1.682   1.883 -0.1122  1.5956  0.4434
 2383SOL    HW218612   0.246   1.671   1.981  1.7164 -0.2682  0.4729
 2384SOL     OW18613   2.721   4.021   0.888  0.1265 -0.0672 -0.5077
 2384SOL    HW118614   2.691   3.982   0.971  0.3510 -0.8955 -0.8190
 2384SOL    HW218615   2.775   3.948   0.858 -1.7512 -1.1362 -1.2989
 2385SOL     OW18616   0.433   2.245  17.621  0.0728 -0.1859 -0.3110
 2385SOL    HW118617   0.387   2.163  17.639 -0.1732  0.2620  1.0914
 2385SOL    HW218618   0.394   2.297   0.004  0.1949 -2.2526  1.2900
 2386SOL     OW18619   4.263   1.477  15.985  0.4145  0.1261 -0.0095
 2386SOL    HW118620   4.250   1.514  15.898  2.0381  0.3355 -0.1664
 2386SOL    HW218621   4.339   1.421  15.969  0.8545  1.1102 -1.3971
 2387SOL     OW18622   1.737   3.697   4.494  0.7423 -0.1685  0.0225
 2387SOL    HW118623   1.774   3.617   4.456  1.8291  0.5100 -0.3319
 2387SOL    HW218624   1.816   3.739   4.528  0.9752 -1.0638  0.5927
 2388SOL     OW18625   1.457   3.277   6.209 -0.3640  0.2319  0.0556
 2388SOL    HW118626   1.439   3.275   6.115 -0.9181 -1.0397  0.1812
 2388SOL    HW218627   1.552   3.264   6.207 -0.6366 -1.7718 -0.9642
 2389SOL     OW18628   1.578   0.580   6.733  0.1196  0.4871  0.3530
 2389SOL    HW118629   1.579   0.504   6.790  3.2584 -0.3726 -0.8877
 2389SOL    HW218630   1.504   0.635   6.759 -0.9505 -1.5996  1.6651
 2390SOL     OW18631   0.386   1.403   6.291 -0.3251 -0.1155 -0.1811
 2390SOL    HW118632   0.362   1.318   6.253  0.6992 -0.0056 -1.0694
 2390SOL    HW218633   0.460   1.373   6.344  0.1682  0.9454 -0.2875
 2391SOL     OW18634   1.417   3.266  13.647  0.1886 -0.3553 -0.1296
 2391SOL    HW118635   1.379   3.276  13.559  1.4298  1.8153 -0.4366
 2391SOL    HW218636   1.435   3.173  13.655 -1.3563 -0.5122  1.5662
 2392SOL     OW18637   0.812   4.084   5.249 -0.1383  0.2109 -0.4231
 2392SOL    HW118638   0.865   4.065   5.171 -0.5248  0.8320 -0.8348
 2392SOL    HW218639   0.789   3.995   5.274  2.4040 -0.4046 -0.2574
 2393SOL     OW18640   2.972   2.899  13.798  0.1040 -0.0221 -0.0395
 2393SOL    HW118641   3.062   2.931  13.807  0.8187 -1.8207 -0.6950
 2393SOL    HW218642   2.974   2.911  13.703  1.9280 -1.5451 -0.2033
 2394SOL     OW18643   0.040   2.159   7.131  0.3972 -0.2285  0.3541
 2394SOL    HW118644   4.694   2.094   7.112  0.3218 -0.4771  1.5355
 2394SOL    HW218645   0.036   2.175   7.225 -0.5885  0.7594  0.1535
 2395SOL     OW18646   1.310   2.646  10.092  0.0483  0.1484  0.0197
 2395SOL    HW118647   1.247   2.575  10.079 -0.5247  1.1590 -2.6588
 2395SOL    HW218648   1.256   2.715  10.056  0.5646 -0.0197 -1.0695
 2396SOL     OW18649   3.889   3.578   7.511 -0.0452 -0.2302  0.0443
 2396SOL    HW118650   3.975   3.556   7.548  0.0018 -0.4177 -0.1718
 2396SOL    HW218651   3.839   3.514   7.561 -0.4937 -0.6820 -0.9633
 2397SOL     OW18652   3.502   4.222  17.387  0.1454 -0.1039 -0.0408
 2397SOL    HW118653   3.418   4.191  17.352 -0.3526  1.6825 -0.4341
 2397SOL    HW218654   3.500   4.317  17.380  0.0698 -0.0754  0.3897
 2398SOL     OW18655   1.362   1.270  16.448  0.9874  0.4492  0.0071
 2398SOL    HW118656   1.310   1.191  16.435  0.9845  0.1949  1.5366
 2398SOL    HW218657   1.419   1.251  16.374 -1.6552  2.0299 -2.4441
 2399SOL     OW18658   1.001   3.550   3.207  0.1927 -0.1476  0.5245
 2399SOL    HW118659   0.996   3.501   3.289  1.3113  0.3343  0.8867
 2399SOL    HW218660   1.063   3.621   3.227 -0.5397 -0.0829  2.6331
 2400SOL     OW18661   2.124   4.468   4.736  0.4385  0.2096 -0.6731
 2400SOL    HW118662   2.202   4.455   4.682  1.8816  1.1294  1.1432
 2400SOL    HW218663   2.062   4.411   4.690 -0.5130  1.3694 -0.8041
 2401SOL     OW18664   1.134   1.110   0.710 -0.1609  0.2678  0.3366
 2401SOL    HW118665   1.160   1.041   0.771 -0.2094 -0.8532 -0.9140
 2401SOL    HW218666   1.091   1.064   0.638  1.0365 -0.9262  0.3810
 2402SOL     OW18667   3.144   1.256  14.804 -0.2704 -0.0494 -0.0185
 2402SOL    HW118668   3.181   1.203  14.733  0.6368  0.5909 -0.0235
 2402SOL    HW218669   3.163   1.344  14.773 -1.0805  0.2079  0.1956
 2403SOL     OW18670   4.057   2.311   4.501 -0.0064  0.8772  0.0726
 2403SOL    HW118671   4.144   2.340   4.474  0.8559 -1.4192  0.3476
 2403SOL    HW218672   4.081   2.270   4.584  1.5117  2.0325  0.2063
 2404SOL     OW18673   1.253   1.246   2.895 -0.4714 -0.0628 -0.0850
 2404SOL    HW118674   1.283   1.335   2.875  0.1700  0.0711  1.4935
 2404SOL    HW218675   1.280   1.196   2.818  2.5186 -0.5892  1.3143
 2405SOL     OW18676   4.427   2.579   9.055  0.1170  0.3285 -0.5937
 2405SOL    HW118677   4.426   2.514   8.984  1.2181 -0.4641  0.1107
 2405SOL    HW218678   4.519   2.601   9.041  0.2073  1.0894  1.0888
 2406SOL     OW18679   0.745   0.890  12.463  0.0332  0.7593 -0.2953
 2406SOL    HW118680   0.686   0.867  12.535 -1.5184  2.7500 -0.9089
 2406SOL    HW218681   0.789   0.971  12.491 -0.2641  0.1959  1.7944
 2407SOL     OW18682   3.956   3.597  12.897  0.4943  0.1262 -0.0876
 2407SOL    HW118683   3.900   3.609  12.820 -2.5197 -2.1755  1.7650
 2407SOL    HW218684   3.888   3.566  12.957 -0.3026  2.4251  0.2231
 2408SOL     OW18685   4.191   3.177   8.850 -0.5980  0.0896 -0.0167
 2408SOL    HW118686   4.123   3.175   8.918 -0.2295 -2.0153  0.3034
 2408SOL    HW218687   4.156   3.129   8.775 -1.4829  1.4697 -0.4736
 2409SOL     OW18688   1.135   1.166  14.562  0.7812  0.3785 -0.3373
 2409SOL    HW118689   1.219   1.210  14.548  0.9816 -0.5285 -1.9178
 2409SOL    HW218690   1.161   1.077  14.586  1.8719  0.9941  0.7680
 2410SOL     OW18691   3.001   4.140   4.805 -0.0727 -0.1934  0.0943
 2410SOL    HW118692   2.981   4.047   4.792 -0.1497 -0.2591  0.6726
 2410SOL    HW218693   2.915   4.183   4.810 -0.1955 -0.6210  1.6881
 2411SOL     OW18694   0.306   2.653   1.988  0.1871 -0.0993  0.2507
 2411SOL    HW118695   0.338   2.642   1.899  0.4839  2.7488 -0.0002
 2411SOL    HW218696   0.306   2.561   2.016 -0.7061  0.3671  1.7404
 2412SOL     OW18697   3.646   1.914  16.526  0.2982 -0.0734  0.3930
 2412SOL    HW118698   3.663   1.823  16.501  1.4092  0.4041 -0.6050
 2412SOL    HW218699   3.738   1.939  16.539  0.4319 -0.1753 -0.3863
 2413SOL     OW18700   2.015   0.320   5.263 -0.0455  0.4452  0.0152
 2413SOL    HW118701   2.077   0.250   5.243  0.4526  0.2186  2.3383
 2413SOL    HW218702   2.060   0.398   5.229 -0.5924  3.3138  5.9220
 2414SOL     OW18703   2.002   0.479  15.139  0.4242 -0.0945 -0.5545
 2414SOL    HW118704   1.962   0.470  15.226 -1.1164 -0.9198 -1.3382
 2414SOL    HW218705   1.977   0.396  15.098 -0.7108 -0.0186 -0.0202
 2415SOL     OW18706   2.390   0.275   5.716 -1.1210  0.0769  0.2894
 2415SOL    HW118707   2.307   0.315   5.691 -0.5419 -0.2054 -2.0461
 2415SOL    HW218708   2.447   0.350   5.702  0.7223 -1.2408  0.7933
 2416SOL     OW18709   4.300   2.694  10.235 -0.1639 -0.3880 -0.1843
 2416SOL    HW118710   4.351   2.776  10.235 -0.2107 -0.3514  3.2836
 2416SOL    HW218711   4.347   2.642  10.170 -1.9922 -3.2375  0.8170
 2417SOL     OW18712   4.492   3.708   3.694  0.3564 -1.3639  1.3301
 2417SOL    HW118713   4.516   3.706   3.786  0.8482  1.2973  1.2561
 2417SOL    HW218714   4.402   3.677   3.708 -0.5377 -0.4419 -2.1897
 2418SOL     OW18715   0.778   1.405  14.403 -0.0134  0.6617 -0.5609
 2418SOL    HW118716   0.777   1.429  14.496  1.3910  0.4539 -0.4941
 2418SOL    HW218717   0.798   1.488  14.360 -2.1709  1.9722  0.9551
 2419SOL     OW18718   2.965   4.587   6.258 -0.1959  0.1157  0.4149
 2419SOL    HW118719   3.051   4.546   6.266  0.6757  2.2764  1.9076
 2419SOL    HW218720   2.985   4.637   6.179  0.3095 -0.0910  0.4119
 2420SOL     OW18721   0.596   2.679  16.932 -0.1640 -0.5407  0.0859
 2420SOL    HW118722   0.555   2.746  16.878  0.1343  0.2173  0.7939
 2420SOL    HW218723   0.579   2.596  16.888  0.0520  0.7435 -2.3798
 2421SOL     OW18724   2.827   0.573  17.622  0.1991 -0.0008  0.9135
 2421SOL    HW118725   2.890   0.502  17.634  2.1174  1.5010 -0.2670
 2421SOL    HW218726   2.883   0.639  17.581 -1.2264  1.3230  1.1157
 2422SOL     OW18727   2.687   4.646   8.779 -0.1086 -0.3744 -0.0696
 2422SOL    HW118728   2.624   4.574   8.772 -0.0243 -0.2524 -2.1406
 2422SOL    HW218729   2.708   4.663   8.687 -0.4950  2.3078  0.3483
 2423SOL     OW18730   3.794   4.329  15.875  0.2647 -0.0231  1.2935
 2423SOL    HW118731   3.800   4.357  15.966  0.6362  2.9522  0.3748
 2423SOL    HW218732   3.887   4.308  15.872  0.3321  0.5801 -1.7076
 2424SOL     OW18733   2.244   3.786   2.197  0.2897  0.1068 -0.2721
 2424SOL    HW118734   2.269   3.818   2.110 -1.8133  1.0247 -0.5435
 2424SOL    HW218735   2.154   3.815   2.213  1.2093  1.6046  2.1767
 2425SOL     OW18736   2.123   0.060  16.412  0.1565  0.2012 -0.3463
 2425SOL    HW118737   2.132   0.092  16.322 -0.2797  0.5145 -0.2775
 2425SOL    HW218738   2.153   4.691  16.407  1.2290  0.6167 -1.5059
 2426SOL     OW18739   0.197   2.631  13.342  0.2229 -0.4742 -0.1992
 2426SOL    HW118740   0.187   2.543  13.378 -1.9849 -0.5533 -0.9937
 2426SOL    HW218741   0.156   2.678  13.413  1.2258  0.7477 -0.4304
 2427SOL     OW18742   1.686   2.899   2.816  0.2672  0.3027 -0.0112
 2427SOL    HW118743   1.653   2.876   2.903 -0.4826  0.7808 -0.1725
 2427SOL    HW218744   1.734   2.821   2.788  0.2000  0.2749 -0.0494
 2428SOL     OW18745   4.678   2.899  11.719 -0.1680  1.0626  0.0676
 2428SOL    HW118746   4.592   2.884  11.758 -0.4546 -1.2213 -1.4513
 2428SOL    HW218747   4.683   2.838  11.645  1.1031  0.6730  0.4784
 2429SOL     OW18748   3.825   2.690  17.285  0.0921  0.0776 -0.0800
 2429SOL    HW118749   3.749   2.749  17.282  2.0552  2.4968 -2.3297
 2429SOL    HW218750   3.807   2.657  17.373  3.3683 -3.0917 -0.6248
 2430SOL     OW18751   4.548   0.188  12.279  0.0775 -0.5581  0.5062
 2430SOL    HW118752   4.584   0.100  12.292  1.5196 -0.2891 -1.7776
 2430SOL    HW218753   4.542   0.224  12.368  1.9412  0.7449  0.0835
 2431SOL     OW18754   2.436   4.418  12.288 -0.2161  0.0498  0.0713
 2431SOL    HW118755   2.465   4.360  12.218 -1.0279  0.1140 -0.3125
 2431SOL    HW218756   2.520   4.463  12.297 -0.7598  1.0181  0.3751
 2432SOL     OW18757   2.732   4.044   6.595  0.0357  0.3854  0.2031
 2432SOL    HW118758   2.638   4.041   6.612 -0.2626 -0.2154 -1.5254
 2432SOL    HW218759   2.761   3.953   6.591 -2.0305 -0.3188  1.8187
 2433SOL     OW18760   4.543   4.185   3.021  0.3413 -0.3674 -0.1545
 2433SOL    HW118761   4.619   4.238   3.043 -0.0166  0.8047 -1.6980
 2433SOL    HW218762   4.511   4.225   2.940 -0.8532 -1.4719 -0.2292
 2434SOL     OW18763   0.342   0.562  14.319 -0.1620 -0.2973  0.1385
 2434SOL    HW118764   0.413   0.626  14.317 -1.1379  0.7597 -0.3271
 2434SOL    HW218765   0.279   0.609  14.373  1.9168  0.3555  2.0090
 2435SOL     OW18766   3.678   4.118  14.056  0.6293  0.2344 -0.0525
 2435SOL    HW118767   3.735   4.194  14.069 -0.0535  0.4730  1.4619
 2435SOL    HW218768   3.588   4.151  14.055 -0.1441 -1.9111 -0.1308
 2436SOL     OW18769   4.453   1.723   5.522 -0.0910  0.5462  0.5733
 2436SOL    HW118770   4.432   1.651   5.462  2.1279  0.2227  0.1696
 2436SOL    HW218771   4.467   1.668   5.600 -3.3578 -1.5641 -0.3028
 2437SOL     OW18772   3.890   1.996  16.253  0.3368  0.8800  0.2541
 2437SOL    HW118773   3.873   1.976  16.345 -0.2227  1.9069  0.3690
 2437SOL    HW218774   3.981   1.972  16.240  0.7131  1.8433  1.1855
 2438SOL     OW18775   0.050   1.278   6.458 -0.3161 -0.0998 -0.2719
 2438SOL    HW118776   0.074   1.314   6.373 -2.6725 -1.5041 -1.5182
 2438SOL    HW218777   4.699   1.226   6.425 -1.6228  1.6125 -0.0761
 2439SOL     OW18778   0.213   3.252  14.016  0.1863  0.5148 -0.1547
 2439SOL    HW118779   0.267   3.331  14.018 -0.2600  0.8446 -1.3489
 2439SOL    HW218780   0.276   3.194  14.059 -0.5687 -0.1635  0.0255
 2440SOL     OW18781   0.207   4.632   1.847 -0.4989  0.2294  0.1639
 2440SOL    HW118782   0.116   4.628   1.878 -0.5360  2.8168  0.3763
 2440SOL    HW218783   0.217   4.546   1.806 -1.4322  1.3392 -2.4237
 2441SOL     OW18784   1.514   3.011   4.105 -0.0832 -0.4826 -0.1708
 2441SOL    HW118785   1.450   2.941   4.102 -0.3626 -0.2758  0.8261
 2441SOL    HW218786   1.493   3.066   4.030 -3.3011  1.5516  2.1899
 2442SOL     OW18787   4.164   1.829  16.626  0.1550 -0.1578 -0.1507
 2442SOL    HW118788   4.216   1.750  16.610  2.0341  1.2292 -0.8189
 2442SOL    HW218789   4.214   1.887  16.568 -2.3704  0.4511 -1.7145
 2443SOL     OW18790   2.577   2.038   4.312 -0.0675  0.4123  0.2868
 2443SOL    HW118791   2.671   2.050   4.325  0.1948 -1.4180  0.0614
 2443SOL    HW218792   2.582   2.035   4.216  1.4297 -2.5697  0.4704
 2444SOL     OW18793   4.411   2.857   6.613  0.5435 -0.0361  0.0205
 2444SOL    HW118794   4.369   2.791   6.668  0.1457  2.9854  3.3199
 2444SOL    HW218795   4.340   2.866   6.551 -0.4157 -3.1649  0.6483
 2445SOL     OW18796   1.103   3.285   2.346 -0.2191  0.1926  0.5844
 2445SOL    HW118797   1.147   3.231   2.281  1.9913  1.3265  1.1708
 2445SOL    HW218798   1.038   3.326   2.288 -0.0400 -0.3928 -0.0418
 2446SOL     OW18799   2.551   4.287   3.695  0.5674 -0.1038 -0.1990
 2446SOL    HW118800   2.479   4.280   3.758  0.2459 -1.2645 -0.6947
 2446SOL    HW218801   2.536   4.210   3.640  0.6865 -1.1647  1.2490
 2447SOL     OW18802   3.571   4.168   1.847 -0.2085 -0.2585  0.5163
 2447SOL    HW118803   3.657   4.204   1.870  1.1342 -2.6497 -0.7947
 2447SOL    HW218804   3.603   4.105   1.783 -0.2560 -0.1600  0.3948
 2448SOL     OW18805   1.775   4.233   6.628  0.5885  0.3468  0.0515
 2448SOL    HW118806   1.762   4.302   6.563 -1.6813  0.4338  0.6231
 2448SOL    HW218807   1.771   4.158   6.568  1.0787  1.6071 -1.5338
 2449SOL     OW18808   0.273   3.869   6.504  0.0637 -0.2913 -0.5592
 2449SOL    HW118809   0.196   3.815   6.525  0.7000 -1.5029 -1.3562
 2449SOL    HW218810   0.283   3.914   6.588  0.7018 -0.4894 -0.5301
 2450SOL     OW18811   2.196   2.542   6.014 -0.2492  0.0058 -0.0486
 2450SOL    HW118812   2.132   2.577   6.077 -1.1551  2.0662 -2.1194
 2450SOL    HW218813   2.279   2.583   6.039  0.0387 -0.3999 -0.3446
 2451SOL     OW18814   3.474   2.524   6.619  0.0405  0.0384 -0.1513
 2451SOL    HW118815   3.460   2.538   6.713 -0.5513  0.6579 -0.3358
 2451SOL    HW218816   3.514   2.603   6.583  1.0485  0.4475  1.8420
 2452SOL     OW18817   2.218   4.558   7.933  0.3036  0.0188  0.4200
 2452SOL    HW118818   2.180   4.525   8.015  1.2874  1.3925  1.4178
 2452SOL    HW218819   2.283   4.623   7.959 -0.3241  0.8962 -0.2446
 2453SOL     OW18820   2.011   4.541   5.929 -0.6012  0.3504 -0.4488
 2453SOL    HW118821   1.922   4.547   5.963 -1.3123  0.9749 -2.4103
 2453SOL    HW218822   2.057   4.523   6.011 -0.4420 -0.2931 -0.6721
 2454SOL     OW18823   1.152   4.553   7.817  0.0439 -0.3969  0.0461
 2454SOL    HW118824   1.132   4.468   7.854  2.1115 -1.9190 -2.2466
 2454SOL    HW218825   1.123   4.614   7.884  0.1563  0.8384 -1.0204
 2455SOL     OW18826   0.151   4.051  14.567  0.1479 -0.5675  0.2321
 2455SOL    HW118827   0.119   4.083  14.651 -1.4824 -0.3577 -0.4653
 2455SOL    HW218828   0.152   4.129  14.512  1.8771 -1.4170 -0.9223
 2456SOL     OW18829   1.112   3.431   8.440  0.1987 -0.1784  0.2731
 2456SOL    HW118830   1.053   3.505   8.429 -0.5927 -1.1620 -2.0563
 2456SOL    HW218831   1.118   3.441   8.535 -0.6313 -0.2819  0.3346
 2457SOL     OW18832   0.866   3.091  16.673  0.2247  0.4982 -0.2810
 2457SOL    HW118833   0.893   3.002  16.696  2.2870  1.1412 -0.2679
 2457SOL    HW218834   0.842   3.085  16.580  1.3630 -1.6056 -0.4246
 2458SOL     OW18835   3.277   4.440  10.375 -0.1942  0.4531  0.3840
 2458SOL    HW118836   3.197   4.422  10.324 -1.2568 -0.6645  2.4128
 2458SOL    HW218837   3.285   4.530  10.344  0.4357  0.5182  0.7393
 2459SOL     OW18838   0.584   3.243  17.159  0.1195 -0.3821  0.6280
 2459SOL    HW118839   0.679   3.260  17.162 -0.1372  1.0595  0.6073
 2459SOL    HW218840   0.562   3.271  17.247 -0.3745  3.1678 -0.6413
 2460SOL     OW18841   1.367   0.011   1.925  0.3154 -0.3262 -0.5083
 2460SOL    HW118842   1.394   4.662   1.983 -0.1911 -1.7081 -1.9347
 2460SOL    HW218843   1.316   4.688   1.857  0.3465 -0.6254 -0.3352
 2461SOL     OW18844   4.031   1.324   4.222 -0.5448 -0.0919 -0.1350
 2461SOL    HW118845   4.003   1.402   4.174 -0.6809  0.1976  0.4121
 2461SOL    HW218846   4.013   1.354   4.311 -2.4115 -1.5748 -0.0101
 2462SOL     OW18847   4.062   3.611   9.669 -0.8277  0.8847 -0.3917
 2462SOL    HW118848   4.102   3.678   9.725 -0.1662  1.0949 -1.1047
 2462SOL    HW218849   3.991   3.590   9.730  0.8545 -3.6722 -0.0016
 2463SOL     OW18850   1.589   3.117   1.119 -0.0528  0.7973  0.4052
 2463SOL    HW118851   1.615   3.026   1.132 -0.1755  0.3739 -2.1596
 2463SOL    HW218852   1.640   3.170   1.180  1.4351 -0.1761  0.0230
 2464SOL     OW18853   3.255   0.189   3.149  0.0378 -0.2411  0.5425
 2464SOL    HW118854   3.183   0.247   3.128  0.4118  0.2316  0.5620
 2464SOL    HW218855   3.293   0.162   3.065  0.0664  2.6820 -0.3789
 2465SOL     OW18856   1.989   3.744   3.301 -0.2977  0.4404  0.2886
 2465SOL    HW118857   2.038   3.788   3.232 -0.0614  2.8592  2.0283
 2465SOL    HW218858   1.948   3.813   3.353 -0.4578  0.2800  0.3749
 2466SOL     OW18859   0.196   3.350   7.220 -0.6517  0.5756  0.5092
 2466SOL    HW118860   0.167   3.309   7.302 -1.4180  1.1544  0.5245
 2466SOL    HW218861   0.121   3.401   7.192 -0.3902  1.3781  1.2683
 2467SOL     OW18862   3.387   0.591   4.885 -0.3165  0.4055 -0.3715
 2467SOL    HW118863   3.363   0.632   4.969  2.1673  2.1465 -0.4744
 2467SOL    HW218864   3.370   0.499   4.902 -1.9798  0.4592 -1.8569
 2468SOL     OW18865   3.246   1.874   7.047  0.4320  0.1432  0.0050
 2468SOL    HW118866   3.301   1.932   7.099 -0.9338  1.9710 -0.5610
 2468SOL    HW218867   3.302   1.805   7.012  2.0211  0.6411  1.5743
 2469SOL     OW18868   2.985   0.794   2.947  0.6237 -0.3543  0.1939
 2469SOL    HW118869   2.950   0.870   2.994  1.4204  2.1970 -3.2658
 2469SOL    HW218870   2.963   0.817   2.856  0.6030  2.9246  1.0047
 2470SOL     OW18871   2.989   3.861   4.729  0.3436 -0.1038 -0.0540
 2470SOL    HW118872   3.020   3.809   4.654  0.9104 -1.5058  1.1461
 2470SOL    HW218873   2.955   3.787   4.779  0.3455  0.3372  0.5893
 2471SOL     OW18874   1.947   1.027   9.590 -0.0371  0.3543  1.0058
 2471SOL    HW118875   2.024   0.992   9.636  0.9988 -0.9570 -1.7482
 2471SOL    HW218876   1.951   0.962   9.520  0.3562  1.1587  0.2900
 2472SOL     OW18877   0.469   0.068   7.556  0.0482 -0.2951 -0.4308
 2472SOL    HW118878   0.519   0.140   7.518 -0.7778  0.0956 -0.7730
 2472SOL    HW218879   0.388   0.117   7.567 -0.0170 -0.1447 -1.6287
 2473SOL     OW18880   3.970   0.090   2.242  0.3163 -0.0079 -0.0165
 2473SOL    HW118881   3.968   0.159   2.175 -2.1975 -1.2623 -1.2688
 2473SOL    HW218882   4.061   0.070   2.262  0.0882 -0.1018  0.9162
 2474SOL     OW18883   1.801   0.604   1.505  0.5331 -0.9390  0.1292
 2474SOL    HW118884   1.715   0.619   1.543  0.3578  1.6167 -1.2635
 2474SOL    HW218885   1.766   0.575   1.421  2.3098  1.5741 -1.4907
 2475SOL     OW18886   1.245   3.860   4.754  0.3557 -0.0568  0.5179
 2475SOL    HW118887   1.338   3.842   4.768  0.3231 -1.4375 -1.0525
 2475SOL    HW218888   1.223   3.792   4.690  0.1770 -0.2376  0.7700
 2476SOL     OW18889   1.937   1.243   5.966 -0.2480  1.0482  0.1197
 2476SOL    HW118890   1.955   1.307   5.898  1.2456  0.6827  0.1763
 2476SOL    HW218891   1.955   1.166   5.912 -0.4940  1.3818 -0.4246
 2477SOL     OW18892   4.126   4.221  11.445  0.3599  0.0425 -0.5096
 2477SOL    HW118893   4.192   4.275  11.488  2.2161 -0.3302 -2.9204
 2477SOL    HW218894   4.068   4.192  11.516  1.4132 -0.4834  0.1354
 2478SOL     OW18895   0.100   1.311  10.064 -0.1883 -0.0285 -0.0465
 2478SOL    HW118896   0.025   1.355  10.022  0.4149  0.9853 -0.0677
 2478SOL    HW218897   0.066   1.222  10.072  2.9646 -1.2129  0.0394
 2479SOL     OW18898   3.890   3.628   3.330 -0.1242  0.4305 -0.1918
 2479SOL    HW118899   3.970   3.661   3.371 -1.4763  1.5810  1.4587
 2479SOL    HW218900   3.937   3.568   3.271 -1.6335  1.2810 -2.2644
 2480SOL     OW18901   4.399   1.290   4.547  0.4981 -0.7064 -0.2437
 2480SOL    HW118902   4.331   1.353   4.572  1.6630 -0.9038  3.3097
 2480SOL    HW218903   4.351   1.211   4.524 -0.6151  0.0607 -0.5949
 2481SOL     OW18904   3.693   3.899  14.603 -0.1458 -0.1395 -0.5609
 2481SOL    HW118905   3.672   3.863  14.689  2.2759  1.6736  0.7729
 2481SOL    HW218906   3.749   3.833  14.563  1.8736  2.2108 -1.6434
 2482SOL     OW18907   4.239   1.562  15.713 -0.1909 -0.0585 -0.0419
 2482SOL    HW118908   4.210   1.533  15.626 -1.0834  2.2781 -0.5187
 2482SOL    HW218909   4.289   1.639  15.685  1.2940 -0.9531  0.1637
 2483SOL     OW18910   0.346   3.184   9.120  0.0358  0.3076 -0.2770
 2483SOL    HW118911   0.336   3.091   9.098  1.9215  0.6322 -2.4645
 2483SOL    HW218912   0.271   3.215   9.069 -0.9737 -1.3528  0.1942
 2484SOL     OW18913   1.412   4.707   7.959 -0.6189  0.7719  0.2024
 2484SOL    HW118914   1.351   4.638   7.933 -0.2559 -0.0625  1.5032
 2484SOL    HW218915   1.394   0.054   7.895  1.6848 -0.7808 -2.1299
 2485SOL     OW18916   4.256   2.981   7.425 -0.1076  0.3640 -0.0123
 2485SOL    HW118917   4.230   3.060   7.472 -0.4808  1.4942 -2.0835
 2485SOL    HW218918   4.324   2.941   7.479 -0.5846 -0.5168 -0.0634
 2486SOL     OW18919   2.888   0.019   5.414 -0.0315 -0.5323 -0.3745
 2486SOL    HW118920   2.847   0.025   5.328 -1.8458 -1.9304  0.3927
 2486SOL    HW218921   2.923   4.653   5.401  3.9616  0.6060  2.6115
 2487SOL     OW18922   0.770   4.088   0.399 -0.0946  0.1034  0.3216
 2487SOL    HW118923   0.753   4.171   0.443  0.2411  1.1787 -1.5781
 2487SOL    HW218924   0.763   4.120   0.310  4.3725 -0.7622 -0.3382
 2488SOL     OW18925   4.685   4.413   2.925 -0.6167 -0.6295 -0.1385
 2488SOL    HW118926   4.666   4.503   2.898  1.7459 -0.4624 -1.2757
 2488SOL    HW218927   0.006   4.371   2.850  0.0978 -0.2813  0.0665
 2489SOL     OW18928   1.007   1.307   6.096 -0.3491 -0.1118  0.3991
 2489SOL    HW118929   0.992   1.331   6.004 -1.1353  1.9242  1.0736
 2489SOL    HW218930   1.036   1.217   6.080 -0.5549  0.0023 -0.6104
 2490SOL     OW18931   0.217   1.759  14.896  0.1416  0.3906  0.1742
 2490SOL    HW118932   0.199   1.762  14.990 -0.2702  1.9160  0.0482
 2490SOL    HW218933   0.180   1.673  14.874 -1.4607  1.2068 -0.3326
 2491SOL     OW18934   0.151   0.346   6.068 -0.4274  0.8040  0.6749
 2491SOL    HW118935   0.062   0.311   6.060 -0.2507  0.4000  0.4752
 2491SOL    HW218936   0.206   0.283   6.021 -2.7047 -0.4043 -0.3646
 2492SOL     OW18937   1.222   1.670  13.976  0.1011  0.3018  0.2738
 2492SOL    HW118938   1.133   1.663  14.010  0.3275 -2.7275  0.2648
 2492SOL    HW218939   1.255   1.720  14.050  3.6038  0.8783 -1.6973
 2493SOL     OW18940   2.952   2.545   4.008  0.5237  0.6399  0.2234
 2493SOL    HW118941   3.013   2.585   4.070  1.1009 -3.2717  2.1170
 2493SOL    HW218942   2.944   2.463   4.055  0.3445 -0.0777 -1.0516
 2494SOL     OW18943   3.893   0.651  10.157 -0.3035  0.1857 -0.1233
 2494SOL    HW118944   3.918   0.741  10.136  0.7629  0.1149  0.8868
 2494SOL    HW218945   3.882   0.614  10.069  0.1574  0.7361 -0.4179
 2495SOL     OW18946   2.464   0.134  10.234 -0.3002 -0.0086  0.1234
 2495SOL    HW118947   2.401   0.110  10.301  2.4373 -0.1607  2.6432
 2495SOL    HW218948   2.534   0.166  10.291  0.6299  0.8019 -1.4703
 2496SOL     OW18949   2.277   2.778   6.381 -0.7741 -0.1050  0.2245
 2496SOL    HW118950   2.279   2.874   6.376 -2.0847 -0.0401  0.9238
 2496SOL    HW218951   2.192   2.756   6.420  0.3981 -2.7844  1.1955
 2497SOL     OW18952   2.999   4.008   5.077 -0.6443  0.2338  0.4959
 2497SOL    HW118953   2.905   4.025   5.079 -0.7699 -0.9132  3.1924
 2497SOL    HW218954   3.022   4.000   5.169  0.5903 -3.4126 -0.0959
 2498SOL     OW18955   1.497   1.167  16.789 -0.2271  0.0129 -0.1208
 2498SOL    HW118956   1.429   1.157  16.723 -0.0607  1.8657 -0.5699
 2498SOL    HW218957   1.451   1.125  16.862  1.1877  0.3144  0.9527
 2499SOL     OW18958   1.586   0.631   4.614  0.0644  0.6432  0.0768
 2499SOL    HW118959   1.605   0.565   4.547 -1.4119  0.9249 -0.6354
 2499SOL    HW218960   1.668   0.677   4.599  0.1574  1.5825  3.4607
 2500SOL     OW18961   1.888   4.131   8.605  0.3001  0.3386  0.0977
 2500SOL    HW118962   1.895   4.204   8.667 -1.6188  0.2163  0.4433
 2500SOL    HW218963   1.849   4.067   8.664  0.7021 -0.9848 -1.0663
 2501SOL     OW18964   4.587   3.730   4.966  0.1177  0.6785 -0.0246
 2501SOL    HW118965   4.543   3.805   5.006 -0.7451  1.3166 -2.1278
 2501SOL    HW218966   4.650   3.723   5.038  0.3233 -3.1387 -0.5793
 2502SOL     OW18967   0.419   1.511   3.550 -0.5197 -0.2877  0.4848
 2502SOL    HW118968   0.453   1.569   3.481  2.3815 -1.3367  1.0404
 2502SOL    HW218969   0.324   1.525   3.550 -0.6783 -1.3726 -1.1975
 2503SOL     OW18970   2.613   3.586   6.250  0.2516  1.0670 -0.3093
 2503SOL    HW118971   2.566   3.589   6.167  1.0003  1.4994 -0.7239
 2503SOL    HW218972   2.688   3.528   6.235 -0.4175  0.4661 -1.2795
 2504SOL     OW18973   3.881   0.536   6.714 -0.0796 -0.1884 -0.1579
 2504SOL    HW118974   3.869   0.558   6.621  0.2486  0.2348 -0.1022
 2504SOL    HW218975   3.963   0.582   6.733  0.1113 -0.8443  0.6018
 2505SOL     OW18976   1.226   1.580   0.604 -0.1528 -0.2830  0.3688
 2505SOL    HW118977   1.174   1.658   0.625  1.1843  0.6033  0.3658
 2505SOL    HW218978   1.185   1.516   0.661 -0.0679 -0.6478  0.0208
 2506SOL     OW18979   3.803   3.454  16.433  0.4075  0.1377 -0.2991
 2506SOL    HW118980   3.806   3.447  16.338  0.9802 -1.3372 -0.1751
 2506SOL    HW218981   3.839   3.541  16.447  1.9397 -1.1668  4.0760
 2507SOL     OW18982   4.544   4.638   7.254  0.0917  0.3005  0.8763
 2507SOL    HW118983   4.539   4.543   7.247 -1.5561  0.4026  0.6130
 2507SOL    HW218984   4.500   4.661   7.172 -0.3782 -0.9357  0.7784
 2508SOL     OW18985   0.751   3.836   3.881  0.0662  0.1285  0.4372
 2508SOL    HW118986   0.679   3.894   3.856 -0.0784 -0.5315 -0.6754
 2508SOL    HW218987   0.822   3.899   3.885  0.5518 -0.6592  4.3154
 2509SOL     OW18988   3.332   2.856  13.494 -0.6391  0.6863 -0.1866
 2509SOL    HW118989   3.353   2.843  13.401  1.4350  0.0606  0.3722
 2509SOL    HW218990   3.279   2.935  13.486  0.9288  1.5248 -2.2308
 2510SOL     OW18991   2.683   1.458  12.308  0.1462  0.4906  0.7020
 2510SOL    HW118992   2.648   1.492  12.225 -0.5214 -4.0316 -0.8516
 2510SOL    HW218993   2.760   1.413  12.272 -0.0179  2.7542 -2.5906
 2511SOL     OW18994   3.458   4.372  17.113  0.0352 -0.5464 -0.3042
 2511SOL    HW118995   3.449   4.277  17.123 -3.0824 -0.1945  0.2491
 2511SOL    HW218996   3.510   4.405  17.186  0.1881  1.5731 -1.3587
 2512SOL     OW18997   3.393   3.658  14.357  0.5039 -0.3417 -0.1100
 2512SOL    HW118998   3.449   3.727  14.321 -0.0690 -0.7020 -1.6853
 2512SOL    HW218999   3.383   3.702  14.441 -0.0304 -0.2675 -0.2147
 2513SOL     OW19000   4.566   0.312  17.052  0.2385 -0.1353 -0.0683
 2513SOL    HW119001   4.612   0.358  16.982  0.4491  0.0408  0.1839
 2513SOL    HW219002   4.542   0.239  16.995 -0.5554 -0.7201  1.0221
 2514SOL     OW19003   3.071   4.407   2.795 -0.0867  0.3414  0.5812
 2514SOL    HW119004   3.026   4.463   2.732 -0.2678 -0.3641  0.0861
 2514SOL    HW219005   3.001   4.402   2.860 -1.2605 -1.2608 -0.8301
 2515SOL     OW19006   3.347   0.001   2.158  0.3131 -0.0168 -0.4261
 2515SOL    HW119007   3.436   4.701   2.128  0.6972  1.2825 -0.2382
 2515SOL    HW219008   3.333   4.657   2.226 -1.4419  1.6722  0.8452
 2516SOL     OW19009   3.527   3.340  14.437  0.1641 -0.2718 -0.3760
 2516SOL    HW119010   3.482   3.400  14.496  1.3806  0.0479  0.2287
 2516SOL    HW219011   3.615   3.377  14.430  1.5310 -3.0858  1.9590
 2517SOL     OW19012   1.692   4.384   5.148  0.1941  0.3928 -0.2555
 2517SOL    HW119013   1.715   4.291   5.142  2.8259  1.1117 -1.1133
 2517SOL    HW219014   1.616   4.371   5.205  0.7417  0.2120  0.4386
 2518SOL     OW19015   0.972   3.014   8.526 -0.2388  0.1774  0.1863
 2518SOL    HW119016   0.930   2.928   8.522 -1.0900  0.5319  1.5783
 2518SOL    HW219017   1.021   3.003   8.445 -0.4654  0.4761  0.0058
 2519SOL     OW19018   2.263   4.334   1.349  0.5226 -0.2318  0.5004
 2519SOL    HW119019   2.252   4.240   1.335  3.3198 -0.5607  0.6758
 2519SOL    HW219020   2.308   4.368   1.272 -2.2330  1.4533 -0.3530
 2520SOL     OW19021   3.773   2.984   5.149  0.1141  0.2948 -0.3580
 2520SOL    HW119022   3.835   2.987   5.221 -0.2046  1.6725 -0.1424
 2520SOL    HW219023   3.825   2.994   5.069 -0.2844 -2.5085 -0.9817
 2521SOL     OW19024   4.456   4.147   8.187 -0.6371  0.1064 -0.2079
 2521SOL    HW119025   4.402   4.136   8.109  0.8982 -0.4246 -1.1891
 2521SOL    HW219026   4.541   4.144   8.143  0.2381  0.6773  1.4104
 2522SOL     OW19027   0.778   2.087   9.352 -0.8553 -0.1691  0.0450
 2522SOL    HW119028   0.805   2.171   9.391 -1.5723 -0.6929  1.6788
 2522SOL    HW219029   0.773   2.117   9.261  1.9311 -1.8327 -0.6631
 2523SOL     OW19030   4.640   0.622   3.076  0.1100 -0.3465  0.1438
 2523SOL    HW119031   4.629   0.698   3.018  0.9938  0.0298  0.4561
 2523SOL    HW219032   4.606   0.669   3.152 -1.4299 -2.8957  1.0083
 2524SOL     OW19033   4.429   3.002  14.017  0.0564  0.3495 -0.1846
 2524SOL    HW119034   4.433   3.083  14.067  1.5490  1.6226 -2.3762
 2524SOL    HW219035   4.516   2.997  13.977 -1.3433 -0.1604 -3.1348
 2525SOL     OW19036   4.070   0.966  12.162 -0.3202  0.1645  0.3291
 2525SOL    HW119037   4.020   0.885  12.149  0.1361 -0.2516  1.1759
 2525SOL    HW219038   4.083   0.983  12.069 -1.0287 -0.8205  0.0490
 2526SOL     OW19039   0.058   2.004   0.447  0.2792  0.6597  0.4162
 2526SOL    HW119040   0.153   2.007   0.455  0.4247 -1.7789 -0.4110
 2526SOL    HW219041   0.045   1.938   0.379 -0.1236  2.6285 -1.4274
 2527SOL     OW19042   3.106   3.051   6.280  0.9424 -0.2517  0.3733
 2527SOL    HW119043   3.043   3.122   6.267 -1.3269 -1.9436  2.3540
 2527SOL    HW219044   3.115   3.024   6.188 -0.9890  0.4945 -0.0391
 2528SOL     OW19045   0.393   4.048   6.360 -0.1544  0.2124 -0.4153
 2528SOL    HW119046   0.344   4.127   6.383  2.3082  1.4839  0.4601
 2528SOL    HW219047   0.347   3.971   6.393  1.0286  0.9706  3.0319
 2529SOL     OW19048   3.737   1.941   5.184 -0.2905  0.3553  0.1216
 2529SOL    HW119049   3.654   1.983   5.207  0.8422  1.0926  2.8926
 2529SOL    HW219050   3.702   1.853   5.198 -1.7457  1.1343  1.3342
 2530SOL     OW19051   1.180   2.858   6.843  0.1545 -0.2534  0.0044
 2530SOL    HW119052   1.252   2.807   6.879  0.2065  1.6196  2.5540
 2530SOL    HW219053   1.226   2.913   6.779 -1.4906  1.4266  0.2555
 2531SOL     OW19054   2.016   2.877   7.212 -0.1544 -0.2270  0.4443
 2531SOL    HW119055   1.972   2.962   7.203  0.4042 -0.0902 -1.1066
 2531SOL    HW219056   1.942   2.819   7.193 -0.4246 -0.0736  1.0145
 2532SOL     OW19057   3.333   0.916   7.977  0.9568 -0.4198 -0.0431
 2532SOL    HW119058   3.380   0.898   8.058  0.7183  0.5212  0.3028
 2532SOL    HW219059   3.362   1.006   7.962 -0.1046  0.0943  0.9492
 2533SOL     OW19060   0.635   0.846   8.435  0.1650  0.4975 -0.5116
 2533SOL    HW119061   0.655   0.935   8.406  1.4049  1.2635  2.6549
 2533SOL    HW219062   0.558   0.870   8.488  1.5359 -0.8317  2.0819
 2534SOL     OW19063   1.975   3.387   3.781 -0.1645 -0.4821 -0.1802
 2534SOL    HW119064   1.936   3.302   3.800  1.5423 -1.4267 -0.9524
 2534SOL    HW219065   2.062   3.368   3.817  0.1723  1.9794  0.3154
 2535SOL     OW19066   1.777   1.291  11.496  0.0432  0.3349 -0.1170
 2535SOL    HW119067   1.747   1.205  11.526  0.2764 -0.7258 -2.9177
 2535SOL    HW219068   1.758   1.345  11.572 -3.5038  0.6983 -1.2732
 2536SOL     OW19069   2.076   3.512   3.426  0.8622 -0.1098  0.4430
 2536SOL    HW119070   2.045   3.478   3.343 -1.5379 -0.4489  1.4893
 2536SOL    HW219071   2.026   3.591   3.409  0.4658  0.0613  2.4023
 2537SOL     OW19072   4.008   2.126   6.925 -0.4861  0.0575  0.3487
 2537SOL    HW119073   3.970   2.041   6.946  0.9376 -1.0460 -1.6519
 2537SOL    HW219074   4.025   2.167   7.010 -1.4045 -0.1084  0.6110
 2538SOL     OW19075   3.825   1.416  16.913  0.3386 -0.2022  0.9879
 2538SOL    HW119076   3.730   1.411  16.899  0.0565  1.4269  2.2887
 2538SOL    HW219077   3.824   1.432  17.008 -3.1028  0.6548  0.8166
 2539SOL     OW19078   4.310   0.277   1.598  0.2639  0.4039 -0.2911
 2539SOL    HW119079   4.285   0.284   1.506 -1.9841  1.0651  0.3764
 2539SOL    HW219080   4.232   0.228   1.623  1.5634 -1.6402 -0.2776
 2540SOL     OW19081   0.624   3.792   2.265 -0.0415  0.1869 -0.1335
 2540SOL    HW119082   0.567   3.861   2.300  1.0444  1.9080 -1.7295
 2540SOL    HW219083   0.586   3.791   2.177  0.1495  0.2220 -0.2156
 2541SOL     OW19084   3.928   1.097   3.261  0.2720  0.5257 -0.3407
 2541SOL    HW119085   3.878   1.145   3.195 -0.2173  0.4422 -0.0282
 2541SOL    HW219086   3.977   1.161   3.313 -0.4888  0.6388  0.2420
 2542SOL     OW19087   4.163   1.505  16.291 -0.2461  0.0101  0.2610
 2542SOL    HW119088   4.191   1.545  16.209  1.2105  0.0436  0.7754
 2542SOL    HW219089   4.210   1.544  16.365  0.8989  1.3006 -1.1522
 2543SOL     OW19090   4.496   0.243   4.333  0.7134  0.7200  0.1154
 2543SOL    HW119091   4.587   0.257   4.360  0.4750  0.1578  1.2202
 2543SOL    HW219092   4.471   0.303   4.263  0.5502 -0.8471 -1.1770
 2544SOL     OW19093   3.848   1.221   2.807 -0.5930 -0.3541  0.3855
 2544SOL    HW119094   3.777   1.192   2.863  0.9203 -1.0596  1.9287
 2544SOL    HW219095   3.868   1.300   2.858 -0.4514  0.2775 -0.6219
 2545SOL     OW19096   4.489   4.451   9.595 -0.1176 -0.2464  0.2109
 2545SOL    HW119097   4.436   4.530   9.589 -2.8906 -2.2440 -1.4019
 2545SOL    HW219098   4.553   4.464   9.524  1.7449 -0.8061  1.7854
 2546SOL     OW19099   0.161   4.560  10.907 -0.0365  0.1177 -0.3465
 2546SOL    HW119100   0.212   4.633  10.871  0.9285 -0.1222  0.5159
 2546SOL    HW219101   0.109   4.526  10.834 -0.2872  1.1677 -0.6599
 2547SOL     OW19102   0.956   2.191   4.292 -0.1050 -0.0788 -0.4905
 2547SOL    HW119103   0.953   2.220   4.201 -0.6986  0.2993 -0.3523
 2547SOL    HW219104   0.972   2.098   4.277 -0.6415 -0.1973 -0.3260
 2548SOL     OW19105   1.778   2.488  13.771 -0.3466  0.4838 -0.1737
 2548SOL    HW119106   1.822   2.478  13.856 -0.2218 -2.0449 -0.5126
 2548SOL    HW219107   1.741   2.400  13.760  1.0222 -0.1664  0.3156
 2549SOL     OW19108   3.358   1.380   7.825 -0.0486 -0.1940  0.0314
 2549SOL    HW119109   3.351   1.408   7.733 -0.8296  0.1233  0.1914
 2549SOL    HW219110   3.427   1.439   7.856  0.3805 -0.5530 -0.2446
 2550SOL     OW19111   3.085   3.853   7.287 -0.1592  0.6659 -0.7271
 2550SOL    HW119112   3.160   3.897   7.246  0.2457  0.8197  0.1799
 2550SOL    HW219113   3.050   3.804   7.213 -4.3419 -0.9531  2.3234
 2551SOL     OW19114   0.757   3.476  16.890  0.0997 -0.2744  0.0604
 2551SOL    HW119115   0.847   3.507  16.882  0.5464 -2.0399 -1.6240
 2551SOL    HW219116   0.777   3.387  16.918 -1.7569 -0.7978 -0.2974
 2552SOL     OW19117   3.175   3.246  11.255  0.1475 -0.1567 -0.0116
 2552SOL    HW119118   3.259   3.253  11.209 -0.6736  1.5743 -1.2595
 2552SOL    HW219119   3.113   3.235  11.183  0.7368  1.1451 -0.7190
 2553SOL     OW19120   1.896   1.382   9.078  0.0833 -0.1867 -0.1638
 2553SOL    HW119121   1.927   1.381   8.988  4.1045 -0.4011  1.2333
 2553SOL    HW219122   1.974   1.336   9.109 -0.0866 -1.9410 -2.3827
 2554SOL     OW19123   3.585   3.337  16.857 -0.1709  0.3069 -0.1578
 2554SOL    HW119124   3.648   3.329  16.786 -0.6415  0.8999 -0.6451
 2554SOL    HW219125   3.632   3.337  16.940 -0.2961  3.6410 -0.0924
 2555SOL     OW19126   3.323   1.669   2.598 -0.0427 -0.0061 -0.3200
 2555SOL    HW119127   3.236   1.630   2.608  0.5793 -1.0907  1.0105
 2555SOL    HW219128   3.308   1.722   2.520 -1.6830  0.3995  0.2666
 2556SOL     OW19129   2.621   4.245   5.130 -0.5705  0.7003 -0.0381
 2556SOL    HW119130   2.538   4.224   5.171  0.1043 -0.5139  0.6909
 2556SOL    HW219131   2.585   4.253   5.041 -0.0986 -0.7967 -0.3480
 2557SOL     OW19132   2.817   1.528   5.781  0.4530 -0.3724 -0.3348
 2557SOL    HW119133   2.892   1.553   5.836  1.1957 -0.0725 -1.4659
 2557SOL    HW219134   2.779   1.454   5.826  2.2529 -1.4800 -0.6271
 2558SOL     OW19135   2.028   4.499   7.110 -0.2909 -0.1792 -0.2130
 2558SOL    HW119136   2.081   4.419   7.109 -0.1372 -0.0479 -1.8131
 2558SOL    HW219137   1.963   4.498   7.040  1.6864  0.1248 -2.0433
 2559SOL     OW19138   1.374   3.831   2.370 -0.0888  0.7165  0.2642
 2559SOL    HW119139   1.339   3.843   2.458 -2.8348  0.7599 -0.8207
 2559SOL    HW219140   1.468   3.847   2.374  0.3246 -1.3327 -1.5658
 2560SOL     OW19141   1.625   3.395   3.304  0.1652 -0.3538 -0.0185
 2560SOL    HW119142   1.681   3.458   3.260 -0.1071  0.6332  1.0565
 2560SOL    HW219143   1.575   3.360   3.230  0.6214  1.7066 -1.3014
 2561SOL     OW19144   3.791   2.286   6.313  0.2921 -0.3450  0.2527
 2561SOL    HW119145   3.791   2.215   6.249 -0.0918 -0.2408  0.1424
 2561SOL    HW219146   3.877   2.320   6.287  0.9747 -1.6722  0.7291
 2562SOL     OW19147   4.393   4.333   7.238  0.6431 -0.6033  0.7739
 2562SOL    HW119148   4.299   4.323   7.224  1.2205 -3.5872 -0.8157
 2562SOL    HW219149   4.429   4.286   7.163 -1.6554 -0.2089 -0.5963
 2563SOL     OW19150   0.993   2.591   5.920 -0.1878 -0.1041  0.3059
 2563SOL    HW119151   0.923   2.612   5.982  0.6748 -1.4377  1.7343
 2563SOL    HW219152   0.975   2.497   5.922 -2.7105  0.3996  1.7898
 2564SOL     OW19153   3.016   3.007   2.738 -0.5960  0.0752  0.1156
 2564SOL    HW119154   3.091   2.948   2.727 -1.3900 -1.0514  0.7184
 2564SOL    HW219155   2.950   2.964   2.683  1.1513  0.2338 -2.1027
 2565SOL     OW19156   2.732   0.665   8.838 -0.3775  0.2957  0.0189
 2565SOL    HW119157   2.685   0.584   8.859 -1.3699  0.8857  0.0408
 2565SOL    HW219158   2.760   0.697   8.923 -0.0990 -0.2245  0.1247
 2566SOL     OW19159   1.741   2.965   5.361  0.4797 -0.1271  0.2001
 2566SOL    HW119160   1.658   2.963   5.409  0.3359  0.3022 -0.0276
 2566SOL    HW219161   1.758   2.873   5.342  0.3536 -0.5914  2.3086
 2567SOL     OW19162   4.202   0.339  16.551 -0.0011 -0.1162 -0.2064
 2567SOL    HW119163   4.176   0.268  16.609 -1.4049 -0.1974 -0.9365
 2567SOL    HW219164   4.151   0.411  16.588 -0.4387 -0.6292  0.1892
 2568SOL     OW19165   0.041   4.157   4.775  0.7767  0.3451 -0.2130
 2568SOL    HW119166   0.081   4.070   4.770  0.4466  0.1726  0.0861
 2568SOL    HW219167   4.690   4.139   4.836  0.1156  1.5379 -0.6375
 2569SOL     OW19168   3.740   0.892   8.670  0.1134  0.1095  0.0813
 2569SOL    HW119169   3.701   0.973   8.702 -0.6723 -0.9977  1.8897
 2569SOL    HW219170   3.806   0.927   8.610  0.8076 -1.9231 -0.3464
 2570SOL     OW19171   0.085   0.752   5.352  0.0651 -0.1366 -0.3087
 2570SOL    HW119172   0.142   0.725   5.424 -0.5492 -0.6717 -0.0195
 2570SOL    HW219173   0.135   0.827   5.322 -0.4504  0.5049  0.4601
 2571SOL     OW19174   2.328   3.247   2.511 -0.2586  0.4992  0.8323
 2571SOL    HW119175   2.374   3.301   2.447  0.0913 -0.6433  0.1217
 2571SOL    HW219176   2.240   3.246   2.473  0.9881 -1.6247 -1.9724
 2572SOL     OW19177   1.968   1.527  15.646 -0.7106 -0.3710  0.3828
 2572SOL    HW119178   1.880   1.490  15.640 -1.9273  2.5937  0.1687
 2572SOL    HW219179   2.003   1.526  15.557 -0.9529 -2.6370  0.3049
 2573SOL     OW19180   2.328   0.500   0.077 -0.3969  0.1816 -0.1095
 2573SOL    HW119181   2.396   0.507   0.010  1.7720 -1.5220  1.9122
 2573SOL    HW219182   2.268   0.571   0.054  0.7937  1.8716  1.9217
 2574SOL     OW19183   2.410   3.291   4.862 -0.5585  0.0521  0.1440
 2574SOL    HW119184   2.483   3.314   4.920 -0.7315  1.0772 -0.0496
 2574SOL    HW219185   2.346   3.349   4.904  1.1445  0.9846  1.4530
 2575SOL     OW19186   4.148   4.364   6.486  0.0798  0.1787  0.4142
 2575SOL    HW119187   4.092   4.440   6.469 -0.9295 -0.4271  1.0635
 2575SOL    HW219188   4.230   4.413   6.479  0.6706 -0.3446  3.8306
 2576SOL     OW19189   4.421   3.305   5.436  0.5429  0.0156 -0.3268
 2576SOL    HW119190   4.515   3.285   5.440  0.4879 -0.1878 -0.0509
 2576SOL    HW219191   4.419   3.389   5.392  1.4605 -0.1707 -0.7291
 2577SOL     OW19192   0.279   3.494   5.075  0.1880 -0.7526  0.6255
 2577SOL    HW119193   0.350   3.464   5.132  2.5142  0.3777 -1.6755
 2577SOL    HW219194   0.250   3.409   5.044 -1.7445 -0.1057  0.6488
 2578SOL     OW19195   4.200   3.399  11.621  0.3883 -0.1138  0.5522
 2578SOL    HW119196   4.146   3.335  11.667  0.8428 -2.3165 -1.9575
 2578SOL    HW219197   4.215   3.465  11.688 -1.1032  0.6777  0.1045
 2579SOL     OW19198   1.669   2.991   9.032 -0.5424  0.0707  0.0470
 2579SOL    HW119199   1.600   3.054   9.012 -0.8420 -0.1740  0.3140
 2579SOL    HW219200   1.606   2.919   9.035  0.4913 -0.8308  0.4364
 2580SOL     OW19201   4.002   2.898   4.456  0.1322  0.0142 -0.1727
 2580SOL    HW119202   4.003   2.802   4.454 -0.4873 -0.0022  0.2940
 2580SOL    HW219203   4.020   2.915   4.549 -1.5359 -1.7944  0.4878
 2581SOL     OW19204   4.060   2.279   9.382 -0.3514 -0.1800 -0.5347
 2581SOL    HW119205   4.067   2.193   9.422  0.3849 -0.3724 -1.0867
 2581SOL    HW219206   4.136   2.281   9.325 -0.5557  1.4179 -0.7739
 2582SOL     OW19207   2.906   1.941  13.698 -0.1850 -0.7618  0.1759
 2582SOL    HW119208   2.998   1.963  13.683 -0.3620  0.8418  1.4323
 2582SOL    HW219209   2.913   1.848  13.674 -1.6395 -1.2083  1.5045
 2583SOL     OW19210   2.286   4.268  11.671 -0.1834 -0.4988 -0.6446
 2583SOL    HW119211   2.364   4.320  11.652 -1.1403  1.0644 -0.3162
 2583SOL    HW219212   2.281   4.273  11.766 -1.2495  0.9133 -0.7719
 2584SOL     OW19213   1.702   0.334  12.659  0.5251 -0.3756 -0.4151
 2584SOL    HW119214   1.722   0.420  12.694  0.2048 -0.3336 -0.3322
 2584SOL    HW219215   1.756   0.348  12.581 -0.3175 -1.3498 -1.1785
 2585SOL     OW19216   0.263   3.850   2.955  0.1970  0.4580 -0.1410
 2585SOL    HW119217   0.351   3.887   2.965  0.5691  0.4446 -3.3473
 2585SOL    HW219218   0.207   3.904   3.012 -0.4453 -0.7607  0.3829
 2586SOL     OW19219   0.545   4.074  12.389 -1.1315 -0.4144 -0.0703
 2586SOL    HW119220   0.508   4.033  12.468 -1.2887  0.8092  0.4882
 2586SOL    HW219221   0.558   3.999  12.331 -0.6056  0.4390 -1.0535
 2587SOL     OW19222   4.104   3.093   3.509  0.4036 -0.5734 -0.7452
 2587SOL    HW119223   4.164   3.167   3.519  1.1304 -0.9418 -2.3256
 2587SOL    HW219224   4.169   3.030   3.539  1.5555  1.1758  0.4334
 2588SOL     OW19225   1.278   3.975   1.313 -0.5156  0.2102  0.3807
 2588SOL    HW119226   1.220   3.974   1.237 -0.3556  3.2706  0.2340
 2588SOL    HW219227   1.312   4.064   1.302 -1.9524  0.7949  0.6391
 2589SOL     OW19228   4.168   1.764  15.915 -0.0830 -0.1738  0.0728
 2589SOL    HW119229   4.113   1.731  15.843 -1.0115 -0.7988  1.0705
 2589SOL    HW219230   4.207   1.830  15.857 -1.7656  1.5046  0.8682
 2590SOL     OW19231   0.218   3.709   9.755  0.3672 -0.1692 -0.3029
 2590SOL    HW119232   0.231   3.777   9.820 -0.1120 -0.5194  0.1556
 2590SOL    HW219233   0.213   3.763   9.676 -1.0021 -1.2277 -0.9376
 2591SOL     OW19234   1.380   3.909  15.758  0.2616  0.1855 -0.2150
 2591SOL    HW119235   1.291   3.908  15.793  0.8144 -1.8040  1.1586
 2591SOL    HW219236   1.438   3.923  15.832  0.7623 -1.3520 -0.3085
 2592SOL     OW19237   0.934   3.796   4.528 -0.8773  0.0936 -0.3334
 2592SOL    HW119238   0.966   3.723   4.581 -0.9863 -0.3011 -0.8176
 2592SOL    HW219239   0.973   3.779   4.442 -0.6335  0.1219 -0.2278
 2593SOL     OW19240   1.972   4.143  11.364  0.3095  0.7207 -0.4099
 2593SOL    HW119241   1.891   4.098  11.340  1.9924 -1.5572 -1.8798
 2593SOL    HW219242   1.937   4.218  11.411  2.9798  0.7293  1.6140
 2594SOL     OW19243   3.809   2.397  13.177  0.0358  0.2486  0.1631
 2594SOL    HW119244   3.738   2.356  13.225 -1.1653  2.0200 -0.0760
 2594SOL    HW219245   3.866   2.321  13.189 -2.4279 -1.6458 -0.2698
 2595SOL     OW19246   4.243   4.430   3.782 -0.0221 -0.3376 -0.0485
 2595SOL    HW119247   4.311   4.474   3.833 -1.3842  1.1011  0.5248
 2595SOL    HW219248   4.206   4.505   3.735 -0.8766 -0.8338 -0.1718
 2596SOL     OW19249   0.880   4.277  10.466 -0.3486  0.4990  0.0833
 2596SOL    HW119250   0.882   4.196  10.516 -1.1428  1.0045  0.9365
 2596SOL    HW219251   0.906   4.240  10.382 -1.1638  1.0501 -0.4120
 2597SOL     OW19252   4.192   1.259   9.733  0.2327 -0.2279  0.4281
 2597SOL    HW119253   4.151   1.338   9.767 -1.4503 -0.6721 -0.6059
 2597SOL    HW219254   4.125   1.231   9.671 -1.2922 -1.5819  2.7041
 2598SOL     OW19255   3.431   4.525   9.164  0.5147  0.2943  0.8565
 2598SOL    HW119256   3.521   4.519   9.130 -0.2614  1.2925 -1.3719
 2598SOL    HW219257   3.406   4.617   9.158  0.9517  0.3599  0.1076
 2599SOL     OW19258   2.048   0.157   2.189 -0.4938 -0.3964  0.2931
 2599SOL    HW119259   2.082   0.198   2.268  1.3590 -2.3349  0.4773
 2599SOL    HW219260   2.042   0.067   2.221  0.7949 -0.5710  0.0464
 2600SOL     OW19261   1.854   1.508   6.882  0.0443  0.4882 -0.3372
 2600SOL    HW119262   1.924   1.445   6.900  0.7060  1.1009 -0.7913
 2600SOL    HW219263   1.795   1.458   6.827  0.9824 -0.7152 -0.2328
 2601SOL     OW19264   2.761   3.895   1.563 -0.3064  0.0970 -0.0602
 2601SOL    HW119265   2.737   3.933   1.648 -0.1370  1.6042 -0.6860
 2601SOL    HW219266   2.697   3.931   1.502 -2.1389  0.8203  2.3116
 2602SOL     OW19267   0.694   4.641   9.918 -0.0316  0.2675 -0.1058
 2602SOL    HW119268   0.629   4.599   9.862  0.9638 -1.2179 -0.1407
 2602SOL    HW219269   0.745   4.570   9.957 -0.0196  0.2774 -0.1034
 2603SOL     OW19270   1.152   3.833   7.916 -0.4243  0.3130 -0.1792
 2603SOL    HW119271   1.164   3.837   8.011 -0.9742  2.1878 -0.1908
 2603SOL    HW219272   1.149   3.924   7.887 -0.2730  0.1639 -0.6507
 2604SOL     OW19273   3.176   1.236   6.507  0.0078  0.0551 -0.0629
 2604SOL    HW119274   3.163   1.261   6.598 -1.4628 -0.7535 -0.0412
 2604SOL    HW219275   3.230   1.158   6.516  2.4366  1.6925 -0.3869
 2605SOL     OW19276   2.263   4.073   3.920  0.7281  0.0549 -0.0469
 2605SOL    HW119277   2.241   4.023   3.842 -0.2554 -0.0363  0.2881
 2605SOL    HW219278   2.287   4.159   3.885  0.3459  0.3143  0.3271
 2606SOL     OW19279   2.011   2.101   7.676  0.5027  0.1548 -0.3532
 2606SOL    HW119280   2.037   2.021   7.631  1.0381  0.0944  0.0612
 2606SOL    HW219281   1.930   2.068   7.715  0.2020  1.6846  0.3157
 2607SOL     OW19282   4.367   0.429   8.729  0.1019  0.0747  0.8076
 2607SOL    HW119283   4.367   0.480   8.809  0.5849 -1.2245  1.6353
 2607SOL    HW219284   4.369   0.339   8.761  1.0123 -0.6117 -1.1193
 2608SOL     OW19285   2.877   2.648  13.887  0.5675 -0.0758 -0.1554
 2608SOL    HW119286   2.961   2.646  13.841  0.7059 -1.5111  0.1445
 2608SOL    HW219287   2.862   2.742  13.885 -1.0366 -0.3751 -1.7510
 2609SOL     OW19288   2.148   2.931   0.587 -0.1990  0.2783  0.3886
 2609SOL    HW119289   2.230   2.899   0.624 -0.2084  0.9278  0.9859
 2609SOL    HW219290   2.095   2.854   0.568 -0.1238  1.0517 -2.8264
 2610SOL     OW19291   1.817   2.917  12.447 -0.3693  0.5377 -0.0898
 2610SOL    HW119292   1.753   2.964  12.500 -1.6236  0.3801 -1.4725
 2610SOL    HW219293   1.816   2.825  12.474 -2.4281  0.7682  0.6012
 2611SOL     OW19294   3.226   2.548  12.931  0.4938 -0.3197  0.4810
 2611SOL    HW119295   3.309   2.515  12.896  1.2073  1.3505  0.6246
 2611SOL    HW219296   3.198   2.594  12.852  0.8012 -0.1218  0.4877
 2612SOL     OW19297   1.247   2.848   3.094 -0.2382  0.3640 -0.3042
 2612SOL    HW119298   1.291   2.918   3.046  0.2009 -0.3371 -0.9297
 2612SOL    HW219299   1.276   2.772   3.044 -0.9092 -0.4312  0.5158
 2613SOL     OW19300   0.436   4.638   7.763 -0.0505  0.6538 -0.2532
 2613SOL    HW119301   0.367   4.589   7.718  0.5944  1.3675 -1.9938
 2613SOL    HW219302   0.482   4.670   7.686 -0.6447 -1.6364 -1.5539
 2614SOL     OW19303   3.809   0.618   8.011  0.0113  0.2515  0.3825
 2614SOL    HW119304   3.775   0.704   7.988  0.1987  0.2989  0.2819
 2614SOL    HW219305   3.811   0.573   7.926  0.3858  0.7450  0.1252
 2615SOL     OW19306   0.991   1.314   8.086  0.2249  0.7348 -0.1458
 2615SOL    HW119307   0.963   1.392   8.038  0.4812 -0.2670 -1.9231
 2615SOL    HW219308   0.946   1.335   8.168 -0.5113 -2.0172  0.1545
 2616SOL     OW19309   0.459   4.353   8.071 -0.7884 -0.2268 -0.1866
 2616SOL    HW119310   0.375   4.376   8.031 -0.8488  0.1350  0.1427
 2616SOL    HW219311   0.438   4.275   8.122 -0.8780  0.3168  0.6056
 2617SOL     OW19312   1.184   4.022  17.568 -0.1155 -0.5892 -0.2473
 2617SOL    HW119313   1.279   4.031  17.569 -0.3835  2.4370 -2.2982
 2617SOL    HW219314   1.183   3.941  17.516 -0.7910 -0.0482 -1.0861
 2618SOL     OW19315   3.056   3.985   1.151  0.2786  0.0960  0.3479
 2618SOL    HW119316   3.127   3.994   1.087  0.4078  0.8315  0.5951
 2618SOL    HW219317   3.051   3.891   1.165  2.9096 -0.7055 -3.9457
 2619SOL     OW19318   3.636   1.339   4.358 -0.2206 -0.8366 -0.5019
 2619SOL    HW119319   3.725   1.372   4.366  0.6547 -2.9139 -1.8164
 2619SOL    HW219320   3.592   1.403   4.416 -0.9702 -1.7713 -0.0388
 2620SOL     OW19321   2.745   1.165  12.987  0.1282 -0.2785 -0.0803
 2620SOL    HW119322   2.724   1.103  13.057 -0.3857  1.9330  1.7049
 2620SOL    HW219323   2.673   1.152  12.926  1.6180  0.3729 -1.9723
 2621SOL     OW19324   0.139   4.340  12.730  0.0011 -0.2256  0.0051
 2621SOL    HW119325   0.208   4.402  12.707  0.1899  0.9189  3.5876
 2621SOL    HW219326   0.202   4.278  12.767 -0.7466 -1.0156 -0.0430
 2622SOL     OW19327   2.074   0.825   9.359  0.1374  0.1819 -0.0582
 2622SOL    HW119328   2.160   0.792   9.332 -1.0096 -1.4277 -1.7840
 2622SOL    HW219329   2.081   0.914   9.324  1.4615  0.3794  0.6888
 2623SOL     OW19330   2.771   2.116  15.699  0.4515  0.4310  0.0078
 2623SOL    HW119331   2.698   2.138  15.757 -1.9715 -1.5480 -2.2971
 2623SOL    HW219332   2.777   2.194  15.644  0.8428  1.0666  0.9492
 2624SOL     OW19333   3.818   2.099   4.123 -0.0652 -0.0191 -0.8405
 2624SOL    HW119334   3.905   2.112   4.086  0.0711 -1.5097 -1.0526
 2624SOL    HW219335   3.818   2.003   4.121  0.9915 -0.0620  1.3720
 2625SOL     OW19336   3.125   1.442   4.453 -0.8351 -0.3704 -0.0038
 2625SOL    HW119337   3.040   1.413   4.419 -1.4030  1.3625 -0.1011
 2625SOL    HW219338   3.102   1.503   4.524 -0.4601  0.0565 -0.2502
 2626SOL     OW19339   1.108   3.293   3.615  0.4191  0.2287 -0.1635
 2626SOL    HW119340   1.112   3.217   3.674 -0.3198  0.9622  0.8251
 2626SOL    HW219341   1.132   3.366   3.673  0.2567 -1.2674  1.7922
 2627SOL     OW19342   3.985   3.364   5.640  0.2176  0.0079 -0.1789
 2627SOL    HW119343   4.032   3.290   5.679 -0.9180  0.2040  1.5628
 2627SOL    HW219344   3.933   3.319   5.573 -0.3890 -0.7314  0.7812
 2628SOL     OW19345   2.381   2.774  16.537  0.3401 -0.3881  0.0218
 2628SOL    HW119346   2.332   2.832  16.479  0.9874 -1.8963 -2.0374
 2628SOL    HW219347   2.436   2.842  16.575 -1.4971  1.2039 -0.1965
 2629SOL     OW19348   1.697   2.885   1.065 -0.4969 -0.3657  0.4711
 2629SOL    HW119349   1.684   2.888   0.970  0.3989 -4.0138  0.2304
 2629SOL    HW219350   1.782   2.841   1.071 -0.1543 -0.1544 -2.5229
 2630SOL     OW19351   3.049   2.716  12.463 -0.7157  0.3457  0.2991
 2630SOL    HW119352   3.075   2.654  12.394 -0.4182  0.5345  0.2408
 2630SOL    HW219353   3.102   2.684  12.536  0.3954 -0.4868 -0.8611
 2631SOL     OW19354   3.444   4.306   6.434 -0.6011  0.0247  0.1439
 2631SOL    HW119355   3.492   4.331   6.355 -0.8406  1.6736  0.5260
 2631SOL    HW219356   3.351   4.316   6.414 -0.1856  0.3225 -1.6639
 2632SOL     OW19357   0.141   3.126   5.261 -0.2273 -0.6031 -0.1324
 2632SOL    HW119358   0.167   3.146   5.171 -1.4283  1.2292 -0.0710
 2632SOL    HW219359   0.145   3.031   5.270  0.6150 -0.4937  0.5292
 2633SOL     OW19360   4.019   2.743  13.398  0.0275  0.3704  0.3437
 2633SOL    HW119361   4.087   2.784  13.345 -1.3028  1.7855 -0.2989
 2633SOL    HW219362   4.045   2.651  13.405  0.3891  0.6565  2.6010
 2634SOL     OW19363   0.001   1.362   4.440 -0.6224  0.7391  0.0491
 2634SOL    HW119364   4.717   1.273   4.475 -0.8988  0.9685  0.5805
 2634SOL    HW219365   4.659   1.350   4.369 -0.5658  0.9096 -0.0298
 2635SOL     OW19366   3.537   4.700   5.076 -0.2854 -0.2577  0.5487
 2635SOL    HW119367   3.468   0.037   5.107 -0.5407 -0.3258  0.0999
 2635SOL    HW219368   3.599   4.717   5.147 -0.3145 -0.0965  0.5344
 2636SOL     OW19369   1.009   0.180   5.562  0.0892 -0.4339 -0.2771
 2636SOL    HW119370   1.069   0.179   5.487  1.3152  2.4387  0.6891
 2636SOL    HW219371   0.923   0.164   5.523  0.5117 -0.5417 -1.1571
 2637SOL     OW19372   1.108   4.415   9.076 -0.3296 -0.1459 -0.1043
 2637SOL    HW119373   1.033   4.366   9.042 -0.4936 -0.1553  0.2691
 2637SOL    HW219374   1.059   4.466   9.140  1.2603  1.2826 -0.0331
 2638SOL     OW19375   2.575   3.149   0.820 -0.7768 -0.2377 -0.0679
 2638SOL    HW119376   2.617   3.211   0.760  0.3918 -1.1795 -0.2319
 2638SOL    HW219377   2.515   3.207   0.867  1.5637  0.0906  2.4674
 2639SOL     OW19378   4.149   2.113   3.714  0.4945  0.0563 -0.4040
 2639SOL    HW119379   4.103   2.142   3.635  0.0410 -2.0550 -0.9263
 2639SOL    HW219380   4.198   2.190   3.741 -1.2192  1.8458 -2.4249
 2640SOL     OW19381   4.587   4.532   6.865 -0.2284 -0.3431 -0.5297
 2640SOL    HW119382   4.526   4.572   6.927  1.9823  0.1297  1.3356
 2640SOL    HW219383   4.619   4.609   6.819  1.4302 -2.0777 -2.3222
 2641SOL     OW19384   0.606   3.053  16.801 -0.2408 -0.3470 -0.3311
 2641SOL    HW119385   0.592   3.147  16.806  1.3857 -0.1135 -0.3595
 2641SOL    HW219386   0.685   3.049  16.747 -1.5641 -0.9601 -2.2325
 2642SOL     OW19387   0.879   0.869   7.326 -0.0363 -0.0318  0.1493
 2642SOL    HW119388   0.958   0.921   7.309  0.3003  0.5243  3.3891
 2642SOL    HW219389   0.846   0.864   7.237  1.7910  2.0485 -0.6633
 2643SOL     OW19390   3.522   2.292   6.441  0.3286 -0.3877 -0.9949
 2643SOL    HW119391   3.612   2.291   6.407 -0.9678 -0.0797 -4.5023
 2643SOL    HW219392   3.535   2.356   6.511  0.8994 -0.6263 -0.8812
 2644SOL     OW19393   1.758   4.056  16.614  0.0290 -0.1520  0.1218
 2644SOL    HW119394   1.694   3.985  16.607  0.6816 -0.4274 -3.0253
 2644SOL    HW219395   1.785   4.078  16.525 -1.1657 -1.0219 -0.4727
 2645SOL     OW19396   2.114   4.352   5.696 -0.0158 -0.0191 -0.0384
 2645SOL    HW119397   2.064   4.375   5.774 -2.0142  1.3550 -1.7140
 2645SOL    HW219398   2.166   4.275   5.717  0.6986  0.4256 -0.1551
 2646SOL     OW19399   3.713   1.358  13.390  0.1966 -0.1123  0.0968
 2646SOL    HW119400   3.708   1.263  13.389 -0.7800 -0.0547 -0.6608
 2646SOL    HW219401   3.631   1.385  13.430  0.1743  1.3874 -0.9260
 2647SOL     OW19402   2.338   0.897   9.500 -0.1810  0.3073 -0.2138
 2647SOL    HW119403   2.324   0.991   9.490 -3.7192 -0.1579  0.1769
 2647SOL    HW219404   2.249   0.890   9.534 -0.5707  1.7949 -0.9092
 2648SOL     OW19405   2.110   3.658   1.355 -0.0499 -0.2355 -0.6367
 2648SOL    HW119406   2.040   3.692   1.298 -0.8524  0.3981  0.7337
 2648SOL    HW219407   2.069   3.587   1.404  0.2328 -0.2733 -0.4622
 2649SOL     OW19408   2.214   4.329   6.497  0.4698 -0.2609 -0.3801
 2649SOL    HW119409   2.308   4.323   6.477 -0.0717  1.2451 -3.3354
 2649SOL    HW219410   2.185   4.243   6.467  1.6036 -0.7242 -0.1727
 2650SOL     OW19411   1.980   2.652   3.369 -0.1978 -0.5401 -0.5400
 2650SOL    HW119412   1.929   2.731   3.348 -0.2814  0.1194  2.2261
 2650SOL    HW219413   2.072   2.680   3.365 -0.2268  0.1715  4.8889
 2651SOL     OW19414   0.643   2.455  16.695  0.2417  0.4316 -0.2488
 2651SOL    HW119415   0.553   2.486  16.681 -0.7938 -2.6614 -0.4443
 2651SOL    HW219416   0.634   2.370  16.653  2.2203 -0.4278  1.0677
 2652SOL     OW19417   1.250   0.541   0.320  0.5616 -0.3640 -0.0348
 2652SOL    HW119418   1.333   0.584   0.296 -0.8382  0.4778 -3.3644
 2652SOL    HW219419   1.254   0.465   0.262  0.9626 -0.8280  0.5995
 2653SOL     OW19420   3.536   3.412   5.262  0.4658  0.4043 -0.1613
 2653SOL    HW119421   3.618   3.458   5.247 -0.1616  2.1865  1.9119
 2653SOL    HW219422   3.558   3.394   5.354 -0.8701 -3.0420 -0.5021
 2654SOL     OW19423   4.070   0.042   3.124  0.0348  0.2980 -0.4715
 2654SOL    HW119424   3.997   0.026   3.064 -0.0669  2.0886 -0.8224
 2654SOL    HW219425   4.138   0.065   3.061  1.0328  0.5702  0.6943
 2655SOL     OW19426   1.731   2.025   7.070  0.9398 -0.1343 -0.2191
 2655SOL    HW119427   1.759   2.105   7.114  0.4068 -0.3150  0.4580
 2655SOL    HW219428   1.798   2.016   7.002 -0.3086 -2.0000 -1.2062
 2656SOL     OW19429   2.550   3.570   7.984 -0.4654 -0.5195 -0.0046
 2656SOL    HW119430   2.483   3.567   8.052  0.0774 -1.0516  0.5135
 2656SOL    HW219431   2.629   3.577   8.038 -1.6471  0.5240  1.5988
 2657SOL     OW19432   3.201   4.066   3.809  0.4541 -0.2587  0.3209
 2657SOL    HW119433   3.283   4.097   3.847  0.3496  0.0910  0.2562
 2657SOL    HW219434   3.226   4.047   3.719  2.2441  3.1464  0.1193
 2658SOL     OW19435   3.052   4.373   6.654 -0.4373 -0.1283 -0.6312
 2658SOL    HW119436   3.114   4.397   6.723  1.3061 -0.9948 -1.9022
 2658SOL    HW219437   3.068   4.279   6.664  0.5674 -0.0229 -1.3360
 2659SOL     OW19438   1.038   0.446   9.365  0.1714 -0.3632  0.1134
 2659SOL    HW119439   0.971   0.446   9.433 -3.0434 -0.8697 -3.0121
 2659SOL    HW219440   1.098   0.379   9.396  0.7852 -0.2068 -0.7381
 2660SOL     OW19441   0.155   0.718   8.917 -0.0123  0.2831  0.0775
 2660SOL    HW119442   0.131   0.810   8.928 -0.6882  0.2279 -0.9465
 2660SOL    HW219443   0.087   0.670   8.964  0.1698  0.2266  0.2861
 2661SOL     OW19444   1.118   4.589  10.297 -0.1312  0.0654 -0.4818
 2661SOL    HW119445   1.200   4.547  10.270 -0.4138 -1.4045  0.9174
 2661SOL    HW219446   1.059   4.564  10.226 -1.7124  1.8786  0.1804
 2662SOL     OW19447   2.633   1.191   6.406  0.1263  0.3368 -0.3938
 2662SOL    HW119448   2.653   1.101   6.383 -0.8755 -0.2202  0.8998
 2662SOL    HW219449   2.539   1.202   6.391  0.0159 -1.1407 -0.7867
 2663SOL     OW19450   4.089   1.194   9.053  0.1589 -0.1160  0.0996
 2663SOL    HW119451   4.107   1.111   9.097  2.2627  0.0054 -0.5302
 2663SOL    HW219452   4.176   1.214   9.017  0.2509 -1.6177 -0.5239
 2664SOL     OW19453   1.924   3.347   2.015  0.7236  0.2505  0.3147
 2664SOL    HW119454   1.860   3.373   1.949  0.1579  0.6880  1.0288
 2664SOL    HW219455   1.926   3.426   2.069  0.3013 -0.8168  1.9071
 2665SOL     OW19456   2.163   0.753   7.546  0.1712 -0.0148  0.5280
 2665SOL    HW119457   2.226   0.698   7.499  0.1881  2.1092 -1.9395
 2665SOL    HW219458   2.125   0.801   7.473 -1.1556  0.2767  1.4164
 2666SOL     OW19459   3.627   2.366   9.186  0.0788  0.7763 -0.5093
 2666SOL    HW119460   3.558   2.310   9.150  0.9431 -0.9942  0.5541
 2666SOL    HW219461   3.655   2.411   9.107 -0.8508 -1.4120 -2.1027
 2667SOL     OW19462   4.100   3.199   3.213 -0.0141  0.0276  0.5374
 2667SOL    HW119463   4.032   3.157   3.265  0.4396  0.2064  1.2676
 2667SOL    HW219464   4.055   3.211   3.130 -0.6938  0.8202  1.0286
 2668SOL     OW19465   0.321   0.396  16.152 -0.1652  0.3581  0.3962
 2668SOL    HW119466   0.411   0.423  16.134 -0.7909  2.2090  0.0082
 2668SOL    HW219467   0.268   0.462  16.106 -0.2396  0.0272  0.0114
 2669SOL     OW19468   1.210   4.470   3.678  0.2844  0.1603  0.7419
 2669SOL    HW119469   1.147   4.398   3.682  1.0071 -0.4089  1.9671
 2669SOL    HW219470   1.264   4.437   3.607 -0.6972 -0.7548  0.4261
 2670SOL     OW19471   4.716   3.913  13.706 -0.2624 -0.4811 -0.0064
 2670SOL    HW119472   4.693   3.824  13.731 -0.0208  0.7935  4.6601
 2670SOL    HW219473   0.089   3.906  13.688 -0.6388 -0.7976 -1.8144
 2671SOL     OW19474   1.352   3.732   4.339 -0.3612 -0.7332  0.0373
 2671SOL    HW119475   1.390   3.656   4.385  1.2814 -0.9326 -1.6381
 2671SOL    HW219476   1.410   3.795   4.381  0.6418 -0.7986 -1.2667
 2672SOL     OW19477   3.257   2.278  14.542  0.4542  0.6313  0.1499
 2672SOL    HW119478   3.351   2.265  14.527  0.7692  1.1777  1.6888
 2672SOL    HW219479   3.221   2.217  14.477 -0.3443  1.0844  0.1658
 2673SOL     OW19480   1.690   4.185  13.851 -0.1769 -0.8612  0.4361
 2673SOL    HW119481   1.631   4.149  13.917 -0.5246 -0.0640  0.5723
 2673SOL    HW219482   1.765   4.128  13.866  0.3746 -0.2941 -0.1266
 2674SOL     OW19483   2.257   0.207   3.961 -0.1186 -0.0601  0.1607
 2674SOL    HW119484   2.260   0.284   4.018 -0.4601 -0.3472  0.5747
 2674SOL    HW219485   2.344   0.169   3.964 -0.8753 -1.8361 -0.4687
 2675SOL     OW19486   1.982   2.985   6.242  0.4516  0.2848  0.0852
 2675SOL    HW119487   1.994   3.019   6.330  2.3418  2.1381 -0.8944
 2675SOL    HW219488   1.886   2.985   6.242  0.4473 -0.7957 -0.1537
 2676SOL     OW19489   2.624   4.533   3.533 -0.0173 -0.0892 -0.0011
 2676SOL    HW119490   2.616   4.482   3.453  1.1608 -1.4998  0.7911
 2676SOL    HW219491   2.598   4.460   3.588  0.1215 -1.7554 -2.1694
 2677SOL     OW19492   0.099   4.685   4.625 -0.0363  0.0601 -0.4197
 2677SOL    HW119493   0.046   0.040   4.601 -2.6332 -0.9992  1.9290
 2677SOL    HW219494   0.119   4.646   4.540  2.0229 -1.5070  0.7935
 2678SOL     OW19495   0.940   0.759   5.197  0.1649 -0.2040  0.5986
 2678SOL    HW119496   0.918   0.790   5.285  0.0635  0.4006  0.3625
 2678SOL    HW219497   0.911   0.833   5.144  0.7677 -2.1496 -2.4392
 2679SOL     OW19498   0.496   1.987   2.714  0.1163  0.2107  0.0296
 2679SOL    HW119499   0.456   1.904   2.690  0.3055  0.6723 -1.8994
 2679SOL    HW219500   0.473   2.045   2.641  0.3421  1.6540  1.1067
 2680SOL     OW19501   1.481   3.825   9.634 -0.3541  0.2667  0.4494
 2680SOL    HW119502   1.465   3.842   9.541  1.8545 -0.5686 -0.0883
 2680SOL    HW219503   1.576   3.810   9.638 -0.3299 -0.0085 -1.2606
 2681SOL     OW19504   3.822   3.121   1.649  0.0166 -0.2085  0.2693
 2681SOL    HW119505   3.916   3.105   1.660 -0.2278 -1.1859  0.8952
 2681SOL    HW219506   3.797   3.052   1.588  0.7572 -2.0052  1.9927
 2682SOL     OW19507   3.947   1.275   3.569  0.0131  0.5837 -0.1631
 2682SOL    HW119508   3.974   1.197   3.618 -2.6132  1.1321  2.1165
 2682SOL    HW219509   3.854   1.254   3.568  0.8570 -3.3740  2.5918
 2683SOL     OW19510   4.627   1.401  16.208 -0.0759  0.9249  0.0801
 2683SOL    HW119511   4.570   1.343  16.258 -0.1842  0.9286 -0.0395
 2683SOL    HW219512   4.586   1.388  16.123  0.0369 -1.4918  0.3934
 2684SOL     OW19513   3.907   2.544   4.933  0.0371 -0.4843  0.1109
 2684SOL    HW119514   3.917   2.524   4.839 -0.5759  1.8157 -0.4495
 2684SOL    HW219515   3.836   2.606   4.923 -1.3149 -2.1749 -0.7840
 2685SOL     OW19516   1.516   1.253   0.045  0.0426  0.3321 -0.0393
 2685SOL    HW119517   1.588   1.271  17.672 -0.6224 -0.7321 -1.1421
 2685SOL    HW219518   1.571   1.230   0.120 -1.7267  1.5914  1.6482
 2686SOL     OW19519   1.350   3.088   4.923  0.1601  0.0850 -0.1538
 2686SOL    HW119520   1.379   3.116   4.836  2.1534 -1.8333 -0.1135
 2686SOL    HW219521   1.299   3.008   4.910 -0.5294  0.6600 -0.9818
 2687SOL     OW19522   2.023   3.383  13.200  0.5817 -0.8294  0.1795
 2687SOL    HW119523   2.079   3.447  13.158 -2.3129  1.4274 -0.2280
 2687SOL    HW219524   1.977   3.434  13.267  1.5329  0.2271  0.0255
 2688SOL     OW19525   4.507   1.735   8.524 -0.0065 -1.0991 -0.5072
 2688SOL    HW119526   4.491   1.755   8.616  0.0883  0.6202 -0.8682
 2688SOL    HW219527   4.555   1.652   8.532  0.9485 -0.8600 -3.5488
 2689SOL     OW19528   4.039   0.583  11.462 -0.0772 -0.1627 -0.0214
 2689SOL    HW119529   4.007   0.532  11.387 -1.6888  1.9212 -0.7476
 2689SOL    HW219530   4.117   0.536  11.492  1.2706  0.9013 -1.8189
 2690SOL     OW19531   0.994   0.407  13.635 -0.8093 -0.0977  0.2919
 2690SOL    HW119532   0.911   0.370  13.666 -1.5139 -1.1523 -2.8500
 2690SOL    HW219533   0.964   0.466  13.567  0.6752  0.6104  0.2685
 2691SOL     OW19534   0.812   4.430  16.942  0.1063  0.1621 -0.5467
 2691SOL    HW119535   0.762   4.368  16.996  0.3242  1.7077  1.4642
 2691SOL    HW219536   0.783   4.516  16.974 -0.0157 -0.3776  0.8203
 2692SOL     OW19537   2.213   3.655   4.628  0.1006 -0.2184 -0.0934
 2692SOL    HW119538   2.255   3.615   4.552  2.1898 -0.5003  1.2208
 2692SOL    HW219539   2.270   3.731   4.641 -1.5580  1.1895 -0.8739
 2693SOL     OW19540   1.300   4.711   4.156 -0.1990 -0.0040  0.5008
 2693SOL    HW119541   1.238   4.696   4.085  1.1090 -3.2571  0.0452
 2693SOL    HW219542   1.236   4.711   4.227 -0.8864 -0.6263 -0.1241
 2694SOL     OW19543   1.192   1.164   1.055  0.0726  0.2264  0.6137
 2694SOL    HW119544   1.256   1.096   1.077  0.7621 -0.0766 -2.3580
 2694SOL    HW219545   1.245   1.219   0.997  0.3310 -0.2991  0.3463
 2695SOL     OW19546   4.656   3.390   4.650 -0.2102 -0.4526 -0.2971
 2695SOL    HW119547   4.682   3.343   4.571  1.3398  2.6424 -1.6241
 2695SOL    HW219548   4.710   3.468   4.641 -0.4434 -0.1749  0.6985
 2696SOL     OW19549   2.428   4.541   3.188  0.3648  0.6504  0.2785
 2696SOL    HW119550   2.509   4.534   3.138  0.5302 -2.7058  1.0218
 2696SOL    HW219551   2.409   4.447   3.194  0.8791  0.5540  0.3231
 2697SOL     OW19552   3.252   1.430   7.024 -0.2161  0.0166 -0.7881
 2697SOL    HW119553   3.284   1.357   7.077 -1.8398 -0.3396 -0.2863
 2697SOL    HW219554   3.157   1.420   7.027  0.0462 -1.7148  1.4375
 2698SOL     OW19555   4.569   1.788   8.248 -0.2226  0.5852 -0.0580
 2698SOL    HW119556   4.606   1.760   8.331 -1.9698 -1.3738  0.0580
 2698SOL    HW219557   4.572   1.710   8.192  0.5597 -0.1579  1.0294
 2699SOL     OW19558   2.118   3.930  14.558 -0.4624  0.5216  0.1060
 2699SOL    HW119559   2.213   3.928  14.545 -0.5460  1.4612 -0.5975
 2699SOL    HW219560   2.117   3.995  14.628  1.1818 -0.3896  0.9875
 2700SOL     OW19561   2.508   1.654  13.723 -0.2882  0.1283 -0.2410
 2700SOL    HW119562   2.429   1.638  13.774  0.8675 -3.1852  0.5217
 2700SOL    HW219563   2.530   1.567  13.690  0.5322 -0.9209  3.1546
 2701SOL     OW19564   2.575   0.922  14.293  0.1326  0.1597 -0.3618
 2701SOL    HW119565   2.559   1.015  14.306 -0.6545  0.1505 -1.2684
 2701SOL    HW219566   2.520   0.898  14.219 -0.6980  1.7299 -0.2409
 2702SOL     OW19567   2.271   3.013  11.856  0.0935  0.2732  0.0722
 2702SOL    HW119568   2.239   2.969  11.935  0.5843 -1.4958 -0.6989
 2702SOL    HW219569   2.365   3.004  11.868  0.3898  0.6142 -1.9040
 2703SOL     OW19570   2.252   2.791   4.412 -0.1014 -0.3257 -0.2603
 2703SOL    HW119571   2.223   2.707   4.375  1.5683 -0.4225 -1.3620
 2703SOL    HW219572   2.307   2.756   4.481 -0.8273 -0.5231  0.2178
 2704SOL     OW19573   2.606   3.370  12.464  0.7426 -0.1604  0.0379
 2704SOL    HW119574   2.660   3.439  12.502 -2.6037  1.5858  1.6078
 2704SOL    HW219575   2.672   3.312  12.425 -0.7776 -1.4067 -0.7150
 2705SOL     OW19576   3.311   0.332  12.328  0.0924  0.0722  0.0596
 2705SOL    HW119577   3.344   0.250  12.294 -1.7632 -1.7160  2.5672
 2705SOL    HW219578   3.231   0.345  12.276  0.3554 -1.1769 -0.6476
 2706SOL     OW19579   4.020   3.350  12.020  0.4953  0.2285  0.5255
 2706SOL    HW119580   4.070   3.423  12.057 -0.6198  1.5693 -0.6296
 2706SOL    HW219581   3.957   3.331  12.090  0.5617  2.6575  1.2371
 2707SOL     OW19582   3.831   2.934   8.996 -0.1584 -0.4561 -0.2357
 2707SOL    HW119583   3.883   2.856   9.013  1.3644  0.5127 -0.4155
 2707SOL    HW219584   3.890   3.000   8.960 -1.3734 -0.6705 -2.6424
 2708SOL     OW19585   4.614   3.799  16.539 -0.3675  0.1215 -0.0784
 2708SOL    HW119586   4.534   3.816  16.490 -0.5201 -0.4112 -0.0102
 2708SOL    HW219587   4.671   3.872  16.514  0.3236 -0.3309  0.1834
 2709SOL     OW19588   1.507   1.794   3.433  0.9860  0.2191 -0.0647
 2709SOL    HW119589   1.586   1.843   3.409  1.4994 -0.0807  1.0189
 2709SOL    HW219590   1.551   1.709   3.443 -0.5404 -0.8677 -2.4557
 2710SOL     OW19591   3.122   4.577   4.915  0.0424  0.3333  0.2254
 2710SOL    HW119592   3.197   4.635   4.901  0.0239  0.2681 -0.1576
 2710SOL    HW219593   3.089   4.560   4.826 -0.8036 -2.5169  1.0885
 2711SOL     OW19594   1.201   2.569   5.577 -0.3089 -0.1326 -0.2431
 2711SOL    HW119595   1.152   2.546   5.657 -0.2951 -0.0965 -0.2238
 2711SOL    HW219596   1.174   2.505   5.512 -0.2655 -0.9006  0.4936
 2712SOL     OW19597   4.363   3.685  11.196 -0.0564 -0.3049  0.0705
 2712SOL    HW119598   4.326   3.689  11.108 -1.6368  1.3404  0.8079
 2712SOL    HW219599   4.332   3.607  11.242 -0.7547  0.9713  1.7828
 2713SOL     OW19600   2.636   1.427   9.233 -0.6360  0.7834 -0.1282
 2713SOL    HW119601   2.695   1.354   9.250 -2.0042  0.8082  4.6888
 2713SOL    HW219602   2.559   1.377   9.259  0.1962 -0.1378  0.5539
 2714SOL     OW19603   4.401   0.884   8.547  0.3015 -0.0267  0.0650
 2714SOL    HW119604   4.407   0.828   8.624 -0.7619 -1.5107 -0.9270
 2714SOL    HW219605   4.464   0.841   8.487  1.4771 -0.8683  1.8997
 2715SOL     OW19606   2.221   2.859  16.342  0.2440 -0.1859 -0.5564
 2715SOL    HW119607   2.215   2.948  16.308  0.4005  0.5951  1.4586
 2715SOL    HW219608   2.191   2.813  16.264 -0.5533 -1.2908  0.3791
 2716SOL     OW19609   3.829   3.195  15.023 -0.2327  0.2221 -0.2692
 2716SOL    HW119610   3.776   3.145  15.085 -0.7683  0.4919 -0.5098
 2716SOL    HW219611   3.765   3.255  14.985  0.2209 -0.3031 -1.9027
 2717SOL     OW19612   0.117   0.847   4.726 -0.0719  0.1610 -0.0014
 2717SOL    HW119613   0.178   0.919   4.744 -0.7009  0.5604  0.5790
 2717SOL    HW219614   0.065   0.887   4.656 -1.5460 -0.9516  0.4578
 2718SOL     OW19615   3.149   3.157   0.426  0.2017  0.0334  0.1560
 2718SOL    HW119616   3.172   3.094   0.494 -1.8656 -1.4570 -0.5352
 2718SOL    HW219617   3.126   3.107   0.347 -1.9944  1.2665 -0.0024
 2719SOL     OW19618   2.558   4.200  12.149  0.3220  0.2484 -0.2719
 2719SOL    HW119619   2.633   4.189  12.208 -0.5846  0.9103  1.0122
 2719SOL    HW219620   2.552   4.113  12.109  1.3706  0.1086 -0.1273
 2720SOL     OW19621   1.800   4.486   9.073  0.3776 -0.0292  0.2486
 2720SOL    HW119622   1.853   4.486   8.993  1.6666 -2.4830  1.0960
 2720SOL    HW219623   1.829   4.561   9.124  1.0489  0.7496 -1.2735
 2721SOL     OW19624   1.321   4.515   9.329 -0.0290 -0.2854  0.2782
 2721SOL    HW119625   1.348   4.601   9.360 -1.0355  0.1806 -0.1163
 2721SOL    HW219626   1.314   4.458   9.406 -1.8833 -0.8166 -0.2812
 2722SOL     OW19627   0.804   0.074   7.128 -0.0090 -0.2543 -0.3496
 2722SOL    HW119628   0.791   0.114   7.042  0.1413  1.7524  0.5587
 2722SOL    HW219629   0.766   4.709   7.114  0.4679 -0.5022 -0.1208
 2723SOL     OW19630   1.037   0.659   4.712 -0.1002 -0.0571  0.2328
 2723SOL    HW119631   1.127   0.651   4.681 -1.0999 -2.3103 -2.0886
 2723SOL    HW219632   1.017   0.751   4.696  0.0137  0.4940  3.3197
 2724SOL     OW19633   2.761   3.720   2.569 -0.1256 -0.2894  0.2095
 2724SOL    HW119634   2.854   3.728   2.549 -0.4280 -0.3987 -1.2404
 2724SOL    HW219635   2.730   3.680   2.488  4.7890 -0.9954 -1.3203
 2725SOL     OW19636   2.974   1.459   5.517  0.1348  0.3154 -0.0434
 2725SOL    HW119637   3.010   1.389   5.571 -3.8774 -1.1149  0.7810
 2725SOL    HW219638   2.916   1.508   5.575 -1.0137 -1.2589  0.1593
 2726SOL     OW19639   1.835   2.896   5.911  0.6262  0.6207  0.2251
 2726SOL    HW119640   1.925   2.864   5.907 -0.2624 -1.4678 -2.6508
 2726SOL    HW219641   1.780   2.818   5.905  0.5014  0.8650 -1.6525
 2727SOL     OW19642   1.892   1.928   2.052  0.2861 -0.3215  0.1996
 2727SOL    HW119643   1.882   2.015   2.013 -0.5243 -0.6734 -0.3679
 2727SOL    HW219644   1.843   1.937   2.133  0.4127  0.2928  0.2040
 2728SOL     OW19645   3.923   3.456   8.384 -0.5464  0.5657  0.3847
 2728SOL    HW119646   4.010   3.456   8.423 -1.7648 -0.3937  3.1040
 2728SOL    HW219647   3.918   3.367   8.350 -0.6013  0.6171  0.2580
 2729SOL     OW19648   2.951   0.183   3.916  0.1351 -0.1319  0.0068
 2729SOL    HW119649   3.016   0.113   3.907 -0.3329 -0.5963  0.2296
 2729SOL    HW219650   2.908   0.156   3.997 -2.3448  0.2830 -1.1801
 2730SOL     OW19651   1.438   0.077   9.916  0.1364 -0.4327  0.0518
 2730SOL    HW119652   1.481   0.142   9.972 -1.2985  1.3636 -0.9249
 2730SOL    HW219653   1.354   0.062   9.957 -0.0205 -1.1479 -0.5230
 2731SOL     OW19654   0.356   4.176  16.125  0.3035 -0.2802  0.0874
 2731SOL    HW119655   0.314   4.261  16.113  1.7996  0.4325 -0.0067
 2731SOL    HW219656   0.363   4.171  16.221 -3.1361  1.6347  0.4393
 2732SOL     OW19657   2.693   2.237   9.290 -0.2969 -0.4053  0.2563
 2732SOL    HW119658   2.727   2.150   9.310 -0.3442 -0.8298 -1.4857
 2732SOL    HW219659   2.617   2.235   9.348 -0.4760 -0.1437  0.0297
 2733SOL     OW19660   1.433   0.060   6.757 -0.3941 -0.1377  0.5058
 2733SOL    HW119661   1.377   0.033   6.685  0.1414  0.3641 -0.1063
 2733SOL    HW219662   1.380   0.093   6.830  0.8052  0.1553  1.2393
 2734SOL     OW19663   4.107   3.000   6.047  0.1855  0.1871  0.5658
 2734SOL    HW119664   4.104   2.921   6.102 -0.4209 -1.3991 -1.7651
 2734SOL    HW219665   4.085   3.070   6.108 -2.4092 -0.3628  0.2248
 2735SOL     OW19666   3.918   3.133   5.873 -0.3578 -0.3700 -0.1163
 2735SOL    HW119667   3.956   3.215   5.905  2.7109 -1.6557 -0.3971
 2735SOL    HW219668   3.988   3.074   5.901  0.4106  0.2187 -0.7832
 2736SOL     OW19669   2.304   4.250   8.405  0.1483  0.0359  0.2033
 2736SOL    HW119670   2.336   4.171   8.449  1.4416  2.2185  3.1968
 2736SOL    HW219671   2.224   4.210   8.370  1.4240 -2.1229 -0.2860
 2737SOL     OW19672   3.456   2.120   3.327 -0.2668  0.5340 -0.1961
 2737SOL    HW119673   3.491   2.193   3.378  2.6470 -1.8282  1.1699
 2737SOL    HW219674   3.490   2.057   3.390 -0.2695 -0.1794 -0.9138
 2738SOL     OW19675   3.622   3.792  15.094  0.2204 -0.1090  0.5542
 2738SOL    HW119676   3.664   3.708  15.112 -1.5322 -1.3836 -1.2948
 2738SOL    HW219677   3.676   3.833  15.027 -0.1764 -1.0576 -0.3416
 2739SOL     OW19678   3.004   3.447  12.462  0.0524 -0.0169  0.2935
 2739SOL    HW119679   3.095   3.471  12.478  1.0043 -4.1696  0.9328
 2739SOL    HW219680   3.004   3.353  12.448 -0.9288  0.0248 -0.0207
 2740SOL     OW19681   0.306   4.715   4.332 -0.8994  0.1710  0.2359
 2740SOL    HW119682   0.317   0.083   4.298 -1.2965  0.9228  2.0923
 2740SOL    HW219683   0.397   4.697   4.357 -2.0570 -3.2655  1.8564
 2741SOL     OW19684   1.557   0.938   9.526  0.0110  0.9276  0.1483
 2741SOL    HW119685   1.632   0.880   9.540 -0.8730  0.0025  1.1075
 2741SOL    HW219686   1.530   0.915   9.437  0.7779 -0.4708  0.2790
 2742SOL     OW19687   2.018   0.850   2.657 -0.3867  0.0939 -0.4968
 2742SOL    HW119688   1.950   0.842   2.724 -0.7277 -3.1225 -1.2416
 2742SOL    HW219689   1.978   0.913   2.596  1.4795  0.2589 -1.5700
 2743SOL     OW19690   3.382   4.294  12.867  0.0482 -0.5420 -0.1978
 2743SOL    HW119691   3.406   4.211  12.910 -0.0831 -0.0022  0.9188
 2743SOL    HW219692   3.471   4.315  12.839  0.7291 -2.2788  0.6606
 2744SOL     OW19693   4.501   1.414  11.707 -1.1195 -1.0746  0.1167
 2744SOL    HW119694   4.515   1.454  11.793 -2.0570 -2.3668  0.8673
 2744SOL    HW219695   4.436   1.469  11.664 -0.7644 -0.0164  0.9403
 2745SOL     OW19696   2.919   1.602   6.283 -0.2506 -0.2833  0.1867
 2745SOL    HW119697   2.836   1.557   6.270 -0.7860  0.8497 -0.2567
 2745SOL    HW219698   2.969   1.522   6.264 -1.5364 -0.5007 -2.1785
 2746SOL     OW19699   1.280   4.549   8.229  0.0125 -0.3911  0.5046
 2746SOL    HW119700   1.232   4.606   8.169  1.2487 -1.4572 -1.4974
 2746SOL    HW219701   1.307   4.481   8.167 -0.9886 -0.2083 -0.1276
 2747SOL     OW19702   1.028   1.190  12.082  0.2084 -0.3075 -0.3336
 2747SOL    HW119703   1.098   1.199  12.017 -0.9091 -0.0560 -1.5126
 2747SOL    HW219704   0.987   1.109  12.050 -0.0238 -0.6195  0.7457
 2748SOL     OW19705   3.927   1.113   2.532  0.1251  0.1991 -0.7678
 2748SOL    HW119706   3.919   1.148   2.621 -3.3034  1.5456 -1.6378
 2748SOL    HW219707   4.009   1.149   2.498  0.9520 -1.4783 -0.5757
 2749SOL     OW19708   0.775   4.645   3.334 -0.3389 -0.6922 -0.6290
 2749SOL    HW119709   0.711   4.680   3.272 -1.1318  1.2598  1.2893
 2749SOL    HW219710   0.715   4.578   3.368 -1.2523  0.5657  0.2482
 2750SOL     OW19711   0.555   4.417   5.431  0.0067  0.1842  0.1893
 2750SOL    HW119712   0.625   4.363   5.395 -1.1627 -1.1242 -0.0803
 2750SOL    HW219713   0.517   4.474   5.364 -0.2745  0.8281  0.8902
 2751SOL     OW19714   4.301   1.768   8.182  0.3549  0.8230  0.1070
 2751SOL    HW119715   4.383   1.789   8.228 -0.1307  0.8498  0.9669
 2751SOL    HW219716   4.239   1.840   8.193 -1.1378 -0.5571  0.7161
 2752SOL     OW19717   0.877   1.888   2.533  0.0865  0.0285  0.5597
 2752SOL    HW119718   0.828   1.970   2.538 -0.5284 -0.5038  3.2213
 2752SOL    HW219719   0.916   1.883   2.620  1.0061  0.9247  0.1963
 2753SOL     OW19720   2.745   2.430   5.489  0.1571 -0.3559 -0.0947
 2753SOL    HW119721   2.809   2.486   5.445  1.0740 -0.8359  0.6175
 2753SOL    HW219722   2.718   2.494   5.554 -0.7437 -1.0755  0.2463
 2754SOL     OW19723   0.643   4.384  15.362  0.0419  0.1410  0.1198
 2754SOL    HW119724   0.637   4.465  15.310  2.3176  0.9093  1.0897
 2754SOL    HW219725   0.736   4.376  15.379 -0.1555 -0.4946  0.8777
 2755SOL     OW19726   0.134   2.903   2.378  0.1766  0.1651  0.2205
 2755SOL    HW119727   0.107   2.900   2.286 -0.2035 -0.5122  0.3568
 2755SOL    HW219728   0.131   2.997   2.395  1.2580 -0.0978  1.8111
 2756SOL     OW19729   4.351   4.362  16.091 -0.4772  0.1401 -0.2868
 2756SOL    HW119730   4.417   4.306  16.051  0.3180  1.3195 -0.6200
 2756SOL    HW219731   4.366   4.444  16.043 -0.4356 -0.5606 -1.4840
 2757SOL     OW19732   0.692   1.818  15.973  0.5976  0.5585  0.4017
 2757SOL    HW119733   0.619   1.819  16.035  0.8481 -3.2659  0.7469
 2757SOL    HW219734   0.648   1.773  15.901  1.8450  2.5290 -1.5804
 2758SOL     OW19735   4.509   4.455   4.806  0.8253  0.6494  0.3923
 2758SOL    HW119736   4.493   4.541   4.768 -0.9418  0.0474 -0.2112
 2758SOL    HW219737   4.511   4.396   4.731  1.1789  2.2225 -0.8468
 2759SOL     OW19738   4.195   4.343   1.400 -0.1426  0.1206 -0.2159
 2759SOL    HW119739   4.255   4.405   1.357  0.5466  0.0445  0.6335
 2759SOL    HW219740   4.125   4.406   1.384 -1.1370 -0.4006  2.1192
 2760SOL     OW19741   2.831   0.293   6.725  0.1038 -0.2413 -0.4365
 2760SOL    HW119742   2.743   0.291   6.762 -0.1115  1.4580 -0.8571
 2760SOL    HW219743   2.879   0.231   6.780  1.3955  2.1558  1.1546
 2761SOL     OW19744   2.025   3.245  11.914 -0.5444 -0.4156 -0.0556
 2761SOL    HW119745   2.033   3.157  11.878  2.6849  0.1906 -0.8971
 2761SOL    HW219746   2.113   3.259  11.950 -1.0424  2.8963 -0.1198
 2762SOL     OW19747   1.594   2.843   0.827 -0.1520  0.0931 -0.5064
 2762SOL    HW119748   1.576   2.915   0.767  1.6211  2.5936  2.0185
 2762SOL    HW219749   1.512   2.794   0.818 -0.0341 -0.0446 -0.8375
 2763SOL     OW19750   0.513   2.115  17.266 -0.5895  0.1620 -0.1060
 2763SOL    HW119751   0.586   2.054  17.258 -0.5179  0.2657 -0.2390
 2763SOL    HW219752   0.558   2.187  17.309 -1.2620 -0.4348  1.5849
 2764SOL     OW19753   4.367   1.324  16.925  0.1745 -0.0610 -0.0150
 2764SOL    HW119754   4.418   1.371  16.859  0.3773  0.1185  0.2662
 2764SOL    HW219755   4.280   1.328  16.887  0.1667 -0.8640 -0.0725
 2765SOL     OW19756   3.871   4.557  12.986  0.2372 -0.3236 -0.2128
 2765SOL    HW119757   3.926   4.524  13.057 -1.8574  0.3042  1.7117
 2765SOL    HW219758   3.887   4.651  12.981 -1.4562  0.1334  2.9879
 2766SOL     OW19759   3.653   0.606   0.604 -0.4598 -0.0583 -0.0600
 2766SOL    HW119760   3.649   0.540   0.674 -1.0695  0.9354  0.8406
 2766SOL    HW219761   3.625   0.546   0.535 -0.1342  1.1577 -1.2430
 2767SOL     OW19762   2.728   4.232   2.861 -0.0107 -0.0967  0.2052
 2767SOL    HW119763   2.783   4.249   2.938 -0.6840 -0.2435  0.7146
 2767SOL    HW219764   2.792   4.185   2.808  0.6722 -0.6421  1.4908
 2768SOL     OW19765   1.166   1.637   5.872  0.0979  0.0799  0.0320
 2768SOL    HW119766   1.176   1.559   5.818 -0.4604  0.0421 -0.0174
 2768SOL    HW219767   1.116   1.686   5.806  0.0254  0.3755  0.3077
 2769SOL     OW19768   3.536   1.575   9.000 -0.3384  0.0611  0.8832
 2769SOL    HW119769   3.481   1.646   9.033 -0.9870 -0.1776  0.3218
 2769SOL    HW219770   3.539   1.584   8.905  1.4289 -1.6135  0.7881
 2770SOL     OW19771   0.689   4.682   5.233  0.0215  0.9276 -0.3539
 2770SOL    HW119772   0.603   4.661   5.269  0.7963 -1.4149  0.1145
 2770SOL    HW219773   0.677   4.614   5.167  1.1774  0.6141 -0.2450
 2771SOL     OW19774   0.324   2.467   4.502  0.4652 -0.4936  0.5124
 2771SOL    HW119775   0.235   2.493   4.479  0.3292 -1.4672 -0.0234
 2771SOL    HW219776   0.305   2.410   4.576 -1.0486  0.9367  1.2459
 2772SOL     OW19777   1.043   0.026   1.952 -0.0602 -0.3016  0.5427
 2772SOL    HW119778   1.090   4.674   1.992  1.0402 -0.7354 -1.5264
 2772SOL    HW219779   0.957   0.020   1.992 -0.6355 -0.7565 -0.7427
 2773SOL     OW19780   3.020   4.613   6.978 -0.1468 -0.6257 -0.1763
 2773SOL    HW119781   2.977   4.534   6.947  0.3658 -0.9974  0.0621
 2773SOL    HW219782   3.095   4.577   7.026  0.6661  1.0934 -0.1451
 2774SOL     OW19783   2.885   3.876   9.380 -0.1966  0.1763 -0.6845
 2774SOL    HW119784   2.806   3.871   9.434  0.5140 -0.5638  0.2766
 2774SOL    HW219785   2.897   3.970   9.389 -0.8426  0.2108 -0.2003
 2775SOL     OW19786   1.746   2.611   8.991  0.2008  0.3803  0.3206
 2775SOL    HW119787   1.811   2.607   8.920 -1.6329  2.4677 -1.4861
 2775SOL    HW219788   1.798   2.557   9.050  2.7204  2.1303 -0.2869
 2776SOL     OW19789   1.850   3.982  13.941 -0.8594 -0.2749 -0.0045
 2776SOL    HW119790   1.803   3.911  13.985 -2.1926 -0.6760 -2.0721
 2776SOL    HW219791   1.920   3.934  13.898 -0.4443  1.6519 -1.5023
 2777SOL     OW19792   0.706   0.274   3.526 -0.5478 -0.0734 -0.3402
 2777SOL    HW119793   0.666   0.264   3.439 -0.7039 -0.7648 -0.1904
 2777SOL    HW219794   0.672   0.197   3.573 -1.2138 -0.5511 -1.5988
 2778SOL     OW19795   1.161   1.514   5.635  0.4498  0.1414  0.5184
 2778SOL    HW119796   1.177   1.589   5.577  0.4291 -0.2841 -0.0452
 2778SOL    HW219797   1.212   1.443   5.597  0.4711  0.0576  0.7045
 2779SOL     OW19798   0.551   0.581   5.407  0.1184 -1.0828  0.1048
 2779SOL    HW119799   0.516   0.545   5.325 -2.4252  1.2951  0.1498
 2779SOL    HW219800   0.512   0.668   5.401 -0.7565 -1.5128 -0.5342
 2780SOL     OW19801   1.439   2.056   1.218 -0.2022 -0.1704 -0.1806
 2780SOL    HW119802   1.406   1.998   1.286 -3.1533  1.9079  0.1735
 2780SOL    HW219803   1.504   2.102   1.270  0.6493  0.7851 -2.0823
 2781SOL     OW19804   1.899   1.024   8.936  0.5238  0.2078  0.3273
 2781SOL    HW119805   1.949   1.105   8.924  0.6954 -0.1817 -1.5427
 2781SOL    HW219806   1.820   1.042   8.885  0.2418 -0.5642  0.4959
 2782SOL     OW19807   3.213   2.530   8.113 -0.4671 -0.2524 -0.3998
 2782SOL    HW119808   3.127   2.524   8.070 -0.1539 -2.5130 -0.7371
 2782SOL    HW219809   3.188   2.526   8.205  0.5207 -0.4500 -0.1370
 2783SOL     OW19810   3.330   0.756   6.897 -0.0523 -0.8734  0.2867
 2783SOL    HW119811   3.400   0.715   6.947  0.0687  1.8731  2.3500
 2783SOL    HW219812   3.391   0.795   6.834  1.2297  1.5654  3.0948
 2784SOL     OW19813   4.567   4.221   7.818  0.0371  0.2750  0.0451
 2784SOL    HW119814   4.479   4.249   7.845 -0.0507 -1.0433  1.1326
 2784SOL    HW219815   4.605   4.200   7.903  2.9455 -0.4073 -1.4354
 2785SOL     OW19816   0.851   0.961  15.967 -0.4302 -0.2234  0.1644
 2785SOL    HW119817   0.877   1.052  15.984 -0.7640 -0.0257 -0.3539
 2785SOL    HW219818   0.871   0.958  15.873 -0.7755  2.0616  0.0042
 2786SOL     OW19819   0.599   1.222  17.264  0.3449 -0.2204  0.2677
 2786SOL    HW119820   0.681   1.243  17.220  0.2358  0.7928  0.5586
 2786SOL    HW219821   0.542   1.225  17.187  1.3312  0.7811 -0.4218
 2787SOL     OW19822   3.421   3.081   5.311  0.8032  0.3763 -0.4774
 2787SOL    HW119823   3.424   3.158   5.254 -1.0042 -0.5799 -1.8802
 2787SOL    HW219824   3.453   3.116   5.395 -0.1820  1.2538 -0.4592
 2788SOL     OW19825   3.605   4.071  17.100 -0.3859 -0.1150  0.1182
 2788SOL    HW119826   3.518   4.091  17.065 -0.7037 -1.4387  0.1669
 2788SOL    HW219827   3.657   4.126  17.042 -1.3736  0.6250 -0.0605
 2789SOL     OW19828   1.090   0.913  12.979 -0.3666  0.2149  0.1305
 2789SOL    HW119829   1.183   0.897  12.965 -0.1121 -0.8836  3.1430
 2789SOL    HW219830   1.049   0.902  12.893  1.2924 -0.5854 -0.5558
 2790SOL     OW19831   0.310   0.233  11.888  0.3041  0.4311 -0.1399
 2790SOL    HW119832   0.228   0.281  11.901  0.3508  0.1510  1.1504
 2790SOL    HW219833   0.278   0.171  11.823 -0.8468  0.5899  0.2824
 2791SOL     OW19834   3.122   1.614   6.698  0.0812 -0.5533  0.0705
 2791SOL    HW119835   3.197   1.642   6.750  0.4543 -1.9124  0.2801
 2791SOL    HW219836   3.151   1.646   6.613 -2.7310 -1.0762 -1.0747
 2792SOL     OW19837   3.051   0.430   4.353  0.4570 -0.0556  0.1169
 2792SOL    HW119838   3.074   0.337   4.362  0.1862 -0.2220 -0.9753
 2792SOL    HW219839   2.957   0.415   4.359  0.3533  0.5806  0.0752
 2793SOL     OW19840   2.742   3.379   9.755  0.4533  0.0615  0.3575
 2793SOL    HW119841   2.821   3.430   9.775 -0.5900  1.1456  1.6956
 2793SOL    HW219842   2.708   3.336   9.833  0.8442  0.9949  1.0508
 2794SOL     OW19843   3.648   3.220   8.090 -0.4979  0.0379 -0.2722
 2794SOL    HW119844   3.584   3.267   8.037  0.5675  1.9414  0.1473
 2794SOL    HW219845   3.599   3.145   8.124  1.1421 -0.8011  0.2685
 2795SOL     OW19846   1.694   2.371  11.393 -0.3590  0.4043 -0.1308
 2795SOL    HW119847   1.716   2.359  11.486 -0.4421 -1.3989 -0.3423
 2795SOL    HW219848   1.602   2.395  11.401 -1.0779 -2.7446  1.3750
 2796SOL     OW19849   2.386   1.482   3.415  0.0465  0.1216  0.0465
 2796SOL    HW119850   2.321   1.415   3.399  0.7539 -0.3794 -0.7337
 2796SOL    HW219851   2.401   1.519   3.328  1.6475 -0.1787  0.1883
 2797SOL     OW19852   0.830   4.460   4.518  0.2285 -0.3647  0.3345
 2797SOL    HW119853   0.840   4.435   4.610  0.5476 -0.2224  0.3395
 2797SOL    HW219854   0.770   4.390   4.493  1.2522 -1.6864  1.5968
 2798SOL     OW19855   2.441   0.168   2.384  0.0151 -0.1258 -0.6495
 2798SOL    HW119856   2.521   0.162   2.437  0.8200  0.4952 -1.8027
 2798SOL    HW219857   2.469   0.127   2.303 -2.5314 -0.6288 -1.2669
 2799SOL     OW19858   2.034   2.206  14.672 -0.1847 -0.0527 -0.1552
 2799SOL    HW119859   2.072   2.293  14.674 -2.7162  1.0333  0.6290
 2799SOL    HW219860   1.963   2.223  14.734  1.8193  1.9360  1.5875
 2800SOL     OW19861   2.524   4.277   4.062  0.8247  0.2408  0.9962
 2800SOL    HW119862   2.542   4.187   4.090  2.4964  0.2951  0.0231
 2800SOL    HW219863   2.444   4.292   4.113  0.4166 -0.1475  0.4783
 2801SOL     OW19864   3.366   2.396   3.077 -0.1705 -0.3582 -0.6024
 2801SOL    HW119865   3.440   2.337   3.062  1.2145  0.6517  2.1281
 2801SOL    HW219866   3.396   2.436   3.159 -0.3347  0.5875 -1.0056
 2802SOL     OW19867   0.776   2.481   2.766 -0.0834 -0.0938  0.0531
 2802SOL    HW119868   0.744   2.463   2.854  0.3462 -0.3544  0.1582
 2802SOL    HW219869   0.724   2.427   2.707 -1.0819  1.8110 -0.8202
 2803SOL     OW19870   4.542   1.416   3.612 -0.6024 -0.1761 -0.5524
 2803SOL    HW119871   4.578   1.356   3.547  0.1196 -0.5275  0.1785
 2803SOL    HW219872   4.519   1.484   3.549 -1.1330 -0.1907 -0.3756
 2804SOL     OW19873   1.602   1.877   9.396  0.3078  0.6350 -0.3169
 2804SOL    HW119874   1.667   1.855   9.329  0.1480  0.0842 -0.2889
 2804SOL    HW219875   1.658   1.906   9.468 -0.6027  0.2417  0.5499
 2805SOL     OW19876   0.154   1.100   7.590  0.0370  0.0939 -0.1448
 2805SOL    HW119877   0.212   1.142   7.527 -1.1188  0.5381 -0.9023
 2805SOL    HW219878   0.110   1.171   7.637  3.1142  1.1888  1.0857
 2806SOL     OW19879   0.310   3.410   1.956 -0.1611 -0.0150  0.0248
 2806SOL    HW119880   0.238   3.361   1.995 -0.8339  0.5637 -0.4871
 2806SOL    HW219881   0.364   3.340   1.919 -2.2699 -0.0786 -2.9568
 2807SOL     OW19882   3.771   3.541   5.220  0.1556  0.1311  0.3255
 2807SOL    HW119883   3.790   3.595   5.143  0.3624 -1.3588 -0.6717
 2807SOL    HW219884   3.826   3.464   5.207  0.6673  0.2287  1.9440
 2808SOL     OW19885   3.120   3.790   5.313 -0.3689  0.9784 -0.2931
 2808SOL    HW119886   3.115   3.705   5.270 -2.4575  0.6611  0.5838
 2808SOL    HW219887   3.187   3.838   5.263  0.2013  1.9220  1.3575
 2809SOL     OW19888   1.652   2.409   6.186 -0.1942  0.3117 -0.2211
 2809SOL    HW119889   1.730   2.353   6.179 -0.4674 -0.2763  1.5607
 2809SOL    HW219890   1.628   2.415   6.094  0.1812 -0.4413 -0.3685
 2810SOL     OW19891   0.569   3.785  11.952  0.2124  0.0107 -0.0611
 2810SOL    HW119892   0.542   3.748  11.869  1.7302  0.4124 -0.7329
 2810SOL    HW219893   0.651   3.830  11.929 -2.0803  2.8602 -2.6089
 2811SOL     OW19894   0.851   3.876   0.037  0.2408  0.4025  0.1521
 2811SOL    HW119895   0.924   3.899   0.094 -0.4820  1.6442  0.5630
 2811SOL    HW219896   0.866   3.930  17.647 -1.8548  1.6574  0.6390
 2812SOL     OW19897   1.851   0.949   5.397  0.3124  0.3020 -0.2075
 2812SOL    HW119898   1.846   0.902   5.480  0.6852  0.3427 -0.1603
 2812SOL    HW219899   1.761   0.946   5.363  0.1774 -2.1429  0.3439
 2813SOL     OW19900   3.100   0.606   7.108  0.1258 -0.3633 -0.3452
 2813SOL    HW119901   3.072   0.587   7.197  0.6858  0.2714 -0.0338
 2813SOL    HW219902   3.187   0.637   7.132 -0.7918  0.5264  1.8310
 2814SOL     OW19903   2.587   3.449   6.998 -0.6140 -0.0422  0.2014
 2814SOL    HW119904   2.678   3.476   7.007 -0.8036  1.8570 -3.5475
 2814SOL    HW219905   2.579   3.373   7.055  1.9766 -0.2037  0.3508
 2815SOL     OW19906   4.061   0.395   4.439 -0.0636 -0.0749 -0.2229
 2815SOL    HW119907   4.060   0.301   4.456  2.9936  0.2602  1.7537
 2815SOL    HW219908   4.146   0.414   4.478 -0.8612  1.3185  0.8634
 2816SOL     OW19909   4.160   0.990   7.651 -0.0349  0.0903  0.5633
 2816SOL    HW119910   4.071   0.964   7.673 -0.1959 -1.6195 -2.0110
 2816SOL    HW219911   4.198   0.975   7.737  1.7879 -1.3880 -0.4905
 2817SOL     OW19912   3.580   2.082   5.767 -0.3520 -1.0881  0.0037
 2817SOL    HW119913   3.625   2.150   5.816 -0.8876  0.0566 -1.1056
 2817SOL    HW219914   3.622   2.089   5.681  1.0291 -0.1863  0.7436
 2818SOL     OW19915   2.822   3.200   7.934 -0.4261 -0.1360  0.3071
 2818SOL    HW119916   2.728   3.184   7.931 -0.4000 -0.7639  3.2796
 2818SOL    HW219917   2.839   3.276   7.878 -1.0357  0.5234  1.0170
 2819SOL     OW19918   2.540   3.425   5.076 -0.4564 -0.3324  0.2653
 2819SOL    HW119919   2.468   3.421   5.138  0.3938 -2.8937  1.0917
 2819SOL    HW219920   2.623   3.402   5.118 -0.7281 -1.7856 -0.0194
 2820SOL     OW19921   3.305   1.768   5.486 -0.4106 -0.0022 -0.5423
 2820SOL    HW119922   3.287   1.784   5.394 -3.4205  0.2451  0.1047
 2820SOL    HW219923   3.259   1.688   5.510 -1.7290  0.6461 -0.9421
 2821SOL     OW19924   1.008   1.654   9.479  0.0484 -0.7442  0.2295
 2821SOL    HW119925   1.023   1.594   9.552 -1.6378 -0.7155  0.5987
 2821SOL    HW219926   0.994   1.593   9.406 -0.4609  0.4484 -0.6696
 2822SOL     OW19927   1.337   1.469   3.177  0.0769 -0.6286 -0.3619
 2822SOL    HW119928   1.413   1.527   3.169  1.0894 -1.9914 -0.4622
 2822SOL    HW219929   1.375   1.407   3.239  0.2685  1.6011  1.7593
 2823SOL     OW19930   0.089   1.195   3.953  0.2673 -0.4256  0.2185
 2823SOL    HW119931   0.010   1.248   3.938  0.6976 -0.1547 -1.1424
 2823SOL    HW219932   0.095   1.163   3.863  0.6993 -0.3924  0.2363
 2824SOL     OW19933   2.094   1.353  15.810 -0.2563  0.0471  0.1979
 2824SOL    HW119934   2.169   1.315  15.764  0.0712 -1.3998  1.9397
 2824SOL    HW219935   2.060   1.386  15.726 -3.6864 -0.1006  1.5185
 2825SOL     OW19936   1.707   3.958   3.326 -0.2653 -0.7289  0.0833
 2825SOL    HW119937   1.713   3.867   3.354  2.2070 -0.3453  0.8594
 2825SOL    HW219938   1.717   3.934   3.234  0.3850 -0.8026  0.1709
 2826SOL     OW19939   1.643   0.639  12.298  0.3553  0.4433  0.2291
 2826SOL    HW119940   1.689   0.707  12.248  0.4301  0.1155 -0.1390
 2826SOL    HW219941   1.551   0.639  12.272 -0.1019 -0.2749  1.8070
 2827SOL     OW19942   1.207   0.334   8.856 -0.2290  0.4861  0.1073
 2827SOL    HW119943   1.208   0.407   8.918  0.0121 -0.8568  1.6907
 2827SOL    HW219944   1.293   0.293   8.867 -0.5813 -0.3304 -0.1992
 2828SOL     OW19945   3.059   0.302   6.515 -0.3498  0.3999 -0.2375
 2828SOL    HW119946   2.994   0.260   6.570  0.4477  0.0667  0.4493
 2828SOL    HW219947   3.047   0.266   6.427 -1.2650 -2.4356  1.0485
 2829SOL     OW19948   3.474   2.424   7.023  0.8479 -0.1542  0.5629
 2829SOL    HW119949   3.556   2.425   7.073  0.9575 -0.7284  0.3906
 2829SOL    HW219950   3.471   2.333   6.993  1.4429 -0.7211  2.2143
 2830SOL     OW19951   3.515   3.463   7.719  0.2368 -0.8960 -0.6044
 2830SOL    HW119952   3.493   3.405   7.792  1.6805 -2.6675 -1.5725
 2830SOL    HW219953   3.448   3.530   7.730 -0.6928 -1.6056 -1.8267
 2831SOL     OW19954   2.847   0.388  12.985 -0.1861  0.1436 -0.4393
 2831SOL    HW119955   2.848   0.316  12.922 -0.2744 -2.0911  2.1485
 2831SOL    HW219956   2.920   0.439  12.949 -1.3290  1.0458 -1.5055
 2832SOL     OW19957   4.098   3.199   7.614  0.2394  0.2169 -0.7820
 2832SOL    HW119958   4.040   3.137   7.658  0.6877 -0.2099 -0.8042
 2832SOL    HW219959   4.174   3.203   7.672  1.1866 -2.6160 -1.8270
 2833SOL     OW19960   0.479   3.027   3.188  0.0131 -0.3521 -0.3255
 2833SOL    HW119961   0.424   3.086   3.136  1.0646  0.2582 -0.7546
 2833SOL    HW219962   0.418   2.954   3.184  0.2374 -0.7217  2.5632
 2834SOL     OW19963   0.125   2.559   9.332  0.0451  0.0954 -0.0758
 2834SOL    HW119964   0.104   2.625   9.397 -1.0391  1.0628 -1.4276
 2834SOL    HW219965   0.209   2.529   9.368  0.3302  0.1274 -0.7191
 2835SOL     OW19966   1.198   1.770   4.828  0.2288 -0.7273  0.5997
 2835SOL    HW119967   1.253   1.780   4.750 -2.1792  1.1096 -0.8316
 2835SOL    HW219968   1.140   1.698   4.803  0.1881 -0.9872  1.4333
 2836SOL     OW19969   0.160   3.607   2.951  0.0998  0.1774 -0.0585
 2836SOL    HW119970   0.229   3.552   2.913  0.9090  0.7769  0.5192
 2836SOL    HW219971   0.193   3.697   2.949 -1.6038  0.8602  3.1309
 2837SOL     OW19972   2.690   1.297   0.259 -1.1222  0.0329 -0.4802
 2837SOL    HW119973   2.738   1.290   0.341  0.2545 -2.1131 -1.4582
 2837SOL    HW219974   2.722   1.217   0.216  1.9353  0.4420  1.0128
 2838SOL     OW19975   2.047   0.334   6.556  0.2525 -0.2198 -0.5333
 2838SOL    HW119976   1.999   0.333   6.638  2.4265 -2.0318  0.7106
 2838SOL    HW219977   1.990   0.399   6.514  0.8870  1.6637  1.5201
 2839SOL     OW19978   3.372   4.336   8.580  0.7626 -0.1304 -0.6284
 2839SOL    HW119979   3.329   4.358   8.662  0.8378 -2.3815  0.0038
 2839SOL    HW219980   3.455   4.299   8.609  0.8577 -1.3946 -2.5082
 2840SOL     OW19981   2.863   3.446  10.859 -0.1100  0.2882 -0.6791
 2840SOL    HW119982   2.790   3.392  10.829 -0.7884 -0.3777  2.2043
 2840SOL    HW219983   2.813   3.522  10.890 -0.1927  0.1889 -0.5687
 2841SOL     OW19984   1.292   3.012   2.363 -0.0926  0.0867 -1.1935
 2841SOL    HW119985   1.244   2.929   2.366  0.1193 -0.0446 -1.4136
 2841SOL    HW219986   1.378   2.974   2.344  0.1078 -0.3071  0.4812
 2842SOL     OW19987   1.499   4.600   8.593 -0.4101 -0.1987 -0.0406
 2842SOL    HW119988   1.532   4.675   8.544  0.1648  1.2459  2.6122
 2842SOL    HW219989   1.581   4.555   8.613  0.1252  1.5881  1.7015
 2843SOL     OW19990   1.624   3.532  11.867 -0.5679 -0.0670  0.6858
 2843SOL    HW119991   1.558   3.486  11.816 -0.5429  0.2194  0.3936
 2843SOL    HW219992   1.706   3.488  11.845 -1.2359 -0.1915 -1.5972
 2844SOL     OW19993   1.691   1.253   8.241 -0.0589 -0.3224  0.0736
 2844SOL    HW119994   1.638   1.178   8.269 -0.3346  0.8908  2.8191
 2844SOL    HW219995   1.774   1.206   8.249 -0.7470 -1.3697  1.2040
 2845SOL     OW19996   2.524   1.588   6.963  0.2647  0.2843  0.0277
 2845SOL    HW119997   2.494   1.644   7.034  2.7142  1.3900  0.1549
 2845SOL    HW219998   2.573   1.656   6.917 -1.1760 -0.2741 -2.3325
 2846SOL     OW19999   0.889   3.807   3.528  0.0958 -0.6506  0.2696
 2846SOL    HW120000   0.936   3.851   3.599 -0.7191 -1.7913  1.5368
 2846SOL    HW220001   0.966   3.766   3.487  0.2499  0.9866 -1.0421
 2847SOL     OW20002   1.848   3.461   8.959 -0.1556 -0.3218  0.3926
 2847SOL    HW120003   1.870   3.368   8.958  1.2464 -0.0004  0.6962
 2847SOL    HW220004   1.936   3.498   8.963 -0.6736  0.6915  2.4589
 2848SOL     OW20005   3.177   2.382  15.559  0.1452 -0.1752 -0.2953
 2848SOL    HW120006   3.205   2.393  15.468 -1.0162 -0.2570 -0.6631
 2848SOL    HW220007   3.225   2.447  15.610  0.1338 -0.2536 -0.1844
 2849SOL     OW20008   0.404   2.816   2.977 -0.6919  0.1549 -0.7570
 2849SOL    HW120009   0.372   2.907   2.976  0.6519  0.6082 -1.3625
 2849SOL    HW220010   0.499   2.828   2.974 -0.6110 -1.3657 -3.3840
 2850SOL     OW20011   0.346   1.827   0.086 -0.0473 -0.1554  0.4712
 2850SOL    HW120012   0.268   1.835   0.031 -1.2590  1.9199  2.5017
 2850SOL    HW220013   0.342   1.915   0.124 -0.2619  0.6309 -1.3375
 2851SOL     OW20014   3.992   2.512   9.228 -0.7317 -0.3293  0.2717
 2851SOL    HW120015   4.003   2.440   9.291 -2.1766  1.4171  2.5048
 2851SOL    HW220016   4.085   2.536   9.222 -0.8916  0.0056 -0.8413
 2852SOL     OW20017   3.182   0.622   8.590  0.7744 -0.0936 -0.0723
 2852SOL    HW120018   3.117   0.604   8.522  0.1793  0.9106  0.2305
 2852SOL    HW220019   3.121   0.645   8.660  0.1386 -1.3791 -0.1976
 2853SOL     OW20020   0.118   0.164  11.644 -0.2251  0.3913 -0.3926
 2853SOL    HW120021   0.152   0.104  11.578 -1.0148 -1.5814  0.9978
 2853SOL    HW220022   0.168   0.244  11.630 -1.1865  1.0987  0.1941
 2854SOL     OW20023   4.257   3.582   7.230 -0.0777 -0.1332 -0.1744
 2854SOL    HW120024   4.183   3.576   7.169 -0.1400 -2.0266  0.0884
 2854SOL    HW220025   4.279   3.490   7.239 -0.8876 -0.1023  2.2269
 2855SOL     OW20026   1.601   0.634  10.671  0.5318 -0.1915 -0.1900
 2855SOL    HW120027   1.590   0.568  10.602 -0.7073 -0.3012  0.1152
 2855SOL    HW220028   1.600   0.716  10.621 -0.7301 -0.6985 -0.9995
 2856SOL     OW20029   3.408   1.057   6.912  0.3188  0.1323  0.0600
 2856SOL    HW120030   3.429   1.137   6.862 -0.2406 -0.5759 -1.3017
 2856SOL    HW220031   3.426   0.994   6.843  2.3577  0.6487  0.1021
 2857SOL     OW20032   0.948   3.659  12.911 -0.6995 -0.3240 -0.0672
 2857SOL    HW120033   0.974   3.577  12.953  2.6346  0.0266 -1.4497
 2857SOL    HW220034   0.994   3.719  12.969 -0.4559 -1.3847  0.8420
 2858SOL     OW20035   4.292   3.692  16.881  0.7327 -0.0396 -0.1315
 2858SOL    HW120036   4.254   3.710  16.967  1.4495 -0.3306  0.2448
 2858SOL    HW220037   4.293   3.596  16.881  0.0360 -0.0447 -0.9519
 2859SOL     OW20038   1.372   0.877   5.969  0.5044 -0.1789 -0.4086
 2859SOL    HW120039   1.432   0.917   5.907 -1.2926  0.4718 -1.7409
 2859SOL    HW220040   1.436   0.825   6.017  1.5715  0.1542 -1.4842
 2860SOL     OW20041   2.021   2.736   6.478  0.3962 -0.5265 -0.0589
 2860SOL    HW120042   2.065   2.690   6.549  2.2273 -1.4117 -1.7331
 2860SOL    HW220043   1.944   2.773   6.519  1.9576  0.0337  2.3534
 2861SOL     OW20044   1.862   0.871   7.027 -0.5263  0.0742  0.0070
 2861SOL    HW120045   1.797   0.859   6.957  0.0157 -2.0986 -0.1297
 2861SOL    HW220046   1.885   0.778   7.026 -1.8167 -0.2394 -0.7499
 2862SOL     OW20047   1.741   4.685   3.188 -0.7798 -0.3088 -0.2026
 2862SOL    HW120048   1.767   4.628   3.261 -0.9287 -1.2854 -0.9127
 2862SOL    HW220049   1.682   4.628   3.138 -0.1292  0.7289 -2.1372
 2863SOL     OW20050   1.850   0.715   4.597  0.2446  0.1341 -0.2926
 2863SOL    HW120051   1.867   0.769   4.519 -0.9615  1.3799  0.3030
 2863SOL    HW220052   1.882   0.784   4.655  0.5750  0.7107 -1.1592
 2864SOL     OW20053   1.488   3.171   5.161 -0.1793 -0.0735  0.1411
 2864SOL    HW120054   1.437   3.142   5.086  0.2615 -0.6270  0.0486
 2864SOL    HW220055   1.556   3.103   5.167 -0.2957 -0.2922 -1.0932
 2865SOL     OW20056   2.050   2.865   5.140  0.2418 -0.5186 -0.5741
 2865SOL    HW120057   2.086   2.881   5.227  0.8325 -1.0237 -0.7305
 2865SOL    HW220058   2.123   2.898   5.088 -0.6502  0.5732 -1.1242
 2866SOL     OW20059   3.785   2.216   5.308 -0.0488 -0.0728 -0.0618
 2866SOL    HW120060   3.690   2.214   5.315 -0.1407  1.6822 -0.7458
 2866SOL    HW220061   3.813   2.236   5.397  0.3038  1.6732 -0.5582
 2867SOL     OW20062   3.992   4.274   7.714  0.3187 -0.6810  0.2303
 2867SOL    HW120063   4.078   4.236   7.697  1.4985  2.0206  0.1797
 2867SOL    HW220064   3.948   4.258   7.630 -0.6404 -3.9436  1.3390
 2868SOL     OW20065   2.262   2.691   5.488  0.0081 -0.0838  0.7585
 2868SOL    HW120066   2.264   2.677   5.583  4.4254  2.1770  0.9904
 2868SOL    HW220067   2.170   2.691   5.464 -0.1152 -1.1592  1.2166
 2869SOL     OW20068   0.347   0.203   3.023  0.4771 -0.0982 -0.3685
 2869SOL    HW120069   0.289   0.271   2.988 -0.4590 -0.6762  0.0766
 2869SOL    HW220070   0.292   0.125   3.030  1.0273 -0.5206 -0.7293
 2870SOL     OW20071   0.689   2.443   9.247  0.3909 -0.0651 -0.3424
 2870SOL    HW120072   0.718   2.384   9.177  0.5361 -0.7129  0.2629
 2870SOL    HW220073   0.599   2.462   9.221  0.3120 -1.1208 -0.8407
 2871SOL     OW20074   0.727   3.615   6.178  0.2636  0.2406 -0.3437
 2871SOL    HW120075   0.697   3.531   6.212 -0.9144  1.4678  1.6485
 2871SOL    HW220076   0.725   3.670   6.256 -0.8003 -2.8165  1.7863
 2872SOL     OW20077   4.322   2.456   3.429  0.5971  0.3716  0.1599
 2872SOL    HW120078   4.228   2.474   3.434  0.2676 -2.0813  2.6906
 2872SOL    HW220079   4.318   2.361   3.414  0.5790  0.3962  0.0077
 2873SOL     OW20080   2.436   2.861   9.364  0.1354 -0.5788 -0.7120
 2873SOL    HW120081   2.412   2.863   9.457  2.7694  1.9586 -0.0746
 2873SOL    HW220082   2.531   2.853   9.363  0.1003 -0.9724 -0.7709
 2874SOL     OW20083   1.459   2.681   5.400 -0.0269 -0.2997  0.2160
 2874SOL    HW120084   1.465   2.775   5.416  3.0703 -0.2222 -1.3186
 2874SOL    HW220085   1.385   2.670   5.341  0.5986 -1.8907 -0.2804
 2875SOL     OW20086   2.101   0.511   4.816 -0.1462 -0.4565  0.5955
 2875SOL    HW120087   2.064   0.453   4.749 -1.6548 -0.4062  1.3623
 2875SOL    HW220088   2.023   0.561   4.839 -0.2618 -0.3162 -0.0889
 2876SOL     OW20089   0.254   2.389   8.448 -0.0622 -0.2467  0.1549
 2876SOL    HW120090   0.194   2.349   8.384  1.6194 -2.1428 -0.2466
 2876SOL    HW220091   0.231   2.339   8.526  0.1330 -0.4679  0.0718
 2877SOL     OW20092   0.526   2.732   3.904 -0.2803  0.4443  0.2266
 2877SOL    HW120093   0.564   2.757   3.988 -0.9515  1.6107  0.1854
 2877SOL    HW220094   0.573   2.649   3.893 -1.2579 -0.2188  1.0335
 2878SOL     OW20095   1.660   2.648   4.469  0.0969  0.0910 -0.2278
 2878SOL    HW120096   1.689   2.739   4.477  1.2195 -0.2672 -0.2402
 2878SOL    HW220097   1.711   2.609   4.399 -0.8734  1.0195 -1.4471
 2879SOL     OW20098   0.302   0.122   6.855 -1.1052  0.1240  0.3275
 2879SOL    HW120099   0.213   0.095   6.874 -0.7306  0.5448  2.7105
 2879SOL    HW220100   0.305   0.180   6.931  1.4138  0.5797 -0.1113
 2880SOL     OW20101   1.621   3.181  10.419 -0.3059 -0.0404 -0.0809
 2880SOL    HW120102   1.576   3.263  10.439  1.3117  1.6277 -3.3877
 2880SOL    HW220103   1.646   3.160  10.509  0.9831 -0.8785 -0.6371
 2881SOL     OW20104   1.016   1.130   3.763  0.9484 -0.1586 -0.1603
 2881SOL    HW120105   0.995   1.054   3.817 -1.5320  0.3219 -0.4672
 2881SOL    HW220106   1.070   1.096   3.692  2.8559  2.3781  0.0498
 2882SOL     OW20107   3.298   3.695   6.150 -0.0801  0.3410 -0.4831
 2882SOL    HW120108   3.341   3.627   6.099 -1.0481 -1.1654  0.7055
 2882SOL    HW220109   3.354   3.683   6.227  0.0510 -0.4259 -0.7047
 2883SOL     OW20110   2.140   4.113   3.054  0.2617  0.1662 -0.3496
 2883SOL    HW120111   2.085   4.189   3.072 -0.1447  0.2444 -1.8570
 2883SOL    HW220112   2.158   4.132   2.962  0.3914  1.6062 -0.0230
 2884SOL     OW20113   3.445   4.541   1.850  0.1477  0.1977  0.1126
 2884SOL    HW120114   3.509   4.497   1.794  0.1348 -0.8769  0.9481
 2884SOL    HW220115   3.372   4.550   1.789 -0.2167 -0.9873  0.3735
 2885SOL     OW20116   2.866   0.547   3.071  0.2604 -0.0473  0.8011
 2885SOL    HW120117   2.819   0.597   3.138 -0.8019 -0.9319  0.7309
 2885SOL    HW220118   2.945   0.600   3.080 -0.0920  0.4312  1.0248
 2886SOL     OW20119   1.447   0.125  10.851 -0.2332  0.1521  0.2752
 2886SOL    HW120120   1.529   0.094  10.890 -0.6342 -1.0282  0.1650
 2886SOL    HW220121   1.478   0.159  10.767 -3.0500  2.2377  0.0890
 2887SOL     OW20122   3.852   2.535   2.474  0.0120 -0.4826  0.1702
 2887SOL    HW120123   3.768   2.525   2.518 -0.0776 -0.0136  0.1062
 2887SOL    HW220124   3.885   2.613   2.519 -0.5060 -0.8591  1.1947
 2888SOL     OW20125   4.121   1.873  16.172 -0.3757 -0.3657  0.2009
 2888SOL    HW120126   4.210   1.850  16.199 -1.3659 -3.0424  1.1545
 2888SOL    HW220127   4.118   1.833  16.085 -0.4660 -0.5763  0.3009
 2889SOL     OW20128   0.925   3.327   8.943  0.3208  0.0573 -0.1131
 2889SOL    HW120129   0.955   3.238   8.921 -0.2710 -0.4337  1.0856
 2889SOL    HW220130   0.972   3.383   8.881  1.1447 -0.7405 -0.2208
 2890SOL     OW20131   2.745   0.988   6.042 -0.2642  0.1149 -0.1288
 2890SOL    HW120132   2.658   0.960   6.014 -0.0681  0.1947 -0.8188
 2890SOL    HW220133   2.793   0.965   5.963  0.1107  0.2813  0.0508
 2891SOL     OW20134   2.858   2.584  13.284  0.7767  0.4700  0.2299
 2891SOL    HW120135   2.905   2.575  13.201  2.5995  0.0840  1.3086
 2891SOL    HW220136   2.899   2.667  13.306  2.9988 -0.4646 -0.3174
 2892SOL     OW20137   3.112   0.462   4.686 -0.4311 -0.5794 -0.0035
 2892SOL    HW120138   3.051   0.495   4.619  1.8849 -2.8256 -3.2040
 2892SOL    HW220139   3.182   0.526   4.675 -1.5700  0.7100  0.2388
 2893SOL     OW20140   1.322   1.818   6.293  0.1863  0.6560  0.0224
 2893SOL    HW120141   1.258   1.887   6.314  1.9813  1.5145  2.5450
 2893SOL    HW220142   1.322   1.758   6.367  1.0676 -0.3441 -0.7824
 2894SOL     OW20143   1.232   0.617  14.462  0.0472 -0.4229  0.4576
 2894SOL    HW120144   1.316   0.614  14.509 -0.4698  0.1495  1.4234
 2894SOL    HW220145   1.183   0.554  14.514  0.7471 -1.7669 -0.5210
 2895SOL     OW20146   2.578   1.203  14.327  0.5804  0.8151  0.1857
 2895SOL    HW120147   2.561   1.285  14.281 -1.1332 -0.5105 -1.5538
 2895SOL    HW220148   2.608   1.228  14.414  0.2972 -1.6029  0.9970
 2896SOL     OW20149   0.101   0.675  10.118 -0.4476  0.1069  0.1601
 2896SOL    HW120150   0.185   0.720  10.127 -0.1475 -0.8692  2.1260
 2896SOL    HW220151   0.047   0.727  10.177 -0.2911  1.9217 -1.2983
 2897SOL     OW20152   2.442   1.362   5.477  0.1738 -0.0512 -0.2179
 2897SOL    HW120153   2.455   1.457   5.468 -0.8339  0.2050  0.9971
 2897SOL    HW220154   2.446   1.368   5.572 -1.0926  2.1201 -0.2912
 2898SOL     OW20155   4.491   4.364  15.160  0.3939 -0.2686 -0.1287
 2898SOL    HW120156   4.448   4.449  15.172 -0.2352 -0.4819 -0.8862
 2898SOL    HW220157   4.428   4.307  15.203  0.9159  0.0076  1.0110
 2899SOL     OW20158   3.380   3.653   8.681 -0.4775 -0.1575 -0.7226
 2899SOL    HW120159   3.298   3.703   8.680  1.3482  2.8146 -3.1743
 2899SOL    HW220160   3.438   3.713   8.728  0.3529 -0.7845 -0.9684
 2900SOL     OW20161   2.791   0.717   0.518 -0.2004  0.0104 -0.2824
 2900SOL    HW120162   2.824   0.635   0.482 -0.0689  0.2054 -0.6052
 2900SOL    HW220163   2.837   0.779   0.461  0.0551  1.4675  1.5268
 2901SOL     OW20164   1.640   3.315   4.141  0.1235  0.3695 -0.1998
 2901SOL    HW120165   1.547   3.315   4.121 -0.0256 -1.5549  0.5113
 2901SOL    HW220166   1.655   3.225   4.168 -1.8519  0.2162  0.4057
 2902SOL     OW20167   1.581   3.204   5.662 -0.2747 -0.0037 -0.0901
 2902SOL    HW120168   1.500   3.153   5.671  0.2737 -0.9614 -0.6913
 2902SOL    HW220169   1.646   3.135   5.672  0.0249  0.0259 -1.8007
 2903SOL     OW20170   4.021   1.415   7.635 -0.3109 -0.2997 -0.3771
 2903SOL    HW120171   3.945   1.415   7.577 -0.8737  0.2587  0.3509
 2903SOL    HW220172   4.062   1.331   7.617 -0.4910 -0.4531 -0.0750
 2904SOL     OW20173   0.552   4.459   3.640  0.0918 -0.1542 -0.7658
 2904SOL    HW120174   0.503   4.529   3.683 -1.2536 -1.8947  0.5562
 2904SOL    HW220175   0.627   4.448   3.698 -1.0045 -0.6715  0.5635
 2905SOL     OW20176   2.511   4.613   5.366  0.0773  0.6535 -0.0521
 2905SOL    HW120177   2.484   4.671   5.295 -0.6997  0.7543  0.3320
 2905SOL    HW220178   2.482   4.664   5.441 -1.0203  0.5371 -0.4083
 2906SOL     OW20179   3.097   3.781   8.712  0.6513  0.2034 -0.5013
 2906SOL    HW120180   3.036   3.844   8.751  1.9103  1.1758 -0.1259
 2906SOL    HW220181   3.049   3.698   8.719  0.9612  0.3428  3.1645
 2907SOL     OW20182   0.238   2.059  13.969 -0.4326  0.3497  0.2252
 2907SOL    HW120183   0.240   2.029  14.060 -0.7650  1.6833  0.6738
 2907SOL    HW220184   0.304   2.129  13.969 -1.2826  1.1514  0.1153
 2908SOL     OW20185   1.412   2.069  16.505  0.0642  0.0768 -0.3196
 2908SOL    HW120186   1.324   2.037  16.524 -0.7324  1.7263 -1.3229
 2908SOL    HW220187   1.456   2.056  16.589  1.7429 -0.4377 -1.2832
 2909SOL     OW20188   0.622   1.846   5.127  0.4841  0.0038  0.4308
 2909SOL    HW120189   0.591   1.911   5.064 -0.7808 -1.8807 -0.9106
 2909SOL    HW220190   0.647   1.898   5.203  0.6796  0.0268  0.3506
 2910SOL     OW20191   4.021   1.035   3.702  0.2488  0.6615  0.5260
 2910SOL    HW120192   4.086   1.057   3.768  0.1157  0.5716  0.6884
 2910SOL    HW220193   3.956   0.995   3.761 -1.3375  0.4484 -1.3343
 2911SOL     OW20194   3.374   1.552  12.343  0.1915  0.4004  0.2614
 2911SOL    HW120195   3.452   1.498  12.360  1.1766  1.5602 -0.5737
 2911SOL    HW220196   3.315   1.516  12.409  1.3303 -0.9556  0.5465
 2912SOL     OW20197   1.008   1.950   2.766 -0.5452  0.2845 -0.2844
 2912SOL    HW120198   1.031   2.043   2.777 -2.4837  0.5384  1.7480
 2912SOL    HW220199   0.942   1.946   2.836  0.1189 -0.0070  0.3171
 2913SOL     OW20200   3.959   4.622   9.038 -0.3905  0.2654  0.1049
 2913SOL    HW120201   3.974   4.562   9.111  1.7871  0.7054  0.0353
 2913SOL    HW220202   3.914   4.563   8.978  0.1662  1.8221 -1.8524
 2914SOL     OW20203   2.402   2.173   5.648 -0.1285  0.2726 -0.1123
 2914SOL    HW120204   2.481   2.156   5.597  1.5548  1.8351  1.9871
 2914SOL    HW220205   2.360   2.088   5.656 -0.9837  0.6593 -0.4736
 2915SOL     OW20206   0.831   4.693   6.331 -0.1542 -0.4285 -0.2312
 2915SOL    HW120207   0.806   0.018   6.251 -0.6207  0.8645  0.6580
 2915SOL    HW220208   0.920   4.664   6.310  0.7311  0.7367  1.9062
 2916SOL     OW20209   3.851   2.933   7.334 -0.1942  0.1865  0.2541
 2916SOL    HW120210   3.840   3.015   7.382 -1.6549 -0.4030  0.9281
 2916SOL    HW220211   3.762   2.899   7.340  0.1961 -0.7907  0.4708
 2917SOL     OW20212   2.940   2.652  14.962 -0.8229 -0.2765  0.0114
 2917SOL    HW120213   2.946   2.714  14.889  0.1065  0.0441  0.3619
 2917SOL    HW220214   2.925   2.709  15.037 -1.9832  0.5634 -0.8560
 2918SOL     OW20215   4.620   0.027   9.340 -0.0545 -0.1694  0.1381
 2918SOL    HW120216   4.585   0.092   9.401 -0.7144  0.9227 -1.4008
 2918SOL    HW220217   4.703   0.068   9.315 -0.2509  0.6475  0.8449
 2919SOL     OW20218   1.467   2.760   7.541  0.0439  0.1655  0.3002
 2919SOL    HW120219   1.409   2.684   7.538 -0.6169  0.7524 -1.6892
 2919SOL    HW220220   1.543   2.729   7.590  1.2986 -0.7140 -2.2160
 2920SOL     OW20221   3.608   4.418   1.610  0.2700  0.5017 -0.0159
 2920SOL    HW120222   3.546   4.370   1.556 -1.0735 -0.5636  2.4452
 2920SOL    HW220223   3.650   4.342   1.651 -1.3525 -0.2477  0.2395
 2921SOL     OW20224   1.274   0.419   6.787  0.6939 -0.2843 -0.0474
 2921SOL    HW120225   1.328   0.369   6.848  0.4725  1.0090  1.1926
 2921SOL    HW220226   1.339   0.416   6.717  2.4886  1.3559  1.5438
 2922SOL     OW20227   1.126   0.363  10.565 -0.0767  0.1665 -0.0436
 2922SOL    HW120228   1.072   0.420  10.511  1.8240  1.3139 -0.7288
 2922SOL    HW220229   1.119   0.279  10.520 -1.3521 -0.6119  1.6033
 2923SOL     OW20230   1.567   4.612   7.696 -0.3066  0.4733  0.1948
 2923SOL    HW120231   1.523   4.686   7.737  0.0975  0.7060  0.2063
 2923SOL    HW220232   1.598   4.648   7.613 -2.2454  0.1464 -0.6626
 2924SOL     OW20233   3.662   3.339   6.612  0.1155 -0.5336  0.8087
 2924SOL    HW120234   3.586   3.323   6.556  3.2181  2.3445 -4.1407
 2924SOL    HW220235   3.676   3.433   6.603 -1.6794 -0.6310 -2.8800
 2925SOL     OW20236   0.982   3.943   3.124  0.2510 -0.0493  1.0287
 2925SOL    HW120237   0.946   3.904   3.044  0.0485 -0.2520  1.2163
 2925SOL    HW220238   0.911   3.919   3.185  1.8287  0.1897  2.9673
 2926SOL     OW20239   0.881   3.537  15.971 -0.1978  0.0556  0.6529
 2926SOL    HW120240   0.870   3.631  15.959 -3.9352  0.2449  5.1936
 2926SOL    HW220241   0.834   3.500  15.895 -0.2773  1.7733 -0.1384
 2927SOL     OW20242   1.310   0.202  17.407  0.3018  0.0171  0.1378
 2927SOL    HW120243   1.395   0.161  17.426  0.4227  0.2779  0.1563
 2927SOL    HW220244   1.342   0.279  17.362 -0.1889  0.1867  0.0871
 2928SOL     OW20245   2.885   4.712  13.031  0.4774  0.1317 -0.0236
 2928SOL    HW120246   2.892   4.713  13.126 -1.0235 -0.8902  0.1157
 2928SOL    HW220247   2.912   4.620  13.030  2.4869  0.7399 -0.6516
 2929SOL     OW20248   1.859   1.218   3.560 -0.2671  0.4935  0.2139
 2929SOL    HW120249   1.913   1.179   3.629 -0.8050  1.0698  0.9675
 2929SOL    HW220250   1.863   1.150   3.494 -0.1555 -0.6381  1.3836
 2930SOL     OW20251   0.313   0.218  10.628 -0.1987 -1.0680  0.1898
 2930SOL    HW120252   0.336   0.132  10.664 -3.0511 -1.4441  1.0961
 2930SOL    HW220253   0.284   0.205  10.538 -2.3058 -0.0396  0.7058
 2931SOL     OW20254   3.523   3.926   6.169  0.2194  0.7165  0.1909
 2931SOL    HW120255   3.520   3.845   6.220  0.3541  0.4887 -0.1672
 2931SOL    HW220256   3.586   3.987   6.208  0.3512  1.5671 -1.3678
 2932SOL     OW20257   1.609   0.626  15.048 -0.8154  0.2575 -0.0099
 2932SOL    HW120258   1.624   0.596  14.958  1.2999  0.9204  0.1386
 2932SOL    HW220259   1.522   0.587  15.056 -0.5609 -0.3079  0.0083
 2933SOL     OW20260   2.825   1.720   0.587  0.4103 -0.3516 -0.7742
 2933SOL    HW120261   2.745   1.744   0.539 -1.0219 -1.0286  1.2559
 2933SOL    HW220262   2.839   1.802   0.635 -0.9113 -1.4674  1.5466
 2934SOL     OW20263   4.487   1.525   7.823 -0.7882 -0.1574 -0.0111
 2934SOL    HW120264   4.424   1.567   7.764  1.1663  1.8973 -0.6483
 2934SOL    HW220265   4.573   1.538   7.784 -0.7127 -0.5273  0.0403
 2935SOL     OW20266   4.223   0.776   7.284 -0.2136  0.1573 -0.1146
 2935SOL    HW120267   4.219   0.716   7.209 -0.9806  1.3795 -1.0672
 2935SOL    HW220268   4.233   0.721   7.362  1.1850  3.1356  1.7912
 2936SOL     OW20269   0.867   4.284  14.571 -0.6969 -0.0717 -0.6145
 2936SOL    HW120270   0.774   4.280  14.548 -0.6712  1.0707 -0.8971
 2936SOL    HW220271   0.858   4.212  14.633 -2.0627  1.1480  0.6085
 2937SOL     OW20272   0.843   1.423   9.787 -0.0782 -0.1247 -0.2212
 2937SOL    HW120273   0.765   1.367   9.795  1.7077 -2.4227  0.9227
 2937SOL    HW220274   0.890   1.392   9.864  1.2881  2.2583 -0.0848
 2938SOL     OW20275   2.364   0.553  10.214  0.2344 -0.0086  1.2596
 2938SOL    HW120276   2.309   0.631  10.206  0.8906  0.2670 -0.5458
 2938SOL    HW220277   2.435   0.580  10.273  1.2812 -1.1768  0.5404
 2939SOL     OW20278   4.320   3.463   0.300 -0.0158  0.1259  0.0365
 2939SOL    HW120279   4.243   3.505   0.260  0.7398 -1.1362 -2.7998
 2939SOL    HW220280   4.374   3.443   0.223 -1.2363  2.5512 -1.4682
 2940SOL     OW20281   3.960   0.237   4.891  0.2636  0.2103  0.1353
 2940SOL    HW120282   3.893   0.304   4.881 -0.8150 -0.9469 -0.4525
 2940SOL    HW220283   3.910   0.163   4.856  1.4408  0.8071 -2.7893
 2941SOL     OW20284   2.790   4.443   5.810 -0.1753 -0.1528 -0.4833
 2941SOL    HW120285   2.826   4.526   5.777 -0.2646  0.8444  1.9563
 2941SOL    HW220286   2.717   4.471   5.864  0.8309  0.3066  0.6244
 2942SOL     OW20287   3.416   0.908  11.061 -0.0857  0.1281  0.1972
 2942SOL    HW120288   3.387   0.997  11.079  1.1515  0.4659  0.5242
 2942SOL    HW220289   3.335   0.863  11.037  1.2037 -2.7145  1.1665
 2943SOL     OW20290   3.644   4.375   9.345 -0.3735 -0.3743  0.3015
 2943SOL    HW120291   3.598   4.416   9.419 -0.0457  0.7300 -0.1113
 2943SOL    HW220292   3.572   4.345   9.289 -0.4687  0.6537 -0.1118
 2944SOL     OW20293   4.609   3.155   7.747  0.2963  0.3200 -0.5546
 2944SOL    HW120294   4.515   3.176   7.749  0.0901 -0.6950  0.4491
 2944SOL    HW220295   4.609   3.072   7.795 -0.7103 -0.0869 -1.2324
 2945SOL     OW20296   3.735   4.102   6.271  0.1194  0.0058  0.5734
 2945SOL    HW120297   3.804   4.038   6.286 -2.5056 -2.8725  0.4625
 2945SOL    HW220298   3.785   4.181   6.292 -0.8421  1.2217 -1.6241
 2946SOL     OW20299   2.299   0.585   0.702 -0.1125  0.0484  0.0098
 2946SOL    HW120300   2.374   0.552   0.653 -1.7664 -2.0369 -1.1169
 2946SOL    HW220301   2.235   0.524   0.667 -1.1953  0.9455  0.4029
 2947SOL     OW20302   1.123   0.728   9.779  0.0580 -0.6492  0.4774
 2947SOL    HW120303   1.171   0.808   9.759  2.3621 -1.5237  2.4647
 2947SOL    HW220304   1.185   0.698   9.846  1.9148  0.5020 -0.7121
 2948SOL     OW20305   4.086   2.552  10.318  0.9607  0.0073  0.0220
 2948SOL    HW120306   4.150   2.615  10.285  1.0753 -0.3868 -0.5006
 2948SOL    HW220307   4.085   2.477  10.260 -1.2900 -0.0594  0.1406
 2949SOL     OW20308   4.079   2.439   7.458  0.5932  0.1919  0.3494
 2949SOL    HW120309   4.166   2.477   7.452  1.1119 -0.6641  2.3262
 2949SOL    HW220310   4.100   2.373   7.524  0.7543  1.5268  1.6220
 2950SOL     OW20311   0.772   2.543  10.153 -0.4184 -0.1857  0.1493
 2950SOL    HW120312   0.847   2.518  10.207 -0.4723  0.7950  0.6857
 2950SOL    HW220313   0.701   2.534  10.217  0.8481  1.1081  1.7426
 2951SOL     OW20314   0.602   3.281   8.605  0.3703  0.3937  0.1657
 2951SOL    HW120315   0.558   3.259   8.687  3.7224 -2.3092  1.2713
 2951SOL    HW220316   0.532   3.322   8.554  1.1047  1.0101 -0.3446
 2952SOL     OW20317   1.652   4.456  12.337  0.3185  0.0114  0.0784
 2952SOL    HW120318   1.677   4.409  12.417  0.5558 -2.1270 -1.2687
 2952SOL    HW220319   1.565   4.487  12.362  0.5452  1.0244 -0.3881
 2953SOL     OW20320   1.470   2.165   0.967 -0.3296  0.1489 -0.4452
 2953SOL    HW120321   1.563   2.143   0.961 -0.1854  0.4638  0.6338
 2953SOL    HW220322   1.444   2.134   1.054 -0.1346  0.3201 -0.3260
 2954SOL     OW20323   1.778   2.602   8.649 -0.4535  0.2684  0.2547
 2954SOL    HW120324   1.852   2.589   8.708 -0.8904  0.8823  0.9420
 2954SOL    HW220325   1.726   2.674   8.683 -0.3719  0.5649 -0.2454
 2955SOL     OW20326   1.910   1.746   1.496 -0.4790  0.5878 -0.0360
 2955SOL    HW120327   1.827   1.793   1.483 -1.1093 -0.4145  0.3457
 2955SOL    HW220328   1.877   1.661   1.526  2.0886 -0.1736  0.5666
 2956SOL     OW20329   3.425   1.423  13.449  0.0342  0.0337 -0.1360
 2956SOL    HW120330   3.448   1.339  13.409 -3.2540 -0.1368 -1.6398
 2956SOL    HW220331   3.348   1.397  13.499  0.1652  0.4108  0.2603
 2957SOL     OW20332   1.796   1.604   4.266 -0.0319 -0.1854 -0.2022
 2957SOL    HW120333   1.822   1.673   4.206  0.6598  0.3127  0.6699
 2957SOL    HW220334   1.851   1.538   4.223 -0.2886  0.6507 -1.8101
 2958SOL     OW20335   2.323   4.379   7.019 -0.0327 -0.4063  0.0201
 2958SOL    HW120336   2.252   4.335   6.971 -0.6256  2.0274 -1.3325
 2958SOL    HW220337   2.333   4.323   7.096  0.2229 -3.1396 -2.0009
 2959SOL     OW20338   1.978   4.431   2.772 -0.0355  0.2354  0.6036
 2959SOL    HW120339   1.948   4.422   2.682 -0.8775 -0.3541  0.9362
 2959SOL    HW220340   2.003   4.342   2.797  1.5298  0.4703 -0.1399
 2960SOL     OW20341   1.543   1.834  11.643 -0.4317 -0.3777  0.1643
 2960SOL    HW120342   1.604   1.907  11.640 -0.7250 -0.1313  0.1822
 2960SOL    HW220343   1.541   1.815  11.737 -3.1431 -0.4559  0.1087
 2961SOL     OW20344   2.460   3.080  14.606  0.1001  0.0657 -0.3507
 2961SOL    HW120345   2.398   3.124  14.664  0.0563  0.5593 -0.7676
 2961SOL    HW220346   2.495   3.023  14.675  0.3660  3.6100  2.4215
 2962SOL     OW20347   1.143   3.090  15.588 -0.1689  0.2739  0.5716
 2962SOL    HW120348   1.113   2.999  15.596  0.0029 -0.0125 -2.1415
 2962SOL    HW220349   1.211   3.084  15.655 -0.5034  0.8864  0.9656
 2963SOL     OW20350   1.057   0.478  11.142  0.3710  0.2665  0.2494
 2963SOL    HW120351   1.021   0.562  11.112  1.1350  0.8772  1.0681
 2963SOL    HW220352   1.114   0.454  11.069  0.2108  0.4915  0.0507
 2964SOL     OW20353   4.227   1.064   4.520 -0.5329  0.1686 -0.1196
 2964SOL    HW120354   4.286   0.997   4.486 -1.6586  0.2581 -2.2613
 2964SOL    HW220355   4.148   1.009   4.522 -0.4824  0.0438 -1.6647
 2965SOL     OW20356   3.656   3.739   5.401  0.6404  1.0709 -0.4890
 2965SOL    HW120357   3.723   3.735   5.469 -2.3609 -1.8877  2.2756
 2965SOL    HW220358   3.694   3.679   5.336 -0.8285 -0.4469  0.0620
 2966SOL     OW20359   0.313   1.111   3.107  0.0610  0.5062 -0.3952
 2966SOL    HW120360   0.334   1.185   3.165 -0.6358 -0.1759  0.7234
 2966SOL    HW220361   0.386   1.050   3.122 -1.1683 -1.2031 -1.4204
 2967SOL     OW20362   0.642   1.022   5.556 -0.3687  0.3002  0.4390
 2967SOL    HW120363   0.653   1.110   5.593  0.6332  0.3806 -0.0696
 2967SOL    HW220364   0.603   0.977   5.631 -0.6399 -1.3342 -0.6947
 2968SOL     OW20365   1.102   1.774   6.115 -0.4078 -0.1204  0.7865
 2968SOL    HW120366   1.119   1.742   6.026 -0.2025 -0.5802  0.9919
 2968SOL    HW220367   1.187   1.805   6.144 -0.0762 -0.4950  0.2180
 2969SOL     OW20368   0.470   1.505   1.632 -0.2410 -0.1448  0.0876
 2969SOL    HW120369   0.535   1.503   1.561 -0.0008  1.0482  0.2706
 2969SOL    HW220370   0.443   1.597   1.631  2.0475  0.5357  0.6710
 2970SOL     OW20371   3.231   2.529   1.321 -0.6260  0.1546 -0.0606
 2970SOL    HW120372   3.141   2.560   1.309 -0.5271  1.1389  1.7527
 2970SOL    HW220373   3.222   2.434   1.321 -4.2418  0.4934  1.3768
 2971SOL     OW20374   2.143   1.564   5.190 -0.0906  0.0450 -0.0139
 2971SOL    HW120375   2.188   1.480   5.197 -1.2803 -0.4893  1.3053
 2971SOL    HW220376   2.061   1.566   5.240 -1.2308  0.5183 -1.9256
 2972SOL     OW20377   4.217   4.152   1.594  0.1702 -0.2480 -0.2486
 2972SOL    HW120378   4.212   4.216   1.523  2.3041 -0.0113 -0.1937
 2972SOL    HW220379   4.151   4.194   1.649 -0.8162 -1.0253 -0.8448
 2973SOL     OW20380   0.179   2.274   2.442  0.3932 -0.6584 -0.6015
 2973SOL    HW120381   0.162   2.185   2.409 -1.0508 -1.4139  2.1729
 2973SOL    HW220382   0.169   2.318   2.358  2.2590  0.3955 -0.2611
 2974SOL     OW20383   1.704   3.402   5.517  0.7375 -0.5983  0.3230
 2974SOL    HW120384   1.673   3.326   5.565 -0.8121  0.4800  1.0403
 2974SOL    HW220385   1.660   3.383   5.434 -0.2788 -0.8304  0.9207
 2975SOL     OW20386   4.156   1.577   9.269 -0.6788 -1.2483  0.7922
 2975SOL    HW120387   4.213   1.553   9.197 -1.0822  4.2552 -1.3810
 2975SOL    HW220388   4.082   1.621   9.227  1.3221  0.6702 -0.6984
 2976SOL     OW20389   1.129   4.579  14.173 -0.0902  0.2141  0.2529
 2976SOL    HW120390   1.199   4.592  14.237  0.7556 -1.3622 -0.3515
 2976SOL    HW220391   1.124   4.672  14.149 -0.8369 -0.1188 -0.8819
 2977SOL     OW20392   3.096   2.782   8.470  0.3850 -0.3372  0.0875
 2977SOL    HW120393   3.027   2.803   8.533  2.8412  0.7429  2.4258
 2977SOL    HW220394   3.172   2.827   8.509 -0.0609 -0.2304  0.8336
 2978SOL     OW20395   2.624   0.343   8.146 -0.0918 -0.0606 -0.0604
 2978SOL    HW120396   2.605   0.266   8.200 -0.0186 -2.1088 -2.9447
 2978SOL    HW220397   2.537   0.361   8.110  0.3390 -0.7611 -1.4308
 2979SOL     OW20398   2.687   3.332   2.007  0.2539 -0.2318  0.3661
 2979SOL    HW120399   2.742   3.333   2.084 -2.7012 -0.1790  2.4864
 2979SOL    HW220400   2.623   3.273   2.048 -0.8163  0.6932  0.0303
 2980SOL     OW20401   4.352   4.289   8.393  0.7756 -0.1531  0.1386
 2980SOL    HW120402   4.386   4.222   8.334 -3.0238 -1.9990  0.0035
 2980SOL    HW220403   4.261   4.267   8.374  0.4458  0.7499  0.6640
 2981SOL     OW20404   0.013   1.311   0.638  0.3181  0.0360 -0.1830
 2981SOL    HW120405   0.078   1.242   0.651 -0.8205 -0.6672  1.6411
 2981SOL    HW220406   4.697   1.298   0.725  0.3846  2.3796  0.1957
 2982SOL     OW20407   4.662   0.034   8.628 -0.3449 -0.1850  0.0686
 2982SOL    HW120408   4.576   0.032   8.587  0.6980 -0.8326 -2.1223
 2982SOL    HW220409   4.637   0.017   8.718  2.0589 -1.5403  0.4807
 2983SOL     OW20410   2.231   0.891   5.647  0.1641 -0.0670  0.5346
 2983SOL    HW120411   2.213   0.983   5.625 -0.6665 -0.4181 -0.2521
 2983SOL    HW220412   2.324   0.896   5.668  0.0646  0.6035  0.8117
 2984SOL     OW20413   1.862   3.634   6.267  0.0411 -0.3886  0.0226
 2984SOL    HW120414   1.855   3.601   6.177  0.7798 -0.0959 -0.1463
 2984SOL    HW220415   1.778   3.616   6.308  0.2589 -2.8857 -0.6242
 2985SOL     OW20416   1.602   4.718   3.578 -0.2837  0.5772 -0.7067
 2985SOL    HW120417   1.587   0.080   3.534  0.3196  1.0529  0.0096
 2985SOL    HW220418   1.513   4.689   3.597 -0.0591  2.1043  2.6802
 2986SOL     OW20419   0.614   1.672   9.901  0.2019  0.6603  0.0978
 2986SOL    HW120420   0.572   1.718   9.828  0.6079  0.8534 -0.0179
 2986SOL    HW220421   0.556   1.597   9.915  1.0262  0.0186  0.0740
 2987SOL     OW20422   3.365   1.184  11.096  0.0030  0.8515  0.5397
 2987SOL    HW120423   3.330   1.270  11.072  1.1277  1.4838  1.1479
 2987SOL    HW220424   3.447   1.214  11.136 -0.2183  1.1464  0.7711
 2988SOL     OW20425   3.203   0.726   9.031  0.1237  0.5619 -0.1604
 2988SOL    HW120426   3.282   0.689   9.071 -0.1535 -0.4053 -0.5129
 2988SOL    HW220427   3.234   0.808   8.992 -1.1572  2.2251  2.3631
 2989SOL     OW20428   2.934   0.933   8.140  0.4011 -0.5343 -0.1249
 2989SOL    HW120429   3.001   0.976   8.087  0.0496  0.0366 -0.1070
 2989SOL    HW220430   2.882   0.903   8.065  0.7622 -2.0525  0.2270
 2990SOL     OW20431   0.764   0.980   5.069 -0.3571 -0.0451 -0.2734
 2990SOL    HW120432   0.705   1.019   5.134 -2.0655 -1.4301 -1.0099
 2990SOL    HW220433   0.711   0.943   4.999  1.4220 -0.9115 -1.1767
 2991SOL     OW20434   2.301   0.075   6.260  0.5376  0.0945  0.1517
 2991SOL    HW120435   2.242   0.143   6.228 -1.2791 -0.9702  1.2418
 2991SOL    HW220436   2.255   0.029   6.331  1.7922 -0.5261  0.5550
 2992SOL     OW20437   0.223   1.629  15.969  0.4826 -0.0552  0.1735
 2992SOL    HW120438   0.307   1.653  16.009 -0.8966  1.3708  2.2078
 2992SOL    HW220439   0.249   1.549  15.923 -0.8596 -0.6451  0.4366
 2993SOL     OW20440   0.705   0.856   3.657  0.0538  0.1035  0.2501
 2993SOL    HW120441   0.782   0.831   3.708  0.7429  2.1582  0.2400
 2993SOL    HW220442   0.640   0.786   3.663  0.0923  0.0060 -0.4393
 2994SOL     OW20443   3.147   2.357   9.280 -0.1992 -0.0838  0.0744
 2994SOL    HW120444   3.139   2.352   9.185 -0.1137  0.0720  0.0595
 2994SOL    HW220445   3.086   2.290   9.312 -0.3454 -0.7906 -1.6842
 2995SOL     OW20446   2.092   0.437   0.567 -0.3871  0.1121 -0.3197
 2995SOL    HW120447   2.015   0.456   0.620  1.5222 -0.6921  2.7347
 2995SOL    HW220448   2.056   0.420   0.480 -0.7463  2.9722 -0.7403
 2996SOL     OW20449   1.648   4.620  10.833 -0.0830  0.4191 -0.2237
 2996SOL    HW120450   1.581   4.586  10.774  0.1860  0.8614 -0.7881
 2996SOL    HW220451   1.718   4.644  10.772  1.7573  1.7397  2.3978
 2997SOL     OW20452   4.155   3.824   9.828 -0.6939 -0.8463 -0.4129
 2997SOL    HW120453   4.145   3.899   9.769 -1.6547 -0.6014  0.0652
 2997SOL    HW220454   4.250   3.821   9.836 -0.4632 -0.7517 -2.9255
 2998SOL     OW20455   0.573   2.536  13.103  0.3017 -0.1429  0.1052
 2998SOL    HW120456   0.535   2.466  13.051  0.5009 -0.9295  1.0086
 2998SOL    HW220457   0.539   2.512  13.190 -0.0753 -2.6931 -0.7602
 2999SOL     OW20458   1.967   4.485   1.266 -0.1479 -0.3510 -0.1055
 2999SOL    HW120459   2.030   4.541   1.312 -0.5670  1.6033 -1.9181
 2999SOL    HW220460   1.909   4.455   1.335 -0.3106  0.3187  0.0448
 3000SOL     OW20461   1.475   1.288   3.339  0.0623  0.7812  0.2891
 3000SOL    HW120462   1.504   1.227   3.407  2.7781  0.9262 -0.7675
 3000SOL    HW220463   1.465   1.238   3.259 -1.9523 -0.6517  1.4299
 3001SOL     OW20464   3.906   3.320   6.946  0.1597  0.4254 -0.2233
 3001SOL    HW120465   3.863   3.241   6.978 -0.0004  0.2226 -0.9502
 3001SOL    HW220466   3.827   3.373   6.939 -0.7467 -0.5445  2.4854
 3002SOL     OW20467   0.550   0.075  12.779  0.1151  0.6323 -0.1525
 3002SOL    HW120468   0.615   0.093  12.847  1.1159 -0.2046 -0.8942
 3002SOL    HW220469   0.539   4.701  12.780 -1.3005  0.8125  1.4863
 3003SOL     OW20470   3.233   3.226   2.144 -0.2039  0.7382 -0.0981
 3003SOL    HW120471   3.239   3.239   2.049  0.3710  0.7474 -0.0640
 3003SOL    HW220472   3.167   3.293   2.163 -1.5690 -0.0934 -1.9418
 3004SOL     OW20473   1.321   1.115   7.241  0.1532 -0.6364 -0.5520
 3004SOL    HW120474   1.327   1.167   7.321 -0.5863  0.1449 -1.0135
 3004SOL    HW220475   1.273   1.178   7.188  0.8062  0.1681 -0.1754
 3005SOL     OW20476   2.713   1.879   3.141  0.3555  0.5927 -0.2261
 3005SOL    HW120477   2.803   1.867   3.172  0.0048 -1.4743  0.0017
 3005SOL    HW220478   2.678   1.790   3.150  0.3691  0.6274  0.1532
 3006SOL     OW20479   1.311   3.606  14.813 -0.2805 -0.2127 -0.2469
 3006SOL    HW120480   1.313   3.538  14.880 -1.1667  0.8259  0.8068
 3006SOL    HW220481   1.257   3.574  14.741 -1.6487 -0.3421  0.8361
 3007SOL     OW20482   1.300   0.828   8.340  0.9551 -0.2980 -0.1904
 3007SOL    HW120483   1.352   0.785   8.272 -0.9855 -3.5103  0.3340
 3007SOL    HW220484   1.216   0.782   8.331 -0.5724  2.6155 -0.7595
 3008SOL     OW20485   1.594   3.667   3.888  0.4543  0.1880 -0.3289
 3008SOL    HW120486   1.580   3.762   3.884 -1.9494 -0.0976  1.0574
 3008SOL    HW220487   1.645   3.664   3.969  2.6442 -1.2597 -1.7696
 3009SOL     OW20488   0.251   2.981  14.708 -0.0454 -0.1420  0.3488
 3009SOL    HW120489   0.304   3.003  14.631  1.5919 -3.3960  0.5351
 3009SOL    HW220490   0.260   3.064  14.755 -1.2438  1.0572 -1.5509
 3010SOL     OW20491   0.568   2.846   5.043 -0.0601 -0.4198 -0.0838
 3010SOL    HW120492   0.628   2.775   5.066 -0.5351 -0.9574 -0.5166
 3010SOL    HW220493   0.624   2.917   5.076 -0.7114  0.3101 -0.5685
 3011SOL     OW20494   0.193   0.506   4.709 -0.3902 -0.2236  0.4140
 3011SOL    HW120495   0.154   0.419   4.705  0.4532 -0.7219  3.0364
 3011SOL    HW220496   0.174   0.530   4.618  1.3736 -0.0002  0.1154
 3012SOL     OW20497   4.025   0.820   3.298 -0.1696  0.1618  0.6319
 3012SOL    HW120498   3.982   0.904   3.280 -0.8032  0.3596  3.1932
 3012SOL    HW220499   4.104   0.867   3.325 -0.7189  0.7530  1.2138
 3013SOL     OW20500   0.883   1.293  12.729 -0.1077  0.2821 -0.1016
 3013SOL    HW120501   0.863   1.259  12.817  0.2883 -0.2783 -0.2290
 3013SOL    HW220502   0.828   1.371  12.720 -0.4811 -0.0362 -0.5688
 3014SOL     OW20503   0.291   2.302   4.729 -0.7110  0.0939  0.1821
 3014SOL    HW120504   0.303   2.283   4.822 -0.0193  1.8181  0.4304
 3014SOL    HW220505   0.223   2.237   4.711 -0.7603 -0.0061  0.7450
 3015SOL     OW20506   0.183   3.704   5.978 -0.1150 -0.1400 -0.6769
 3015SOL    HW120507   0.211   3.796   5.975  1.8934 -0.7653 -1.2026
 3015SOL    HW220508   0.241   3.659   6.040 -0.7489 -1.8079 -1.2865
 3016SOL     OW20509   1.122   2.101   1.150  0.8419  0.4613  0.0582
 3016SOL    HW120510   1.094   2.034   1.212  1.3561 -0.3644 -0.6128
 3016SOL    HW220511   1.207   2.063   1.127 -0.5308 -1.8597 -1.2006
 3017SOL     OW20512   0.914   1.518   7.675 -0.4034  0.1360  0.1217
 3017SOL    HW120513   0.881   1.531   7.585  0.6010  1.9866  0.0275
 3017SOL    HW220514   0.836   1.477   7.713 -1.4026  2.2260  0.3189
 3018SOL     OW20515   2.952   2.503   3.050 -0.0938 -0.2529 -0.6442
 3018SOL    HW120516   2.966   2.593   3.021 -1.9897  0.1463 -0.3690
 3018SOL    HW220517   2.938   2.515   3.144 -0.0817  0.4390 -0.7311
 3019SOL     OW20518   3.020   3.434  14.958  0.1414 -0.0352 -0.6203
 3019SOL    HW120519   3.024   3.447  14.863 -2.3930 -1.4098 -0.9315
 3019SOL    HW220520   3.085   3.364  14.961 -0.7918 -0.9346 -1.1330
 3020SOL     OW20521   4.247   1.756   5.741 -0.1871 -0.2619 -0.8138
 3020SOL    HW120522   4.239   1.684   5.679  0.4047 -1.5296  0.5704
 3020SOL    HW220523   4.291   1.715   5.816  1.9199 -0.2341 -2.0261
 3021SOL     OW20524   2.260   3.250   8.189 -0.7124  0.3986 -0.0348
 3021SOL    HW120525   2.317   3.245   8.266 -1.2106  1.0850  0.3873
 3021SOL    HW220526   2.294   3.187   8.126  2.2596  1.3296  0.6624
 3022SOL     OW20527   1.232   1.749   8.895 -0.1931  0.0072 -0.2459
 3022SOL    HW120528   1.166   1.710   8.952 -0.1785  0.6145  0.1769
 3022SOL    HW220529   1.182   1.821   8.857  0.2831 -0.0335 -0.9553
 3023SOL     OW20530   0.659   0.546   3.338  0.0946 -0.0297 -0.0886
 3023SOL    HW120531   0.746   0.528   3.302 -0.2098  0.0689 -0.8719
 3023SOL    HW220532   0.666   0.494   3.418 -0.3627  1.9800  1.2643
 3024SOL     OW20533   2.050   0.898  13.504  0.3925  0.1986 -0.5062
 3024SOL    HW120534   2.065   0.988  13.474  1.4338  0.0267 -0.4969
 3024SOL    HW220535   2.053   0.913  13.599 -0.9516  0.3136 -0.4750
 3025SOL     OW20536   2.716   4.259   7.421  0.4117  0.2541  0.8708
 3025SOL    HW120537   2.756   4.184   7.464  3.2209  1.2346 -0.0516
 3025SOL    HW220538   2.769   4.271   7.342  1.9413  0.4346  1.9370
 3026SOL     OW20539   2.571   0.083   7.930 -0.7580  0.1969 -0.7107
 3026SOL    HW120540   2.583   0.169   7.889  2.1288  1.0932  1.9285
 3026SOL    HW220541   2.663   0.058   7.926 -0.9745 -0.4890 -1.3755
 3027SOL     OW20542   4.449   2.255   7.231 -0.1920 -0.5975  0.4241
 3027SOL    HW120543   4.516   2.198   7.270  3.7968  3.6466 -0.1811
 3027SOL    HW220544   4.499   2.331   7.202 -0.0382 -1.0027 -0.4026
 3028SOL     OW20545   4.265   4.693  13.007 -0.1691 -0.3987  0.1340
 3028SOL    HW120546   4.352   4.679  12.968 -0.3825 -0.9006 -0.1602
 3028SOL    HW220547   4.211   4.654  12.938 -2.7818 -0.2495  2.1226
 3029SOL     OW20548   1.672   0.141   5.868  0.9744 -0.0550  0.2402
 3029SOL    HW120549   1.721   0.219   5.841  2.2321 -0.2869  1.8483
 3029SOL    HW220550   1.595   0.147   5.811  0.5881 -0.0833  0.7602
 3030SOL     OW20551   3.118   0.035   6.062 -0.3750 -0.0965 -0.0599
 3030SOL    HW120552   3.212   0.047   6.057 -0.6100  0.2598 -3.5475
 3030SOL    HW220553   3.094   0.012   5.972 -0.0268  0.1816 -0.2232
 3031SOL     OW20554   2.002   3.147   0.588 -0.6357 -0.3329 -0.0367
 3031SOL    HW120555   2.040   3.059   0.591  0.0270 -0.0495 -0.1013
 3031SOL    HW220556   2.074   3.192   0.633  0.1909 -1.1463 -0.5435
 3032SOL     OW20557   2.245   2.692   8.616  0.1784  0.4850 -0.6313
 3032SOL    HW120558   2.196   2.768   8.648  1.1877  0.6680  0.4757
 3032SOL    HW220559   2.305   2.688   8.691 -3.1173  0.8564  1.9963
 3033SOL     OW20560   1.560   0.100  17.515  0.4943  0.1626 -0.0895
 3033SOL    HW120561   1.610   0.020  17.502  1.6252  0.8147  0.1459
 3033SOL    HW220562   1.541   0.094  17.609  0.7857 -2.4230 -0.2082
 3034SOL     OW20563   2.885   4.677  13.346  0.1777  0.1725  0.2544
 3034SOL    HW120564   2.854   4.647  13.431  1.5079 -0.1267  0.6360
 3034SOL    HW220565   2.818   0.023  13.335 -0.7595 -0.7769  0.1756
 3035SOL     OW20566   1.318   3.874   2.631  0.0350 -0.1887  0.7716
 3035SOL    HW120567   1.370   3.804   2.670 -0.4092 -1.6119 -1.2132
 3035SOL    HW220568   1.262   3.904   2.703 -1.3865  0.5530 -0.6413
 3036SOL     OW20569   2.149   2.503   6.681  0.8711  0.0916  0.3181
 3036SOL    HW120570   2.059   2.491   6.650  1.7118 -1.6026 -1.4220
 3036SOL    HW220571   2.136   2.524   6.774 -0.7560  2.2587 -0.3824
 3037SOL     OW20572   2.078   4.627   2.263 -0.0629  0.3526  0.1031
 3037SOL    HW120573   2.149   4.663   2.316  1.6031  0.3346 -2.0945
 3037SOL    HW220574   2.066   4.542   2.307  0.6185  0.0811 -0.2419
 3038SOL     OW20575   3.950   2.735   3.535  0.3927  0.1276 -0.2236
 3038SOL    HW120576   3.965   2.642   3.523 -2.4904 -0.3807  0.1289
 3038SOL    HW220577   3.954   2.736   3.631 -2.8074  1.1353 -0.0857
 3039SOL     OW20578   3.493   2.460   5.841 -0.5084  0.0832  0.8107
 3039SOL    HW120579   3.401   2.433   5.842 -0.8122  1.0870 -0.3214
 3039SOL    HW220580   3.472   2.550   5.815 -2.1943 -0.9199 -1.2796
 3040SOL     OW20581   4.680   2.137   6.035 -0.0456 -0.4606  0.3477
 3040SOL    HW120582   4.666   2.064   5.975 -0.2839 -0.0372 -0.1151
 3040SOL    HW220583   4.600   2.188   6.021 -0.2218 -1.1253 -1.0831
 3041SOL     OW20584   1.969   2.917   3.242  0.8053  0.2382 -0.4213
 3041SOL    HW120585   1.923   2.999   3.261  1.1612  0.0536  1.2530
 3041SOL    HW220586   1.998   2.922   3.151  1.9849  2.0071  0.0516
 3042SOL     OW20587   4.216   2.868   5.077  0.7665  0.1976  0.1467
 3042SOL    HW120588   4.252   2.940   5.024  0.7079  0.0611 -0.0771
 3042SOL    HW220589   4.293   2.865   5.134  1.6573  0.7255 -1.0127
 3043SOL     OW20590   1.565   2.365   3.795  0.7747  0.3946  0.9806
 3043SOL    HW120591   1.584   2.391   3.705  0.3998 -1.1672  0.4615
 3043SOL    HW220592   1.638   2.401   3.846  1.1588  1.6276 -0.4607
 3044SOL     OW20593   4.681   0.828   2.910 -0.4375  0.4957 -0.5272
 3044SOL    HW120594   0.050   0.810   2.885 -0.5175 -1.4033  0.4859
 3044SOL    HW220595   4.700   0.894   2.977  0.3651 -1.4842  1.2081
 3045SOL     OW20596   3.983   4.578   6.440 -0.4245 -0.3476  0.0761
 3045SOL    HW120597   3.978   4.649   6.504  1.5507  0.2508 -0.4365
 3045SOL    HW220598   4.031   4.624   6.371 -1.1448  0.0848 -0.1351
 3046SOL     OW20599   3.601   4.197   8.625  0.1896  0.1186 -0.0589
 3046SOL    HW120600   3.693   4.210   8.604 -0.9116  4.4220 -2.2740
 3046SOL    HW220601   3.599   4.143   8.704  2.3874 -1.0604 -0.8160
 3047SOL     OW20602   0.116   3.911   4.671 -0.1887  0.0994  0.0383
 3047SOL    HW120603   0.200   3.871   4.694  0.1995  1.1934  0.5412
 3047SOL    HW220604   0.131   3.923   4.577 -1.3779 -0.1894 -0.1826
 3048SOL     OW20605   1.142   3.270   6.575 -0.2309  0.3710  0.1745
 3048SOL    HW120606   1.048   3.285   6.563 -0.3428  0.5414  1.2320
 3048SOL    HW220607   1.146   3.309   6.662 -1.7632  0.6661  0.1137
 3049SOL     OW20608   1.223   2.916  13.199 -0.3537 -0.1705 -0.3796
 3049SOL    HW120609   1.224   3.009  13.221  1.2437 -0.7860  2.1263
 3049SOL    HW220610   1.315   2.912  13.172 -0.5331 -0.2986 -0.9758
 3050SOL     OW20611   1.530   3.912   1.411  0.3078 -0.0357  0.1845
 3050SOL    HW120612   1.585   3.904   1.333  1.3681  0.2214  0.9058
 3050SOL    HW220613   1.446   3.916   1.366  0.0769  0.0567  0.6308
 3051SOL     OW20614   1.071   0.078  13.703  0.0815  0.2055  0.2387
 3051SOL    HW120615   1.076   0.121  13.788  0.9902  0.2857  0.1455
 3051SOL    HW220616   1.147   0.111  13.655  0.5917 -1.3188 -0.0006
 3052SOL     OW20617   3.512   3.603  15.306 -0.2214  0.0242  0.0759
 3052SOL    HW120618   3.591   3.550  15.316 -0.1707 -0.4557 -2.6536
 3052SOL    HW220619   3.451   3.532  15.328 -1.1896  0.7312 -0.3316
 3053SOL     OW20620   0.848   0.286  11.357 -0.1896  0.0416 -0.4910
 3053SOL    HW120621   0.932   0.269  11.314 -0.9832 -2.4181 -1.0625
 3053SOL    HW220622   0.785   0.239  11.303 -1.6154  0.6761  0.6400
 3054SOL     OW20623   4.259   0.565   3.584  0.3617  0.1565  0.5695
 3054SOL    HW120624   4.255   0.516   3.502  1.8851  1.6519 -0.4033
 3054SOL    HW220625   4.291   0.648   3.549 -1.1732  1.2572  1.7563
 3055SOL     OW20626   1.263   3.048  12.762 -0.5470  0.0325  0.4506
 3055SOL    HW120627   1.282   2.973  12.707  0.2750  2.1944 -2.2121
 3055SOL    HW220628   1.335   3.032  12.823  0.7297  1.0247 -0.7884
 3056SOL     OW20629   1.840   3.164  17.490  0.2305 -0.0025  0.0596
 3056SOL    HW120630   1.836   3.069  17.493 -0.6287  0.0418  0.4491
 3056SOL    HW220631   1.770   3.191  17.550 -0.4509 -0.9453 -0.3125
 3057SOL     OW20632   0.403   2.738   5.226  0.1764 -0.2532 -0.3704
 3057SOL    HW120633   0.475   2.771   5.172  1.8997 -1.1667  1.3841
 3057SOL    HW220634   0.366   2.682   5.159 -1.8170 -0.9991  1.3459
 3058SOL     OW20635   1.179   1.311   8.781  0.3321 -0.1616 -0.5032
 3058SOL    HW120636   1.267   1.335   8.752  0.7250 -0.8087  0.1419
 3058SOL    HW220637   1.196   1.244   8.847 -0.5274 -0.9440 -1.0750
 3059SOL     OW20638   3.393   3.524  16.924 -0.0903 -0.1060  0.4968
 3059SOL    HW120639   3.454   3.453  16.902 -0.4500 -0.1416 -0.3855
 3059SOL    HW220640   3.418   3.546  17.014  0.7526 -1.2539  0.5516
 3060SOL     OW20641   4.143   4.270   4.365  0.0957  0.3979  0.7191
 3060SOL    HW120642   4.193   4.188   4.368  1.6481  1.3285  0.0447
 3060SOL    HW220643   4.152   4.304   4.454 -0.4394  0.0660  0.9028
 3061SOL     OW20644   1.072   2.299   7.607 -0.0783  0.3342 -0.4197
 3061SOL    HW120645   1.140   2.322   7.544  1.2015  0.9735  1.1983
 3061SOL    HW220646   1.127   2.270   7.680 -1.0872  3.0612  1.4329
 3062SOL     OW20647   2.806   1.392   3.177 -0.8038 -0.0193  0.5161
 3062SOL    HW120648   2.803   1.379   3.083  1.4447  0.2582  0.4030
 3062SOL    HW220649   2.715   1.422   3.185 -0.9531 -0.1438 -0.8042
 3063SOL     OW20650   3.286   0.986   3.583 -0.1923 -0.1782  0.3646
 3063SOL    HW120651   3.262   0.896   3.557  1.3183 -0.7396  0.9430
 3063SOL    HW220652   3.201   1.005   3.623  0.4913  1.6475  0.9083
 3064SOL     OW20653   3.661   1.622   4.011  0.0678 -0.3286  0.4756
 3064SOL    HW120654   3.612   1.558   4.062  1.1493  0.2743  2.2550
 3064SOL    HW220655   3.658   1.588   3.921  0.3434  2.6643 -0.6789
 3065SOL     OW20656   3.490   1.705   6.635  0.7724 -0.7438  0.7442
 3065SOL    HW120657   3.458   1.621   6.666  1.0218 -0.4999  1.6528
 3065SOL    HW220658   3.585   1.689   6.630  0.8945  0.2705 -0.3348
 3066SOL     OW20659   0.959   3.940   1.667  0.0019  0.1712 -0.6297
 3066SOL    HW120660   0.863   3.943   1.668 -0.0622 -2.8266  1.0160
 3066SOL    HW220661   0.981   3.849   1.685  0.2123  0.8663  2.6481
 3067SOL     OW20662   2.114   2.704   0.933 -0.7646 -0.3736  0.5271
 3067SOL    HW120663   2.059   2.782   0.920 -1.2979 -0.6472  1.1245
 3067SOL    HW220664   2.184   2.724   0.871 -2.5843  0.0844 -1.3656
 3068SOL     OW20665   3.698   1.226   3.715 -0.9858  0.4194  0.1466
 3068SOL    HW120666   3.668   1.175   3.791  0.0706 -0.9976 -0.3862
 3068SOL    HW220667   3.619   1.220   3.662  0.0282  3.5253 -1.6723
 3069SOL     OW20668   3.288   3.893   4.615  0.0154  0.4525 -0.0504
 3069SOL    HW120669   3.222   3.958   4.591 -0.1171  0.7194  1.0110
 3069SOL    HW220670   3.239   3.818   4.582  0.1002  0.2328  0.3327
 3070SOL     OW20671   1.924   1.134   4.243 -0.2016 -0.0628  0.3012
 3070SOL    HW120672   1.850   1.097   4.195 -0.4898  0.9530 -0.0331
 3070SOL    HW220673   2.002   1.114   4.191  0.8363 -2.7776  2.9086
 3071SOL     OW20674   0.373   2.118  17.038 -0.8110 -0.3703  0.0591
 3071SOL    HW120675   0.411   2.198  17.003 -0.2307 -1.1418 -1.0430
 3071SOL    HW220676   0.427   2.103  17.116 -2.3624  4.0831  2.0328
 3072SOL     OW20677   2.059   3.448  10.380 -0.3500  0.2581 -0.3980
 3072SOL    HW120678   1.969   3.473  10.362 -0.2565 -0.5506 -1.8986
 3072SOL    HW220679   2.046   3.356  10.400  1.3983  0.2426  0.6855
 3073SOL     OW20680   3.958   2.629   8.079 -0.1392 -0.3508 -0.5634
 3073SOL    HW120681   4.004   2.674   8.009  2.4854  0.6808  1.8156
 3073SOL    HW220682   4.006   2.652   8.159  1.1130 -2.2760 -0.7452
 3074SOL     OW20683   1.384   0.663   7.428  0.4254  0.0444  0.0434
 3074SOL    HW120684   1.315   0.729   7.421 -1.4962 -1.8435  1.0818
 3074SOL    HW220685   1.457   0.724   7.431  0.3180  0.2194 -0.9766
 3075SOL     OW20686   3.213   4.192   4.978 -0.7168  0.0757 -0.0810
 3075SOL    HW120687   3.249   4.199   4.890  1.3786 -1.0155  0.6732
 3075SOL    HW220688   3.122   4.165   4.968 -1.3623  2.1573  0.1464
 3076SOL     OW20689   1.513   0.122   3.287 -0.2377  0.0448 -0.2259
 3076SOL    HW120690   1.591   0.107   3.233 -1.0484  0.6982 -1.5780
 3076SOL    HW220691   1.462   0.050   3.250  0.2835 -0.5429  0.1973
 3077SOL     OW20692   3.258   0.270   2.167 -0.3048  0.2620  0.2593
 3077SOL    HW120693   3.309   0.190   2.154 -0.7266 -0.1610  1.2811
 3077SOL    HW220694   3.320   0.339   2.190  0.5180 -0.1775 -0.6119
 3078SOL     OW20695   2.843   3.112   7.286  0.4172  0.3404  0.0839
 3078SOL    HW120696   2.797   3.067   7.357 -0.1653  0.3025 -0.3253
 3078SOL    HW220697   2.769   3.167   7.261 -0.3835 -0.6540  0.2369
 3079SOL     OW20698   4.636   4.550   0.490  0.3304 -0.4288 -0.0183
 3079SOL    HW120699   4.662   4.460   0.506  0.4942  0.0809  2.5168
 3079SOL    HW220700   4.540   4.546   0.492  0.1197  3.1151 -2.4581
 3080SOL     OW20701   2.578   0.199   6.886  0.0242 -0.2154  0.2162
 3080SOL    HW120702   2.568   0.117   6.934 -0.1023 -0.0340  0.4995
 3080SOL    HW220703   2.559   0.260   6.958  0.6482 -1.2803  1.2802
 3081SOL     OW20704   4.011   3.961   6.638  0.5553 -0.4592 -0.0466
 3081SOL    HW120705   4.055   3.886   6.678  1.2675 -0.3387 -0.5993
 3081SOL    HW220706   4.089   4.015   6.624  1.1561 -1.4494 -0.5082
 3082SOL     OW20707   0.433   0.169   4.132  0.3611 -0.2368 -0.2028
 3082SOL    HW120708   0.410   0.131   4.047 -0.5810 -0.7205  0.2639
 3082SOL    HW220709   0.525   0.193   4.120 -0.1366  0.9448 -1.5343
 3083SOL     OW20710   4.344   2.074   0.781  0.2924 -0.2897  0.1398
 3083SOL    HW120711   4.266   2.123   0.809 -0.0790 -0.8724  0.1205
 3083SOL    HW220712   4.365   2.128   0.704 -2.8278  1.7011  0.6730
 3084SOL     OW20713   3.571   1.042   8.450 -0.1722 -0.0671  0.6262
 3084SOL    HW120714   3.500   1.082   8.400 -0.3685 -0.9096  0.2296
 3084SOL    HW220715   3.526   0.962   8.478 -0.8749  0.5691  1.2874
 3085SOL     OW20716   1.850   0.549   8.152  0.5499 -0.3597  0.0498
 3085SOL    HW120717   1.831   0.479   8.090  0.7313 -1.2243  0.9633
 3085SOL    HW220718   1.860   0.626   8.096 -0.8590 -0.0761  0.2022
 3086SOL     OW20719   4.661   2.219   2.949  0.1963  0.1279 -0.2005
 3086SOL    HW120720   4.676   2.242   3.041 -0.2744  3.1048 -0.8396
 3086SOL    HW220721   4.631   2.305   2.918  2.5077  0.9348 -0.1659
 3087SOL     OW20722   3.860   3.154   6.530  0.2726 -0.5980 -0.3213
 3087SOL    HW120723   3.924   3.216   6.495  0.7713 -0.8234  0.1895
 3087SOL    HW220724   3.810   3.205   6.593  2.1028  2.2715 -1.1982
 3088SOL     OW20725   4.441   0.023  13.223  0.9273  0.4762  0.6323
 3088SOL    HW120726   4.357   0.037  13.180  0.9642  2.7907  1.3473
 3088SOL    HW220727   4.481   4.691  13.154  0.8755  1.1717  0.0706
 3089SOL     OW20728   1.938   4.447   3.782 -0.4460 -0.4471  0.0805
 3089SOL    HW120729   2.019   4.489   3.809 -0.2222  1.2081 -3.2151
 3089SOL    HW220730   1.932   4.370   3.839 -0.1949 -0.3491  0.2387
 3090SOL     OW20731   0.159   0.148   4.908  0.1470  0.4927 -0.8571
 3090SOL    HW120732   0.143   0.150   4.813 -0.5393  1.7779 -0.7113
 3090SOL    HW220733   0.241   0.196   4.918 -0.3272  1.0700  0.1907
 3091SOL     OW20734   1.062   4.175   6.022  0.2367  0.2319 -0.5811
 3091SOL    HW120735   1.011   4.255   6.032  0.2182  0.4019 -2.1289
 3091SOL    HW220736   1.000   4.130   5.966 -1.4453  1.9782 -0.1118
 3092SOL     OW20737   2.982   1.813   3.159 -0.5840  0.1262  0.4531
 3092SOL    HW120738   3.027   1.752   3.101 -0.7670 -1.0551  1.5432
 3092SOL    HW220739   3.041   1.887   3.174  1.9049 -1.9173  0.7787
 3093SOL     OW20740   0.498   0.456   8.026  0.5784 -0.6910 -0.5607
 3093SOL    HW120741   0.424   0.466   7.966  1.3116  0.0304 -1.3517
 3093SOL    HW220742   0.487   0.533   8.082 -3.4152 -2.7886  1.5120
 3094SOL     OW20743   3.952   3.422  17.140  0.1385 -0.3639 -0.2609
 3094SOL    HW120744   3.985   3.459  17.058  1.0519 -1.9027 -0.5938
 3094SOL    HW220745   3.958   3.327  17.131 -0.3793 -0.6828  2.5481
 3095SOL     OW20746   1.646   0.791   9.084 -0.5515 -0.2128 -0.5291
 3095SOL    HW120747   1.711   0.851   9.048  0.3980 -1.7360 -1.4035
 3095SOL    HW220748   1.604   0.757   9.005 -1.3368  0.1124 -0.2472
 3096SOL     OW20749   4.647   1.128   5.851  0.0533  0.6470 -0.1020
 3096SOL    HW120750   4.695   1.120   5.933  1.5198 -1.6985 -1.1701
 3096SOL    HW220751   0.002   1.126   5.794 -0.1791 -0.4040 -0.3919
 3097SOL     OW20752   0.271   3.228   5.008 -0.1072 -0.8677  0.0630
 3097SOL    HW120753   0.214   3.242   4.932 -1.8330  0.1618  1.5249
 3097SOL    HW220754   0.342   3.190   4.958  2.2503  0.6740  2.2536
 3098SOL     OW20755   0.994   1.892   9.940  0.5391 -0.4651  0.3581
 3098SOL    HW120756   0.954   1.807   9.922  0.8379 -0.0442 -2.3093
 3098SOL    HW220757   1.056   1.858  10.004  1.4326 -0.4220 -0.4918
 3099SOL     OW20758   4.287   4.629   1.947 -0.3543 -0.1817 -0.3829
 3099SOL    HW120759   4.316   4.717   1.973 -0.9580 -0.2489  0.5222
 3099SOL    HW220760   4.262   4.595   2.033 -0.3390 -0.1264 -0.3565
 3100SOL     OW20761   1.739   2.394   7.665 -0.1257  0.0136  0.3541
 3100SOL    HW120762   1.773   2.377   7.753  3.2465 -0.0932 -0.9784
 3100SOL    HW220763   1.704   2.483   7.667 -1.6872 -0.6017  0.2389
 3101SOL     OW20764   1.640   0.687   4.876 -0.4456  0.3006  0.2365
 3101SOL    HW120765   1.548   0.713   4.871 -0.2040  0.8131 -1.6120
 3101SOL    HW220766   1.644   0.626   4.802  1.8472  0.6140  0.1008
 3102SOL     OW20767   0.863   1.946   1.365 -0.1492  0.8383 -0.3411
 3102SOL    HW120768   0.905   2.023   1.402 -1.5232  0.2611  2.3725
 3102SOL    HW220769   0.941   1.894   1.347 -0.2083  1.3649 -2.1328
 3103SOL     OW20770   4.038   2.382   6.198  0.2201 -1.0068 -0.0804
 3103SOL    HW120771   4.066   2.428   6.277 -1.8274  0.0706  0.0100
 3103SOL    HW220772   4.019   2.449   6.131 -1.0002 -1.3936 -0.1242
 3104SOL     OW20773   1.747   2.371  16.185 -0.4905 -0.1524 -0.0570
 3104SOL    HW120774   1.671   2.429  16.177  1.0355  1.6287 -1.5239
 3104SOL    HW220775   1.783   2.387  16.098  2.0665 -0.5794  0.9382
 3105SOL     OW20776   0.367   3.955   8.585  0.3369  0.5883 -0.0348
 3105SOL    HW120777   0.460   3.931   8.577 -0.1350 -1.2640  0.2688
 3105SOL    HW220778   0.357   3.976   8.677  1.6596  1.0946  0.0048
 3106SOL     OW20779   0.036   1.823   0.208  0.1487  0.4951 -0.0305
 3106SOL    HW120780   0.100   1.859   0.146 -2.3859  2.0643 -1.7349
 3106SOL    HW220781   0.061   1.732   0.193  0.1407  0.5185 -0.1817
 3107SOL     OW20782   2.444   2.957   0.971 -0.5696 -0.3831  0.1584
 3107SOL    HW120783   2.476   2.967   1.061 -1.3526 -0.9375  0.4968
 3107SOL    HW220784   2.499   3.021   0.925 -2.1276  0.5879 -0.3697
 3108SOL     OW20785   2.804   0.844   7.893  0.3071 -0.1969  0.6470
 3108SOL    HW120786   2.828   0.761   7.854  1.3940  0.9571 -1.1335
 3108SOL    HW220787   2.709   0.836   7.907 -0.2853  1.5492 -2.3925
 3109SOL     OW20788   3.344   4.232   5.983  0.4306  0.0932  0.2304
 3109SOL    HW120789   3.250   4.244   5.998  0.2714  2.1392 -2.4272
 3109SOL    HW220790   3.360   4.310   5.928  0.2520 -2.0163 -2.8360
 3110SOL     OW20791   2.192   1.073   8.627 -0.2908 -0.4290 -0.3022
 3110SOL    HW120792   2.209   1.163   8.599 -0.0430  0.1184  1.6122
 3110SOL    HW220793   2.242   1.019   8.566 -0.9087 -0.8349 -0.4453
 3111SOL     OW20794   2.878   2.795   8.648  0.4361  0.2239 -0.0410
 3111SOL    HW120795   2.866   2.700   8.653 -2.1069  0.4762 -1.5719
 3111SOL    HW220796   2.828   2.819   8.725  0.4051 -1.2828  0.4083
 3112SOL     OW20797   3.582   0.399   8.746 -0.1217 -0.0853 -0.0721
 3112SOL    HW120798   3.650   0.340   8.777  0.1519  0.8308  1.1028
 3112SOL    HW220799   3.628   0.475   8.710 -0.7353  0.3692  0.0795
 3113SOL     OW20800   1.617   3.982   6.684 -0.6806  0.0350 -0.0373
 3113SOL    HW120801   1.590   4.073   6.669  0.4120  0.3247 -0.2332
 3113SOL    HW220802   1.580   3.968   6.771  2.0948  0.3351  1.1702
 3114SOL     OW20803   3.965   4.303   5.604  0.0376  0.2948  0.5434
 3114SOL    HW120804   3.967   4.398   5.589  0.4898  0.0472 -0.9527
 3114SOL    HW220805   3.946   4.277   5.514  0.6280  0.8209  0.2638
 3115SOL     OW20806   1.919   1.434   4.566 -0.5882 -0.1512 -0.1669
 3115SOL    HW120807   1.877   1.495   4.627 -1.4080 -1.7036  0.8254
 3115SOL    HW220808   1.938   1.493   4.493  1.9103 -2.8320 -1.6903
 3116SOL     OW20809   4.262   3.266   9.721  0.0818 -0.0981  0.7476
 3116SOL    HW120810   4.313   3.221   9.788  0.3198 -0.5549  0.2552
 3116SOL    HW220811   4.170   3.248   9.741 -0.1622 -2.0261 -2.0728
 3117SOL     OW20812   3.094   0.652   3.193  0.8064 -0.5568 -0.1757
 3117SOL    HW120813   3.068   0.706   3.268 -0.8830  0.5823 -1.5876
 3117SOL    HW220814   3.119   0.576   3.247 -0.1019 -0.0902  0.9158
 3118SOL     OW20815   1.128   4.646  11.790 -0.0244 -0.2869 -0.3633
 3118SOL    HW120816   1.052   4.700  11.765  0.9909  1.0686 -0.5368
 3118SOL    HW220817   1.124   4.577  11.723 -0.9621 -0.5566 -0.0329
 3119SOL     OW20818   2.356   4.542  11.367 -0.4841  0.1153 -0.0842
 3119SOL    HW120819   2.311   4.482  11.427 -1.5820 -0.1471 -1.1681
 3119SOL    HW220820   2.319   4.625  11.396  0.4185 -0.0561  1.5389
 3120SOL     OW20821   4.473   4.389   8.922 -0.2962 -0.1301  0.4990
 3120SOL    HW120822   4.387   4.376   8.963 -1.4780  0.4161 -1.8181
 3120SOL    HW220823   4.460   4.347   8.837 -1.6999 -0.6341  0.9479
 3121SOL     OW20824   1.299   1.163   7.809 -0.6302  0.5132 -0.0790
 3121SOL    HW120825   1.278   1.205   7.892  1.4160  1.6975 -0.1548
 3121SOL    HW220826   1.244   1.214   7.749 -0.0161  0.2239 -0.8856
 3122SOL     OW20827   2.755   0.582   3.959  0.0908  0.8515  0.0995
 3122SOL    HW120828   2.804   0.523   3.902 -0.4378  0.8194 -0.3234
 3122SOL    HW220829   2.716   0.628   3.885 -1.4585 -2.1273 -0.9615
 3123SOL     OW20830   1.191   0.400   7.150 -0.5089  0.3709 -0.2313
 3123SOL    HW120831   1.130   0.338   7.190 -1.0452  1.7828  1.1357
 3123SOL    HW220832   1.160   0.484   7.183  0.7002  1.1191 -0.9867
 3124SOL     OW20833   1.940   0.788   9.038  0.1753  0.2084 -0.1738
 3124SOL    HW120834   1.988   0.802   9.120  1.5895  1.2081 -1.1730
 3124SOL    HW220835   1.924   0.877   9.005 -2.2067 -0.0621  0.2530
 3125SOL     OW20836   1.891   1.455   2.118  0.6430 -0.2777 -0.6094
 3125SOL    HW120837   1.820   1.506   2.156 -2.1860 -2.5618 -2.7996
 3125SOL    HW220838   1.947   1.524   2.082  0.5182 -0.3467 -0.9387
 3126SOL     OW20839   4.052   4.038  10.012 -0.4177 -0.0583 -0.1892
 3126SOL    HW120840   4.063   3.980   9.936  1.0127  1.5104 -1.1923
 3126SOL    HW220841   4.118   4.105   9.992 -1.5070  1.2672  0.6903
 3127SOL     OW20842   2.275   1.349   8.492 -0.5081 -0.3508  0.0309
 3127SOL    HW120843   2.325   1.325   8.414  0.7847 -0.9113  1.0195
 3127SOL    HW220844   2.236   1.431   8.463  1.9282  0.2508 -1.5291
 3128SOL     OW20845   4.580   4.564  16.139 -0.2013 -0.0620  0.0977
 3128SOL    HW120846   4.659   4.617  16.153 -1.3190  1.3661  1.0122
 3128SOL    HW220847   4.540   4.568  16.226 -0.2242 -2.2642  0.1985
 3129SOL     OW20848   3.758   4.359   4.186  0.1971 -0.8358 -0.2377
 3129SOL    HW120849   3.847   4.341   4.155  0.5177  1.0680 -0.4011
 3129SOL    HW220850   3.755   4.304   4.265 -3.3563 -1.0600 -0.5601
 3130SOL     OW20851   3.210   0.303   4.924  0.2071  0.4421 -0.4574
 3130SOL    HW120852   3.208   0.225   4.870 -1.7945  0.5300 -0.5038
 3130SOL    HW220853   3.173   0.363   4.859 -2.5987 -1.1363 -0.3219
 3131SOL     OW20854   3.128   1.823  14.601  0.3615  0.1213 -0.7576
 3131SOL    HW120855   3.202   1.884  14.590 -1.2452  2.2455  0.2479
 3131SOL    HW220856   3.177   1.740  14.600 -0.3970 -0.2968 -2.5267
 3132SOL     OW20857   0.394   1.469   6.720 -0.3267 -0.1915 -0.3542
 3132SOL    HW120858   0.390   1.534   6.649 -0.7337 -0.6226 -0.7196
 3132SOL    HW220859   0.336   1.400   6.690  1.6924 -1.8282 -0.4981
 3133SOL     OW20860   0.223   0.193   7.550  0.3444  0.6182  0.1676
 3133SOL    HW120861   0.157   0.186   7.619  0.6645 -1.1726  0.2996
 3133SOL    HW220862   0.169   0.148   7.486  0.7254  1.0057 -0.4206
 3134SOL     OW20863   0.768   0.012   8.854  0.6292  0.1684  0.0140
 3134SOL    HW120864   0.758   4.696   8.767  1.1260  0.1346 -0.0265
 3134SOL    HW220865   0.768   0.106   8.832  0.6509 -0.4254 -2.4826
 3135SOL     OW20866   2.803   1.799   4.138  0.1576 -0.4211  0.4289
 3135SOL    HW120867   2.829   1.716   4.178 -2.4039 -1.3969  0.0645
 3135SOL    HW220868   2.819   1.860   4.211 -2.8490  0.5509  0.2841
 3136SOL     OW20869   2.068   0.883   2.111  0.6965 -0.3881 -0.1459
 3136SOL    HW120870   2.016   0.854   2.186 -0.7207  0.2091 -0.8790
 3136SOL    HW220871   2.002   0.933   2.064  0.1436  0.3099  1.3796
 3137SOL     OW20872   2.605   3.756   6.713  0.5702  0.1391  0.1532
 3137SOL    HW120873   2.550   3.728   6.640 -0.2024  3.9972 -0.7515
 3137SOL    HW220874   2.589   3.678   6.766 -1.5920 -0.1892 -0.9513
 3138SOL     OW20875   1.824   3.451   4.423  0.4006 -0.0444  0.0933
 3138SOL    HW120876   1.913   3.417   4.432 -0.0518 -0.9825  1.0602
 3138SOL    HW220877   1.802   3.415   4.337 -0.6142  0.6506  0.0529
 3139SOL     OW20878   3.079   1.357  15.304 -0.1134  0.0611  0.1901
 3139SOL    HW120879   3.002   1.301  15.290  0.3201 -0.3700 -0.4353
 3139SOL    HW220880   3.129   1.341  15.224 -1.7245 -5.1715  0.2148
 3140SOL     OW20881   0.172   2.104   3.933 -0.1411  0.2414  0.4319
 3140SOL    HW120882   0.199   2.024   3.888 -4.5622  0.7597 -3.1681
 3140SOL    HW220883   0.146   2.170   3.868 -0.1356 -0.8411 -0.6657
 3141SOL     OW20884   3.592   2.642   3.545 -0.1239  0.4047 -0.1073
 3141SOL    HW120885   3.601   2.697   3.623  1.2573  0.9831 -0.6843
 3141SOL    HW220886   3.634   2.688   3.473  1.1213  2.5424  1.9554
 3142SOL     OW20887   2.297   3.375   2.034 -0.2015  0.0997  0.0345
 3142SOL    HW120888   2.370   3.431   2.007 -0.0245 -0.6357 -1.0186
 3142SOL    HW220889   2.330   3.287   2.017 -0.3413  0.0901 -0.1832
 3143SOL     OW20890   1.410   2.357   6.301 -0.3951  0.0439  0.4889
 3143SOL    HW120891   1.405   2.268   6.266 -0.1557 -0.0269  0.6360
 3143SOL    HW220892   1.492   2.380   6.256 -1.3104 -0.2366 -1.3392
 3144SOL     OW20893   2.886   2.244   7.955 -0.5459  0.2508  0.4868
 3144SOL    HW120894   2.976   2.233   7.923 -0.6449  0.4638  0.1332
 3144SOL    HW220895   2.837   2.263   7.875 -0.9327  2.2766  1.2061
 3145SOL     OW20896   0.266   1.458   5.397 -0.0883 -0.2086  0.4449
 3145SOL    HW120897   0.182   1.462   5.351 -0.6835 -0.3397  1.5029
 3145SOL    HW220898   0.233   1.376   5.433 -1.8740  0.9849  1.5303
 3146SOL     OW20899   4.159   0.601   2.065  0.0477  0.0564 -0.0629
 3146SOL    HW120900   4.133   0.550   2.142 -0.8953 -0.0714 -0.4644
 3146SOL    HW220901   4.164   0.526   2.005  0.2844  1.0949 -1.3476
 3147SOL     OW20902   1.217   2.997   5.303  0.5080  0.4367  0.3055
 3147SOL    HW120903   1.201   2.938   5.378  0.7845  0.2996  0.2568
 3147SOL    HW220904   1.172   2.948   5.234 -1.3746  0.0846  1.7479
 3148SOL     OW20905   0.743   2.209   5.444  0.2582  0.3326 -0.6321
 3148SOL    HW120906   0.837   2.199   5.430  0.1035 -0.8864 -0.7766
 3148SOL    HW220907   0.738   2.303   5.465  0.2977 -0.0545  1.0775
 3149SOL     OW20908   4.491   0.335  17.648  0.5328 -0.2566  0.1234
 3149SOL    HW120909   4.548   0.259  17.642 -0.5821 -1.0070 -1.1496
 3149SOL    HW220910   4.420   0.307  17.590  2.2385 -1.2393 -1.4690
 3150SOL     OW20911   3.387   0.406   8.554  0.0022  0.3325 -0.5118
 3150SOL    HW120912   3.317   0.445   8.606  0.0244  0.6731 -0.7393
 3150SOL    HW220913   3.445   0.376   8.624 -0.2520 -1.4167 -1.0371
 3151SOL     OW20914   1.180   2.670   3.902  0.1714 -0.1149  0.0235
 3151SOL    HW120915   1.091   2.694   3.874 -1.1207 -2.5717  2.0196
 3151SOL    HW220916   1.193   2.590   3.852  1.4836  0.7404 -1.0138
 3152SOL     OW20917   1.028   0.218   8.644 -0.1117 -0.4563 -0.8381
 3152SOL    HW120918   1.023   0.151   8.576 -2.0240 -0.9325 -0.2415
 3152SOL    HW220919   1.123   0.226   8.649 -0.1185 -1.5349  1.1257
 3153SOL     OW20920   2.577   3.306   5.439  0.5393 -0.5757 -0.2821
 3153SOL    HW120921   2.507   3.271   5.384  0.0020 -2.5232  1.6989
 3153SOL    HW220922   2.570   3.257   5.520  2.2667  0.5508  0.5462
 3154SOL     OW20923   2.666   0.672   0.245  0.4475 -0.2772 -0.0130
 3154SOL    HW120924   2.715   0.616   0.185  0.1589  0.2161 -0.7075
 3154SOL    HW220925   2.725   0.688   0.319  1.2959 -4.1293  0.1310
 3155SOL     OW20926   0.508   3.637  16.921 -0.5166  0.2234 -0.6737
 3155SOL    HW120927   0.595   3.598  16.915 -0.2629  0.7048 -0.1843
 3155SOL    HW220928   0.504   3.676  16.833  0.6024  0.9880 -0.3865
 3156SOL     OW20929   1.890   1.696  16.701 -0.7176  0.4621 -0.2305
 3156SOL    HW120930   1.981   1.723  16.711  0.3656 -2.7754 -1.3633
 3156SOL    HW220931   1.860   1.754  16.631 -2.3373 -1.5233 -1.1699
 3157SOL     OW20932   4.274   3.217  11.990 -0.4615  0.0918  0.3493
 3157SOL    HW120933   4.205   3.280  11.971  1.6946  2.4817  0.3654
 3157SOL    HW220934   4.275   3.227  12.085 -1.0157 -0.7852  0.4436
 3158SOL     OW20935   2.002   1.583  13.910  0.1441  0.1564 -0.2650
 3158SOL    HW120936   2.018   1.489  13.920  2.3387  0.5804  0.1562
 3158SOL    HW220937   1.968   1.619  13.992 -0.4464 -0.5514 -0.2062
 3159SOL     OW20938   2.704   1.609   5.246 -0.3422 -0.1120 -0.2964
 3159SOL    HW120939   2.727   1.666   5.318 -0.3289 -2.1339  1.3005
 3159SOL    HW220940   2.609   1.618   5.257 -0.2182  2.2625 -1.1170
 3160SOL     OW20941   1.351   3.972   2.934 -0.5342  0.0407  0.5512
 3160SOL    HW120942   1.277   3.936   2.884  0.5544 -0.3082 -0.7936
 3160SOL    HW220943   1.419   3.914   2.902 -2.4251 -2.2443  0.7175
 3161SOL     OW20944   3.980   0.986   6.089 -0.2363 -0.3727 -0.5194
 3161SOL    HW120945   3.981   0.955   5.998 -1.7054  0.7045 -0.8978
 3161SOL    HW220946   3.885   0.996   6.096 -0.0136  1.8670 -0.8591
 3162SOL     OW20947   3.427   2.893  11.920 -0.3898  0.6100 -0.2364
 3162SOL    HW120948   3.490   2.878  11.850  1.8276  2.1695  1.4204
 3162SOL    HW220949   3.477   2.954  11.973 -1.4014 -0.3828  1.8725
 3163SOL     OW20950   1.438   4.608  12.101 -0.3042 -0.4319 -0.6844
 3163SOL    HW120951   1.359   4.556  12.088  0.1735 -1.2889 -0.1502
 3163SOL    HW220952   1.452   4.601  12.195  0.9478 -0.3479 -0.8570
 3164SOL     OW20953   0.354   1.395  15.922  0.1410 -0.4395  0.5421
 3164SOL    HW120954   0.260   1.387  15.904 -0.4406  1.5788  2.6713
 3164SOL    HW220955   0.360   1.326  15.988 -3.6007 -1.5093 -0.2541
 3165SOL     OW20956   1.521   0.238   8.727  0.0420  0.2210 -0.0684
 3165SOL    HW120957   1.581   0.177   8.683 -1.1993 -0.7816 -0.3486
 3165SOL    HW220958   1.483   0.172   8.785  2.3090 -0.8810  0.1865
 3166SOL     OW20959   2.440   0.289   3.169  0.2590  0.8894  0.6337
 3166SOL    HW120960   2.467   0.372   3.207 -2.8541  2.2923 -0.2192
 3166SOL    HW220961   2.514   0.283   3.108 -1.1973  1.8257 -1.2069
 3167SOL     OW20962   1.881   1.624   0.899  0.9540  0.5543 -0.6349
 3167SOL    HW120963   1.801   1.666   0.867  0.4821  0.5217  0.5063
 3167SOL    HW220964   1.853   1.559   0.964 -0.4197 -0.9670 -2.7279
 3168SOL     OW20965   0.573   1.083   2.945 -0.2004 -0.1138  0.1594
 3168SOL    HW120966   0.546   1.027   3.017 -1.0860 -0.4110 -0.3942
 3168SOL    HW220967   0.662   1.108   2.968  0.2642 -0.1516 -1.5818
 3169SOL     OW20968   3.602   2.976   8.844 -0.1094 -0.3699  0.2368
 3169SOL    HW120969   3.657   2.977   8.765 -0.6524 -2.1462 -0.1745
 3169SOL    HW220970   3.663   2.964   8.917 -0.5926 -0.6145  0.6031
 3170SOL     OW20971   2.896   0.283   1.552  0.4422  0.4420 -0.8852
 3170SOL    HW120972   2.901   0.207   1.610 -0.4038  0.2422 -1.0722
 3170SOL    HW220973   2.807   0.272   1.518  0.7958 -1.4995 -1.1811
 3171SOL     OW20974   0.126   0.132   9.271  0.2677  0.0333 -0.8341
 3171SOL    HW120975   0.127   0.052   9.217 -0.2565 -1.1646  0.9507
 3171SOL    HW220976   0.193   0.189   9.235  2.6926 -2.0356  0.4045
 3172SOL     OW20977   1.872   2.247   6.161 -0.4681 -0.0564 -0.2176
 3172SOL    HW120978   1.939   2.241   6.092 -1.0675 -1.0066 -0.7176
 3172SOL    HW220979   1.869   2.153   6.177 -1.1864 -0.0538 -0.3313
 3173SOL     OW20980   2.242   0.562   8.802  0.1076 -0.3238  0.5671
 3173SOL    HW120981   2.208   0.569   8.891 -1.2645  1.6442 -0.1350
 3173SOL    HW220982   2.329   0.533   8.830  0.3264 -0.4877 -0.2865
 3174SOL     OW20983   3.790   0.088   7.070 -0.2501  0.3735  0.2660
 3174SOL    HW120984   3.814   0.046   6.987 -0.8569 -1.6211  1.1109
 3174SOL    HW220985   3.811   0.175   7.035 -0.6146  0.0291 -0.8226
 3175SOL     OW20986   1.072   3.497   7.453 -0.5308 -0.2311 -0.8053
 3175SOL    HW120987   1.046   3.589   7.456  1.5740  0.4214 -1.9760
 3175SOL    HW220988   1.165   3.510   7.472 -1.1191 -0.1762  2.0195
 3176SOL     OW20989   1.652   0.369   7.423  0.2540  1.0899  0.7676
 3176SOL    HW120990   1.727   0.372   7.364 -1.7408  2.4561 -1.7481
 3176SOL    HW220991   1.590   0.407   7.360 -0.0993  0.2464  0.6086
 3177SOL     OW20992   0.228   3.880  17.186  0.2160 -0.2643  0.0543
 3177SOL    HW120993   0.227   3.952  17.123 -1.9391  2.2825  3.0378
 3177SOL    HW220994   0.311   3.843  17.155  0.8096  0.0491  1.2536
 3178SOL     OW20995   1.758   0.058  12.192  0.1673  0.4918  0.0751
 3178SOL    HW120996   1.724   0.041  12.280 -0.4349 -2.5096 -0.7603
 3178SOL    HW220997   1.727   4.697  12.154  1.1246 -0.5820  1.5864
 3179SOL     OW20998   1.586   4.321   8.371  0.7533 -0.5575 -0.2003
 3179SOL    HW120999   1.566   4.234   8.336 -0.4799  0.2065 -1.3849
 3179SOL    HW221000   1.570   4.291   8.460  0.4086  0.4941  0.0906
 3180SOL     OW21001   2.846   2.424   4.561  0.5405 -0.3136  0.0015
 3180SOL    HW121002   2.846   2.517   4.582  0.2192  0.0048 -1.3976
 3180SOL    HW221003   2.882   2.432   4.473  0.9723 -1.7650  0.0463
 3181SOL     OW21004   2.151   3.845   8.259  0.1555  0.2483  0.1936
 3181SOL    HW121005   2.060   3.867   8.237  0.7984  1.6709 -1.0535
 3181SOL    HW221006   2.147   3.752   8.277 -0.0618  0.0877 -0.7073
 3182SOL     OW21007   0.737   0.905  14.327 -0.0346  0.0217  0.4918
 3182SOL    HW121008   0.683   0.957  14.267 -1.2453  0.1913  1.7234
 3182SOL    HW221009   0.798   0.977  14.340 -0.3134  0.5691 -1.1951
 3183SOL     OW21010   4.213   1.267   5.688  0.0926  0.3561  0.6393
 3183SOL    HW121011   4.276   1.304   5.750  0.8036  3.0612 -1.6808
 3183SOL    HW221012   4.193   1.345   5.636  3.1635  1.9601  1.8266
 3184SOL     OW21013   2.358   4.180  14.284 -0.1369  0.1216 -0.0707
 3184SOL    HW121014   2.400   4.240  14.345 -2.9346 -0.5924  2.5188
 3184SOL    HW221015   2.353   4.235  14.205 -1.5122 -0.5045 -0.4096
 3185SOL     OW21016   3.297   1.892   3.595 -0.8467  0.5384 -0.2030
 3185SOL    HW121017   3.246   1.973   3.597  1.8491  2.2051  1.1121
 3185SOL    HW221018   3.387   1.925   3.598 -0.6897  0.0621  0.2677
 3186SOL     OW21019   0.260   1.196   6.596  0.2119  0.4096  0.3215
 3186SOL    HW121020   0.178   1.226   6.559 -0.0336  0.0726  0.5902
 3186SOL    HW221021   0.290   1.128   6.536  1.0112  0.1629  0.9929
 3187SOL     OW21022   4.201   4.097   8.666  0.0786  0.2479 -0.0430
 3187SOL    HW121023   4.277   4.053   8.627  0.2383  2.4346 -2.2201
 3187SOL    HW221024   4.229   4.186   8.643 -0.1053  0.0028 -1.2223
 3188SOL     OW21025   3.152   0.443   6.154 -0.4924 -0.1555  0.0011
 3188SOL    HW121026   3.094   0.373   6.184  0.5469 -0.0844  2.1811
 3188SOL    HW221027   3.175   0.482   6.238  0.0550  0.1042 -0.2732
 3189SOL     OW21028   2.239   2.603   0.610 -0.3920  0.5719  0.0880
 3189SOL    HW121029   2.161   2.548   0.621 -1.5892  2.3460  0.6122
 3189SOL    HW221030   2.292   2.577   0.685 -0.4905 -0.2570 -0.1290
 3190SOL     OW21031   3.018   3.222  13.876  0.3284  1.1522 -0.1595
 3190SOL    HW121032   3.049   3.280  13.807 -3.1003  2.2375 -0.7911
 3190SOL    HW221033   3.052   3.139  13.843  2.2371  1.5493  0.8271
 3191SOL     OW21034   3.753   4.104   3.316 -0.2601  0.1275 -0.0742
 3191SOL    HW121035   3.846   4.122   3.330 -0.6857  1.1971  1.2766
 3191SOL    HW221036   3.729   4.164   3.245 -1.9709 -1.9415 -1.2378
 3192SOL     OW21037   0.654   4.055  15.274 -0.7048 -0.2567 -0.1771
 3192SOL    HW121038   0.615   4.049  15.187  0.3013  0.1092 -0.6512
 3192SOL    HW221039   0.670   4.147  15.294 -0.5394  0.0568 -1.7620
 3193SOL     OW21040   0.888   4.036   5.866 -0.5982  0.0226 -0.0622
 3193SOL    HW121041   0.901   4.009   5.775 -2.3778  0.3626 -0.4125
 3193SOL    HW221042   0.808   4.087   5.859  0.3885  1.3092 -1.9413
 3194SOL     OW21043   3.229   1.996   3.159 -0.8160  0.1681 -0.0571
 3194SOL    HW121044   3.284   2.043   3.222 -0.1341 -1.7656  0.7858
 3194SOL    HW221045   3.182   2.073   3.127 -0.0359  0.3623 -0.7337
 3195SOL     OW21046   3.081   4.325   7.549 -0.2066 -0.5844 -0.5104
 3195SOL    HW121047   3.083   4.253   7.486 -1.2586 -2.3450  1.4733
 3195SOL    HW221048   3.071   4.403   7.494  1.1403 -1.9268 -2.7025
 3196SOL     OW21049   0.975   2.316   5.900  0.4066  0.2515 -0.3466
 3196SOL    HW121050   0.890   2.285   5.932  1.4152 -0.4958  1.5615
 3196SOL    HW221051   0.999   2.234   5.856  0.1755 -0.8056  1.5133
 3197SOL     OW21052   1.544   4.581   8.289  0.3855 -0.1391 -0.1841
 3197SOL    HW121053   1.459   4.557   8.252  0.0850  1.8505 -0.7840
 3197SOL    HW221054   1.568   4.499   8.332  2.9415  0.8870  0.3657
 3198SOL     OW21055   0.351   2.322   3.048  0.3948  0.3839  0.2523
 3198SOL    HW121056   0.276   2.272   3.016 -0.6093  0.1425  2.9394
 3198SOL    HW221057   0.319   2.412   3.052  1.0606  0.6851 -1.3652
 3199SOL     OW21058   4.561   2.157   0.236  0.1048  0.1888 -0.3570
 3199SOL    HW121059   4.553   2.085   0.174 -1.2483  1.3865 -1.5808
 3199SOL    HW221060   4.639   2.136   0.288  0.2337 -3.2616 -1.9500
 3200SOL     OW21061   3.789   2.950   8.637  0.4779 -0.0250 -0.0536
 3200SOL    HW121062   3.880   2.977   8.651  0.9516 -1.9895  0.6803
 3200SOL    HW221063   3.779   2.976   8.546 -0.8762 -1.9081 -0.4531
 3201SOL     OW21064   3.338   0.633   4.620  0.3867  0.5032  0.3292
 3201SOL    HW121065   3.391   0.709   4.595 -1.1714  1.4441 -0.1170
 3201SOL    HW221066   3.359   0.623   4.712  0.9802  0.0935  0.1508
 3202SOL     OW21067   2.960   2.174   7.169 -0.0607  0.1917 -0.1888
 3202SOL    HW121068   3.049   2.209   7.161  0.4553 -1.0216  0.2818
 3202SOL    HW221069   2.967   2.120   7.248 -1.1543  1.6036  0.8950
 3203SOL     OW21070   1.119   4.111   7.855  0.3707 -0.0929 -0.2074
 3203SOL    HW121071   1.189   4.122   7.790  0.2655 -2.0055 -0.6257
 3203SOL    HW221072   1.046   4.136   7.798 -1.0811 -4.3249 -0.1407
 3204SOL     OW21073   1.113   1.474   4.590  0.5292 -0.0665 -0.0934
 3204SOL    HW121074   1.049   1.477   4.519  1.3277  0.4592 -0.7909
 3204SOL    HW221075   1.174   1.406   4.561 -0.4807 -0.5385 -1.1435
 3205SOL     OW21076   3.149   1.558  14.953 -0.2221 -0.0354 -0.3650
 3205SOL    HW121077   3.199   1.485  14.991 -2.4329 -0.9630  0.7712
 3205SOL    HW221078   3.148   1.548  14.858 -1.9490 -3.7634  0.0587
 3206SOL     OW21079   2.977   4.578  17.384 -0.3789 -0.2283  0.1409
 3206SOL    HW121080   2.943   4.666  17.400  0.6449  0.1439  0.2613
 3206SOL    HW221081   3.072   4.584  17.383 -0.2163 -2.8747 -1.7402
 3207SOL     OW21082   3.218   3.055   4.243 -0.2065 -0.1227  0.1634
 3207SOL    HW121083   3.199   2.964   4.224  0.0489 -0.5322  1.8896
 3207SOL    HW221084   3.150   3.105   4.199 -0.5667 -0.7051  0.0638
 3208SOL     OW21085   1.897   3.968   5.557  0.2437 -0.3234  0.3489
 3208SOL    HW121086   1.924   3.936   5.643 -0.0285  1.5591  1.1159
 3208SOL    HW221087   1.825   3.907   5.541 -1.3842  1.6333  0.3341
 3209SOL     OW21088   0.437   3.117   9.363  0.5246 -0.5363  0.0666
 3209SOL    HW121089   0.522   3.156   9.385 -1.3778  1.5614  3.6531
 3209SOL    HW221090   0.404   3.178   9.297  0.5437 -1.3617 -0.7020
 3210SOL     OW21091   4.053   4.208   6.938 -0.0339  0.1773  0.0446
 3210SOL    HW121092   4.035   4.244   6.852 -1.9942 -1.1761 -0.1300
 3210SOL    HW221093   4.013   4.120   6.939 -2.7020  1.3900  0.0569
 3211SOL     OW21094   1.159   3.696   2.990 -0.0048 -0.2256 -0.1516
 3211SOL    HW121095   1.069   3.686   3.021 -0.6342  0.4749 -1.7239
 3211SOL    HW221096   1.151   3.759   2.918  0.6308 -1.0906 -0.9788
 3212SOL     OW21097   0.672   3.823   7.427 -0.2726 -0.1678  0.3438
 3212SOL    HW121098   0.701   3.909   7.457  0.3287  0.3088 -1.6366
 3212SOL    HW221099   0.613   3.852   7.357  1.3269 -0.3387 -1.0749
 3213SOL     OW21100   2.047   1.083   7.049  0.2602  0.1044 -1.1284
 3213SOL    HW121101   2.082   1.099   6.962  2.1640  2.0125 -0.0074
 3213SOL    HW221102   1.994   1.006   7.027 -0.3603 -0.1891  1.4092
 3214SOL     OW21103   1.997   1.045   5.009 -0.0336 -0.8458 -0.5831
 3214SOL    HW121104   2.037   0.985   5.071  1.7986  1.5922  0.6099
 3214SOL    HW221105   2.023   1.128   5.048 -1.6117 -2.1502  3.2159
 3215SOL     OW21106   4.337   4.679   5.133  0.1513  0.0026  0.1888
 3215SOL    HW121107   4.332   4.717   5.046  0.2837 -1.5935 -0.5213
 3215SOL    HW221108   4.431   4.668   5.143  0.1297  3.6721  4.4072
 3216SOL     OW21109   1.905   0.448   3.864  0.2970 -0.1645 -0.5144
 3216SOL    HW121110   1.897   0.503   3.787 -1.4007  3.0235  1.9204
 3216SOL    HW221111   1.817   0.432   3.900  0.2111 -0.2803 -0.7795
 3217SOL     OW21112   2.896   1.555   3.802 -0.1362 -0.1052 -0.2087
 3217SOL    HW121113   2.845   1.633   3.821 -0.0842 -0.0489 -0.3000
 3217SOL    HW221114   2.825   1.492   3.808 -0.0452 -0.3018 -1.1502
 3218SOL     OW21115   1.174   4.213  13.490  0.3399  0.1529  0.3035
 3218SOL    HW121116   1.266   4.193  13.476  0.1880 -0.8929  0.7804
 3218SOL    HW221117   1.171   4.247  13.579 -0.7898 -0.9302  0.6806
 3219SOL     OW21118   3.537   3.247   0.364 -0.1541  0.2505  0.0317
 3219SOL    HW121119   3.602   3.263   0.296 -1.9396  1.3836 -1.4240
 3219SOL    HW221120   3.483   3.183   0.318 -1.2740  2.1694 -1.3264
 3220SOL     OW21121   1.544   0.586   9.418  0.4198  0.7912  0.1114
 3220SOL    HW121122   1.466   0.550   9.375  1.4637 -0.9210 -0.3483
 3220SOL    HW221123   1.601   0.584   9.341  1.4926  2.0267  0.8763
 3221SOL     OW21124   4.613   1.983   3.208 -0.1693  0.1184 -0.4090
 3221SOL    HW121125   4.671   2.058   3.220 -1.7580  1.0293  1.5367
 3221SOL    HW221126   4.659   1.946   3.132  0.3905 -2.8298  1.3423
 3222SOL     OW21127   0.055   3.683   7.250 -0.1517  0.5590 -0.2480
 3222SOL    HW121128   4.714   3.613   7.230 -0.8103  0.6784  1.3575
 3222SOL    HW221129   0.002   3.745   7.300  0.3311  0.0996  0.8354
 3223SOL     OW21130   0.848   2.002  13.536 -0.8666 -0.3916  0.2474
 3223SOL    HW121131   0.861   2.096  13.545  0.9810 -0.6132  0.0409
 3223SOL    HW221132   0.762   2.001  13.578 -1.0707 -0.5527 -0.1726
 3224SOL     OW21133   1.218   0.367   2.727  0.5556  0.0599  0.2280
 3224SOL    HW121134   1.185   0.448   2.688  2.5491  0.9981  0.5175
 3224SOL    HW221135   1.147   0.303   2.722  0.3624  0.2825  0.0891
 3225SOL     OW21136   2.856   3.584  12.275  0.2652 -0.1324 -0.1404
 3225SOL    HW121137   2.813   3.506  12.239  0.8303 -0.3195 -0.3986
 3225SOL    HW221138   2.922   3.552  12.337 -0.3101 -0.1395  0.4686
 3226SOL     OW21139   2.077   0.665   0.029  0.4814 -0.1142 -0.0247
 3226SOL    HW121140   2.076   0.697  17.626  0.9483 -1.9765 -0.6922
 3226SOL    HW221141   1.984   0.647   0.046  0.7429 -2.1838 -0.6842
 3227SOL     OW21142   1.958   1.388   4.161  0.2967 -0.0955 -0.1794
 3227SOL    HW121143   2.017   1.377   4.087  0.2552 -0.5106 -0.1503
 3227SOL    HW221144   1.934   1.297   4.180 -0.8510 -0.1406 -1.8531
 3228SOL     OW21145   2.252   1.700   3.946 -0.6545  0.1382 -0.5586
 3228SOL    HW121146   2.221   1.713   4.036 -1.9237 -2.3109 -0.6280
 3228SOL    HW221147   2.166   1.710   3.907  0.9697  3.0939 -3.3432
 3229SOL     OW21148   0.375   2.039   2.936 -0.5806 -0.0619 -0.0480
 3229SOL    HW121149   0.423   2.015   2.857  1.1117  1.1729  0.6074
 3229SOL    HW221150   0.286   2.060   2.905 -1.5999 -2.9491  0.9365
 3230SOL     OW21151   1.931   2.241   9.823  0.4604  0.5223 -0.0580
 3230SOL    HW121152   1.916   2.147   9.816  0.5692  0.5621 -0.9046
 3230SOL    HW221153   1.967   2.248   9.911  2.2976 -2.6968 -0.5558
 3231SOL     OW21154   0.831   1.853   9.559 -0.3803 -0.6914 -0.2174
 3231SOL    HW121155   0.906   1.795   9.570  0.5649  0.7801  1.0541
 3231SOL    HW221156   0.769   1.783   9.579 -0.9315 -0.5366 -1.4224
 3232SOL     OW21157   4.628   1.958  17.313 -0.0495 -0.4880 -0.5755
 3232SOL    HW121158   4.694   1.985  17.250  1.2626 -1.2336  0.4740
 3232SOL    HW221159   4.610   2.041  17.358  1.2210 -0.6617  0.2447
 3233SOL     OW21160   4.082   2.310   3.209 -0.2807  0.0851  0.0161
 3233SOL    HW121161   4.071   2.245   3.140 -0.1115 -0.7145  0.7391
 3233SOL    HW221162   4.054   2.393   3.170 -2.8123 -1.5019 -1.4989
 3234SOL     OW21163   0.405   1.496  10.002  0.4137  0.2291 -0.5013
 3234SOL    HW121164   0.358   1.516   9.920  0.9476  3.6034 -0.0010
 3234SOL    HW221165   0.337   1.440  10.040  1.7638 -1.5768 -0.7980
 3235SOL     OW21166   2.350   3.059   6.362 -0.3214  0.1929  0.0483
 3235SOL    HW121167   2.368   3.091   6.273  0.3475 -0.8143 -0.1757
 3235SOL    HW221168   2.441   3.059   6.390 -0.3519 -1.7047  0.1280
 3236SOL     OW21169   0.913   1.423  12.129  0.0448  0.0194 -0.2322
 3236SOL    HW121170   0.834   1.414  12.076  0.7381  0.7413 -1.3728
 3236SOL    HW221171   0.964   1.346  12.104  3.0341  1.2712  2.0476
 3237SOL     OW21172   2.685   2.297   6.949 -0.1315  0.3624 -0.5772
 3237SOL    HW121173   2.770   2.332   6.922  1.5010 -2.8924  0.3012
 3237SOL    HW221174   2.620   2.366   6.933  0.0590  0.2901 -1.6565
 3238SOL     OW21175   3.067   0.907   5.039  0.6545  0.0523 -0.1076
 3238SOL    HW121176   3.078   0.898   4.944  1.3024  0.0454 -0.0319
 3238SOL    HW221177   3.012   0.985   5.052  0.9688  0.4851 -1.4056
 3239SOL     OW21178   0.364   2.296  13.974  0.2638  0.0051  0.5192
 3239SOL    HW121179   0.430   2.364  13.965  1.9600 -1.4450  1.9723
 3239SOL    HW221180   0.280   2.342  13.969  0.7061  0.7941  0.3013
 3240SOL     OW21181   4.568   0.125   2.529 -0.1671 -0.7108 -0.1367
 3240SOL    HW121182   4.592   0.088   2.444  1.5314 -0.1242  0.0917
 3240SOL    HW221183   4.627   0.200   2.539 -0.9939 -0.0245 -0.3338
 3241SOL     OW21184   2.984   2.615  13.053  0.0848 -0.1873 -0.4243
 3241SOL    HW121185   3.079   2.612  13.047  0.1278  0.3403 -0.0450
 3241SOL    HW221186   2.954   2.640  12.966 -1.3727 -0.4066  0.0142
 3242SOL     OW21187   4.561   4.194   1.500  0.4833 -0.0505 -0.1238
 3242SOL    HW121188   4.553   4.177   1.594  1.0235  0.0964 -0.0507
 3242SOL    HW221189   4.537   4.285   1.484  1.1182  0.4224  1.6222
 3243SOL     OW21190   0.653   2.490   3.839 -0.1126  0.0835 -0.2180
 3243SOL    HW121191   0.592   2.417   3.843  0.1121 -0.0681  0.3955
 3243SOL    HW221192   0.660   2.484   3.744 -0.3942  0.9579 -0.2996
 3244SOL     OW21193   0.623   3.480   5.043 -0.5191  0.2658 -0.3636
 3244SOL    HW121194   0.622   3.428   5.123 -3.6155 -1.3062 -1.4246
 3244SOL    HW221195   0.692   3.435   4.995  0.1001  0.5943  0.2285
 3245SOL     OW21196   2.327   3.743   8.617 -0.1911 -0.1583  0.0256
 3245SOL    HW121197   2.246   3.695   8.601 -0.2656 -0.5650  1.6280
 3245SOL    HW221198   2.318   3.822   8.563 -0.3856  0.8022  1.4701
 3246SOL     OW21199   0.528   0.678   8.246  0.5499 -0.3286  0.2293
 3246SOL    HW121200   0.552   0.755   8.298  0.4279  0.6603 -1.1500
 3246SOL    HW221201   0.456   0.639   8.296 -0.6345 -0.7443 -1.8122
 3247SOL     OW21202   1.326   1.065  13.177  0.2518  0.4876  0.1630
 3247SOL    HW121203   1.406   1.028  13.215 -0.0597  1.0839  1.4147
 3247SOL    HW221204   1.373   1.129  13.124 -0.6194  1.3046  0.3863
 3248SOL     OW21205   4.532   0.256   7.120 -0.2194 -0.7733  0.2366
 3248SOL    HW121206   4.619   0.287   7.145 -0.4276  0.1098 -0.1472
 3248SOL    HW221207   4.486   0.279   7.201 -0.6753 -2.5242  0.4899
 3249SOL     OW21208   0.113   3.388  11.154  0.1452 -0.0811  0.6207
 3249SOL    HW121209   0.019   3.390  11.137  0.2037  0.6137  0.3689
 3249SOL    HW221210   0.147   3.386  11.064  0.4982  1.2258  0.7294
 3250SOL     OW21211   3.612   1.780   5.874 -0.2794 -0.6278 -0.4529
 3250SOL    HW121212   3.608   1.857   5.816  0.2503  0.3796  0.8523
 3250SOL    HW221213   3.705   1.776   5.896 -0.6074  1.9847  1.4055
 3251SOL     OW21214   1.742   4.084  11.817  0.8615 -0.1220  0.0512
 3251SOL    HW121215   1.720   4.005  11.767 -1.3415  0.0064  0.8216
 3251SOL    HW221216   1.812   4.126  11.766 -0.8075  0.3022 -1.8802
 3252SOL     OW21217   0.549   1.511   8.369  0.0216 -0.1977  0.3007
 3252SOL    HW121218   0.475   1.563   8.401 -1.0240 -0.1984 -2.1272
 3252SOL    HW221219   0.542   1.443   8.437 -0.5750 -0.4669 -0.0212
 3253SOL     OW21220   0.891   0.311  11.966 -0.1023 -0.6739  0.6565
 3253SOL    HW121221   0.872   0.377  12.032 -0.8029  1.0561 -1.2904
 3253SOL    HW221222   0.872   0.226  12.007 -1.3582 -0.2194  0.9826
 3254SOL     OW21223   1.756   4.198   0.752 -0.4368  0.2305  0.3035
 3254SOL    HW121224   1.698   4.211   0.677 -0.3423 -0.9765  0.0139
 3254SOL    HW221225   1.836   4.229   0.711  0.9677  1.0371  3.6242
 3255SOL     OW21226   0.399   0.797   8.856  0.1534 -0.0629  0.0754
 3255SOL    HW121227   0.446   0.766   8.934  1.0091 -0.7188 -0.6932
 3255SOL    HW221228   0.319   0.748   8.876 -0.3794  0.0864 -1.7292
 3256SOL     OW21229   3.149   2.030   4.867 -0.0526 -0.3513 -0.0540
 3256SOL    HW121230   3.114   2.085   4.796  2.4656  1.2478 -0.0295
 3256SOL    HW221231   3.243   2.024   4.850  0.2009 -0.7970  1.4979
 3257SOL     OW21232   3.474   4.120  11.098 -0.0095  0.4490 -0.0634
 3257SOL    HW121233   3.476   4.080  11.011 -1.4208  0.3704 -0.0631
 3257SOL    HW221234   3.510   4.051  11.154 -2.2560 -2.0544 -1.6857
 3258SOL     OW21235   1.515   1.611  16.069 -0.1224  0.2131 -0.0771
 3258SOL    HW121236   1.467   1.535  16.034  0.5408  0.0091 -0.5521
 3258SOL    HW221237   1.512   1.673  15.996 -0.0341  0.5844  0.2395
 3259SOL     OW21238   0.651   3.472   3.819  0.3444 -0.3464  0.8492
 3259SOL    HW121239   0.743   3.496   3.808  0.2535  0.3409  1.5461
 3259SOL    HW221240   0.632   3.442   3.731 -1.2194  2.5778  0.1734
 3260SOL     OW21241   1.970   2.839   1.986 -0.6204 -0.2919 -0.3903
 3260SOL    HW121242   1.941   2.770   1.926 -1.8335  0.1239 -0.2874
 3260SOL    HW221243   1.980   2.798   2.072 -0.9628 -1.7030 -1.0185
 3261SOL     OW21244   4.569   2.410  15.403  0.2091  0.3690 -0.2328
 3261SOL    HW121245   4.638   2.476  15.399 -0.5850  1.2417  0.4126
 3261SOL    HW221246   4.608   2.351  15.338 -2.9676 -1.8082 -0.1809
 3262SOL     OW21247   0.284   0.980   1.931 -0.2108 -0.4120 -0.2045
 3262SOL    HW121248   0.320   1.028   1.856  0.0760  0.1254  0.2832
 3262SOL    HW221249   0.216   0.930   1.885  0.7110 -2.9066  1.1184
 3263SOL     OW21250   2.725   3.305   5.869  0.2299 -0.1272  0.3044
 3263SOL    HW121251   2.817   3.296   5.846 -0.0513  0.9971 -1.2214
 3263SOL    HW221252   2.699   3.219   5.903 -2.3144 -0.4582 -2.4298
 3264SOL     OW21253   1.306   0.255  11.249  0.0573 -0.4785 -0.3146
 3264SOL    HW121254   1.329   0.331  11.194 -0.8717 -0.9274 -1.3090
 3264SOL    HW221255   1.387   0.205  11.257 -0.1770 -0.6141  1.0754
 3265SOL     OW21256   3.233   1.187  17.437  0.0574  0.0404  0.1601
 3265SOL    HW121257   3.308   1.131  17.456 -1.4096 -2.0976 -0.3100
 3265SOL    HW221258   3.279   1.270  17.423  1.7131 -0.9224 -0.1265
 3266SOL     OW21259   1.761   1.466   6.305 -1.2229 -0.4275  0.1039
 3266SOL    HW121260   1.843   1.417   6.303 -0.9723  0.0233 -1.2711
 3266SOL    HW221261   1.728   1.452   6.216  0.1197 -2.3144 -0.0776
 3267SOL     OW21262   1.259   0.280   4.970 -0.1319  0.7746  0.6347
 3267SOL    HW121263   1.178   0.248   4.932  0.3084 -0.0902  0.4162
 3267SOL    HW221264   1.304   0.302   4.888 -1.1836 -0.6847 -0.3291
 3268SOL     OW21265   0.646   2.136  10.120  0.7108  0.2480 -0.5123
 3268SOL    HW121266   0.651   2.040  10.116  0.3109  0.1723  0.6896
 3268SOL    HW221267   0.554   2.132  10.146  0.4862 -2.1465 -1.5937
 3269SOL     OW21268   3.787   3.915   4.651 -0.6837  0.7869  0.1862
 3269SOL    HW121269   3.843   3.839   4.666 -1.5228  0.0410 -0.4719
 3269SOL    HW221270   3.852   3.978   4.619 -2.1716  1.4243 -1.5802
 3270SOL     OW21271   4.485   1.415   6.503 -0.3084  0.1294 -0.3008
 3270SOL    HW121272   4.451   1.353   6.439 -1.2667  1.6758 -1.3035
 3270SOL    HW221273   4.399   1.431   6.541 -0.8944 -0.3494 -1.4146
 3271SOL     OW21274   1.298   1.236   4.588  0.2726 -0.0820  0.3222
 3271SOL    HW121275   1.393   1.246   4.599  0.2221 -1.3673  1.9572
 3271SOL    HW221276   1.277   1.196   4.673  1.9290  2.5075  1.9482
 3272SOL     OW21277   3.748   0.395   5.248  0.5137 -0.4510 -0.1013
 3272SOL    HW121278   3.685   0.462   5.274 -1.4686 -2.7593  1.0270
 3272SOL    HW221279   3.713   0.308   5.268 -1.8226  1.1940  2.8158
 3273SOL     OW21280   2.709   0.960   4.245  0.2590 -0.2697  0.5013
 3273SOL    HW121281   2.771   0.897   4.207 -0.1325  1.6564 -3.3485
 3273SOL    HW221282   2.741   0.962   4.335 -0.9776 -1.4834  0.9769
 3274SOL     OW21283   1.894   3.125   2.200  0.3326 -0.0029 -0.4682
 3274SOL    HW121284   1.890   3.214   2.164 -1.8838  1.0438  2.3117
 3274SOL    HW221285   1.819   3.087   2.155  0.3778  1.0855 -1.4732
 3275SOL     OW21286   2.812   4.484   6.544 -0.5132 -0.4561  0.3682
 3275SOL    HW121287   2.881   4.463   6.606  0.1303 -0.6912 -0.4292
 3275SOL    HW221288   2.816   4.414   6.479  0.2194 -0.1280  0.0644
 3276SOL     OW21289   3.339   3.795   9.648 -0.0880 -0.2782 -0.0910
 3276SOL    HW121290   3.313   3.773   9.737  2.4108 -0.7021  0.5310
 3276SOL    HW221291   3.393   3.720   9.624 -3.0242 -2.7972  1.2282
 3277SOL     OW21292   2.664   2.810   2.467  0.4512  0.5662 -0.8908
 3277SOL    HW121293   2.670   2.752   2.391 -0.4262 -1.4123  0.5363
 3277SOL    HW221294   2.568   2.807   2.471  0.4110  0.2468 -2.2203
 3278SOL     OW21295   0.381   0.941   4.175 -0.4047  0.0564 -0.3243
 3278SOL    HW121296   0.314   0.936   4.244 -0.1359 -0.1059 -0.0789
 3278SOL    HW221297   0.425   0.858   4.188  2.0172  1.5726  1.1499
 3279SOL     OW21298   2.764   3.828   4.069 -0.2383 -0.3014  0.9292
 3279SOL    HW121299   2.683   3.779   4.083 -0.1454 -0.9604 -0.8134
 3279SOL    HW221300   2.790   3.802   3.980 -0.5032  0.8133  0.5208
 3280SOL     OW21301   1.086   1.296   2.661  0.8683  0.1619 -0.2228
 3280SOL    HW121302   1.147   1.227   2.636 -2.2290 -2.0383 -1.8044
 3280SOL    HW221303   1.059   1.263   2.747  0.6537  0.5692 -0.1341
 3281SOL     OW21304   3.283   0.684  14.312  0.0424  0.1255  0.3172
 3281SOL    HW121305   3.308   0.743  14.384 -0.9664  2.4895 -1.2657
 3281SOL    HW221306   3.203   0.729  14.287 -1.7631 -2.4291  1.5213
 3282SOL     OW21307   0.411   0.095  16.643 -0.1773 -0.3624  0.2052
 3282SOL    HW121308   0.321   0.098  16.673 -0.6329 -1.1936 -1.0516
 3282SOL    HW221309   0.398   0.048  16.560 -1.0010 -1.7270  1.1000
 3283SOL     OW21310   1.366   0.663  12.276  0.5216  0.4731  0.1668
 3283SOL    HW121311   1.288   0.629  12.232 -0.4008  1.4051  1.0604
 3283SOL    HW221312   1.378   0.736  12.216 -0.7769 -0.4103 -1.1648
 3284SOL     OW21313   4.604   3.048   6.194 -0.4758 -0.2770 -0.0337
 3284SOL    HW121314   4.527   3.060   6.251 -0.4543 -3.1032  0.5759
 3284SOL    HW221315   4.660   3.009   6.262 -0.9121 -1.0694 -0.1301
 3285SOL     OW21316   0.592   0.589   9.680  0.6435  0.0971  0.3387
 3285SOL    HW121317   0.642   0.616   9.757  2.3413  3.0576 -1.7671
 3285SOL    HW221318   0.614   0.660   9.619  0.2291  0.0962  0.1900
 3286SOL     OW21319   0.168   0.935   1.165  0.2101  0.1471  0.0716
 3286SOL    HW121320   0.243   0.995   1.165  1.4145 -1.3614  1.0974
 3286SOL    HW221321   0.104   0.998   1.132 -1.3870 -0.9544  1.0990
 3287SOL     OW21322   1.530   2.354   5.365  0.3563  0.0234 -0.5802
 3287SOL    HW121323   1.516   2.422   5.300 -0.8432 -2.7551 -3.2373
 3287SOL    HW221324   1.602   2.297   5.339 -0.4822 -1.7267  0.9133
 3288SOL     OW21325   4.044   2.730   7.053 -0.0858 -0.1529 -0.0270
 3288SOL    HW121326   3.949   2.723   7.040  0.2413  0.6365 -2.7963
 3288SOL    HW221327   4.047   2.736   7.149  0.7993  1.4828 -0.1451
 3289SOL     OW21328   0.480   3.158  11.148 -0.8694 -0.0110  0.6929
 3289SOL    HW121329   0.519   3.245  11.139 -1.8179  0.3402 -0.0765
 3289SOL    HW221330   0.560   3.106  11.155  0.6222  2.2455  0.3216
 3290SOL     OW21331   2.160   4.585  10.723  0.1733 -0.0375 -0.1105
 3290SOL    HW121332   2.214   4.565  10.800  1.0968 -0.5517 -0.8972
 3290SOL    HW221333   2.175   4.500  10.682  0.1806  0.3335 -0.8630
 3291SOL     OW21334   2.917   2.517   8.079 -0.1753  0.1521 -0.2389
 3291SOL    HW121335   2.886   2.559   7.999 -1.6660 -0.1894  0.1638
 3291SOL    HW221336   2.880   2.430   8.065  0.3540  0.1229 -1.4932
 3292SOL     OW21337   2.827   1.871   2.514  0.3581  0.7256 -0.5456
 3292SOL    HW121338   2.782   1.943   2.470 -0.5420  1.4427  1.5446
 3292SOL    HW221339   2.756   1.807   2.525  0.7688  0.1743 -1.1659
 3293SOL     OW21340   2.613   0.410  11.621  0.0325  0.9767 -0.1275
 3293SOL    HW121341   2.600   0.322  11.586  1.8106  0.6594  0.0424
 3293SOL    HW221342   2.583   0.399  11.711 -1.4344 -1.7894 -0.9375
 3294SOL     OW21343   1.506   2.476  11.152  0.9344  0.2834 -0.6846
 3294SOL    HW121344   1.495   2.461  11.246  1.9993 -0.5062 -0.6966
 3294SOL    HW221345   1.505   2.571  11.143  1.0126  0.1164 -2.3774
 3295SOL     OW21346   3.942   3.740  15.136  0.0964 -0.6649 -0.6161
 3295SOL    HW121347   3.925   3.807  15.202  0.5672 -2.0575  0.9061
 3295SOL    HW221348   4.019   3.778  15.093  0.4180  0.6404  1.1186
 3296SOL     OW21349   2.252   2.388   3.409 -0.4717 -0.1995 -0.2623
 3296SOL    HW121350   2.206   2.430   3.482 -1.7199  1.0276 -1.7337
 3296SOL    HW221351   2.188   2.406   3.339  2.8344  3.1493 -2.3992
 3297SOL     OW21352   1.802   1.403  10.554 -0.1266  0.3842  0.4216
 3297SOL    HW121353   1.759   1.473  10.504 -1.1386  0.2649  1.1406
 3297SOL    HW221354   1.754   1.327  10.524  0.8138 -0.5255  1.2337
 3298SOL     OW21355   3.345   0.695   3.700 -0.3095  0.2287 -0.5826
 3298SOL    HW121356   3.378   0.694   3.610  0.1260 -1.1794 -0.4100
 3298SOL    HW221357   3.312   0.605   3.703  1.0505 -0.2179  0.6788
 3299SOL     OW21358   3.834   0.465   8.218  0.0659  0.3927 -0.5175
 3299SOL    HW121359   3.749   0.458   8.263 -0.7758 -0.3131 -2.1972
 3299SOL    HW221360   3.808   0.508   8.136  2.2024 -0.6336 -1.7456
 3300SOL     OW21361   1.430   2.902  10.208  0.0528 -0.3992  0.1691
 3300SOL    HW121362   1.450   2.934  10.120 -1.4125  1.8389  0.6338
 3300SOL    HW221363   1.349   2.949  10.228  2.2633  2.6281  2.0137
 3301SOL     OW21364   4.308   4.277  13.856  0.0697  0.3046  0.1230
 3301SOL    HW121365   4.309   4.373  13.851 -1.7828  0.4108  1.5835
 3301SOL    HW221366   4.392   4.256  13.896 -0.0598 -1.5144 -0.5901
 3302SOL     OW21367   3.873   3.835   8.310 -0.4381  0.1499 -0.0686
 3302SOL    HW121368   3.828   3.809   8.230 -1.1667  0.2552  0.3027
 3302SOL    HW221369   3.951   3.880   8.279 -0.0581 -0.4387  0.0287
 3303SOL     OW21370   4.423   2.070   6.452  0.1935 -0.2240 -0.2949
 3303SOL    HW121371   4.457   2.159   6.463 -0.2132 -0.3052  1.5253
 3303SOL    HW221372   4.467   2.045   6.371 -0.7016  0.3995 -0.9764
 3304SOL     OW21373   0.637   2.522   9.656 -0.3013 -0.1921  0.5536
 3304SOL    HW121374   0.578   2.596   9.642  0.0699  0.2848  1.4948
 3304SOL    HW221375   0.690   2.554   9.730  0.3303 -1.2067  0.5415
 3305SOL     OW21376   1.486   0.722   5.207 -0.4550 -0.1532  0.4266
 3305SOL    HW121377   1.457   0.671   5.131 -0.3533 -1.1525  1.0587
 3305SOL    HW221378   1.524   0.648   5.254 -1.3466 -0.5481  0.5207
 3306SOL     OW21379   0.827   0.394   8.551  0.4356 -0.2749 -0.0443
 3306SOL    HW121380   0.849   0.486   8.565 -0.1372 -0.2474  0.6289
 3306SOL    HW221381   0.912   0.356   8.575  0.6121 -1.3561 -2.3673
 3307SOL     OW21382   4.350   0.705  11.446  0.3845 -0.1431 -0.0336
 3307SOL    HW121383   4.376   0.628  11.396  1.3978 -0.3895  0.8856
 3307SOL    HW221384   4.392   0.772  11.392  0.0262  0.2891  0.2260
 3308SOL     OW21385   0.041   1.647   5.585 -0.4773 -0.3946 -0.2535
 3308SOL    HW121386   0.118   1.687   5.625 -0.3043  0.2463 -1.2253
 3308SOL    HW221387   0.050   1.628   5.492 -1.0283 -0.3248 -0.3254
 3309SOL     OW21388   3.820   1.348   0.248  0.1038 -0.2347 -0.2713
 3309SOL    HW121389   3.874   1.413   0.293 -0.7014  0.8647 -0.8804
 3309SOL    HW221390   3.751   1.317   0.307  0.7527  0.2666  0.7562
 3310SOL     OW21391   3.392   4.205   8.016  0.4956  0.1082  0.2418
 3310SOL    HW121392   3.415   4.178   8.104  0.4302 -2.0140 -0.4045
 3310SOL    HW221393   3.304   4.169   8.002  0.8792 -0.5061 -0.6147
 3311SOL     OW21394   0.429   2.594   1.269 -0.4896  0.4838 -0.4970
 3311SOL    HW121395   0.422   2.635   1.356 -1.2918  0.2439 -0.4413
 3311SOL    HW221396   0.419   2.502   1.291  1.8827 -0.0358 -1.5990
 3312SOL     OW21397   3.917   0.655   3.784 -0.6918  0.5014 -0.0724
 3312SOL    HW121398   3.825   0.653   3.758 -0.3822  0.6923 -1.1764
 3312SOL    HW221399   3.957   0.661   3.698 -0.0208 -1.5604  0.0862
 3313SOL     OW21400   1.629   2.750   5.771 -0.4676 -0.4109  0.0779
 3313SOL    HW121401   1.566   2.803   5.820  0.0362  1.0652 -0.8665
 3313SOL    HW221402   1.583   2.701   5.703 -1.0440  0.9363 -0.5121
 3314SOL     OW21403   3.938   0.555   5.168  0.2894  0.2546  0.6630
 3314SOL    HW121404   3.903   0.644   5.165  1.4418  0.6775 -0.1886
 3314SOL    HW221405   3.868   0.500   5.204 -1.0961  0.4045 -1.8449
 3315SOL     OW21406   1.799   2.928   3.508  0.2740 -0.2031  0.1715
 3315SOL    HW121407   1.852   3.008   3.509 -0.8669  0.5651 -0.1897
 3315SOL    HW221408   1.769   2.927   3.417  1.5246  2.0420 -0.2824
 3316SOL     OW21409   1.784   0.243   4.420  0.3399  0.0534  0.3812
 3316SOL    HW121410   1.720   0.174   4.439 -0.0403 -0.1355 -1.5695
 3316SOL    HW221411   1.858   0.197   4.380 -0.0501 -0.8038  0.6243
 3317SOL     OW21412   3.173   4.532  14.307  0.5805 -0.2032  0.0574
 3317SOL    HW121413   3.256   4.488  14.287  1.5314  1.5212  0.1058
 3317SOL    HW221414   3.206   4.603  14.363  0.1311  1.1026 -1.3246
 3318SOL     OW21415   4.045   0.520  16.677  0.7676  0.1147  0.2345
 3318SOL    HW121416   4.040   0.594  16.617  0.3834 -0.8428 -0.9195
 3318SOL    HW221417   4.003   0.549  16.758  0.0130  0.4908 -0.2993
 3319SOL     OW21418   3.409   3.533   2.109 -0.0478 -0.2317  0.6400
 3319SOL    HW121419   3.385   3.625   2.102  0.1114 -0.2715 -0.4105
 3319SOL    HW221420   3.438   3.514   2.019  0.5873 -1.6936  1.1546
 3320SOL     OW21421   3.131   3.990  15.257  0.1126  0.2142 -0.2679
 3320SOL    HW121422   3.093   4.036  15.182 -0.6936  1.8425  1.1314
 3320SOL    HW221423   3.218   3.972  15.222 -0.8042 -1.2157 -1.7824
 3321SOL     OW21424   3.521   2.455  15.414  0.1473  0.9391 -0.1459
 3321SOL    HW121425   3.580   2.490  15.481  2.2715  0.8780 -1.9889
 3321SOL    HW221426   3.457   2.525  15.425  0.6742  1.4328 -0.2275
 3322SOL     OW21427   4.267   4.295   4.602 -0.4654  0.2218  0.0164
 3322SOL    HW121428   4.208   4.243   4.657 -0.0568 -0.7945 -0.5019
 3322SOL    HW221429   4.350   4.250   4.616  0.4338  1.5663 -0.9756
 3323SOL     OW21430   2.721   3.331   3.993  0.2968 -0.4389 -0.1811
 3323SOL    HW121431   2.686   3.247   4.025  1.2325  0.1325  2.3035
 3323SOL    HW221432   2.668   3.353   3.916 -1.7477  2.6308  2.1311
 3324SOL     OW21433   2.566   0.357   4.872 -0.1539 -0.5441 -0.6305
 3324SOL    HW121434   2.597   0.367   4.782 -1.7316  0.9503 -1.0132
 3324SOL    HW221435   2.472   0.373   4.873 -0.2572 -1.4097  2.6457
 3325SOL     OW21436   4.687   3.000  13.963  0.0099 -0.1818  0.5744
 3325SOL    HW121437   0.044   2.960  13.925 -1.2510 -0.5580 -1.6681
 3325SOL    HW221438   0.000   3.029  14.047  0.8578  1.8629 -0.4668
 3326SOL     OW21439   4.094   0.923   1.599  0.0257 -0.6721 -0.2418
 3326SOL    HW121440   4.047   0.997   1.638  0.5303  0.7594 -2.3854
 3326SOL    HW221441   4.071   0.925   1.506 -2.6098 -0.8279  0.4127
 3327SOL     OW21442   0.564   4.049  16.912  0.3608 -0.0712  0.3900
 3327SOL    HW121443   0.550   4.057  17.006 -2.3051 -0.3187  0.0014
 3327SOL    HW221444   0.655   4.019  16.913 -0.2523 -2.0384 -1.6989
 3328SOL     OW21445   0.433   0.925   8.608 -0.3596 -0.0316  0.1022
 3328SOL    HW121446   0.413   1.014   8.638 -1.4089  0.2290 -1.3518
 3328SOL    HW221447   0.446   0.879   8.691 -0.0315  2.3186  1.3425
 3329SOL     OW21448   2.126   2.053  16.511  0.2818 -0.3036 -0.2265
 3329SOL    HW121449   2.082   2.116  16.454  1.0979  1.7780  1.4662
 3329SOL    HW221450   2.137   1.987  16.443 -1.1380  0.3587 -1.1059
 3330SOL     OW21451   1.661   2.315  12.342 -0.0464 -0.2022  0.5790
 3330SOL    HW121452   1.750   2.349  12.354 -0.3268  0.4147  0.9261
 3330SOL    HW221453   1.619   2.380  12.399  0.7646 -1.1736  2.2910
 3331SOL     OW21454   3.378   3.919   9.242  0.2101 -0.1047 -0.0675
 3331SOL    HW121455   3.321   3.880   9.308 -1.5936  3.7206  0.6221
 3331SOL    HW221456   3.314   3.956   9.181  1.9381  1.4747 -0.9042
 3332SOL     OW21457   2.866   2.455  10.426 -0.1820 -0.2930 -0.1858
 3332SOL    HW121458   2.887   2.511  10.352  1.9759 -1.0077 -0.0963
 3332SOL    HW221459   2.780   2.420  10.401 -0.6057  2.2343 -2.2168
 3333SOL     OW21460   3.887   1.786   3.196 -0.0224  0.1908  0.5548
 3333SOL    HW121461   3.890   1.815   3.105 -3.2575  0.8688  0.6364
 3333SOL    HW221462   3.796   1.807   3.218 -0.4682 -1.8748  0.6532
 3334SOL     OW21463   3.233   1.113  16.830 -0.3003 -0.5032  0.0732
 3334SOL    HW121464   3.218   1.122  16.924  1.8697 -0.9492  0.4480
 3334SOL    HW221465   3.310   1.164  16.809 -1.4616  0.7024 -1.2638
 3335SOL     OW21466   1.865   0.378   7.266 -0.1533  0.2606 -0.8040
 3335SOL    HW121467   1.836   0.330   7.188  0.1691 -0.5884 -0.3890
 3335SOL    HW221468   1.885   0.458   7.216 -1.9117  3.3289  3.4034
 3336SOL     OW21469   1.103   4.718   8.069 -0.2192  0.0218  0.9415
 3336SOL    HW121470   1.136   0.083   8.042  0.6377  0.1470  2.3704
 3336SOL    HW221471   1.012   4.716   8.042 -0.2417  0.2060  1.0056
 3337SOL     OW21472   4.639   1.647   3.946  0.1794 -0.2200 -0.4130
 3337SOL    HW121473   4.696   1.664   4.021 -2.6405 -1.9073  2.0951
 3337SOL    HW221474   4.592   1.730   3.936  1.5674  0.6919  0.7781
 3338SOL     OW21475   3.098   0.148   2.673 -0.5774  0.7594  0.3005
 3338SOL    HW121476   3.146   0.177   2.596 -2.3346  2.1823 -0.2438
 3338SOL    HW221477   3.021   0.109   2.634 -0.8959  0.2700  1.4148
 3339SOL     OW21478   1.798   1.782   7.423 -0.4027  0.5524  0.0685
 3339SOL    HW121479   1.730   1.715   7.432  1.3486 -1.0502  1.3045
 3339SOL    HW221480   1.822   1.779   7.330  0.8417  0.9105  0.3824
 3340SOL     OW21481   2.873   3.885  16.741 -0.0446 -0.3457 -0.5785
 3340SOL    HW121482   2.794   3.933  16.763  0.4097 -0.5169  1.4163
 3340SOL    HW221483   2.864   3.815  16.805  0.1874  0.5067  0.3757
 3341SOL     OW21484   2.808   1.109  10.726  0.2374 -0.3162 -0.4413
 3341SOL    HW121485   2.864   1.145  10.657  0.2874 -0.2966 -0.3897
 3341SOL    HW221486   2.799   1.020  10.692  0.5067 -1.0871  1.5221
 3342SOL     OW21487   2.589   4.226   1.029  0.3980  0.1211 -0.3710
 3342SOL    HW121488   2.649   4.170   0.979 -0.5036 -0.6861 -0.5497
 3342SOL    HW221489   2.537   4.277   0.967  0.3788  1.7603  1.0046
 3343SOL     OW21490   2.747   2.159  13.695  0.2872  0.2569 -0.4044
 3343SOL    HW121491   2.668   2.134  13.648  0.7596 -2.9285  0.5039
 3343SOL    HW221492   2.794   2.076  13.689 -0.3336 -0.0525 -1.0003
 3344SOL     OW21493   3.379   2.536   9.304  0.1800  0.5158 -0.3089
 3344SOL    HW121494   3.347   2.448   9.323  0.6585  0.4704  0.3103
 3344SOL    HW221495   3.473   2.527   9.315  0.3283  2.8872  0.3677
 3345SOL     OW21496   3.070   3.825   6.808 -0.0978 -0.5202 -0.2450
 3345SOL    HW121497   3.055   3.886   6.736  0.2594 -1.8737 -1.4580
 3345SOL    HW221498   3.143   3.766   6.788 -0.9815 -1.8373  0.4038
 3346SOL     OW21499   3.540   1.578  17.646 -0.5803  0.8543 -0.8789
 3346SOL    HW121500   3.631   1.564  17.672 -1.0248  1.4866  1.0328
 3346SOL    HW221501   3.512   1.633   0.032  1.9204  0.9436 -0.0146
 3347SOL     OW21502   3.436   0.788   3.158  0.5358  0.3860 -0.1290
 3347SOL    HW121503   3.493   0.714   3.136  0.3612 -0.0912  1.0489
 3347SOL    HW221504   3.494   0.864   3.151  1.8612 -0.6638 -0.5903
 3348SOL     OW21505   3.393   3.122   8.733 -0.0744  0.0372  0.4630
 3348SOL    HW121506   3.483   3.097   8.754 -0.1456 -1.8364 -1.4214
 3348SOL    HW221507   3.401   3.216   8.749  0.9835 -0.1097  0.7858
 3349SOL     OW21508   1.667   0.828   6.541 -0.2018  0.1395 -0.3938
 3349SOL    HW121509   1.697   0.761   6.601 -1.5481  0.4271  0.5988
 3349SOL    HW221510   1.654   0.784   6.457 -1.5726  2.2851 -1.3309
 3350SOL     OW21511   3.786   3.635   7.012  0.8057 -0.1562 -0.3829
 3350SOL    HW121512   3.709   3.675   7.053  1.0405 -1.9575  1.8023
 3350SOL    HW221513   3.744   3.577   6.949  0.5414 -1.5330  1.0584
 3351SOL     OW21514   3.922   4.092   8.694 -0.1326 -0.2034  0.1810
 3351SOL    HW121515   4.017   4.102   8.689 -0.2115 -0.1763 -1.3542
 3351SOL    HW221516   3.889   4.092   8.604 -2.0015  0.0079  0.8639
 3352SOL     OW21517   2.760   0.624   2.826 -0.1163 -0.3891  0.7501
 3352SOL    HW121518   2.832   0.625   2.890  1.4878 -0.0494 -1.0866
 3352SOL    HW221519   2.711   0.706   2.821 -2.0073 -1.7115 -2.1025
 3353SOL     OW21520   1.928   4.239   6.005 -0.6482 -0.1860 -0.3302
 3353SOL    HW121521   2.004   4.210   5.955 -2.3863 -2.4219 -1.6605
 3353SOL    HW221522   1.964   4.283   6.082 -0.1005 -1.2846  0.0464
 3354SOL     OW21523   4.406   0.470  11.301  0.0929  0.4792 -0.4003
 3354SOL    HW121524   4.395   0.392  11.246 -2.5667 -0.9146  2.1249
 3354SOL    HW221525   4.501   0.462  11.312 -0.0106 -1.3876 -0.7539
 3355SOL     OW21526   3.177   0.958  12.458 -0.3884 -0.2770 -0.0401
 3355SOL    HW121527   3.172   1.040  12.509 -0.7479  0.2582 -0.9348
 3355SOL    HW221528   3.253   0.922  12.503 -0.3164 -1.8049 -1.4194
 3356SOL     OW21529   0.806   0.949   3.430  0.5311  0.0483 -0.0490
 3356SOL    HW121530   0.835   1.029   3.475 -2.0213  1.1370 -0.2999
 3356SOL    HW221531   0.761   0.906   3.503 -0.5445 -1.5388 -1.6485
 3357SOL     OW21532   4.539   2.181  14.755  0.1298  0.1463 -0.1495
 3357SOL    HW121533   4.517   2.089  14.740  0.8714  0.1712 -1.4014
 3357SOL    HW221534   4.631   2.179  14.730  0.2746  1.1403  0.3099
 3358SOL     OW21535   1.651   0.563   4.242 -0.0199  0.2687 -0.4900
 3358SOL    HW121536   1.577   0.619   4.266  1.1149  1.0392  1.2139
 3358SOL    HW221537   1.723   0.627   4.241 -0.2476  0.5541  1.3697
 3359SOL     OW21538   1.527   0.165   4.204 -0.3825  0.1855  0.3272
 3359SOL    HW121539   1.614   0.194   4.232  0.1147 -1.3155  0.3414
 3359SOL    HW221540   1.542   0.071   4.201  0.9032  0.3884  0.1381
 3360SOL     OW21541   4.276   0.060   8.989 -0.5788 -0.4518 -0.5105
 3360SOL    HW121542   4.231   0.062   9.073  0.0711 -2.1523 -0.1238
 3360SOL    HW221543   4.354   0.011   9.012 -0.3493 -0.7811 -1.9758
 3361SOL     OW21544   1.719   0.460   0.388 -0.0038  0.2273  0.0680
 3361SOL    HW121545   1.758   0.475   0.474  2.3676 -0.1492 -0.9290
 3361SOL    HW221546   1.708   0.552   0.364  1.4186  0.5270  0.5403
 3362SOL     OW21547   0.658   0.104   4.590 -0.1001  0.4371  0.4399
 3362SOL    HW121548   0.707   0.167   4.642  0.7731 -0.7242  1.0080
 3362SOL    HW221549   0.709   0.024   4.596  0.5408  0.8729  0.8146
 3363SOL     OW21550   1.174   2.036   6.775  0.3337 -0.2853 -0.2381
 3363SOL    HW121551   1.247   2.037   6.837 -1.8879  0.2586  2.3743
 3363SOL    HW221552   1.210   1.972   6.713 -0.1246  0.1861 -0.9915
 3364SOL     OW21553   2.622   2.418  13.516 -0.4639 -0.4095  0.1356
 3364SOL    HW121554   2.562   2.405  13.590  0.1219 -0.7287  0.5581
 3364SOL    HW221555   2.665   2.333  13.502 -1.1058 -0.3769 -1.9246
 3365SOL     OW21556   3.375   0.073   6.653  0.0083  0.4693 -0.4063
 3365SOL    HW121557   3.290   0.041   6.625  0.0329  0.1032 -0.0537
 3365SOL    HW221558   3.366   0.110   6.741 -1.2004 -2.5937  0.7211
 3366SOL     OW21559   2.076   4.533   0.552  0.6894  0.3680 -0.1852
 3366SOL    HW121560   2.014   4.605   0.548  1.0773  0.5883 -2.2198
 3366SOL    HW221561   2.141   4.570   0.492 -0.1118  2.7202  0.4024
 3367SOL     OW21562   4.545   2.356   8.186 -0.1653 -0.2604 -0.8853
 3367SOL    HW121563   4.601   2.321   8.116  1.2369 -2.2823  1.2670
 3367SOL    HW221564   4.534   2.448   8.162  0.8232  0.3089  0.8314
 3368SOL     OW21565   3.224   1.572   6.095 -0.2372  0.3592  0.0265
 3368SOL    HW121566   3.286   1.643   6.078  1.8241 -1.2117  1.0429
 3368SOL    HW221567   3.186   1.604   6.177  0.9406 -0.5436  0.9179
 3369SOL     OW21568   3.457   2.898  15.554  0.1394 -0.2781  0.2189
 3369SOL    HW121569   3.402   2.876  15.629 -0.3572  0.4960  0.0875
 3369SOL    HW221570   3.434   2.990  15.544  1.4423  0.1329  1.1137
 3370SOL     OW21571   3.565   0.420   4.009  0.0215 -0.1001 -0.5931
 3370SOL    HW121572   3.553   0.356   3.938  0.0635  0.3156 -0.9766
 3370SOL    HW221573   3.552   0.373   4.091  3.4419 -1.2339 -0.6920
 3371SOL     OW21574   1.247   2.686   2.411 -0.1549  0.3373 -0.5187
 3371SOL    HW121575   1.337   2.677   2.442 -0.5730  0.4281  0.7554
 3371SOL    HW221576   1.199   2.693   2.494 -1.3465  1.6315 -1.3183
 3372SOL     OW21577   2.781   3.932   1.864 -0.2391 -0.4943  0.8099
 3372SOL    HW121578   2.760   3.847   1.903  0.6391 -0.7119  0.8047
 3372SOL    HW221579   2.875   3.938   1.880 -0.2184 -1.0641  0.9146
 3373SOL     OW21580   3.828   4.264   2.272 -0.2488 -0.4911  0.3376
 3373SOL    HW121581   3.841   4.273   2.367  1.2586  2.4422 -0.1547
 3373SOL    HW221582   3.777   4.183   2.269 -3.5885  1.6097  0.3941
 3374SOL     OW21583   3.481   0.409  12.533  0.1850 -0.2254  0.4561
 3374SOL    HW121584   3.546   0.343  12.509  1.5211  1.1970  0.1511
 3374SOL    HW221585   3.424   0.399  12.456 -0.1190 -1.3168  0.8255
 3375SOL     OW21586   4.714   4.165   8.060 -0.4787 -0.1061 -0.4552
 3375SOL    HW121587   4.713   4.224   8.135  3.4828  0.8028 -1.0987
 3375SOL    HW221588   0.052   4.095   8.086  1.0978  0.7047 -1.8323
 3376SOL     OW21589   3.566   1.745   2.645  0.3504 -0.0870 -0.6807
 3376SOL    HW121590   3.540   1.831   2.611 -1.9735  0.0078  1.3256
 3376SOL    HW221591   3.484   1.696   2.636  0.7749 -1.1366  1.2525
 3377SOL     OW21592   0.090   2.533   4.350  0.1077  0.6198 -0.6534
 3377SOL    HW121593   0.092   2.494   4.263  0.6559 -0.5866 -0.0904
 3377SOL    HW221594   0.057   2.623   4.338  0.6583  0.2423 -4.7906
 3378SOL     OW21595   0.491   3.385   7.316 -0.4358  0.2548  0.3971
 3378SOL    HW121596   0.400   3.366   7.294 -1.0185  0.7831  2.3507
 3378SOL    HW221597   0.475   3.415   7.406 -1.0986  1.6515 -0.1858
 3379SOL     OW21598   3.332   2.761   0.661 -0.0476  0.6871 -0.1125
 3379SOL    HW121599   3.372   2.781   0.746  0.3761  2.1120 -0.6509
 3379SOL    HW221600   3.306   2.848   0.632  0.8465  1.0386  0.1395
 3380SOL     OW21601   3.987   0.610   5.946  0.3172  0.2743  0.7990
 3380SOL    HW121602   3.928   0.674   5.986 -0.2613  0.4780 -0.3720
 3380SOL    HW221603   3.972   0.623   5.852  1.5423  1.6444  0.8011
 3381SOL     OW21604   3.112   4.239   8.319 -0.2802  0.3584 -0.1902
 3381SOL    HW121605   3.109   4.303   8.390 -4.0673  0.0195 -0.0558
 3381SOL    HW221606   3.129   4.158   8.367 -0.7020 -1.0829 -2.4789
 3382SOL     OW21607   1.025   3.728   8.482 -0.1471 -0.0546  0.0845
 3382SOL    HW121608   0.984   3.756   8.564 -0.9654 -0.6148 -0.1340
 3382SOL    HW221609   1.102   3.784   8.489  1.3973 -2.3110  1.2292
 3383SOL     OW21610   1.784   3.865   2.754 -0.4276  0.1658  0.1586
 3383SOL    HW121611   1.782   3.898   2.664 -3.4155 -1.5042 -0.3613
 3383SOL    HW221612   1.830   3.935   2.801  0.5272  0.0694 -0.6166
 3384SOL     OW21613   2.138   4.137   2.779  0.5526 -0.2368  0.4198
 3384SOL    HW121614   2.180   4.152   2.694  1.9344 -0.3105  1.1063
 3384SOL    HW221615   2.139   4.041   2.788  2.0497 -0.4139 -1.5783
 3385SOL     OW21616   0.730   1.521   8.046  0.8766 -0.0339 -0.1579
 3385SOL    HW121617   0.743   1.527   7.951  4.5892 -1.3839  0.2599
 3385SOL    HW221618   0.675   1.443   8.055  0.7831  0.0999  0.4462
 3386SOL     OW21619   4.408   3.109   8.581  0.3288 -0.3182  0.5266
 3386SOL    HW121620   4.383   3.017   8.591  0.3096 -0.5014 -1.2166
 3386SOL    HW221621   4.438   3.123   8.671  0.4475 -1.0248  0.5976
 3387SOL     OW21622   2.902   3.727   5.467  0.0654 -0.2812 -0.1341
 3387SOL    HW121623   2.932   3.807   5.510 -0.0579  0.5567 -1.5938
 3387SOL    HW221624   2.969   3.723   5.399 -0.4727  2.5149 -0.8068
 3388SOL     OW21625   1.808   3.745   4.177  0.6748  0.9961 -0.2234
 3388SOL    HW121626   1.776   3.657   4.156 -0.3394  1.5025 -0.8077
 3388SOL    HW221627   1.903   3.737   4.187  0.5513 -1.6967 -1.1537
 3389SOL     OW21628   0.374   2.344   9.690 -0.3308  0.0766 -0.4242
 3389SOL    HW121629   0.463   2.378   9.694  0.4168 -2.2025  1.8030
 3389SOL    HW221630   0.382   2.252   9.713  0.4861  0.3631  0.4402
 3390SOL     OW21631   0.333   4.532   3.328  0.6224 -0.1883  0.5248
 3390SOL    HW121632   0.410   4.478   3.310 -0.4150 -1.5089  0.0932
 3390SOL    HW221633   0.265   4.466   3.342  1.6820 -1.1807  0.9563
 3391SOL     OW21634   4.147   4.631   7.581  0.2597 -0.1939  0.3715
 3391SOL    HW121635   4.134   4.604   7.672 -4.4638  0.1722 -0.1952
 3391SOL    HW221636   4.243   4.638   7.581  0.1993  0.5989  0.2032
 3392SOL     OW21637   3.078   1.820   8.749  0.3505  0.5816  0.7277
 3392SOL    HW121638   3.153   1.760   8.751 -0.1385 -0.1034 -1.3379
 3392SOL    HW221639   3.023   1.767   8.806 -3.2230  0.7619 -2.6144
 3393SOL     OW21640   0.119   2.782  12.791  0.3207 -0.5413  0.3259
 3393SOL    HW121641   0.035   2.804  12.749  1.4485  2.2071 -0.5011
 3393SOL    HW221642   0.104   2.791  12.885 -2.1753  1.7437 -0.2812
 3394SOL     OW21643   4.721   2.340  16.136  0.3664 -0.1735 -0.6951
 3394SOL    HW121644   4.674   2.408  16.185 -0.7494 -0.2739 -1.6129
 3394SOL    HW221645   0.054   2.301  16.204 -1.8858 -0.5749  0.8764
 3395SOL     OW21646   3.592   2.701   0.013 -0.3481  0.2838 -0.3427
 3395SOL    HW121647   3.687   2.694   0.006 -0.5664 -0.4091 -2.4176
 3395SOL    HW221648   3.560   2.622  17.657  1.4121 -1.4445  1.5290
 3396SOL     OW21649   0.003   2.399  16.420  0.3485  0.0353  0.0830
 3396SOL    HW121650   4.690   2.365  16.503 -0.6438 -1.0481 -0.7710
 3396SOL    HW221651   4.677   2.482  16.429 -1.3868 -0.9915  0.4423
 3397SOL     OW21652   2.692   3.120   2.872  0.0078  0.0881 -0.1885
 3397SOL    HW121653   2.739   3.038   2.886  1.5876  0.9693 -0.3291
 3397SOL    HW221654   2.670   3.116   2.779 -1.3117 -2.3424  0.2155
 3398SOL     OW21655   1.002   2.503   4.223 -0.0652 -0.4960 -0.2323
 3398SOL    HW121656   0.926   2.448   4.240 -0.4086  0.3069  0.8797
 3398SOL    HW221657   1.035   2.458   4.145  2.2556  0.9411 -0.0947
 3399SOL     OW21658   0.143   3.009   3.902 -0.5110 -0.4349  0.7196
 3399SOL    HW121659   0.143   3.006   3.806 -0.8561 -0.2637  0.7147
 3399SOL    HW221660   0.103   2.924   3.917 -1.5040 -0.6627 -3.2341
 3400SOL     OW21661   0.496   0.073  13.181 -0.3089 -0.2040  0.4505
 3400SOL    HW121662   0.551   4.716  13.182 -0.1890 -0.1549 -1.5978
 3400SOL    HW221663   0.431   0.058  13.249  1.1387  0.2680  1.9301
 3401SOL     OW21664   1.133   0.939   7.977 -0.3122 -0.4390  0.4552
 3401SOL    HW121665   1.083   0.859   7.957  0.6433 -0.7507 -0.6619
 3401SOL    HW221666   1.072   0.969   8.045 -2.7524 -2.5764 -0.7858
 3402SOL     OW21667   3.956   2.791  11.621  0.5193 -0.4721  0.2798
 3402SOL    HW121668   4.046   2.819  11.638  0.8420  0.1299 -2.4735
 3402SOL    HW221669   3.911   2.838  11.691 -1.8603  1.3156 -2.4657
 3403SOL     OW21670   1.815   4.024  10.535  0.0993  0.1724 -0.0343
 3403SOL    HW121671   1.787   4.000  10.623  1.5704  3.2966  1.2755
 3403SOL    HW221672   1.910   4.020  10.538  0.0613 -1.3452 -0.7619
 3404SOL     OW21673   0.228   3.686  13.455  0.5450 -0.6147  0.5836
 3404SOL    HW121674   0.251   3.756  13.395  0.3328  0.0961  1.3346
 3404SOL    HW221675   0.218   3.740  13.534 -0.9682 -0.6365  0.4176
 3405SOL     OW21676   3.213   3.856  15.957 -0.4729 -0.1115 -0.8656
 3405SOL    HW121677   3.244   3.882  15.871 -2.2815 -1.7437 -2.0098
 3405SOL    HW221678   3.146   3.791  15.938 -0.5897 -0.1662 -0.2857
 3406SOL     OW21679   1.779   1.544   9.548 -0.1361 -0.9181 -0.0203
 3406SOL    HW121680   1.779   1.449   9.560 -0.1074 -0.9807 -0.5050
 3406SOL    HW221681   1.711   1.561   9.482 -0.6620 -0.6841  0.5834
 3407SOL     OW21682   1.017   0.312   6.529 -0.4003  0.3444  0.0862
 3407SOL    HW121683   0.939   0.329   6.476 -0.9666  0.2240  0.8908
 3407SOL    HW221684   1.068   0.252   6.473 -0.2815  0.3804  0.1552
 3408SOL     OW21685   3.719   0.117   5.763  0.0332  0.0718  0.4774
 3408SOL    HW121686   3.670   0.083   5.688 -1.2500  0.5925  1.0781
 3408SOL    HW221687   3.647   0.161   5.808  1.8199 -0.7180  4.1667
 3409SOL     OW21688   4.716   4.196   3.818  0.7423 -0.2464 -0.0199
 3409SOL    HW121689   0.078   4.185   3.772  0.5453  2.0199 -0.8938
 3409SOL    HW221690   4.669   4.112   3.820 -1.4865  1.0392  1.4089
 3410SOL     OW21691   4.408   2.319   8.925 -0.7281 -0.0101 -0.6649
 3410SOL    HW121692   4.396   2.226   8.942  0.0548  0.0351  0.1134
 3410SOL    HW221693   4.472   2.313   8.854  0.7605  2.8535  0.4569
 3411SOL     OW21694   4.653   3.261  12.151 -0.0627 -0.2421  0.2173
 3411SOL    HW121695   4.614   3.209  12.080  0.6129 -0.0557 -0.2890
 3411SOL    HW221696   4.719   3.199  12.179 -1.2464 -2.0115 -0.9028
 3412SOL     OW21697   2.349   4.367   5.494 -0.2462 -0.2549  0.1161
 3412SOL    HW121698   2.353   4.400   5.583  0.3386 -0.1063  0.0368
 3412SOL    HW221699   2.390   4.443   5.452 -0.3919 -0.7354 -0.9155
 3413SOL     OW21700   4.571   3.582  16.685  0.6006 -0.1484 -0.3061
 3413SOL    HW121701   4.476   3.572  16.686  0.8038 -1.7698  1.8755
 3413SOL    HW221702   4.592   3.663  16.639  2.3101 -0.5251 -0.2032
 3414SOL     OW21703   0.770   3.827   7.895  0.0561 -0.2317 -0.5946
 3414SOL    HW121704   0.711   3.753   7.905  0.2630 -0.4068 -0.6539
 3414SOL    HW221705   0.852   3.794   7.857  0.7231  0.2899  0.3794
 3415SOL     OW21706   3.965   1.665   6.751 -0.0258  0.0031 -0.7309
 3415SOL    HW121707   4.015   1.587   6.775  0.6225 -0.0656 -2.2902
 3415SOL    HW221708   4.025   1.707   6.690 -0.9812  0.5021 -1.3289
 3416SOL     OW21709   4.282   2.800   4.784 -0.1980  0.1932 -0.0091
 3416SOL    HW121710   4.248   2.726   4.834 -2.7058  1.8350  0.7238
 3416SOL    HW221711   4.373   2.770   4.781 -0.3646 -0.1392 -1.8625
 3417SOL     OW21712   0.338   3.216   8.398 -0.1427  0.5170  0.2506
 3417SOL    HW121713   0.264   3.177   8.444  0.6791 -0.2676  0.9351
 3417SOL    HW221714   0.344   3.294   8.453  0.0670  0.2967  0.5401
 3418SOL     OW21715   0.007   4.363  11.740 -0.0364 -0.2685 -0.0313
 3418SOL    HW121716   4.721   4.438  11.681  0.3304  0.2036  0.5282
 3418SOL    HW221717   4.644   4.318  11.730  0.0049 -0.5950  1.0455
 3419SOL     OW21718   4.518   0.868  11.717  0.2115 -0.1566  0.1365
 3419SOL    HW121719   4.605   0.850  11.751  1.3449  2.4714 -1.4130
 3419SOL    HW221720   4.545   0.909  11.635  0.1436 -0.5735 -0.0940
 3420SOL     OW21721   3.498   3.531  14.676  0.2195  0.2467 -0.7202
 3420SOL    HW121722   3.566   3.553  14.739 -0.3572  1.6122 -0.5689
 3420SOL    HW221723   3.456   3.617  14.672 -0.4213 -0.0501 -0.2909
 3421SOL     OW21724   2.229   2.014   7.836  0.0102  0.1332 -0.2911
 3421SOL    HW121725   2.201   2.056   7.918 -2.2673  0.7425 -1.3786
 3421SOL    HW221726   2.155   2.028   7.777 -0.2708 -0.3705 -0.0527
 3422SOL     OW21727   1.837   3.522   6.004  0.1878  0.0144 -0.2285
 3422SOL    HW121728   1.846   3.547   5.911 -0.4094 -1.1385 -0.5917
 3422SOL    HW221729   1.743   3.521   6.021  0.4847 -2.6105  1.2650
 3423SOL     OW21730   1.040   2.301   7.163  0.1775  0.4847  0.3939
 3423SOL    HW121731   1.093   2.237   7.115 -1.5333 -0.1269 -0.6870
 3423SOL    HW221732   0.962   2.250   7.185  1.8397 -2.4981 -0.6061
 3424SOL     OW21733   1.595   4.307   8.933 -0.4617 -0.6713 -0.1660
 3424SOL    HW121734   1.508   4.308   8.973 -0.3599 -2.0783  0.0835
 3424SOL    HW221735   1.653   4.343   9.000  0.8735  0.6449 -2.0352
 3425SOL     OW21736   2.621   2.086  16.852 -0.1166 -0.0970  0.0639
 3425SOL    HW121737   2.571   2.166  16.867  0.4988  0.2855  0.0996
 3425SOL    HW221738   2.573   2.054  16.775  2.4294 -2.4068 -0.5692
 3426SOL     OW21739   0.632   3.812   9.670 -0.5771 -0.2896 -0.2122
 3426SOL    HW121740   0.709   3.757   9.684 -0.7045 -0.4644 -0.1990
 3426SOL    HW221741   0.583   3.758   9.608  0.6901  1.1206 -2.4283
 3427SOL     OW21742   4.491   1.860   4.387  0.2787  0.1984  0.1989
 3427SOL    HW121743   4.505   1.785   4.444 -0.5895 -0.7140 -0.7767
 3427SOL    HW221744   4.463   1.808   4.312  0.0036  1.2521 -0.4402
 3428SOL     OW21745   1.700   0.068   8.582 -0.2897  0.1880 -0.0607
 3428SOL    HW121746   1.717   0.088   8.490 -0.9506  0.6664 -0.0770
 3428SOL    HW221747   1.761   4.719   8.604 -0.8388  0.0807  1.1387
 3429SOL     OW21748   1.211   0.921  16.054  0.5250 -0.6960 -0.2049
 3429SOL    HW121749   1.178   0.994  16.107 -2.8594  0.3458 -3.7922
 3429SOL    HW221750   1.294   0.903  16.098  0.5470  1.0138  0.4786
 3430SOL     OW21751   0.799   3.216  14.690  0.3263 -0.0352  0.0764
 3430SOL    HW121752   0.875   3.271  14.706  0.5578  0.1721 -1.7561
 3430SOL    HW221753   0.827   3.174  14.609 -3.7734 -2.0420 -0.2966
 3431SOL     OW21754   4.072   0.044   8.826  0.0323 -0.6511  0.3923
 3431SOL    HW121755   4.033   0.006   8.906 -1.9274  2.0631  0.7343
 3431SOL    HW221756   4.148   0.085   8.866 -0.7691  1.2083 -0.0033
 3432SOL     OW21757   1.680   3.743   7.699 -0.1037  0.1906  0.1526
 3432SOL    HW121758   1.660   3.716   7.788 -2.1077  3.4658  0.6892
 3432SOL    HW221759   1.597   3.784   7.673  0.5328 -0.7182 -3.2846
 3433SOL     OW21760   4.109   0.831   8.251 -0.3019  0.3422  0.0819
 3433SOL    HW121761   4.055   0.758   8.281 -0.1084  0.1738  0.0222
 3433SOL    HW221762   4.190   0.782   8.236 -1.5098 -1.8265  0.6273
 3434SOL     OW21763   4.007   2.926  11.861  0.6541 -0.1331  0.5312
 3434SOL    HW121764   3.964   3.008  11.837  0.8902 -0.1882 -0.0878
 3434SOL    HW221765   4.042   2.946  11.947 -0.6351  0.1269  1.0015
 3435SOL     OW21766   0.582   1.071   9.406  0.1510  0.2266  0.1696
 3435SOL    HW121767   0.625   1.146   9.366  1.3714 -0.8922 -0.6024
 3435SOL    HW221768   0.501   1.105   9.446 -0.6206 -3.6621  1.8824
 3436SOL     OW21769   4.496   4.047   6.584  0.3069 -0.2865  0.2612
 3436SOL    HW121770   4.473   4.021   6.495 -1.0801  0.5613  0.3762
 3436SOL    HW221771   4.567   3.984   6.600 -0.0912 -1.3838 -2.1929
 3437SOL     OW21772   4.392   3.516  11.832 -0.3789 -0.4449  0.3323
 3437SOL    HW121773   4.327   3.504  11.901 -1.8677  0.1896 -0.9674
 3437SOL    HW221774   4.475   3.526  11.878 -0.7957  2.5460  0.4137
 3438SOL     OW21775   1.365   1.895   4.601 -0.2596  0.0063 -0.0905
 3438SOL    HW121776   1.311   1.918   4.525  0.0227 -2.6147 -1.1067
 3438SOL    HW221777   1.432   1.839   4.562  1.7671  2.4296 -0.0447
 3439SOL     OW21778   3.520   3.510   4.692  0.2520  0.2738 -0.0217
 3439SOL    HW121779   3.514   3.548   4.779 -0.8139  1.7076 -0.7201
 3439SOL    HW221780   3.561   3.583   4.645 -1.0444  0.4661 -0.8590
 3440SOL     OW21781   0.978   4.534   9.290  0.1826  0.5503 -0.0363
 3440SOL    HW121782   1.006   4.546   9.380 -0.8661  1.3096  0.1900
 3440SOL    HW221783   0.958   4.626   9.272  1.4977  0.3779 -2.4422
 3441SOL     OW21784   3.779   2.754   6.942  0.2349 -0.1778  0.2043
 3441SOL    HW121785   3.740   2.831   6.983  1.4556  0.3813  0.3107
 3441SOL    HW221786   3.700   2.708   6.913 -0.1002 -0.0408  0.9182
 3442SOL     OW21787   0.827   1.320   6.768 -1.0249  0.8462 -0.0800
 3442SOL    HW121788   0.734   1.332   6.782 -0.5396  1.0012  2.9947
 3442SOL    HW221789   0.823   1.250   6.703  3.2657  1.5945 -1.1978
 3443SOL     OW21790   3.281   1.797   7.612 -0.0303  0.0081  0.1029
 3443SOL    HW121791   3.191   1.766   7.604  0.6374 -1.7938 -0.4994
 3443SOL    HW221792   3.276   1.883   7.571 -2.0745 -0.5339 -0.7967
 3444SOL     OW21793   2.430   3.778   1.316 -0.5425  0.0189 -0.1694
 3444SOL    HW121794   2.463   3.747   1.231  1.5710 -0.0236  0.6530
 3444SOL    HW221795   2.338   3.756   1.305 -0.3351  0.1675 -2.2551
 3445SOL     OW21796   2.308   0.165   2.059 -0.3959 -0.1779 -0.1516
 3445SOL    HW121797   2.358   0.087   2.083 -1.1094 -1.2644 -2.2241
 3445SOL    HW221798   2.221   0.145   2.091 -1.6214  1.7322 -2.2839
 3446SOL     OW21799   0.115   1.054   8.236  0.5592  0.1302  0.0828
 3446SOL    HW121800   0.037   1.091   8.278  1.0519  0.6687  0.5122
 3446SOL    HW221801   0.121   0.965   8.271 -0.9708 -0.2321 -0.5757
 3447SOL     OW21802   0.739   0.921   1.944 -0.0572 -0.9645  0.0918
 3447SOL    HW121803   0.761   0.905   2.036 -2.4566 -3.1217  0.2931
 3447SOL    HW221804   0.814   0.879   1.903  0.2115  0.4834 -0.9193
 3448SOL     OW21805   0.290   1.241   2.147  0.4406  0.0100 -0.2642
 3448SOL    HW121806   0.345   1.318   2.132  1.7765 -0.6333  1.3332
 3448SOL    HW221807   0.287   1.206   2.058 -0.9674  0.4582 -0.3951
 3449SOL     OW21808   1.195   3.345   0.917 -0.7478 -0.4305  0.2057
 3449SOL    HW121809   1.184   3.346   1.012 -0.5420 -0.6977  0.2316
 3449SOL    HW221810   1.276   3.295   0.908 -0.8667 -0.7184  0.7923
 3450SOL     OW21811   4.512   3.728   1.331  0.4049 -0.4042  0.1540
 3450SOL    HW121812   4.547   3.683   1.254  0.1457  0.8569 -0.7078
 3450SOL    HW221813   4.593   3.738   1.381 -0.2652  3.4431  0.5125
 3451SOL     OW21814   0.371   0.644   1.241  0.0732  0.1737 -0.5355
 3451SOL    HW121815   0.381   0.596   1.324  0.2909 -1.2900 -1.4217
 3451SOL    HW221816   0.299   0.700   1.270 -0.3586 -0.3485 -0.6050
 3452SOL     OW21817   1.935   1.232   6.593  0.0792 -0.0091  0.3002
 3452SOL    HW121818   1.972   1.313   6.560 -0.1846 -0.0029  0.0209
 3452SOL    HW221819   2.005   1.207   6.654  0.3349 -0.1388 -0.0433
 3453SOL     OW21820   4.384   3.926   2.977 -0.0049  0.3646 -0.6426
 3453SOL    HW121821   4.434   3.903   2.898 -0.3531 -1.0342 -0.4693
 3453SOL    HW221822   4.448   3.971   3.032 -1.3716 -1.5210  2.4858
 3454SOL     OW21823   1.806   1.038   0.574  0.2786 -0.0851  0.4223
 3454SOL    HW121824   1.892   1.075   0.554 -1.2225  3.3573  0.3419
 3454SOL    HW221825   1.797   0.986   0.495  1.0022 -2.2482  1.7460
 3455SOL     OW21826   2.929   2.454  14.477 -0.2669  0.0258  0.5271
 3455SOL    HW121827   2.958   2.440  14.567  1.3414  0.6140  0.0984
 3455SOL    HW221828   2.880   2.536  14.483  1.0050  0.8349 -0.0286
 3456SOL     OW21829   1.857   4.398  13.805  0.1741 -0.4340  0.4359
 3456SOL    HW121830   1.806   4.317  13.804  1.1338 -1.0407  0.5256
 3456SOL    HW221831   1.833   4.427  13.893 -1.6119  1.4147 -0.6711
 3457SOL     OW21832   0.527   1.201   2.438  0.1965  0.0064  0.1618
 3457SOL    HW121833   0.471   1.276   2.416  0.5280  0.5416  1.1184
 3457SOL    HW221834   0.604   1.238   2.480 -1.2761  1.1251  1.8906
 3458SOL     OW21835   3.382   4.256  17.621 -0.2996  0.2099 -0.3495
 3458SOL    HW121836   3.434   4.244  17.542 -0.7124  1.2381 -0.7761
 3458SOL    HW221837   3.452   4.272  17.685  0.0512 -2.4585 -0.0640
 3459SOL     OW21838   1.871   3.477  13.961 -0.2894 -0.3301  0.3264
 3459SOL    HW121839   1.817   3.455  14.037  1.8770 -1.5049  1.5155
 3459SOL    HW221840   1.823   3.437  13.888  0.5468 -2.0775  0.7590
 3460SOL     OW21841   0.112   1.955  17.675  1.4067 -0.0871  0.3868
 3460SOL    HW121842   0.182   1.982  17.616 -0.5756  1.8058 -1.1026
 3460SOL    HW221843   0.049   2.027  17.666  2.7630  0.5094 -4.2453
 3461SOL     OW21844   2.297   1.175   9.011 -0.0818 -0.5440 -0.3733
 3461SOL    HW121845   2.272   1.110   8.945 -0.0357 -1.7232  0.7677
 3461SOL    HW221846   2.309   1.257   8.964 -2.0783 -1.5725 -2.6880
 3462SOL     OW21847   0.085   2.294   7.480  0.2867  0.3180  0.5610
 3462SOL    HW121848   0.103   2.284   7.573 -3.5261  0.1155  1.2756
 3462SOL    HW221849   0.177   2.299   7.454 -0.2671  0.3032 -1.4304
 3463SOL     OW21850   3.163   2.597  15.203 -0.4030 -0.3429  0.1885
 3463SOL    HW121851   3.156   2.685  15.240 -0.4957 -0.6411  0.8839
 3463SOL    HW221852   3.072   2.571  15.194 -0.9704  1.1948  1.5589
 3464SOL     OW21853   2.994   4.151   3.949 -0.3809  0.3308 -0.7044
 3464SOL    HW121854   2.913   4.159   3.898 -0.6753 -1.4176 -0.5198
 3464SOL    HW221855   3.057   4.116   3.887  1.6273  1.4184  0.7224
 3465SOL     OW21856   4.319   4.422   3.275 -0.7938  0.0072 -0.1212
 3465SOL    HW121857   4.245   4.481   3.291 -1.9633 -1.5867  0.4280
 3465SOL    HW221858   4.343   4.453   3.188  0.0477 -2.6328 -0.8168
 3466SOL     OW21859   1.335   1.983   1.455  0.6270 -0.1613  0.1634
 3466SOL    HW121860   1.374   1.926   1.520 -0.7613 -0.7415  0.4945
 3466SOL    HW221861   1.339   2.070   1.496  1.0772 -0.1906  0.1811
 3467SOL     OW21862   0.494   3.706   0.549  0.0892  0.3134  0.3967
 3467SOL    HW121863   0.580   3.680   0.581 -1.2138 -2.1373  1.8626
 3467SOL    HW221864   0.476   3.627   0.498  0.1370  0.2608  0.4613
 3468SOL     OW21865   0.467   3.397   5.306  0.2422 -0.9817  0.4165
 3468SOL    HW121866   0.557   3.384   5.337  0.3072  0.3461  0.8065
 3468SOL    HW221867   0.421   3.323   5.344 -0.6070 -0.4757  0.3754
 3469SOL     OW21868   2.470   4.354   7.925 -0.5890  0.1235  0.3953
 3469SOL    HW121869   2.423   4.421   7.874 -1.4448 -0.7352  0.0530
 3469SOL    HW221870   2.399   4.300   7.961  0.0260  0.0645  1.5061
 3470SOL     OW21871   1.954   0.731  12.579  0.3681 -0.2650  0.0482
 3470SOL    HW121872   2.038   0.751  12.538 -0.8044  2.1730 -1.1380
 3470SOL    HW221873   1.970   0.768  12.666 -1.3822  0.7466 -0.0718
 3471SOL     OW21874   1.668   3.231  10.688 -0.2936  0.0392 -0.4260
 3471SOL    HW121875   1.676   3.138  10.667 -3.9408  0.0375 -1.8443
 3471SOL    HW221876   1.584   3.223  10.733 -0.1561  2.3576  0.2206
 3472SOL     OW21877   3.413   3.083   8.167 -0.0423  0.0541  0.0944
 3472SOL    HW121878   3.437   3.006   8.220 -0.3890 -0.7026 -0.8532
 3472SOL    HW221879   3.328   3.052   8.136  0.5432  0.8562 -2.2682
 3473SOL     OW21880   2.477   1.755  13.299 -0.3383 -0.3871 -0.2273
 3473SOL    HW121881   2.564   1.713  13.295 -1.5499 -2.8227 -1.6914
 3473SOL    HW221882   2.441   1.716  13.219  0.3079  0.1409 -0.7832
 3474SOL     OW21883   4.510   0.013  15.190  0.1712 -0.2917 -0.0638
 3474SOL    HW121884   4.518   0.098  15.148  0.4404 -0.4884 -0.4105
 3474SOL    HW221885   4.586   4.691  15.152  0.3470  0.3050 -0.3866
 3475SOL     OW21886   1.816   2.690   5.051 -0.0510  0.1823  0.2067
 3475SOL    HW121887   1.888   2.745   5.084 -0.2949  1.6356 -1.6671
 3475SOL    HW221888   1.854   2.628   4.989  1.2059  1.0869  0.0581
 3476SOL     OW21889   0.036   4.430   7.111  0.3644 -0.0484  0.1149
 3476SOL    HW121890   0.080   4.416   7.195 -0.6756  0.0874  0.6826
 3476SOL    HW221891   4.704   4.351   7.099 -1.4895  1.3293 -0.5918
 3477SOL     OW21892   3.053   3.300  17.169 -0.2410 -0.1571  0.7455
 3477SOL    HW121893   3.091   3.243  17.102 -1.9756  1.0611 -1.2707
 3477SOL    HW221894   3.130   3.347  17.202  0.6065 -1.1624  0.2102
 3478SOL     OW21895   0.676   1.101   8.354  0.3504  0.2590  0.1391
 3478SOL    HW121896   0.723   1.124   8.274  1.4360 -0.9553  0.4349
 3478SOL    HW221897   0.646   1.189   8.379 -2.2627 -0.6194  0.1000
 3479SOL     OW21898   4.418   3.137   4.754  0.0838  0.3859 -0.1585
 3479SOL    HW121899   4.401   3.185   4.673  0.7692  1.2756  0.2250
 3479SOL    HW221900   4.508   3.109   4.733 -0.2475 -1.4622  0.8890
 3480SOL     OW21901   1.064   4.329  16.307  0.4290 -0.2876 -0.1508
 3480SOL    HW121902   1.103   4.280  16.234  0.8488 -0.8535  0.4539
 3480SOL    HW221903   0.977   4.290  16.312  0.5752 -0.8319 -1.8133
 3481SOL     OW21904   2.906   3.566   6.105  0.2867 -0.6906  0.0693
 3481SOL    HW121905   2.838   3.606   6.050 -0.9259 -0.4344  1.7700
 3481SOL    HW221906   2.958   3.526   6.035  1.0228 -0.5703  0.5559
 3482SOL     OW21907   0.056   4.486   4.853 -0.3183  0.5338 -0.3548
 3482SOL    HW121908   4.686   4.476   4.825 -0.0271 -2.2589 -0.3319
 3482SOL    HW221909   0.094   4.539   4.784  0.1358 -0.5381 -0.9264
 3483SOL     OW21910   2.300   0.896   2.221 -0.0871  0.8461 -0.0321
 3483SOL    HW121911   2.215   0.885   2.178 -0.5375 -2.5462  1.7781
 3483SOL    HW221912   2.271   0.957   2.288 -2.3354 -0.6096  0.3106
 3484SOL     OW21913   0.311   4.059   8.848 -0.1668 -0.0705 -0.3056
 3484SOL    HW121914   0.384   4.052   8.909  1.6488  1.9329 -2.2338
 3484SOL    HW221915   0.231   4.043   8.897 -0.0218  1.1249  0.3210
 3485SOL     OW21916   1.670   2.743   3.049  0.0957 -0.2135  0.0201
 3485SOL    HW121917   1.647   2.683   3.119  0.7712  0.6764  1.0054
 3485SOL    HW221918   1.696   2.681   2.981 -0.3495 -0.8012  0.3917
 3486SOL     OW21919   1.743   4.254  10.174 -0.4961  0.4430 -0.1395
 3486SOL    HW121920   1.756   4.162  10.197  0.8189  0.3296 -1.3763
 3486SOL    HW221921   1.818   4.263  10.115 -0.3642 -3.2239 -0.5489
 3487SOL     OW21922   4.115   3.370  10.051  0.2056  0.6495 -0.1832
 3487SOL    HW121923   4.114   3.341   9.960  1.2076  0.9104 -0.2695
 3487SOL    HW221924   4.030   3.345  10.088  0.0667  0.6375 -0.5126
 3488SOL     OW21925   2.202   1.192  16.509 -0.5524 -0.4731 -0.2811
 3488SOL    HW121926   2.224   1.146  16.589 -0.1001  2.0841  1.0680
 3488SOL    HW221927   2.210   1.126  16.441  0.1299  2.9087 -3.5207
 3489SOL     OW21928   1.872   3.373   4.742 -0.2753  0.2623 -0.1936
 3489SOL    HW121929   1.965   3.350   4.740  0.0914  1.5910  2.0543
 3489SOL    HW221930   1.857   3.405   4.653 -2.3375 -1.2011 -0.3797
 3490SOL     OW21931   0.413   1.767   9.205  0.6498 -0.0303  0.5209
 3490SOL    HW121932   0.429   1.834   9.138 -1.1413 -0.6232 -0.4961
 3490SOL    HW221933   0.469   1.804   9.274 -0.7531 -0.3323  1.8198
 3491SOL     OW21934   1.482   2.374   2.493  0.2378  0.0963  0.4466
 3491SOL    HW121935   1.461   2.402   2.582  3.3112 -1.2982  1.6087
 3491SOL    HW221936   1.393   2.347   2.469 -0.0396  1.8845 -0.4957
 3492SOL     OW21937   2.175   0.130  14.156  0.0527 -0.2967  0.4432
 3492SOL    HW121938   2.154   0.222  14.174  1.0432  0.8146 -4.0909
 3492SOL    HW221939   2.203   0.101  14.242  0.0147 -1.1899  0.1508
 3493SOL     OW21940   3.007   2.716   5.539  0.0221  0.1476 -0.1083
 3493SOL    HW121941   2.997   2.687   5.630 -2.0300 -0.2730 -0.4721
 3493SOL    HW221942   3.006   2.635   5.488  0.4812 -1.0117  1.7250
 3494SOL     OW21943   0.281   2.361   1.583  0.0376  0.3407 -0.2981
 3494SOL    HW121944   0.292   2.359   1.488 -1.0092  1.1649 -0.4406
 3494SOL    HW221945   0.369   2.390   1.608  0.6627 -2.2895  0.5229
 3495SOL     OW21946   0.997   4.470  16.045 -0.1232  0.4396  0.2477
 3495SOL    HW121947   1.005   4.564  16.031  1.4079  0.7543  3.4851
 3495SOL    HW221948   0.905   4.449  16.025 -0.0321 -0.8491  1.2067
 3496SOL     OW21949   4.096   1.506   9.746  0.2278 -0.2836  0.1577
 3496SOL    HW121950   4.014   1.555   9.750  0.8138  0.4640  2.6482
 3496SOL    HW221951   4.132   1.569   9.683  3.0099 -1.4864  0.5550
 3497SOL     OW21952   0.019   2.327   1.686  0.2292 -0.3947  0.0818
 3497SOL    HW121953   0.093   2.364   1.639 -0.1326  1.9536  1.3209
 3497SOL    HW221954   0.048   2.240   1.660  4.2395  0.9849 -0.0798
 3498SOL     OW21955   1.646   1.823   2.004  0.6749 -0.0973  0.2040
 3498SOL    HW121956   1.736   1.854   2.011  0.1781  0.9160  1.8824
 3498SOL    HW221957   1.646   1.779   1.919  2.5999  0.8330 -0.2644
 3499SOL     OW21958   2.564   2.082  13.538  1.5794  0.5805 -0.3587
 3499SOL    HW121959   2.497   2.017  13.555  1.5113  0.6938 -0.1964
 3499SOL    HW221960   2.567   2.080  13.442  1.0295  1.3230 -0.3957
 3500SOL     OW21961   2.896   3.058  11.852  0.6414 -0.3435  0.2223
 3500SOL    HW121962   2.812   3.071  11.895  0.8625  1.0951  0.2191
 3500SOL    HW221963   2.952   3.127  11.889 -0.1932  1.7345 -2.3684
 3501SOL     OW21964   3.863   0.853   5.172  0.3723 -0.0013 -0.3269
 3501SOL    HW121965   3.815   0.893   5.245  0.6763  1.0286 -0.6864
 3501SOL    HW221966   3.843   0.915   5.102 -0.3683 -1.6868 -1.5978
 3502SOL     OW21967   2.110   0.543   2.238  0.2239 -0.5020 -0.8854
 3502SOL    HW121968   2.131   0.462   2.285  0.9771  1.4102  2.0710
 3502SOL    HW221969   2.074   0.523   2.152 -1.2170  1.2924 -0.6920
 3503SOL     OW21970   1.712   4.337   7.514 -0.0004 -0.0297  0.1483
 3503SOL    HW121971   1.730   4.253   7.470 -1.0909  0.3327 -0.9889
 3503SOL    HW221972   1.774   4.404   7.485 -1.5521  1.6238  0.6651
 3504SOL     OW21973   3.856   1.834   3.596  0.1052  0.1283  0.2642
 3504SOL    HW121974   3.873   1.879   3.514 -1.7101  0.6683  0.1947
 3504SOL    HW221975   3.942   1.800   3.623 -0.5386  0.3834  2.6624
 3505SOL     OW21976   0.974   4.438   6.000 -0.6981 -0.1649 -0.5995
 3505SOL    HW121977   1.043   4.503   5.986 -1.8002  0.9205 -1.0292
 3505SOL    HW221978   0.920   4.461   5.925 -1.1041  1.1357  0.0888
 3506SOL     OW21979   3.625   2.744   6.538 -0.2972  0.2287 -0.2352
 3506SOL    HW121980   3.710   2.745   6.583  0.4900 -2.3780 -1.6227
 3506SOL    HW221981   3.647   2.704   6.453 -0.4339 -0.3160 -0.0121
 3507SOL     OW21982   1.329   4.414   3.416 -0.0171  0.1264  0.3118
 3507SOL    HW121983   1.322   4.319   3.405  0.3686  0.1869 -0.4151
 3507SOL    HW221984   1.381   4.441   3.341 -0.0808  0.6009  0.4374
 3508SOL     OW21985   4.297   1.234   3.462 -0.5513 -0.5606  0.1679
 3508SOL    HW121986   4.252   1.296   3.518 -0.9375 -0.8660  0.1935
 3508SOL    HW221987   4.388   1.259   3.480 -1.0116  1.7755 -0.7889
 3509SOL     OW21988   1.904   1.661  10.303 -0.2652  0.2419  0.5556
 3509SOL    HW121989   1.836   1.631  10.362  0.0961 -1.3364  0.1667
 3509SOL    HW221990   1.867   1.658  10.214  0.8572 -3.1131  0.2180
 3510SOL     OW21991   3.370   2.906   3.352  0.0974  0.1268  0.0517
 3510SOL    HW121992   3.444   2.917   3.293  1.8399  1.2978  2.4491
 3510SOL    HW221993   3.406   2.944   3.433  0.6286 -1.0284  0.3533
 3511SOL     OW21994   3.083   0.306   3.590  0.5391  0.2069 -0.2843
 3511SOL    HW121995   3.167   0.281   3.627  0.9581 -1.4632 -2.3214
 3511SOL    HW221996   3.046   0.218   3.582 -2.1782  1.2769  0.4505
 3512SOL     OW21997   0.780   3.653   0.612  0.4011  0.4201  0.5820
 3512SOL    HW121998   0.871   3.650   0.583  0.5051  0.0575  0.9349
 3512SOL    HW221999   0.743   3.566   0.593  1.2651 -0.0152  0.8844
 3513SOL     OW22000   3.331   2.614   1.057  0.1356 -0.2260  0.1092
 3513SOL    HW122001   3.296   2.582   1.140  0.9888 -0.2378  0.4700
 3513SOL    HW222002   3.400   2.676   1.081 -0.3719  0.6844 -0.7800
 3514SOL     OW22003   3.988   4.372   6.730 -0.4207  0.9082 -0.2094
 3514SOL    HW122004   3.943   4.408   6.654 -0.7603 -0.1670 -0.5181
 3514SOL    HW222005   4.068   4.336   6.691 -0.5945  0.7097 -0.3889
 3515SOL     OW22006   4.711   3.050  11.199 -0.4510  0.7163  0.3618
 3515SOL    HW122007   0.059   3.080  11.257  0.0119  0.8711 -0.2662
 3515SOL    HW222008   0.034   3.019  11.120 -2.1555 -0.5149 -0.1279
 3516SOL     OW22009   2.898   0.517   0.381 -0.4356  0.6430 -0.2960
 3516SOL    HW122010   2.918   0.429   0.348  0.9081  1.1625 -0.8658
 3516SOL    HW222011   2.979   0.559   0.351 -0.0700  1.3768  1.6768
 3517SOL     OW22012   2.693   0.787  13.334  0.9629  0.3805 -0.3067
 3517SOL    HW122013   2.661   0.876  13.316  1.2270  0.6701  0.6891
 3517SOL    HW222014   2.779   0.784  13.293 -0.1891  0.5463 -2.7700
 3518SOL     OW22015   0.381   2.576   2.613  0.3940 -0.1118  0.7525
 3518SOL    HW122016   0.462   2.548   2.571 -0.2785  1.1698 -1.3526
 3518SOL    HW222017   0.350   2.495   2.653 -0.6869 -0.0414  0.0455
 3519SOL     OW22018   1.303   3.546   7.896 -0.2902 -0.4395  0.1059
 3519SOL    HW122019   1.271   3.460   7.922  0.2851 -1.4044 -2.3873
 3519SOL    HW222020   1.243   3.598   7.949 -2.0056 -3.0940  0.7880
 3520SOL     OW22021   1.969   1.380   7.452 -0.1984 -0.5985 -0.4372
 3520SOL    HW122022   1.890   1.327   7.463 -0.8315  1.0086  2.6735
 3520SOL    HW222023   1.972   1.374   7.357  1.3745  1.1188 -0.4838
 3521SOL     OW22024   0.714   1.378   4.543 -0.0166 -0.8484 -0.2415
 3521SOL    HW122025   0.680   1.319   4.476 -1.5818 -1.5976  1.1923
 3521SOL    HW222026   0.631   1.425   4.555  0.3231  0.2347 -2.2009
 3522SOL     OW22027   0.219   3.890   4.177  0.5047 -0.6379  0.2620
 3522SOL    HW122028   0.290   3.837   4.215  0.4945  0.7047  2.1695
 3522SOL    HW222029   0.268   3.972   4.183 -0.2171 -0.3151  1.7006
 3523SOL     OW22030   0.019   1.405   0.384  0.1611  0.1847  0.3913
 3523SOL    HW122031   4.672   1.464   0.415  1.3951  1.9684 -0.2858
 3523SOL    HW222032   0.013   1.349   0.462  1.9370  1.5353  1.4982
 3524SOL     OW22033   3.857   4.479   3.396  0.3313  0.2439 -0.1861
 3524SOL    HW122034   3.892   4.393   3.421 -0.0738 -0.4568 -2.0222
 3524SOL    HW222035   3.794   4.455   3.328 -0.9649  1.4418  0.5861
 3525SOL     OW22036   3.169   4.599  16.040  0.1375 -0.3600  0.7675
 3525SOL    HW122037   3.092   4.545  16.023 -0.8078  0.3077  2.9731
 3525SOL    HW222038   3.112   4.675  16.043  0.8534  0.1858  0.5990
 3526SOL     OW22039   3.318   3.303   3.511  0.4067 -0.0205 -0.0515
 3526SOL    HW122040   3.259   3.285   3.585  0.3339  0.4330 -0.0011
 3526SOL    HW222041   3.260   3.350   3.452 -0.2536 -2.3592 -1.2959
 3527SOL     OW22042   1.365   0.915   0.524 -0.4848  0.3395  0.2147
 3527SOL    HW122043   1.356   1.002   0.487 -2.1201 -0.3168 -0.9048
 3527SOL    HW222044   1.449   0.927   0.570 -0.2469 -1.6187  0.3236
 3528SOL     OW22045   3.948   0.228   5.858  0.2555 -0.3872 -0.0267
 3528SOL    HW122046   3.871   0.191   5.816  2.1611  0.0371 -3.9439
 3528SOL    HW222047   3.997   0.260   5.781  0.1586 -2.6922 -1.0588
 3529SOL     OW22048   2.440   1.097   1.927 -0.2764  0.1314  0.5789
 3529SOL    HW122049   2.403   1.155   1.861  0.2554  0.4041  0.5185
 3529SOL    HW222050   2.402   1.128   2.009 -2.3302  1.6295 -0.9412
 3530SOL     OW22051   1.097   4.666   6.215 -0.4114 -0.3724  0.4747
 3530SOL    HW122052   1.136   4.578   6.215 -0.2837 -0.3073 -0.7990
 3530SOL    HW222053   1.089   4.679   6.121  1.1126  0.7995  0.5151
 3531SOL     OW22054   4.617   0.744   8.426 -0.5368  0.2056  0.0366
 3531SOL    HW122055   4.670   0.823   8.441 -1.3001  0.3559  1.8981
 3531SOL    HW222056   4.641   0.747   8.333 -1.2094  0.7950 -0.1201
 3532SOL     OW22057   3.424   1.997   6.704  0.2872 -0.2795 -0.0151
 3532SOL    HW122058   3.413   1.902   6.715 -0.6138  0.1601  3.0100
 3532SOL    HW222059   3.366   2.011   6.629 -0.6768 -0.4541  0.6960
 3533SOL     OW22060   3.565   3.267   9.090 -0.7367  0.0944  0.0602
 3533SOL    HW122061   3.632   3.333   9.070  0.0872 -1.0293 -0.8974
 3533SOL    HW222062   3.610   3.191   9.128  0.0525 -0.0283 -1.1475
 3534SOL     OW22063   0.186   4.414  13.110 -0.5454  0.2428  0.5318
 3534SOL    HW122064   0.182   4.319  13.110 -0.2089  0.2264 -0.4155
 3534SOL    HW222065   0.105   4.432  13.157  0.3894  0.9978  1.8359
 3535SOL     OW22066   4.542   0.849   6.812  0.7609  0.2939  0.2496
 3535SOL    HW122067   4.571   0.770   6.765  1.6264  1.1965 -0.7323
 3535SOL    HW222068   4.620   0.855   6.867  0.6053 -2.8255  0.8145
 3536SOL     OW22069   1.964   3.311   5.100  0.1028 -0.4009  0.1319
 3536SOL    HW122070   1.935   3.228   5.062  0.1798 -0.6124  0.5306
 3536SOL    HW222071   1.951   3.289   5.192 -0.2766  0.3235  0.2564
 3537SOL     OW22072   1.233   3.690   8.880 -0.3892  0.3364  0.2615
 3537SOL    HW122073   1.310   3.712   8.827 -0.8080  3.1858  0.8193
 3537SOL    HW222074   1.167   3.717   8.816 -1.8435 -1.2131  1.1159
 3538SOL     OW22075   2.703   0.012   2.768 -0.4925 -0.4884 -0.0489
 3538SOL    HW122076   2.669   4.650   2.735  0.8819 -1.2305  0.4282
 3538SOL    HW222077   2.712   0.068   2.690 -0.4184  2.0934  1.8091
 3539SOL     OW22078   0.391   4.151  11.037 -0.1105 -0.1808  0.1149
 3539SOL    HW122079   0.461   4.138  11.101 -1.3118 -2.5069  0.9384
 3539SOL    HW222080   0.386   4.246  11.048  0.1327  0.0418 -1.7343
 3540SOL     OW22081   0.565   3.320  16.809 -0.1894  0.4069 -0.3035
 3540SOL    HW122082   0.624   3.390  16.836 -0.2996  0.1755  0.5330
 3540SOL    HW222083   0.546   3.359  16.723  1.4039 -0.0924 -0.8816
 3541SOL     OW22084   3.347   0.964   1.742  0.6701  0.6499  0.2087
 3541SOL    HW122085   3.311   0.961   1.831  0.8524  2.3836  0.3417
 3541SOL    HW222086   3.287   1.024   1.698  0.3536  0.2355  0.0814
 3542SOL     OW22087   1.066   2.811  15.621 -0.4964 -0.2995 -0.0913
 3542SOL    HW122088   1.039   2.743  15.683  1.5492 -1.9249 -1.0120
 3542SOL    HW222089   1.058   2.761  15.541  1.6825  0.2874 -0.6743
 3543SOL     OW22090   2.498   0.443   0.307  0.1081  0.2947  0.1486
 3543SOL    HW122091   2.576   0.400   0.273 -1.5630 -2.5857 -0.0015
 3543SOL    HW222092   2.463   0.491   0.232  2.1399 -0.4709 -1.2636
 3544SOL     OW22093   3.033   3.358   2.558  0.0524 -0.3820 -0.5560
 3544SOL    HW122094   3.086   3.407   2.495  0.7538  0.3092  0.5527
 3544SOL    HW222095   3.037   3.416   2.634 -0.1509  0.1123 -0.9299
 3545SOL     OW22096   2.664   0.173   0.532 -0.3651 -0.3988  0.1593
 3545SOL    HW122097   2.621   0.254   0.557 -0.3030 -0.3403  0.0742
 3545SOL    HW222098   2.623   0.151   0.448  0.1080 -1.5123  0.2134
 3546SOL     OW22099   1.808   1.780   6.783  0.3961 -0.2578 -0.3691
 3546SOL    HW122100   1.800   1.754   6.691  0.9037  1.3584 -0.8620
 3546SOL    HW222101   1.817   1.694   6.824  1.1262 -0.3530 -0.7241
 3547SOL     OW22102   0.396   4.678   4.737  0.5975 -0.0105 -0.3406
 3547SOL    HW122103   0.436   4.699   4.652  2.3560 -0.9515  0.2402
 3547SOL    HW222104   0.314   0.002   4.721 -0.3332 -1.1497  1.2191
 3548SOL     OW22105   4.045   3.548   7.091 -0.1056 -0.4281 -0.1450
 3548SOL    HW122106   3.977   3.615   7.086 -1.4502 -1.6778  1.3678
 3548SOL    HW222107   3.993   3.476   7.056  0.6519 -0.3474 -1.4132
 3549SOL     OW22108   1.400   3.650   5.456  0.3357 -0.1334 -0.3283
 3549SOL    HW122109   1.372   3.643   5.547  0.9204 -1.8299 -0.2699
 3549SOL    HW222110   1.334   3.592   5.418  0.6617  0.6364 -2.0747
 3550SOL     OW22111   4.372   1.647   5.983  0.3290  0.1555  0.4225
 3550SOL    HW122112   4.317   1.571   5.999  1.0964 -0.1626  1.5153
 3550SOL    HW222113   4.378   1.692   6.067  2.5363 -1.1282  0.9397
 3551SOL     OW22114   3.620   0.682   8.578 -0.6757  0.2418 -0.0805
 3551SOL    HW122115   3.657   0.764   8.611  4.3154 -1.3179 -1.7103
 3551SOL    HW222116   3.552   0.662   8.641 -1.0767 -3.5142 -1.7162
 3552SOL     OW22117   1.573   4.586   5.388  0.0474 -0.0695  1.0456
 3552SOL    HW122118   1.536   4.589   5.299 -1.1185  0.9407  1.5548
 3552SOL    HW222119   1.547   4.499   5.416  0.3058 -0.6272 -0.4395
 3553SOL     OW22120   3.870   2.711   6.695  0.1335 -0.3063 -0.2972
 3553SOL    HW122121   3.840   2.719   6.786  2.9977  2.1188  0.4354
 3553SOL    HW222122   3.957   2.672   6.703  0.9032  1.4733  0.1071
 3554SOL     OW22123   0.658   1.200   5.858  0.2937 -0.2206 -0.6064
 3554SOL    HW122124   0.669   1.284   5.814 -0.4079 -1.2022 -2.6641
 3554SOL    HW222125   0.564   1.192   5.846  0.3206 -0.5045 -0.6318
 3555SOL     OW22126   2.102   3.972   3.463 -0.2966 -0.0587  0.5332
 3555SOL    HW122127   2.099   3.939   3.552  2.9103 -0.0123  0.6468
 3555SOL    HW222128   2.049   4.051   3.473  1.1950  0.9264  0.7547
 3556SOL     OW22129   2.603   0.186   8.762  0.2662 -0.2442  0.1209
 3556SOL    HW122130   2.643   0.103   8.789  1.6975  0.4689  0.1828
 3556SOL    HW222131   2.534   0.165   8.698  1.4972 -0.2939 -1.1946
 3557SOL     OW22132   2.169   3.376   7.244 -0.2277 -0.0271  0.3300
 3557SOL    HW122133   2.084   3.345   7.276 -1.7998  2.1576 -1.7217
 3557SOL    HW222134   2.139   3.410   7.159  1.3142 -1.3572 -0.7534
 3558SOL     OW22135   0.238   1.974   4.372 -0.0419  0.1298 -0.6775
 3558SOL    HW122136   0.234   2.026   4.291  2.3080 -0.8398 -1.3831
 3558SOL    HW222137   0.289   2.038   4.422 -1.2656  1.0065 -0.5334
 3559SOL     OW22138   2.393   3.387   5.738  0.2533  0.7993  0.4047
 3559SOL    HW122139   2.449   3.311   5.723  1.9076  2.5272 -2.2722
 3559SOL    HW222140   2.423   3.416   5.824  0.9360  1.0136  0.0969
 3560SOL     OW22141   1.284   2.054  12.997 -0.1082 -0.4155 -0.3851
 3560SOL    HW122142   1.301   2.141  12.962  0.5531 -0.4640 -0.1844
 3560SOL    HW222143   1.241   2.080  13.078 -0.0759 -0.8088 -0.2433
 3561SOL     OW22144   4.101   4.225   3.149 -0.4046  0.5039 -0.5118
 3561SOL    HW122145   4.035   4.200   3.084  0.5515  1.1400 -1.7439
 3561SOL    HW222146   4.080   4.318   3.151  2.0599  1.0123  1.5401
 3562SOL     OW22147   1.050   0.892   4.242 -0.1095 -0.1797  0.4247
 3562SOL    HW122148   1.060   0.917   4.333 -1.0498  1.1093  0.1682
 3562SOL    HW222149   1.115   0.822   4.232 -2.0002 -1.9015  0.1463
 3563SOL     OW22150   4.631   4.664   2.775  0.1730  0.0191  0.3186
 3563SOL    HW122151   4.649   4.672   2.681  2.8013  1.2599  0.9199
 3563SOL    HW222152   4.622   0.034   2.802  3.0633  0.7123 -1.0676
 3564SOL     OW22153   1.631   0.079  12.445 -0.2710 -0.3436  0.6388
 3564SOL    HW122154   1.541   0.085  12.413 -0.6027  2.8870  2.1952
 3564SOL    HW222155   1.618   0.072  12.540 -3.2912  0.0967  0.2436
 3565SOL     OW22156   3.579   3.969   5.233 -0.2907 -0.3347 -0.1597
 3565SOL    HW122157   3.598   3.888   5.279 -0.1128 -0.8982 -1.2437
 3565SOL    HW222158   3.484   3.966   5.245 -0.0858 -2.5887  0.7306
 3566SOL     OW22159   0.155   3.202   2.052  0.1706  1.0133 -0.1745
 3566SOL    HW122160   0.103   3.259   2.109  1.5414  0.4438  1.6115
 3566SOL    HW222161   0.193   3.138   2.112 -2.1934 -0.7840 -0.5725
 3567SOL     OW22162   1.164   3.954  15.927 -0.2122  0.5578  0.3484
 3567SOL    HW122163   1.148   3.915  16.013  2.4002 -1.1947  0.0348
 3567SOL    HW222164   1.117   4.036  15.939 -1.0487  0.1170  0.1013
 3568SOL     OW22165   2.948   0.725   5.225 -0.3249  0.3900 -0.2719
 3568SOL    HW122166   2.961   0.766   5.310  2.6489  0.6374 -0.8450
 3568SOL    HW222167   2.985   0.792   5.167 -0.9800 -0.1734 -1.3417
 3569SOL     OW22168   2.698   2.661   3.474 -0.0080  0.1839  0.1697
 3569SOL    HW122169   2.775   2.712   3.449 -0.2035 -0.4206 -1.6916
 3569SOL    HW222170   2.643   2.686   3.400  0.1211  0.8684  0.3063
 3570SOL     OW22171   2.654   1.668   3.855  0.5192 -0.3501 -0.0661
 3570SOL    HW122172   2.647   1.591   3.911  2.9957 -1.5163 -1.3276
 3570SOL    HW222173   2.572   1.667   3.806  0.8139 -0.1014 -0.5629
 3571SOL     OW22174   4.092   2.844   3.326  0.8562  0.1098  0.6529
 3571SOL    HW122175   4.028   2.903   3.288  0.0942  0.1452  1.9870
 3571SOL    HW222176   4.045   2.820   3.406  1.1437 -0.0700  0.7693
 3572SOL     OW22177   3.353   0.343   6.354 -0.5240 -0.0613 -0.5423
 3572SOL    HW122178   3.298   0.284   6.405  0.5434 -0.0105  0.6660
 3572SOL    HW222179   3.388   0.414   6.409 -0.6394  2.3276 -3.5309
 3573SOL     OW22180   4.033   2.014  17.099 -0.0786  0.1297 -0.4160
 3573SOL    HW122181   4.029   2.014  17.003 -0.9133 -0.7357 -0.3806
 3573SOL    HW222182   4.005   1.925  17.118  0.7550  0.4432  2.3081
 3574SOL     OW22183   0.983   3.662   7.779 -0.4284  0.0299  1.2915
 3574SOL    HW122184   1.050   3.709   7.829  0.8096  0.2693 -0.5851
 3574SOL    HW222185   0.997   3.703   7.693  1.9454  1.6695  2.4434
 3575SOL     OW22186   2.412   2.481   7.544  0.3767 -0.6730  0.4226
 3575SOL    HW122187   2.328   2.456   7.582  1.3184 -0.6808  2.5093
 3575SOL    HW222188   2.458   2.399   7.528 -0.5940 -0.9997 -0.6930
 3576SOL     OW22189   1.908   0.288  16.698 -0.0717  0.7002  0.7143
 3576SOL    HW122190   1.925   0.290  16.604 -1.7119  1.8878  0.4429
 3576SOL    HW222191   1.984   0.336  16.733  1.2374 -0.5713 -0.3828
 3577SOL     OW22192   0.278   2.775  14.534 -0.3757  0.8608 -0.4445
 3577SOL    HW122193   0.261   2.819  14.617  1.1170 -1.0112  0.8615
 3577SOL    HW222194   0.201   2.719  14.525 -0.0697  0.0378  2.0474
 3578SOL     OW22195   0.766   3.916   8.331  0.2557 -0.2971  0.1465
 3578SOL    HW122196   0.712   3.906   8.408  1.4518 -1.9819  0.7675
 3578SOL    HW222197   0.829   3.982   8.361  2.0094 -1.2253 -1.4402
 3579SOL     OW22198   4.564   4.661  14.450  0.3260 -0.2629 -0.0854
 3579SOL    HW122199   4.570   4.609  14.530 -1.0835  0.6893  0.6580
 3579SOL    HW222200   4.637   4.721  14.464 -0.7166  0.7117  1.2913
 3580SOL     OW22201   0.088   2.599   5.813 -0.1296  0.3155 -0.3002
 3580SOL    HW122202   0.085   2.687   5.851  2.3511  0.3952 -0.2505
 3580SOL    HW222203   0.031   2.597   5.736 -2.7782  1.2427  1.6641
 3581SOL     OW22204   0.907   1.750   5.060  0.3640 -0.2830  0.2329
 3581SOL    HW122205   0.937   1.742   4.969 -1.1094  1.9743 -0.4509
 3581SOL    HW222206   0.813   1.747   5.040  0.2055 -0.3434  0.9923
 3582SOL     OW22207   1.016   0.255   3.030  0.1605  0.4964  0.1233
 3582SOL    HW122208   0.981   0.341   3.007 -0.8580 -0.3684 -1.5967
 3582SOL    HW222209   0.978   0.248   3.117 -2.6510  0.4683 -1.1257
 3583SOL     OW22210   2.376   1.004   3.873  0.3416  0.4284  0.2471
 3583SOL    HW122211   2.316   1.006   3.799 -1.6928 -0.3755  1.8895
 3583SOL    HW222212   2.356   0.913   3.895 -0.7809  1.1179  2.1248
 3584SOL     OW22213   2.004   2.851   5.608 -0.0567 -0.1272 -0.2883
 3584SOL    HW122214   1.975   2.769   5.569  2.5929 -1.3935  0.4202
 3584SOL    HW222215   2.045   2.826   5.691  0.6355  1.2135 -0.2208
 3585SOL     OW22216   0.690   0.203   5.756 -0.3849 -0.0371  0.5902
 3585SOL    HW122217   0.657   0.264   5.691 -0.6299  0.3561  1.0837
 3585SOL    HW222218   0.763   0.156   5.714 -1.8847 -1.7553 -0.0644
 3586SOL     OW22219   2.638   4.402   7.017 -0.0259 -1.0031  0.4626
 3586SOL    HW122220   2.646   4.446   7.101 -0.1154 -0.2952  0.1044
 3586SOL    HW222221   2.560   4.347   7.023 -0.7792  0.1578  1.2729
 3587SOL     OW22222   3.033   2.719   2.946 -0.3020 -0.3206  0.6643
 3587SOL    HW122223   3.041   2.737   2.853  0.7509 -1.4135  0.5526
 3587SOL    HW222224   3.112   2.767   2.969  0.6887 -0.3935 -2.6427
 3588SOL     OW22225   4.044   4.222  14.402 -0.3108  0.1124  0.5874
 3588SOL    HW122226   4.064   4.299  14.457  0.4487  0.5831 -0.3442
 3588SOL    HW222227   4.011   4.165  14.471 -3.3375 -0.9343 -1.7466
 3589SOL     OW22228   4.244   0.784   5.483 -0.1690  0.4690 -1.1311
 3589SOL    HW122229   4.211   0.874   5.489 -0.2112  0.4105 -0.4637
 3589SOL    HW222230   4.335   0.791   5.510 -0.3163  1.5526 -0.9096
 3590SOL     OW22231   0.377   4.070   8.169  0.0056 -0.1649  0.2013
 3590SOL    HW122232   0.354   4.031   8.084 -1.3012 -0.3396  0.6261
 3590SOL    HW222233   0.462   4.028   8.182  0.0287  0.3013  1.4786
 3591SOL     OW22234   1.918   0.635   5.958 -0.2179 -0.0094  0.3378
 3591SOL    HW122235   1.978   0.602   6.024  1.3501 -0.7818 -1.4846
 3591SOL    HW222236   1.944   0.727   5.953  3.4098 -1.1742 -1.8394
 3592SOL     OW22237   3.902   4.620  14.579  0.1964  0.4419 -0.4753
 3592SOL    HW122238   3.913   4.710  14.549 -0.9846  0.6580 -0.2403
 3592SOL    HW222239   3.868   4.641  14.666 -1.9756  0.8539 -1.4279
 3593SOL     OW22240   2.418   4.469   8.493 -0.0417 -0.2114 -0.1016
 3593SOL    HW122241   2.399   4.388   8.446 -0.4367  0.7919 -1.6978
 3593SOL    HW222242   2.330   4.505   8.508 -0.4126 -0.4978 -1.5697
 3594SOL     OW22243   0.532   4.052   4.118  0.0348  0.2334  0.4614
 3594SOL    HW122244   0.466   4.088   4.177 -3.2903 -1.4615 -2.2714
 3594SOL    HW222245   0.573   3.984   4.171 -2.9131 -1.5700  0.3839
 3595SOL     OW22246   1.480   1.160   1.864  0.1047  0.0124  0.0715
 3595SOL    HW122247   1.418   1.118   1.924  0.6150  2.4079  2.2922
 3595SOL    HW222248   1.545   1.203   1.920  0.6978  0.0129 -0.6214
 3596SOL     OW22249   0.793   4.423   5.808  0.0064  0.1956  0.3383
 3596SOL    HW122250   0.736   4.348   5.829  1.2790 -0.4052  1.6018
 3596SOL    HW222251   0.731   4.463   5.747  0.8861  0.7731 -0.1755
 3597SOL     OW22252   3.593   1.306  12.934  0.2290  0.0443 -0.0581
 3597SOL    HW122253   3.558   1.380  12.984  2.9762  2.0065 -1.0358
 3597SOL    HW222254   3.668   1.285  12.989  1.7403  0.3501 -1.9996
 3598SOL     OW22255   4.359   0.087   2.675  0.1658  0.3533  0.4719
 3598SOL    HW122256   4.431   0.076   2.613  1.0091  1.9053  1.1948
 3598SOL    HW222257   4.373   0.167   2.724 -0.1445  0.5342  0.2668
 3599SOL     OW22258   3.120   3.085   8.158 -0.0838  0.3408 -0.2074
 3599SOL    HW122259   3.147   3.154   8.098  1.0677  1.6463  1.8099
 3599SOL    HW222260   3.026   3.081   8.139 -0.0571 -0.1420 -0.2341
 3600SOL     OW22261   1.574   1.450  15.454 -0.2669 -0.8080 -0.3454
 3600SOL    HW122262   1.522   1.428  15.531  0.7093 -3.5359 -0.4633
 3600SOL    HW222263   1.519   1.518  15.414 -1.1285 -2.1423 -1.4540
 3601SOL     OW22264   1.189   1.922   5.071  0.3326  0.5185  0.1494
 3601SOL    HW122265   1.155   1.877   5.148 -0.4764 -1.0627 -1.1282
 3601SOL    HW222266   1.174   1.853   5.006  0.3113  0.3066  0.3777
 3602SOL     OW22267   3.145   1.068   8.459  0.2987  0.0179 -0.3353
 3602SOL    HW122268   3.138   1.021   8.542 -0.5539  2.1506  0.8106
 3602SOL    HW222269   3.067   1.036   8.414 -1.9342  1.8365  2.1967
 3603SOL     OW22270   4.584   1.911  11.297  0.1734  0.1639  0.0433
 3603SOL    HW122271   4.592   1.948  11.385  0.2797 -1.9701  0.9250
 3603SOL    HW222272   4.643   1.974  11.255 -0.3508  0.6158 -0.0185
 3604SOL     OW22273   0.124   0.340  14.835  0.0048  0.3887  0.0248
 3604SOL    HW122274   0.082   0.409  14.784 -1.4229 -1.8890 -1.8584
 3604SOL    HW222275   0.158   0.399  14.902  0.3154  2.0381 -1.6022
 3605SOL     OW22276   3.168   2.191   5.187 -0.5236 -0.1131  0.2652
 3605SOL    HW122277   3.111   2.117   5.205  1.7002 -1.6547  0.9104
 3605SOL    HW222278   3.153   2.204   5.093 -2.4832  0.8187  0.6918
 3606SOL     OW22279   2.312   3.445   8.990 -0.0482 -0.1459  0.1982
 3606SOL    HW122280   2.405   3.449   8.966  0.3133  1.6700  1.8693
 3606SOL    HW222281   2.314   3.357   9.028  1.3424  0.2368  1.0097
 3607SOL     OW22282   0.300   4.179   7.407 -0.1072 -0.8301  0.2583
 3607SOL    HW122283   0.360   4.252   7.420 -1.2726  0.3560 -0.9817
 3607SOL    HW222284   0.351   4.137   7.338  1.8802  0.3219  1.0364
 3608SOL     OW22285   3.295   4.110  16.257  0.4652 -1.1295  0.2401
 3608SOL    HW122286   3.376   4.104  16.206  0.1655  1.8487 -0.5939
 3608SOL    HW222287   3.277   4.204  16.257 -2.1967 -1.6345 -1.5952
 3609SOL     OW22288   1.217   1.811   6.634 -0.2353  0.4978 -0.0872
 3609SOL    HW122289   1.300   1.772   6.607 -0.5326 -0.0886 -0.1484
 3609SOL    HW222290   1.163   1.753   6.581  0.5418 -0.5265  0.2497
 3610SOL     OW22291   0.023   0.525   2.264  0.3609  0.8570  0.0584
 3610SOL    HW122292   4.717   0.613   2.288 -1.2632  0.3630  0.0148
 3610SOL    HW222293   0.030   0.531   2.169  2.1228  0.1583  0.1376
 3611SOL     OW22294   0.017   0.266   2.215 -0.0721 -0.1624  0.1108
 3611SOL    HW122295   4.708   0.352   2.243 -0.8814  0.0903 -1.5470
 3611SOL    HW222296   4.695   0.263   2.129  0.2597 -2.9090  0.0213
 3612SOL     OW22297   3.946   2.678   1.333  0.1406  0.1682  0.3006
 3612SOL    HW122298   3.878   2.741   1.357 -1.0219 -0.7282 -0.6449
 3612SOL    HW222299   3.976   2.663   1.423 -1.7885 -0.0867  0.8995
 3613SOL     OW22300   0.531   1.153   4.075 -0.0529  0.0206  0.1743
 3613SOL    HW122301   0.478   1.083   4.114  0.5916 -1.3267 -1.3890
 3613SOL    HW222302   0.589   1.107   4.014 -0.0644  2.3097 -1.5111
 3614SOL     OW22303   3.960   1.989   4.558  0.1613  0.1363  0.0819
 3614SOL    HW122304   4.031   2.033   4.605 -0.4770  1.3697 -0.1156
 3614SOL    HW222305   3.997   1.991   4.470  0.9777 -2.8936  0.3395
 3615SOL     OW22306   3.520   0.918   1.534  0.3234 -0.0458  0.6601
 3615SOL    HW122307   3.543   1.010   1.544 -0.8279  0.2157  0.8588
 3615SOL    HW222308   3.463   0.914   1.611 -2.6665 -0.9622 -1.5969
 3616SOL     OW22309   0.528   1.945   2.047  0.4400 -0.3699  0.5136
 3616SOL    HW122310   0.458   1.987   2.095 -0.9358 -0.9001 -1.0373
 3616SOL    HW222311   0.604   1.952   2.105 -0.4882 -0.2784  1.7105
 3617SOL     OW22312   1.522   0.697   1.531 -0.6415 -0.8122  0.3208
 3617SOL    HW122313   1.483   0.776   1.569  1.8212 -0.6087  2.4785
 3617SOL    HW222314   1.519   0.656   1.617  2.7996 -2.3570 -0.2939
 3618SOL     OW22315   4.539   3.972  15.655  0.1529  0.5328 -0.4296
 3618SOL    HW122316   4.459   3.946  15.608  0.1411 -0.2190 -0.0051
 3618SOL    HW222317   4.604   3.914  15.614  0.0375 -1.3128  1.9995
 3619SOL     OW22318   2.961   3.729   7.997 -0.2632  0.4394  0.5611
 3619SOL    HW122319   2.892   3.737   7.931  0.9546  2.0576 -0.5119
 3619SOL    HW222320   2.920   3.660   8.049  0.3442  0.3603  0.9399
 3620SOL     OW22321   1.973   1.129   0.172 -0.2061  0.1042  0.6879
 3620SOL    HW122322   2.059   1.135   0.212 -0.8436  2.2422  1.7525
 3620SOL    HW222323   1.995   1.114   0.080 -1.4363  2.6461 -0.0074
 3621SOL     OW22324   2.898   2.043  17.215  0.3943  0.1758 -0.0934
 3621SOL    HW122325   2.927   2.125  17.256 -2.5879  1.9310 -1.4895
 3621SOL    HW222326   2.894   1.985  17.290  3.0604  0.2374  0.0976
 3622SOL     OW22327   4.293   2.601   3.034  0.1191  0.3766 -0.2645
 3622SOL    HW122328   4.246   2.684   3.023  0.8941  0.4948 -2.6037
 3622SOL    HW222329   4.232   2.530   3.056 -0.4596  0.2377 -2.3309
 3623SOL     OW22330   2.758   3.882   7.914  0.2953  0.2484 -0.6275
 3623SOL    HW122331   2.726   3.971   7.897 -0.2566 -0.2646 -2.3295
 3623SOL    HW222332   2.690   3.822   7.884 -0.2323 -0.2300  1.5875
 3624SOL     OW22333   3.449   1.143   7.775  0.1276 -0.0715  0.4576
 3624SOL    HW122334   3.540   1.163   7.797  0.2985 -1.4828  0.9957
 3624SOL    HW222335   3.406   1.212   7.826  0.2091  0.6676 -0.4666
 3625SOL     OW22336   1.143   1.429  15.401  0.2190  0.1173  0.9178
 3625SOL    HW122337   1.100   1.416  15.485 -0.4389 -2.1274  0.2473
 3625SOL    HW222338   1.231   1.429  15.439 -1.0799 -0.0313  3.8780
 3626SOL     OW22339   2.404   1.531  12.370  0.2461  0.1961 -0.1537
 3626SOL    HW122340   2.439   1.447  12.339 -0.7366 -0.6069  0.8917
 3626SOL    HW222341   2.460   1.536  12.447 -0.9531 -0.6954  0.7797
 3627SOL     OW22342   1.253   3.303   8.030  0.3125  0.2102  0.3374
 3627SOL    HW122343   1.302   3.222   8.020 -1.6733 -1.1413  1.3676
 3627SOL    HW222344   1.202   3.277   8.107  0.8886 -1.4609  0.1489
 3628SOL     OW22345   1.160   2.113   9.866 -0.0696  0.1813  0.3160
 3628SOL    HW122346   1.099   2.071   9.927  0.7196 -0.4447  0.6732
 3628SOL    HW222347   1.206   2.172   9.925 -1.6134  0.7176  0.9796
 3629SOL     OW22348   2.232   2.747   9.552 -0.0009  0.2189 -0.2280
 3629SOL    HW122349   2.240   2.702   9.467  1.1967 -2.5402  1.3484
 3629SOL    HW222350   2.165   2.692   9.591  0.4061  0.6207  1.0357
 3630SOL     OW22351   3.393   4.528   0.705 -0.0546 -0.0662  0.1737
 3630SOL    HW122352   3.318   4.583   0.726  0.3835  0.2540  0.9032
 3630SOL    HW222353   3.468   4.583   0.727 -0.0531 -0.9172  2.3044
 3631SOL     OW22354   1.498   2.417   9.275 -0.2611  0.2821 -0.0894
 3631SOL    HW122355   1.530   2.329   9.258  1.2084  0.7784  0.1038
 3631SOL    HW222356   1.418   2.409   9.327  0.0932  0.9392  0.5690
 3632SOL     OW22357   4.514   3.356  13.261  0.3462  0.2829  0.6051
 3632SOL    HW122358   4.478   3.444  13.269  0.2874  0.4413 -1.3226
 3632SOL    HW222359   4.488   3.314  13.343  1.2652 -0.3650  0.5607
 3633SOL     OW22360   1.092   3.209  16.747 -0.2490 -0.3205  0.7625
 3633SOL    HW122361   1.089   3.281  16.683  2.1977  0.3245  1.3497
 3633SOL    HW222362   1.001   3.180  16.753 -0.4401  0.4242  1.5088
 3634SOL     OW22363   4.131   2.826   2.980  0.3805 -0.1925  0.1093
 3634SOL    HW122364   4.135   2.921   2.968 -0.5996  0.2265  3.0204
 3634SOL    HW222365   4.057   2.803   2.924  0.9134 -1.2825 -0.1526
 3635SOL     OW22366   0.447   1.379   1.186  0.5665  0.0480  0.3963
 3635SOL    HW122367   0.470   1.472   1.175  1.4331 -0.3564 -1.1913
 3635SOL    HW222368   0.354   1.379   1.164  0.4362 -0.4969  0.9493
 3636SOL     OW22369   2.025   1.880   1.703  0.3928  0.3013  0.3397
 3636SOL    HW122370   1.974   1.834   1.637  0.3731  1.6838 -0.5841
 3636SOL    HW222371   2.039   1.812   1.770  0.7060 -0.2116 -0.2466
 3637SOL     OW22372   2.727   4.388   3.943  0.1569 -0.3231 -0.3144
 3637SOL    HW122373   2.673   4.403   3.865 -0.7468  1.1401  0.5860
 3637SOL    HW222374   2.658   4.340   3.988  0.0862 -0.6134 -0.7326
 3638SOL     OW22375   4.652   0.953   8.815 -0.2896 -0.1390  0.0754
 3638SOL    HW122376   4.706   0.929   8.740 -0.0884 -1.0871  0.5301
 3638SOL    HW222377   4.592   0.878   8.815 -0.4269  0.0300  4.9137
 3639SOL     OW22378   4.357   3.700   5.602 -0.2272  0.6016 -0.6283
 3639SOL    HW122379   4.402   3.686   5.686  0.5083  0.9300 -0.9654
 3639SOL    HW222380   4.358   3.795   5.592  1.3352  0.5430 -1.0107
 3640SOL     OW22381   2.514   2.708   6.484 -0.1032 -0.2538 -0.0265
 3640SOL    HW122382   2.434   2.726   6.434 -0.4220 -2.5794 -0.3114
 3640SOL    HW222383   2.469   2.661   6.554  1.6292 -0.3912  0.9876
 3641SOL     OW22384   4.325   0.070   6.767 -0.5555  0.1161 -0.1723
 3641SOL    HW122385   4.389   0.140   6.781 -1.0015  0.3219  0.8764
 3641SOL    HW222386   4.371   0.016   6.703  0.2301 -0.9736  1.3207
 3642SOL     OW22387   1.157   4.606   2.928  0.4013  0.4345 -0.8082
 3642SOL    HW122388   1.201   4.522   2.932 -0.2686  0.1202 -0.2011
 3642SOL    HW222389   1.082   4.602   2.987 -1.3265  1.1918 -2.9456
 3643SOL     OW22390   3.678   4.314   3.929  0.1743  0.1727  0.2252
 3643SOL    HW122391   3.707   4.405   3.942  0.0640  0.2391  0.0040
 3643SOL    HW222392   3.687   4.286   4.020  1.8851 -1.9626 -0.5939
 3644SOL     OW22393   1.828   0.506   3.265 -0.6110 -0.1463 -0.1559
 3644SOL    HW122394   1.743   0.482   3.228 -1.7247  1.6321  1.2257
 3644SOL    HW222395   1.895   0.462   3.213  0.6901  1.9975 -0.2692
 3645SOL     OW22396   2.188   0.584   6.902  0.9808  0.0495 -0.3844
 3645SOL    HW122397   2.169   0.674   6.877  0.5881  0.6623  2.1268
 3645SOL    HW222398   2.210   0.543   6.818  2.0039 -0.5129  0.1668
 3646SOL     OW22399   2.753   2.710   5.276  0.5939 -0.2201  0.3426
 3646SOL    HW122400   2.755   2.617   5.252  1.6710  0.0393 -0.5321
 3646SOL    HW222401   2.823   2.748   5.224  0.8017 -0.5615  0.3683
 3647SOL     OW22402   0.319   4.376   9.293 -0.1846  0.3357 -0.1119
 3647SOL    HW122403   0.269   4.369   9.212  1.7467 -1.2602 -1.1615
 3647SOL    HW222404   0.405   4.403   9.262  0.5231 -0.4965  1.1035
 3648SOL     OW22405   3.668   1.965  13.610 -0.5893 -0.5928  0.0508
 3648SOL    HW122406   3.649   1.881  13.651  0.0586 -1.7691 -2.1131
 3648SOL    HW222407   3.639   2.023  13.681 -1.0115 -0.1795 -0.4539
 3649SOL     OW22408   3.932   0.184   5.366 -0.2466 -0.3805  0.0835
 3649SOL    HW122409   3.946   0.128   5.443  0.3905 -0.5451 -0.1516
 3649SOL    HW222410   4.023   0.205   5.344  0.1282 -1.7218  0.3513
 3650SOL     OW22411   3.621   3.051  11.510 -0.0032  0.6109 -0.5950
 3650SOL    HW122412   3.697   3.057  11.452 -1.8620  1.5776 -2.9156
 3650SOL    HW222413   3.610   3.143  11.533  0.1964 -0.3340  3.2933
 3651SOL     OW22414   1.053   2.788   3.300  1.1696  0.3210  0.0081
 3651SOL    HW122415   0.967   2.780   3.257 -0.1566  1.3842  2.4569
 3651SOL    HW222416   1.106   2.789   3.220 -0.9190  1.9977 -1.3595
 3652SOL     OW22417   2.800   2.357  11.939 -0.2529 -0.3840 -0.5830
 3652SOL    HW122418   2.884   2.377  11.898  0.1271 -0.2055  0.3034
 3652SOL    HW222419   2.751   2.337  11.859 -1.7475  0.4910  0.1165
 3653SOL     OW22420   0.067   1.509   8.428 -0.1043  0.1848  0.0647
 3653SOL    HW122421   0.081   1.504   8.522  0.9225 -1.6637 -0.1776
 3653SOL    HW222422   4.695   1.488   8.425 -0.2776  0.9562 -0.0171
 3654SOL     OW22423   0.625   3.609   7.902  0.1238 -0.3251  0.8736
 3654SOL    HW122424   0.609   3.545   7.833 -1.7597 -0.3547  1.3278
 3654SOL    HW222425   0.557   3.600   7.970 -0.9963 -1.3816 -0.3832
 3655SOL     OW22426   2.754   3.592   8.142  0.3621 -0.2849 -0.0795
 3655SOL    HW122427   2.787   3.640   8.218  0.5100 -1.5829  0.6928
 3655SOL    HW222428   2.752   3.502   8.176  0.0673  0.0063  0.6675
 3656SOL     OW22429   1.380   1.505   7.002 -0.4265 -0.3767  0.3584
 3656SOL    HW122430   1.461   1.531   7.047 -1.0623  0.9017  0.7684
 3656SOL    HW222431   1.332   1.588   7.001  0.1784 -0.0507 -1.6260
 3657SOL     OW22432   3.431   3.236   4.193 -0.1320 -0.3480 -0.0682
 3657SOL    HW122433   3.362   3.175   4.220 -1.7719  2.9405  3.2368
 3657SOL    HW222434   3.426   3.299   4.265  2.1736  0.6258 -0.7798
 3658SOL     OW22435   3.869   0.897   3.971 -0.7233 -0.6652 -0.0801
 3658SOL    HW122436   3.834   0.815   4.006  1.8209 -0.3265  3.1754
 3658SOL    HW222437   3.938   0.907   4.036 -0.6388  0.3212 -0.3372
 3659SOL     OW22438   0.567   0.672  13.920  0.0306 -0.0811  0.1601
 3659SOL    HW122439   0.518   0.679  13.838 -1.2790  0.6367  0.9872
 3659SOL    HW222440   0.515   0.738  13.967 -1.0962  0.7046 -2.1990
 3660SOL     OW22441   0.356   2.307   7.981 -0.2416  0.5483 -0.1653
 3660SOL    HW122442   0.297   2.367   7.935  0.6081 -0.0609 -2.0725
 3660SOL    HW222443   0.341   2.230   7.926 -1.3196  2.7356 -2.9409
 3661SOL     OW22444   4.526   1.080  17.565  0.8876 -0.0704 -0.2792
 3661SOL    HW122445   4.581   1.032  17.502  0.8941  1.3841 -1.3754
 3661SOL    HW222446   4.571   1.163  17.576  0.6714  0.0104 -0.0200
 3662SOL     OW22447   4.446   2.537  11.444 -0.1226  0.0624  0.0831
 3662SOL    HW122448   4.531   2.530  11.402  0.8671  0.2388  2.0752
 3662SOL    HW222449   4.436   2.442  11.449  0.4952 -0.2070 -3.3031
 3663SOL     OW22450   2.207   2.358   7.348 -0.1679 -0.0956  0.1612
 3663SOL    HW122451   2.302   2.346   7.348 -0.3682 -1.6890 -1.2594
 3663SOL    HW222452   2.203   2.450   7.323 -3.0027 -0.2461  0.0432
 3664SOL     OW22453   2.168   3.616   3.668 -0.1960 -0.1048 -0.0145
 3664SOL    HW122454   2.193   3.550   3.733 -0.8722  1.1345  1.5174
 3664SOL    HW222455   2.148   3.568   3.588  0.3510 -0.3701  0.0099
 3665SOL     OW22456   4.136   0.372   7.298  0.0715  0.2493 -0.0868
 3665SOL    HW122457   4.171   0.431   7.231  0.3713 -0.2922 -0.4103
 3665SOL    HW222458   4.140   0.290   7.247  2.0889 -0.8444  1.8229
 3666SOL     OW22459   3.526   2.388  16.072 -0.9206 -0.2551  0.1213
 3666SOL    HW122460   3.618   2.376  16.097 -0.0273  0.7975 -2.6583
 3666SOL    HW222461   3.496   2.299  16.093 -0.3585 -0.1508  1.3722
 3667SOL     OW22462   3.329   4.399  15.039  0.0617 -0.2959  0.0475
 3667SOL    HW122463   3.381   4.328  15.077 -0.3433 -0.8547 -0.4428
 3667SOL    HW222464   3.391   4.439  14.978 -0.2200 -0.2177 -0.1900
 3668SOL     OW22465   1.316   2.151   7.083  0.7506 -0.2771 -0.2531
 3668SOL    HW122466   1.357   2.178   7.165  1.1816 -0.2834 -0.4663
 3668SOL    HW222467   1.390   2.155   7.022  0.8785 -0.7241 -0.1226
 3669SOL     OW22468   0.109   2.369  12.901  0.3601 -0.2564  0.1752
 3669SOL    HW122469   0.120   2.289  12.850 -1.6712 -0.6620  0.3655
 3669SOL    HW222470   0.066   2.431  12.842 -1.8278 -0.6106  1.3881
 3670SOL     OW22471   3.838   3.340  13.565 -0.1720  0.3511 -0.5832
 3670SOL    HW122472   3.805   3.269  13.620 -1.1356 -0.0135 -1.6496
 3670SOL    HW222473   3.929   3.321  13.591 -0.0708 -1.7034 -2.3989
 3671SOL     OW22474   3.533   2.802   4.362  0.4308 -0.1612 -0.7576
 3671SOL    HW122475   3.474   2.842   4.426  0.8734 -1.2321  0.3247
 3671SOL    HW222476   3.602   2.868   4.361  0.2716  0.0449  1.0256
 3672SOL     OW22477   2.163   1.468   4.324 -0.6826  0.0978 -0.2198
 3672SOL    HW122478   2.082   1.441   4.281 -0.1212 -0.6604 -0.7872
 3672SOL    HW222479   2.179   1.559   4.297  0.0650  0.0816  0.1855
 3673SOL     OW22480   4.149   0.627   3.962 -0.5842 -0.2907  0.1282
 3673SOL    HW122481   4.102   0.708   3.942  2.0909  1.0089 -0.9239
 3673SOL    HW222482   4.143   0.593   3.873  3.1361 -1.7891  0.4664
 3674SOL     OW22483   0.729   0.105   6.039 -0.2848 -0.2749  0.2109
 3674SOL    HW122484   0.804   0.161   6.017 -0.9851  0.1118 -1.2008
 3674SOL    HW222485   0.732   0.050   5.960 -2.3175  1.3517 -0.9963
 3675SOL     OW22486   4.625   1.590   7.600 -0.5631  0.0622  0.2456
 3675SOL    HW122487   4.676   1.601   7.519  0.2139 -0.2875  0.6949
 3675SOL    HW222488   4.536   1.589   7.563 -1.2543 -2.8735  1.9592
 3676SOL     OW22489   4.474   4.442   5.558 -0.1275  0.3733  0.0006
 3676SOL    HW122490   4.517   4.360   5.583  0.1212  0.5913  0.2866
 3676SOL    HW222491   4.427   4.464   5.639 -0.1237  0.6901 -0.0831
 3677SOL     OW22492   0.968   4.523   1.295  0.0473  0.0626 -0.4224
 3677SOL    HW122493   0.997   4.438   1.327 -1.5859 -0.8716 -1.4587
 3677SOL    HW222494   0.906   4.505   1.224 -1.0776  2.3812 -0.0176
 3678SOL     OW22495   1.485   0.073   3.004  0.5249  0.7551  0.5879
 3678SOL    HW122496   1.518   0.046   2.918 -0.4748  0.1043  0.4030
 3678SOL    HW222497   1.447   0.158   2.982 -1.6298 -0.6487 -1.1593
 3679SOL     OW22498   4.230   4.029   4.432  0.1954  0.9823  0.5788
 3679SOL    HW122499   4.229   3.945   4.385 -0.7070  1.6187 -0.5440
 3679SOL    HW222500   4.296   4.015   4.500  1.1752 -1.3690 -0.8245
 3680SOL     OW22501   2.035   3.599  16.072  0.0123  0.1212 -0.4547
 3680SOL    HW122502   2.019   3.692  16.060  0.2700  0.0408 -1.4410
 3680SOL    HW222503   1.987   3.565  15.996 -0.8422  1.6376 -0.5792
 3681SOL     OW22504   2.670   3.779  11.160 -0.1150 -0.2446  0.4067
 3681SOL    HW122505   2.590   3.784  11.211  0.3390 -1.2811  1.2360
 3681SOL    HW222506   2.733   3.776  11.233 -0.7749 -0.8962  0.9504
 3682SOL     OW22507   2.805   0.299   2.198 -0.4861 -0.2958  0.0080
 3682SOL    HW122508   2.868   0.288   2.127 -1.9004  3.3823 -1.8047
 3682SOL    HW222509   2.857   0.342   2.266 -2.6210  0.8330  0.9391
 3683SOL     OW22510   2.049   3.446   7.028 -0.2460  0.1216 -0.6223
 3683SOL    HW122511   2.010   3.528   6.997 -1.5611  0.9320  3.0942
 3683SOL    HW222512   1.971   3.392   7.047 -0.6075  1.4203  1.5898
 3684SOL     OW22513   0.959   4.025   5.013  0.0442  0.1161 -0.0869
 3684SOL    HW122514   0.972   4.093   4.947  1.5833 -0.9369 -0.8780
 3684SOL    HW222515   1.028   4.059   5.069 -0.0843  0.5283 -0.1766
 3685SOL     OW22516   4.373   1.768   3.946  0.0666 -0.1818 -0.2886
 3685SOL    HW122517   4.295   1.800   3.901  0.0372  1.5902  1.0211
 3685SOL    HW222518   4.393   1.704   3.877 -0.2428  1.1148 -1.5885
 3686SOL     OW22519   0.872   1.495   0.591  0.9218  0.3413  0.2634
 3686SOL    HW122520   0.949   1.488   0.647  0.7826  0.4350  0.4653
 3686SOL    HW222521   0.899   1.429   0.526  3.5230  1.4879  0.1835
 3687SOL     OW22522   4.388   1.006   1.219  0.3210  0.0887 -0.0104
 3687SOL    HW122523   4.300   1.019   1.184 -0.9003  1.9858  3.7694
 3687SOL    HW222524   4.437   0.946   1.162 -1.4421 -1.2369 -0.1243
 3688SOL     OW22525   3.575   3.599  12.658  0.3686 -0.0813  0.2144
 3688SOL    HW122526   3.480   3.599  12.669  0.3291 -1.0121 -0.1772
 3688SOL    HW222527   3.587   3.627  12.749  0.8846  1.6051 -0.3580
 3689SOL     OW22528   3.618   0.789   5.563 -0.4074  0.2145 -0.1063
 3689SOL    HW122529   3.649   0.880   5.562  0.9181 -0.2385 -0.2728
 3689SOL    HW222530   3.581   0.775   5.650 -0.7858  0.9656 -0.1443
 3690SOL     OW22531   0.793   2.039   1.714  0.1851 -0.2284  0.0528
 3690SOL    HW122532   0.859   2.068   1.651  0.5503  0.9235  0.9603
 3690SOL    HW222533   0.848   1.992   1.777  2.2097  1.8453 -0.1474
 3691SOL     OW22534   1.849   0.492   6.440  0.7034 -0.1503 -0.4193
 3691SOL    HW122535   1.781   0.425   6.435 -0.7517  1.2952  0.1053
 3691SOL    HW222536   1.828   0.554   6.369 -0.2115 -0.1446 -0.1502
 3692SOL     OW22537   3.717   3.450  15.479  0.2320  0.2822  0.4467
 3692SOL    HW122538   3.651   3.471  15.544  0.1531  1.4743  0.0007
 3692SOL    HW222539   3.776   3.525  15.491 -1.2127  1.6264 -0.8156
 3693SOL     OW22540   3.607   2.443   5.057 -0.0338  0.2827  0.7162
 3693SOL    HW122541   3.638   2.495   5.130  1.0298  0.1501  0.3655
 3693SOL    HW222542   3.512   2.450   5.068 -0.2928 -2.5400  0.4093
 3694SOL     OW22543   1.883   4.683  10.701 -0.1435 -0.2279  0.3488
 3694SOL    HW122544   1.895   4.611  10.639 -3.2520  0.1104 -0.6467
 3694SOL    HW222545   1.922   4.641  10.777 -1.4604  0.9611  1.6849
 3695SOL     OW22546   4.423   1.459  12.348  1.2390  0.3140  0.5241
 3695SOL    HW122547   4.462   1.517  12.283 -1.9883  0.9468 -0.8981
 3695SOL    HW222548   4.383   1.392  12.292  1.3332 -0.6796  1.6487
 3696SOL     OW22549   0.743   1.601   1.862 -0.1187  0.4486  0.0951
 3696SOL    HW122550   0.688   1.623   1.937  0.9107  1.3766  0.5751
 3696SOL    HW222551   0.830   1.588   1.898  0.3876 -0.1899 -1.3425
 3697SOL     OW22552   3.327   1.201   7.175  0.4307 -0.6782 -0.0067
 3697SOL    HW122553   3.412   1.179   7.213  0.4062  2.0285  1.6592
 3697SOL    HW222554   3.320   1.140   7.102  0.3209  0.8556 -1.2827
 3698SOL     OW22555   3.764   4.191  16.926  0.0604 -0.2142  0.1166
 3698SOL    HW122556   3.773   4.209  16.833  0.1583 -0.8515  0.0008
 3698SOL    HW222557   3.852   4.202  16.962  0.2513 -0.9163 -0.1260
 3699SOL     OW22558   0.050   0.988   3.113  0.1640  0.1001  0.3020
 3699SOL    HW122559   0.047   0.989   3.208  2.0980 -0.0532  0.3675
 3699SOL    HW222560   0.141   1.018   3.109  0.0259  0.1695 -2.2034
 3700SOL     OW22561   0.114   4.204   5.097 -0.1769  0.3352  0.8080
 3700SOL    HW122562   0.056   4.212   5.021 -0.4360  0.9080  1.0677
 3700SOL    HW222563   0.194   4.239   5.059  0.3129 -1.5456  0.1101
 3701SOL     OW22564   4.719   3.783  15.582  0.1588 -0.4166 -0.2586
 3701SOL    HW122565   0.016   3.693  15.556  2.0557  0.3927 -1.7101
 3701SOL    HW222566   0.044   3.792  15.665 -1.3260  0.0361  0.5336
 3702SOL     OW22567   3.230   1.362   9.024 -0.6050 -0.9348  0.0773
 3702SOL    HW122568   3.290   1.288   9.030  0.0316 -0.5745 -1.6496
 3702SOL    HW222569   3.286   1.431   9.059  0.3171 -0.0400 -3.1050
 3703SOL     OW22570   3.311   1.368   2.330  0.3206  0.1473  0.0765
 3703SOL    HW122571   3.289   1.442   2.387  2.9171 -1.7567  3.5536
 3703SOL    HW222572   3.220   1.348   2.306  0.6662 -0.5889 -0.6267
 3704SOL     OW22573   1.857   4.472   5.586 -0.3556 -0.1393 -0.0753
 3704SOL    HW122574   1.848   4.397   5.528 -1.5676 -0.3852  0.4308
 3704SOL    HW222575   1.951   4.465   5.602 -0.3851 -2.4467 -0.8846
 3705SOL     OW22576   1.764   0.477  16.186  0.2493 -0.2298 -0.6151
 3705SOL    HW122577   1.852   0.500  16.157  1.1474 -0.6175  1.8067
 3705SOL    HW222578   1.751   0.538  16.259  3.1454 -0.6309  0.2051
 3706SOL     OW22579   4.497   1.785   2.583 -0.0094 -0.5210 -0.2658
 3706SOL    HW122580   4.454   1.859   2.627 -0.4925 -0.2884 -1.1254
 3706SOL    HW222581   4.538   1.726   2.647  0.5991 -0.3375 -0.4843
 3707SOL     OW22582   1.858   0.357   5.748  0.3924 -0.1789 -0.7250
 3707SOL    HW122583   1.878   0.450   5.739  0.6323 -0.2222 -0.6528
 3707SOL    HW222584   1.858   0.318   5.661  0.2685 -2.0418  0.1129
 3708SOL     OW22585   2.934   3.129   9.194  0.5072  0.3685  0.1951
 3708SOL    HW122586   2.907   3.193   9.128  0.8962  1.9107  1.5256
 3708SOL    HW222587   2.936   3.169   9.281  3.3361  1.7826 -0.4890
 3709SOL     OW22588   2.495   4.592   1.843  0.1906 -0.0233  0.1392
 3709SOL    HW122589   2.425   4.656   1.826 -0.2321 -0.4558  0.2480
 3709SOL    HW222590   2.562   4.613   1.778 -1.0917  1.4169 -0.7407
 3710SOL     OW22591   1.562   2.820   4.737 -0.9208  0.6806 -0.0889
 3710SOL    HW122592   1.635   2.823   4.676 -0.6002  0.6183  0.2906
 3710SOL    HW222593   1.520   2.902   4.711  0.1919  1.1557 -0.3685
 3711SOL     OW22594   3.642   3.320  11.501  0.3208  0.3217 -0.4374
 3711SOL    HW122595   3.620   3.409  11.529  0.0899  0.5376 -1.3043
 3711SOL    HW222596   3.718   3.297  11.554 -0.2278 -0.8101 -0.1581
 3712SOL     OW22597   0.712   1.726   8.385 -0.1941  0.2945  0.5093
 3712SOL    HW122598   0.651   1.776   8.440 -3.6901 -0.9918 -2.2044
 3712SOL    HW222599   0.657   1.650   8.367  2.6914 -1.6500 -0.1242
 3713SOL     OW22600   4.602   1.364   3.877 -0.2276  0.1174  0.5354
 3713SOL    HW122601   4.612   1.453   3.911  1.6669  0.7342 -1.5987
 3713SOL    HW222602   4.597   1.373   3.782  0.9227  0.5242  0.5054
 3714SOL     OW22603   4.713   0.718   2.077 -0.0037 -0.0465  0.0238
 3714SOL    HW122604   0.034   0.757   2.001 -0.8800  4.0658  1.6176
 3714SOL    HW222605   4.628   0.684   2.049 -0.4617  2.0572 -1.1668
 3715SOL     OW22606   1.556   1.115   5.074  0.3274 -0.1525 -0.7935
 3715SOL    HW122607   1.617   1.072   5.013  0.5197 -0.2939 -0.5005
 3715SOL    HW222608   1.471   1.080   5.050 -0.9192  1.7472  0.8712
 3716SOL     OW22609   0.909   3.742   5.050  0.0028 -0.1685  0.4685
 3716SOL    HW122610   0.860   3.712   4.975  2.5620  3.2834 -2.5919
 3716SOL    HW222611   0.949   3.825   5.023  0.1590 -0.5418 -0.4242
 3717SOL     OW22612   0.443   0.506   5.668 -0.3336  0.1630  0.0581
 3717SOL    HW122613   0.373   0.549   5.618  0.5693 -0.1700 -1.4954
 3717SOL    HW222614   0.389   0.431   5.694 -2.4620  1.5668 -0.2746
 3718SOL     OW22615   1.317   2.030   5.941  0.0145  0.3300 -0.2788
 3718SOL    HW122616   1.335   2.024   6.034  0.7120  0.5480 -0.3962
 3718SOL    HW222617   1.227   2.061   5.949  0.3462  0.5477  2.4241
 3719SOL     OW22618   0.333   4.421   3.963 -0.1660  0.4267 -0.5591
 3719SOL    HW122619   0.366   4.338   3.928  1.4740  1.0419 -0.4630
 3719SOL    HW222620   0.248   4.406   4.005 -0.3342 -2.7714 -2.0674
 3720SOL     OW22621   2.179   2.609   4.223  0.6694 -0.8707  0.0103
 3720SOL    HW122622   2.211   2.568   4.142 -0.6541  1.3721 -1.6385
 3720SOL    HW222623   2.115   2.666   4.182 -0.3257 -2.0156 -0.0214
 3721SOL     OW22624   0.185   3.881   7.070  0.3241 -0.3916  0.1216
 3721SOL    HW122625   0.111   3.841   7.025 -1.7840  2.8887  0.6956
 3721SOL    HW222626   0.196   3.831   7.151 -2.5300 -1.0070  0.1268
 3722SOL     OW22627   4.476   0.431   7.366  0.1508  0.0658  0.5351
 3722SOL    HW122628   4.427   0.508   7.396  0.7229  0.6251  0.0585
 3722SOL    HW222629   4.477   0.375   7.443  0.7491 -1.9636 -0.9652
 3723SOL     OW22630   0.070   2.447   6.720  0.6246 -0.9282 -0.0081
 3723SOL    HW122631   0.053   2.361   6.683 -0.0427 -0.6545 -0.3306
 3723SOL    HW222632   0.157   2.432   6.756  1.4710  1.6746 -0.9780
 3724SOL     OW22633   2.119   3.924  10.297 -0.1484  0.0729  0.7210
 3724SOL    HW122634   2.205   3.938  10.255 -0.1190 -1.1526  0.3855
 3724SOL    HW222635   2.062   3.991  10.259  1.6038  1.3505  0.3398
 3725SOL     OW22636   3.218   3.664  12.194  0.2730  0.6141  0.0312
 3725SOL    HW122637   3.252   3.699  12.276 -2.7708  1.8013  0.7808
 3725SOL    HW222638   3.252   3.729  12.132 -1.7264  1.4790 -0.1518
 3726SOL     OW22639   1.221   0.377   8.213 -0.4863 -0.6067 -0.8146
 3726SOL    HW122640   1.243   0.438   8.283  0.4968 -1.7836 -0.0873
 3726SOL    HW222641   1.166   0.312   8.257  0.7171 -0.7025  0.5462
 3727SOL     OW22642   3.261   4.578  12.805 -0.0514 -0.0802  0.3325
 3727SOL    HW122643   3.298   4.492  12.827 -2.8497 -1.0507  1.2891
 3727SOL    HW222644   3.179   4.555  12.762  1.5982  1.5541 -3.7039
 3728SOL     OW22645   4.527   0.867   1.018 -0.2398 -0.6145 -0.1194
 3728SOL    HW122646   4.466   0.838   0.949 -2.1357  3.4343 -0.1233
 3728SOL    HW222647   4.571   0.782   1.029 -2.0215 -1.4967  0.2599
 3729SOL     OW22648   3.641   2.815   9.192  0.0743 -0.4886 -0.1250
 3729SOL    HW122649   3.671   2.745   9.250  0.8408  0.2457  0.3655
 3729SOL    HW222650   3.718   2.822   9.136  0.2318 -2.7298 -0.1837
 3730SOL     OW22651   3.396   1.246  10.252  0.4943  0.0223  0.5198
 3730SOL    HW122652   3.435   1.195  10.323  1.1008 -1.8441 -1.1666
 3730SOL    HW222653   3.392   1.332  10.293 -1.5898  0.1434  0.0891
 3731SOL     OW22654   2.212   1.660  12.517  0.2041  0.8670 -0.0577
 3731SOL    HW122655   2.120   1.633  12.520 -0.2461  2.7694  3.3708
 3731SOL    HW222656   2.262   1.592  12.473  0.5148  0.3497  1.0966
 3732SOL     OW22657   2.856   2.142  11.145  0.3081  0.0231  0.3235
 3732SOL    HW122658   2.931   2.199  11.162 -1.7667  1.6639  3.9615
 3732SOL    HW222659   2.800   2.193  11.087  1.5690  0.0953 -0.8523
 3733SOL     OW22660   1.663   3.610  10.128  0.2166  0.7067 -0.0494
 3733SOL    HW122661   1.648   3.694  10.085 -1.1976 -0.2543 -1.4338
 3733SOL    HW222662   1.593   3.608  10.192  0.6310 -2.9418  0.3061
 3734SOL     OW22663   1.025   0.074  10.909 -0.0542  0.2961  0.0500
 3734SOL    HW122664   1.079   4.717  10.908  1.1167  1.1330 -1.7604
 3734SOL    HW222665   1.098   0.135  10.923  0.5960 -0.2697 -0.9040
 3735SOL     OW22666   3.061   3.303   9.675  0.2493  0.5494 -0.3099
 3735SOL    HW122667   3.144   3.316   9.628  0.5115 -1.5161 -0.4023
 3735SOL    HW222668   3.049   3.382   9.728 -0.1536 -0.7748  1.5696
 3736SOL     OW22669   0.258   1.944   5.288  0.4587 -0.0035 -0.1452
 3736SOL    HW122670   0.257   1.894   5.207  1.1508 -0.4936  0.1521
 3736SOL    HW222671   0.311   1.877   5.332 -0.4576  0.3677  1.5408
 3737SOL     OW22672   3.373   3.071   7.005  0.1706  0.0516 -0.0237
 3737SOL    HW122673   3.454   3.056   6.956  0.3398  1.8940 -0.3301
 3737SOL    HW222674   3.324   3.064   6.923 -1.5113 -1.6023  1.1264
 3738SOL     OW22675   0.750   4.586  13.864 -0.3297  0.3873  0.2727
 3738SOL    HW122676   0.803   4.509  13.884 -1.1794 -1.1306 -3.2002
 3738SOL    HW222677   0.739   4.563  13.771 -1.7367  2.1965 -0.0076
 3739SOL     OW22678   3.838   3.417   3.508 -0.5775  0.0187  0.1130
 3739SOL    HW122679   3.845   3.502   3.464  3.5976 -1.4772 -2.1507
 3739SOL    HW222680   3.743   3.410   3.504 -0.6856  0.8200  1.4141
 3740SOL     OW22681   2.236   1.117   7.230  0.4813 -0.1102  0.1826
 3740SOL    HW122682   2.215   1.133   7.138  3.2004  0.8909 -0.2656
 3740SOL    HW222683   2.169   1.050   7.248  0.7119  0.2851  2.5636
 3741SOL     OW22684   1.137   4.509   5.289  0.0487  0.0323 -0.0030
 3741SOL    HW122685   1.078   4.457   5.344  1.6100 -0.4300  1.2310
 3741SOL    HW222686   1.101   4.483   5.204  2.7173 -0.0794 -1.1265
 3742SOL     OW22687   3.553   2.076  15.620  0.0191 -0.1837  0.3436
 3742SOL    HW122688   3.578   2.104  15.532  1.2800 -0.7900  0.5110
 3742SOL    HW222689   3.477   2.020  15.605 -0.7087  0.2574  2.2864
 3743SOL     OW22690   4.277   0.536   3.301 -0.2751  0.3054  0.0031
 3743SOL    HW122691   4.216   0.552   3.229  0.6105 -0.1977 -0.8588
 3743SOL    HW222692   4.337   0.472   3.260 -0.9248 -1.8214  2.3590
 3744SOL     OW22693   2.113   1.710   4.587  0.3862 -0.7106 -0.0645
 3744SOL    HW122694   2.024   1.680   4.608 -0.3002  1.9332  0.7339
 3744SOL    HW222695   2.079   1.775   4.526 -1.0712 -1.5466 -0.1654
 3745SOL     OW22696   2.408   2.961   7.414  0.1729 -0.0466 -0.6855
 3745SOL    HW122697   2.362   2.950   7.498  0.4382 -1.3767 -0.7147
 3745SOL    HW222698   2.499   2.971   7.443 -0.4905 -0.0462  1.4587
 3746SOL     OW22699   3.207   3.172  15.302  0.2670 -0.0878 -0.3188
 3746SOL    HW122700   3.112   3.167  15.316  0.3772  0.0884  0.4793
 3746SOL    HW222701   3.238   3.100  15.246 -1.8293 -0.6263 -0.7916
 3747SOL     OW22702   2.060   0.959  16.401 -0.5724 -0.2973 -0.1233
 3747SOL    HW122703   1.995   0.907  16.353  1.4541 -0.4931 -2.6859
 3747SOL    HW222704   2.075   0.907  16.480 -0.1698  0.6880  0.4498
 3748SOL     OW22705   1.987   1.252  10.903  0.6520 -0.2531 -0.2970
 3748SOL    HW122706   2.042   1.173  10.906 -1.8420 -2.0611 -1.9548
 3748SOL    HW222707   1.912   1.217  10.855  0.2004 -0.9066  0.9006
 3749SOL     OW22708   0.796   0.297   4.744  0.6940  0.8758  0.2720
 3749SOL    HW122709   0.773   0.370   4.686 -0.0718  1.0594  0.8023
 3749SOL    HW222710   0.873   0.327   4.792  1.2387 -1.2925  0.7184
 3750SOL     OW22711   0.474   3.480  16.311 -0.6339 -0.5458 -0.2318
 3750SOL    HW122712   0.427   3.460  16.230  2.1671 -0.1370 -1.9297
 3750SOL    HW222713   0.566   3.480  16.284 -0.6947  0.8203 -0.4420
 3751SOL     OW22714   1.507   4.259   0.636 -0.0529  0.1669 -0.0200
 3751SOL    HW122715   1.495   4.301   0.551  2.0313  1.1274  0.1525
 3751SOL    HW222716   1.484   4.323   0.704  2.5218 -0.1641  1.1545
 3752SOL     OW22717   3.767   0.277  12.777  0.2710  0.3318 -0.3577
 3752SOL    HW122718   3.771   0.294  12.683  0.3788  0.7465 -0.2797
 3752SOL    HW222719   3.787   0.362  12.817 -4.4476  0.2002  2.2873
 3753SOL     OW22720   4.138   0.257   6.951 -0.6625  0.2104 -0.0170
 3753SOL    HW122721   4.191   0.215   6.884 -1.3746 -1.8828  0.7362
 3753SOL    HW222722   4.052   0.255   6.909 -1.0479 -0.5795  0.8064
 3754SOL     OW22723   0.800   3.086   4.873 -0.8103  0.0651 -0.1090
 3754SOL    HW122724   0.775   3.077   4.965 -0.4751 -0.4344 -0.0623
 3754SOL    HW222725   0.823   2.994   4.856  0.0536  0.3242 -0.3291
 3755SOL     OW22726   4.255   1.537   3.434 -0.1266  0.0168  0.0410
 3755SOL    HW122727   4.163   1.538   3.410 -0.0879  0.8453 -0.0524
 3755SOL    HW222728   4.293   1.595   3.368 -0.8108  0.1644 -0.2163
 3756SOL     OW22729   2.553   2.907  10.847 -0.0641  0.7875 -0.4778
 3756SOL    HW122730   2.632   2.956  10.827 -0.1732  0.8535 -0.7427
 3756SOL    HW222731   2.511   2.910  10.761 -0.5263 -1.5370 -0.3538
 3757SOL     OW22732   4.167   3.813   4.105  0.5708 -0.2049 -0.4420
 3757SOL    HW122733   4.192   3.810   4.013  1.7298  1.0521 -0.1650
 3757SOL    HW222734   4.254   3.833   4.138 -0.3727  1.7599  0.8460
 3758SOL     OW22735   0.475   3.458  14.039 -0.1998  0.2567  0.4092
 3758SOL    HW122736   0.554   3.466  13.986 -0.4011 -1.6466 -0.1663
 3758SOL    HW222737   0.511   3.467  14.127 -0.7677 -0.7501  0.7415
 3759SOL     OW22738   4.663   2.454  11.277 -0.1445 -0.2191  0.2121
 3759SOL    HW122739   0.012   2.509  11.242  1.5641 -1.5161  1.6810
 3759SOL    HW222740   4.705   2.426  11.358 -0.9256 -0.7579  0.4300
 3760SOL     OW22741   2.113   1.814  16.395 -0.5310  0.3001  0.4429
 3760SOL    HW122742   2.079   1.764  16.321  1.0660  1.1524 -0.8587
 3760SOL    HW222743   2.160   1.739  16.433 -0.4535  0.2448  0.2381
 3761SOL     OW22744   2.909   1.008   5.805  0.8526 -0.4740 -0.0343
 3761SOL    HW122745   2.976   1.021   5.872 -0.6414  1.8360  1.0285
 3761SOL    HW222746   2.935   0.921   5.774 -0.9089 -1.2584  0.6600
 3762SOL     OW22747   0.075   0.324   7.181 -0.2274 -0.0755  0.0870
 3762SOL    HW122748   0.167   0.326   7.154  0.0987 -0.5740  1.1722
 3762SOL    HW222749   0.078   0.394   7.246 -1.3282 -0.4680  0.5634
 3763SOL     OW22750   2.525   3.127   5.696 -0.1643 -0.2953  0.5645
 3763SOL    HW122751   2.474   3.055   5.660  1.1426 -1.0431  0.2057
 3763SOL    HW222752   2.583   3.074   5.751  2.3731  2.4918  0.6058
 3764SOL     OW22753   4.650   4.282   6.536 -0.1509  0.6408 -0.0234
 3764SOL    HW122754   4.648   4.345   6.464 -1.5413  1.7637  1.0221
 3764SOL    HW222755   4.571   4.229   6.540 -0.0669  0.5723  0.7194
 3765SOL     OW22756   2.656   0.609  16.227 -0.1445  0.0828  0.2265
 3765SOL    HW122757   2.701   0.693  16.239 -1.1555  0.4142  1.6302
 3765SOL    HW222758   2.672   0.595  16.133  1.4833 -0.2581  0.5463
 3766SOL     OW22759   4.660   3.532   8.397 -0.0670  0.7076  0.5598
 3766SOL    HW122760   4.604   3.463   8.361 -0.2973  2.1444 -1.8936
 3766SOL    HW222761   4.670   3.496   8.485 -0.0508 -0.0606  0.2401
 3767SOL     OW22762   2.123   0.217   4.503  0.2920  0.3418  0.6664
 3767SOL    HW122763   2.052   0.281   4.509 -0.4716 -0.5279  0.8675
 3767SOL    HW222764   2.083   0.138   4.538  2.9339 -1.2991 -0.0416
 3768SOL     OW22765   2.977   2.094   8.614 -0.3729 -0.4802  0.4722
 3768SOL    HW122766   2.969   2.017   8.558 -0.2976 -0.0738 -0.0946
 3768SOL    HW222767   2.888   2.128   8.628  0.2094  0.4755  1.8269
 3769SOL     OW22768   2.168   3.992  17.503  0.2206  0.0110  0.3397
 3769SOL    HW122769   2.241   4.030  17.455  0.1711  1.6133  1.5429
 3769SOL    HW222770   2.146   3.926  17.437 -2.2956  0.7010  0.4698
 3770SOL     OW22771   1.028   1.834   5.695  0.6909  0.6230 -0.3856
 3770SOL    HW122772   1.091   1.827   5.623  0.8393 -0.4754 -0.1478
 3770SOL    HW222773   0.955   1.776   5.673  2.2966 -1.7352  0.4680
 3771SOL     OW22774   0.816   4.686   3.957 -0.5848 -0.1523  0.4814
 3771SOL    HW122775   0.824   4.602   3.912  0.5270 -0.3482  1.0338
 3771SOL    HW222776   0.749   4.662   4.021  0.1638  1.6989  1.9577
 3772SOL     OW22777   3.981   0.807  14.099  0.0838  0.0183 -0.3352
 3772SOL    HW122778   3.907   0.766  14.144  0.2605 -1.2826 -1.2553
 3772SOL    HW222779   3.935   0.853  14.030  1.3817  1.5373 -0.1817
 3773SOL     OW22780   4.357   0.318   2.841  0.3615 -0.0769 -0.6762
 3773SOL    HW122781   4.355   0.404   2.798 -0.0609 -1.0782 -2.6625
 3773SOL    HW222782   4.273   0.322   2.888  0.3448 -1.3329 -0.5878
 3774SOL     OW22783   1.510   1.693   9.027 -0.2318  0.2643  0.4928
 3774SOL    HW122784   1.465   1.689   9.112  0.6521 -0.6819  0.9158
 3774SOL    HW222785   1.434   1.736   8.987 -0.2545 -1.1132 -0.9344
 3775SOL     OW22786   1.937   1.980  14.568  0.1123 -0.0400 -0.6320
 3775SOL    HW122787   1.976   2.051  14.619  0.0467 -0.8728  0.5616
 3775SOL    HW222788   1.984   1.984  14.485  2.4461 -2.1792  0.6046
 3776SOL     OW22789   4.694   4.297   7.575  0.0433  0.3464  0.0150
 3776SOL    HW122790   4.604   4.329   7.563 -0.7045 -1.8074 -0.1960
 3776SOL    HW222791   4.689   4.257   7.662  2.1851 -0.4954 -0.2428
 3777SOL     OW22792   0.091   3.860   7.899 -0.2424  0.3922  0.4499
 3777SOL    HW122793   0.133   3.781   7.864  1.7846  0.7153  2.1602
 3777SOL    HW222794   0.032   3.880   7.826  0.3441  0.9771  0.1453
 3778SOL     OW22795   0.059   1.733   0.941  0.5119 -0.3013 -0.9046
 3778SOL    HW122796   0.045   1.792   1.016  0.5910  0.8120 -1.7714
 3778SOL    HW222797   4.710   1.669   0.947 -0.2143  0.4531 -1.3382
 3779SOL     OW22798   4.230   0.410  11.493  0.5103  0.6676 -0.0899
 3779SOL    HW122799   4.178   0.340  11.456 -0.8923  0.0837  2.9578
 3779SOL    HW222800   4.312   0.406  11.444  1.1028  2.4217  0.7466
 3780SOL     OW22801   1.818   3.558   6.675 -0.0623 -0.4068 -0.5708
 3780SOL    HW122802   1.896   3.600   6.639 -1.0339  2.5281  0.7585
 3780SOL    HW222803   1.816   3.611   6.755  0.9805 -1.1106 -0.0819
 3781SOL     OW22804   2.080   1.436   9.432  0.2619  0.1961  0.3996
 3781SOL    HW122805   2.151   1.492   9.464  0.9987  0.3352 -1.4771
 3781SOL    HW222806   2.125   1.405   9.354 -0.3037  0.6880 -0.1215
 3782SOL     OW22807   0.292   2.300   6.788 -0.4280 -0.0376 -0.4426
 3782SOL    HW122808   0.357   2.278   6.856  0.3032 -0.6004 -1.3265
 3782SOL    HW222809   0.313   2.238   6.718 -0.3688 -1.1537  0.5486
 3783SOL     OW22810   3.373   4.095   3.308 -0.0453  0.2437 -0.0179
 3783SOL    HW122811   3.308   4.051   3.253  0.8352  0.1766 -0.9959
 3783SOL    HW222812   3.356   4.185   3.279 -0.9245 -0.2777 -1.1297
 3784SOL     OW22813   1.376   3.382   6.543 -0.4193 -0.1828 -0.2754
 3784SOL    HW122814   1.303   3.321   6.553  2.4839 -4.0005 -2.6244
 3784SOL    HW222815   1.450   3.323   6.556 -0.7968 -0.1573  1.8784
 3785SOL     OW22816   4.616   2.199  16.615  0.2175 -0.8379 -0.4127
 3785SOL    HW122817   4.596   2.133  16.549  0.2468 -2.3900  1.1251
 3785SOL    HW222818   4.674   2.145  16.669  0.3792 -1.3284 -1.0873
 3786SOL     OW22819   3.061   3.983   4.378  0.1384 -0.1443 -0.1322
 3786SOL    HW122820   3.078   4.007   4.287 -1.3133 -2.1951 -0.9664
 3786SOL    HW222821   3.121   4.039   4.426  0.1719  1.5001 -2.1358
 3787SOL     OW22822   3.004   2.975  16.271  0.3494  0.5530 -0.4130
 3787SOL    HW122823   2.965   3.055  16.306  0.5281  0.0032  1.0273
 3787SOL    HW222824   2.931   2.913  16.274  1.1581 -0.3171  1.3603
 3788SOL     OW22825   3.037   1.355   3.993  0.2713 -0.3935 -0.0905
 3788SOL    HW122826   2.944   1.336   4.004  0.3081 -1.3941 -1.6026
 3788SOL    HW222827   3.026   1.408   3.914  0.9542  0.4010  0.3448
 3789SOL     OW22828   4.681   2.861  11.416 -1.0857 -0.3323  0.4300
 3789SOL    HW122829   0.053   2.859  11.394 -0.5502 -0.6780  2.7257
 3789SOL    HW222830   4.654   2.931  11.357 -2.3455 -1.3982 -0.2449
 3790SOL     OW22831   2.682   0.480   5.900  0.4724  0.3675 -0.6107
 3790SOL    HW122832   2.646   0.514   5.982  0.4606 -0.1370 -0.4064
 3790SOL    HW222833   2.709   0.393   5.931 -1.3628  0.0927  0.1890
 3791SOL     OW22834   3.517   4.409   5.119 -0.4370  0.0126 -0.3698
 3791SOL    HW122835   3.478   4.385   5.034  0.2303  0.1846 -0.7227
 3791SOL    HW222836   3.541   4.500   5.105 -2.5998  0.9516  2.1887
 3792SOL     OW22837   1.964   1.924   2.437  0.3332  0.0927 -0.7048
 3792SOL    HW122838   1.980   1.946   2.529 -1.7617 -0.7896 -0.1378
 3792SOL    HW222839   2.054   1.916   2.404 -0.0094  0.7904 -1.7978
 3793SOL     OW22840   3.581   0.026   3.443 -0.0719 -0.1771 -0.1614
 3793SOL    HW122841   3.615   0.041   3.355  0.8660 -1.0602  0.0531
 3793SOL    HW222842   3.503   0.080   3.433  0.1024 -0.2263 -1.6909
 3794SOL     OW22843   1.661   3.578   0.549  0.0757 -0.3897 -0.5808
 3794SOL    HW122844   1.681   3.611   0.461 -0.6611 -1.1134 -1.0235
 3794SOL    HW222845   1.578   3.623   0.564  0.4135  0.4065 -1.1193
 3795SOL     OW22846   2.142   4.398  12.102  0.1771 -0.1977 -0.4577
 3795SOL    HW122847   2.058   4.444  12.100  0.4831  0.4156  1.2000
 3795SOL    HW222848   2.102   4.314  12.125 -0.6492  0.3370  0.0389
 3796SOL     OW22849   1.545   3.861   4.754  0.0356 -0.4817 -0.3980
 3796SOL    HW122850   1.514   3.771   4.755 -1.6997  0.0786 -3.0112
 3796SOL    HW222851   1.637   3.836   4.757 -0.2371 -1.3400  0.4695
 3797SOL     OW22852   2.330   1.208  15.752  0.2307  0.3721 -0.2235
 3797SOL    HW122853   2.349   1.139  15.815  1.5678  0.2418 -0.7696
 3797SOL    HW222854   2.405   1.198  15.693 -0.6523 -2.4754 -0.8915
 3798SOL     OW22855   3.238   4.652  17.448 -0.6220 -0.6232 -0.3177
 3798SOL    HW122856   3.319   4.638  17.397 -0.1724 -1.4769  0.6336
 3798SOL    HW222857   3.225   0.024  17.431 -1.1629 -0.8213 -1.0212
 3799SOL     OW22858   0.420   4.027  16.521  0.1672 -0.3958  0.4163
 3799SOL    HW122859   0.360   4.090  16.480  1.6367 -0.6290 -2.0560
 3799SOL    HW222860   0.465   4.083  16.584  0.4347  0.2696 -0.3663
 3800SOL     OW22861   2.181   3.175   2.818 -0.1843  0.3004  0.4458
 3800SOL    HW122862   2.144   3.203   2.735 -0.3825  1.3505  0.8875
 3800SOL    HW222863   2.250   3.121   2.780 -1.8539 -1.3551 -0.2552
 3801SOL     OW22864   2.646   0.887  16.088 -0.1665  0.2013 -0.3177
 3801SOL    HW122865   2.650   0.884  15.992 -3.1714  1.8083 -0.4681
 3801SOL    HW222866   2.552   0.877  16.100 -0.1464 -1.1379 -1.3133
 3802SOL     OW22867   4.114   4.217   3.710 -0.2565 -0.0660  0.3900
 3802SOL    HW122868   4.027   4.221   3.749  0.2120  1.9079  1.2318
 3802SOL    HW222869   4.154   4.303   3.725  0.8380  0.0214 -3.1067
 3803SOL     OW22870   0.668   1.003   6.871 -0.2249 -0.4806 -0.0122
 3803SOL    HW122871   0.662   1.057   6.950  0.3456  0.9020 -0.9079
 3803SOL    HW222872   0.667   1.055   6.791  0.1877  0.0050  0.2989
 3804SOL     OW22873   2.826   4.245   1.574  0.2962  0.1903  0.6058
 3804SOL    HW122874   2.889   4.230   1.504  0.2033 -1.0265  0.7859
 3804SOL    HW222875   2.747   4.267   1.525  0.9164  1.9146  0.3616
 3805SOL     OW22876   1.432   1.577   4.632  0.2211 -0.2383  0.5990
 3805SOL    HW122877   1.372   1.526   4.577  0.5686  0.4236 -0.3977
 3805SOL    HW222878   1.482   1.608   4.557 -1.0062 -2.2532 -1.0525
 3806SOL     OW22879   4.192   2.238  12.772 -0.6039  0.4267 -0.0829
 3806SOL    HW122880   4.211   2.317  12.823 -1.8819 -1.1357  2.7510
 3806SOL    HW222881   4.273   2.188  12.780 -0.8953  0.1148  0.9313
 3807SOL     OW22882   2.439   1.634   5.454 -0.2287  0.1354 -0.0965
 3807SOL    HW122883   2.476   1.722   5.453  1.1612 -0.4456  0.0518
 3807SOL    HW222884   2.346   1.654   5.464 -0.4097 -0.9888  0.4741
 3808SOL     OW22885   3.670   4.136   5.994  0.5236  0.6127 -0.5186
 3808SOL    HW122886   3.745   4.133   5.935  0.1037  0.6483 -1.0493
 3808SOL    HW222887   3.716   4.151   6.077  1.5490  0.3472 -1.0460
 3809SOL     OW22888   1.142   2.305  15.567 -0.3434 -0.6970  0.6223
 3809SOL    HW122889   1.206   2.332  15.502 -0.8044  0.1323  0.5138
 3809SOL    HW222890   1.068   2.363  15.549 -1.8829 -2.7813  0.2347
 3810SOL     OW22891   3.602   0.463   0.315  0.7630 -0.4653  0.3939
 3810SOL    HW122892   3.601   0.386   0.258 -1.4974  1.5372 -2.3130
 3810SOL    HW222893   3.507   0.467   0.325  0.5943  0.7954 -1.5032
 3811SOL     OW22894   1.267   2.753  12.727  0.0004  0.0532 -0.1224
 3811SOL    HW122895   1.332   2.771  12.659  0.6618 -0.6206  0.3312
 3811SOL    HW222896   1.199   2.717  12.670  0.5828  0.7058 -1.2237
 3812SOL     OW22897   2.560   0.500   6.373 -0.6342 -0.3810  0.0875
 3812SOL    HW122898   2.567   0.406   6.358 -0.8193 -0.0537 -2.0595
 3812SOL    HW222899   2.466   0.507   6.389 -0.5503  1.8790 -0.3934
 3813SOL     OW22900   2.227   4.291  11.420  0.3407 -0.1242  0.3103
 3813SOL    HW122901   2.232   4.269  11.513  0.4650  2.1948  0.8678
 3813SOL    HW222902   2.133   4.309  11.418  0.3054 -0.1694  1.4035
 3814SOL     OW22903   1.939   1.843   5.966  0.4081  0.2669 -0.1845
 3814SOL    HW122904   2.027   1.836   6.002  0.2543 -1.1893 -0.0920
 3814SOL    HW222905   1.889   1.815   6.042  0.1828  0.4136 -0.2795
 3815SOL     OW22906   2.609   1.046   1.037  0.3558  0.2677 -0.1836
 3815SOL    HW122907   2.659   1.010   0.964  3.3452 -1.5116  2.7653
 3815SOL    HW222908   2.521   1.014   1.015 -0.3711  0.7234  2.0119
 3816SOL     OW22909   3.800   2.084   3.756 -0.2079  0.3442 -0.5407
 3816SOL    HW122910   3.867   2.050   3.815 -0.8209 -0.8072 -0.5219
 3816SOL    HW222911   3.810   2.033   3.676  2.1756  2.3161 -1.5064
 3817SOL     OW22912   4.484   0.980  12.413  0.5233  0.1155 -0.3317
 3817SOL    HW122913   4.529   0.941  12.488 -1.2487  0.7142  1.0260
 3817SOL    HW222914   4.395   0.990  12.446  1.7111 -0.0603  2.9805
 3818SOL     OW22915   2.157   1.112   2.370  0.2634  0.1810  0.7719
 3818SOL    HW122916   2.154   1.144   2.280  0.8210  0.3341  0.8043
 3818SOL    HW222917   2.063   1.105   2.386  0.1539 -1.6924 -0.6790
 3819SOL     OW22918   2.772   2.479  11.111  0.2945 -0.1977 -0.2679
 3819SOL    HW122919   2.768   2.413  11.042  1.6665 -0.2445 -0.3062
 3819SOL    HW222920   2.719   2.547  11.069  0.0158 -1.7712 -2.4226
 3820SOL     OW22921   4.184   2.746   5.672 -0.3600  0.1731  0.4894
 3820SOL    HW122922   4.222   2.812   5.614 -0.2530  1.4673  2.0371
 3820SOL    HW222923   4.209   2.775   5.760  1.2187  0.0991  0.0623
 3821SOL     OW22924   3.782   4.080   8.129  0.0273 -0.5996 -0.1185
 3821SOL    HW122925   3.728   4.006   8.103 -0.2112 -0.1519 -0.9146
 3821SOL    HW222926   3.780   4.138   8.053  2.3136 -0.3460  0.0134
 3822SOL     OW22927   1.139   2.119   3.229 -0.3469 -0.1190  0.3275
 3822SOL    HW122928   1.128   2.124   3.323  2.9151 -1.9337  0.8116
 3822SOL    HW222929   1.072   2.054   3.208  2.0898 -2.3739 -0.4208
 3823SOL     OW22930   3.983   0.277   2.784  0.2359 -0.4808 -0.5738
 3823SOL    HW122931   4.032   0.273   2.702  0.4464  0.0967 -0.4760
 3823SOL    HW222932   3.988   0.185   2.808 -0.9035 -0.7306 -1.3129
 3824SOL     OW22933   0.895   4.088   4.011  0.6989 -0.4319 -0.2117
 3824SOL    HW122934   0.878   4.115   4.101 -0.5676 -0.8123 -0.3380
 3824SOL    HW222935   0.825   4.134   3.964 -0.4125  0.4023  2.2794
 3825SOL     OW22936   1.561   0.872   7.429  0.1141 -0.3906 -0.5261
 3825SOL    HW122937   1.532   0.955   7.468 -0.0382 -0.7034  0.0270
 3825SOL    HW222938   1.594   0.903   7.345  2.0930 -1.1713 -0.0357
 3826SOL     OW22939   0.967   1.767  13.455  0.1276  0.1997 -0.2624
 3826SOL    HW122940   0.919   1.842  13.490 -0.5390  0.5512 -1.9135
 3826SOL    HW222941   0.944   1.767  13.362 -0.2188 -0.2766 -0.1827
 3827SOL     OW22942   2.579   3.014  10.049  0.5396  0.1586 -0.1030
 3827SOL    HW122943   2.667   2.977  10.060 -0.6227 -2.5754 -0.0438
 3827SOL    HW222944   2.569   3.014   9.953  4.2978  1.9484 -0.4963
 3828SOL     OW22945   0.130   1.755   2.491  0.3526  0.3591  0.0409
 3828SOL    HW122946   0.085   1.699   2.429 -0.0207  1.0458 -0.3031
 3828SOL    HW222947   0.134   1.836   2.440 -3.6547 -1.0975 -2.5126
 3829SOL     OW22948   1.936   0.095   7.913 -0.4666  0.1946 -0.1040
 3829SOL    HW122949   1.855   0.048   7.932 -0.4430 -0.0578 -0.6292
 3829SOL    HW222950   1.994   0.051   7.975  1.0305  0.6380 -1.1785
 3830SOL     OW22951   0.280   4.601   5.740  0.4879 -0.4403  0.3622
 3830SOL    HW122952   0.299   4.512   5.773 -2.3545 -1.6781 -1.3735
 3830SOL    HW222953   0.356   4.642   5.781  1.0281 -2.3798  1.3131
 3831SOL     OW22954   3.532   2.289   8.043 -0.2355  0.0787 -0.2258
 3831SOL    HW122955   3.521   2.195   8.050  0.9445 -0.1466 -1.4765
 3831SOL    HW222956   3.470   2.308   7.971  1.4924 -0.5083 -1.8642
 3832SOL     OW22957   0.607   1.670   5.534 -0.5114 -0.2190 -0.1780
 3832SOL    HW122958   0.670   1.633   5.596  0.0787  0.1611 -0.5533
 3832SOL    HW222959   0.584   1.753   5.575 -0.3200 -0.7822  1.0753
 3833SOL     OW22960   2.520   2.531   5.276  0.1963  0.6139 -0.2192
 3833SOL    HW122961   2.479   2.498   5.357 -1.5713  0.2097 -1.2866
 3833SOL    HW222962   2.603   2.553   5.317 -1.2840  1.8733  2.1091
 3834SOL     OW22963   0.651   4.186   7.904 -0.0356  0.2783  0.2814
 3834SOL    HW122964   0.558   4.208   7.900  0.1126  1.0487  0.9924
 3834SOL    HW222965   0.643   4.123   7.976  0.2813 -2.4964 -2.1062
 3835SOL     OW22966   3.971   3.191   9.011  0.2745  0.1043  0.0900
 3835SOL    HW122967   3.945   3.263   8.954  1.7360  0.5770  0.0168
 3835SOL    HW222968   3.958   3.220   9.101 -0.2086 -1.5124  0.5386
 3836SOL     OW22969   0.427   4.457   6.507 -0.2494  0.2939 -0.2614
 3836SOL    HW122970   0.399   4.503   6.586 -1.3970 -0.9002  0.0345
 3836SOL    HW222971   0.356   4.393   6.498 -2.5961  3.1977 -2.4856
 3837SOL     OW22972   4.404   1.319   7.955 -0.1146 -0.3091  0.0576
 3837SOL    HW122973   4.434   1.378   7.885  0.9341  1.3758  1.9311
 3837SOL    HW222974   4.397   1.234   7.912  0.6751  0.6873 -2.0489
 3838SOL     OW22975   3.202   4.484   9.330  0.9060  0.4994  0.3599
 3838SOL    HW122976   3.237   4.535   9.403 -1.6436  1.5058  0.8565
 3838SOL    HW222977   3.276   4.496   9.270 -1.3844  2.2009 -2.1147
 3839SOL     OW22978   4.464   1.223   8.228 -0.3475  0.3542 -0.3590
 3839SOL    HW122979   4.471   1.269   8.145 -1.3700 -1.0905 -1.2397
 3839SOL    HW222980   4.406   1.154   8.197 -2.8732  0.8888  3.1782
 3840SOL     OW22981   0.661   3.022  11.794 -0.0880  0.7912 -0.2558
 3840SOL    HW122982   0.611   2.999  11.871 -0.6243  0.8592 -0.5839
 3840SOL    HW222983   0.724   3.077  11.840  1.4445 -0.0921 -1.2751
 3841SOL     OW22984   1.664   1.011   7.225 -0.5649  0.0832 -0.4825
 3841SOL    HW122985   1.738   0.981   7.172  0.7112  0.6477  0.9687
 3841SOL    HW222986   1.626   1.090   7.187 -1.5709  0.0242  0.4136
 3842SOL     OW22987   0.244   1.771   5.087  0.4564  0.3942  0.7319
 3842SOL    HW122988   0.235   1.680   5.114  3.2709  0.4100  1.7189
 3842SOL    HW222989   0.221   1.767   4.994 -0.9737 -1.0789  1.1394
 3843SOL     OW22990   2.206   3.530   3.045  0.0766  0.5200  0.2602
 3843SOL    HW122991   2.200   3.441   3.080  0.8958 -0.4419 -2.0669
 3843SOL    HW222992   2.204   3.514   2.951  0.6306  2.5021 -0.0768
 3844SOL     OW22993   4.388   1.979  15.086  0.4433  0.4843  0.5456
 3844SOL    HW122994   4.363   1.909  15.026 -0.1012  0.4275  0.8365
 3844SOL    HW222995   4.340   2.049  15.042  0.1342 -2.1760 -3.3514
 3845SOL     OW22996   2.338   1.646  14.279  0.8896 -0.3690  0.0558
 3845SOL    HW122997   2.276   1.651  14.352  1.5011 -1.1756  0.6466
 3845SOL    HW222998   2.358   1.738  14.261  0.7654 -0.4467 -0.4795
 3846SOL     OW22999   2.390   0.034   3.364  0.0019 -0.4549  0.3368
 3846SOL    HW123000   2.409   4.677   3.313 -2.8041 -0.9376  0.0164
 3846SOL    HW223001   2.335   0.070   3.294  1.9852  0.8330 -0.5792
 3847SOL     OW23002   4.367   4.153   5.227  0.4009  0.5960  0.4730
 3847SOL    HW123003   4.452   4.190   5.249  0.6628  1.3426 -1.7967
 3847SOL    HW223004   4.328   4.232   5.190  1.5628  2.0018  2.3017
 3848SOL     OW23005   1.600   0.957  11.405  0.0454 -0.2245  0.0901
 3848SOL    HW123006   1.599   1.043  11.363  1.1332 -0.6708 -0.8559
 3848SOL    HW223007   1.584   0.898  11.332 -0.1938  0.3052 -0.2846
 3849SOL     OW23008   1.226   3.646   7.189 -0.4036 -0.1350 -0.1157
 3849SOL    HW123009   1.273   3.710   7.136 -0.7905 -0.1671 -0.4905
 3849SOL    HW223010   1.190   3.696   7.264 -0.9056 -2.2010  1.0185
 3850SOL     OW23011   2.445   3.658   7.191  0.2033 -0.3938  0.3914
 3850SOL    HW123012   2.536   3.677   7.217 -0.7027  4.1795  0.0782
 3850SOL    HW223013   2.466   3.597   7.119  0.3568 -0.4530  0.4853
 3851SOL     OW23014   0.561   1.686   6.856  0.0749 -0.6046  0.3546
 3851SOL    HW123015   0.497   1.623   6.824 -3.4718  1.4089  3.4751
 3851SOL    HW223016   0.504   1.750   6.899 -0.9694 -0.2288 -1.5702
 3852SOL     OW23017   1.980   0.326  16.436 -0.2829 -0.2293  0.2310
 3852SOL    HW123018   2.018   0.251  16.389  0.3635 -0.3861  1.0113
 3852SOL    HW223019   1.972   0.392  16.366 -0.9716 -0.5571  0.0095
 3853SOL     OW23020   2.204   1.989  13.420 -0.3939 -0.1928  0.4502
 3853SOL    HW123021   2.134   1.944  13.467  0.2264 -1.9745 -0.3565
 3853SOL    HW223022   2.276   1.947  13.466 -0.5599 -1.4199 -0.3933
 3854SOL     OW23023   2.532   4.293   4.853 -0.0193 -0.1895  0.1715
 3854SOL    HW123024   2.539   4.381   4.890 -0.4607  0.7268 -1.9760
 3854SOL    HW223025   2.609   4.277   4.799 -0.4083 -0.0978 -0.4094
 3855SOL     OW23026   0.536   2.077   9.699 -0.2704 -0.0930 -0.4581
 3855SOL    HW123027   0.497   1.990   9.690 -0.9366  0.0438  1.0708
 3855SOL    HW223028   0.622   2.056   9.735 -0.1473 -1.6801 -1.7003
 3856SOL     OW23029   2.044   2.230   8.980 -0.2296 -0.3750  0.0117
 3856SOL    HW123030   2.107   2.280   9.033  0.2205  0.6886 -1.5276
 3856SOL    HW223031   1.970   2.233   9.040 -0.8432  1.7756 -0.8805
 3857SOL     OW23032   0.566   4.690   3.099 -0.6738  0.0862  0.5485
 3857SOL    HW123033   0.548   4.599   3.074  1.5978 -0.1405 -0.2682
 3857SOL    HW223034   0.549   0.022   3.021 -0.7595 -0.1077  0.4337
 3858SOL     OW23035   0.426   0.612  11.547 -0.4099 -0.6108 -0.4218
 3858SOL    HW123036   0.427   0.597  11.641 -0.1134 -1.4221 -0.5515
 3858SOL    HW223037   0.518   0.606  11.523 -0.5896  0.4343 -1.4081
 3859SOL     OW23038   0.579   1.041   6.071  0.0979 -0.1562  0.4886
 3859SOL    HW123039   0.620   1.102   6.009  0.6705 -0.0729  0.9521
 3859SOL    HW223040   0.653   0.984   6.086 -1.6950 -2.7615 -0.5454
 3860SOL     OW23041   3.164   4.427   5.119 -0.0100  0.3536  0.1354
 3860SOL    HW123042   3.198   4.350   5.072 -0.2456 -0.0110  0.5613
 3860SOL    HW223043   3.132   4.473   5.041 -1.7170 -0.9125  0.0908
 3861SOL     OW23044   0.578   3.429   4.735 -0.4814  0.0999 -0.7862
 3861SOL    HW123045   0.568   3.452   4.827 -1.1631 -0.9942 -0.5929
 3861SOL    HW223046   0.505   3.477   4.694 -1.3609 -0.1385  0.4919
 3862SOL     OW23047   4.053   1.893   8.221 -0.5432  0.8330 -0.7012
 3862SOL    HW123048   3.975   1.858   8.264 -0.3307  0.4424 -0.6273
 3862SOL    HW223049   4.013   1.925   8.140 -1.4893 -0.5505 -0.7877
 3863SOL     OW23050   3.981   2.202   9.066 -0.2359  0.4006  0.2468
 3863SOL    HW123051   3.930   2.271   9.108  0.5460  1.3414 -0.3390
 3863SOL    HW223052   4.006   2.251   8.987  0.1411 -0.1083  0.0525
 3864SOL     OW23053   2.356   3.227   7.089 -0.0237  0.4314 -1.0337
 3864SOL    HW123054   2.328   3.137   7.107  1.1097  0.3713  0.4156
 3864SOL    HW223055   2.296   3.267   7.152 -1.6021 -1.2937 -1.4312
 3865SOL     OW23056   4.366   3.365  14.379 -0.0846 -0.9077  0.4320
 3865SOL    HW123057   4.288   3.419  14.394 -0.9311 -1.9485 -0.2419
 3865SOL    HW223058   4.428   3.436  14.365 -1.7698  0.7887  1.5324
 3866SOL     OW23059   3.073   0.195   5.176  0.3881 -0.3557  0.6560
 3866SOL    HW123060   3.023   0.148   5.109 -0.4842  1.2168  0.2218
 3866SOL    HW223061   3.129   0.239   5.112  0.0473 -0.2999  0.3931
 3867SOL     OW23062   2.793   3.747   3.401 -0.2760  0.6520 -0.3203
 3867SOL    HW123063   2.831   3.731   3.487  0.2408  0.9530 -0.4917
 3867SOL    HW223064   2.755   3.834   3.414  1.1242  1.4123 -1.3260
 3868SOL     OW23065   2.621   1.991  14.887 -0.3096  0.0487 -0.1929
 3868SOL    HW123066   2.686   2.053  14.854  2.3090 -1.0201  2.9021
 3868SOL    HW223067   2.616   1.911  14.835  0.1400 -0.8147  1.0899
 3869SOL     OW23068   2.873   2.935  11.385  0.0353  0.0970 -0.2291
 3869SOL    HW123069   2.817   2.906  11.313  1.3816 -1.7383 -0.5222
 3869SOL    HW223070   2.932   2.863  11.404 -0.9221 -0.5663  0.2319
 3870SOL     OW23071   2.383   3.668   0.064 -0.2546  0.0330 -0.1886
 3870SOL    HW123072   2.428   3.605   0.121  0.5377  1.0917  0.3578
 3870SOL    HW223073   2.434   3.650  17.672  0.3601  0.6761  0.0533
 3871SOL     OW23074   0.846   0.667   8.554  0.4732 -0.4942  0.3522
 3871SOL    HW123075   0.768   0.694   8.505  0.7145 -2.4516 -1.1361
 3871SOL    HW223076   0.915   0.688   8.491 -0.8138  0.6466 -0.6822
 3872SOL     OW23077   2.007   1.485   3.847  0.1344 -0.5744  0.3750
 3872SOL    HW123078   2.007   1.580   3.851 -3.7893 -0.5957  0.6600
 3872SOL    HW223079   2.046   1.464   3.762  0.4896 -0.8037  0.5917
 3873SOL     OW23080   1.455   0.675  14.649  0.5645 -0.0967  0.3035
 3873SOL    HW123081   1.384   0.670  14.713  0.3561 -0.2730  0.0571
 3873SOL    HW223082   1.530   0.653  14.703 -0.8717 -1.8211  1.5743
 3874SOL     OW23083   3.251   4.183  17.275 -0.5789 -0.4092 -0.7859
 3874SOL    HW123084   3.181   4.167  17.337  0.0331 -0.1240 -0.0257
 3874SOL    HW223085   3.207   4.223  17.200 -0.0801  2.0961  0.2476
 3875SOL     OW23086   0.849   2.681   9.187  0.8971  1.4386  0.8320
 3875SOL    HW123087   0.836   2.612   9.253  2.4361  1.2070  0.8794
 3875SOL    HW223088   0.762   2.696   9.149  0.2035 -2.1430  0.9779
 3876SOL     OW23089   2.821   3.147   3.410 -0.6689  0.0789  0.1497
 3876SOL    HW123090   2.892   3.135   3.346  0.2880  0.6919  1.0921
 3876SOL    HW223091   2.813   3.242   3.401  1.9431  0.2125 -0.9562
 3877SOL     OW23092   3.582   1.133   7.319 -0.1041 -0.4277 -0.3607
 3877SOL    HW123093   3.622   1.063   7.370  0.0593  0.1411  0.2996
 3877SOL    HW223094   3.610   1.205   7.376 -0.5857 -0.3603 -0.2065
 3878SOL     OW23095   3.307   3.800  11.991 -0.0780 -0.2177  0.0759
 3878SOL    HW123096   3.402   3.807  11.983 -0.3414  1.1455 -1.7068
 3878SOL    HW223097   3.273   3.787  11.903 -0.9270 -4.0007  0.9353
 3879SOL     OW23098   0.077   3.562   1.168 -0.1959  0.4027  0.5138
 3879SOL    HW123099   4.708   3.583   1.144 -0.3093  0.6288  1.1570
 3879SOL    HW223100   0.070   3.506   1.245 -1.8967  1.2563  0.9618
 3880SOL     OW23101   2.718   3.985   3.128  0.1861 -0.8898 -0.0024
 3880SOL    HW123102   2.661   3.970   3.052  0.9383  0.5912 -0.8761
 3880SOL    HW223103   2.804   4.002   3.090 -0.3387  0.5036 -0.6043
 3881SOL     OW23104   1.595   0.397   0.012  0.0275  0.3324  0.4085
 3881SOL    HW123105   1.534   0.470   0.000 -0.0343  0.5453  2.0452
 3881SOL    HW223106   1.535   0.322   0.012 -1.4474  1.5035 -0.0568
 3882SOL     OW23107   4.286   0.214   7.731 -0.1316 -0.2630  0.1905
 3882SOL    HW123108   4.285   0.130   7.777 -2.2109 -0.8491 -0.9074
 3882SOL    HW223109   4.297   0.187   7.640 -0.0291  2.2955 -0.5602
 3883SOL     OW23110   2.525   3.723   2.730 -0.5979 -0.2758  0.1273
 3883SOL    HW123111   2.498   3.631   2.734  1.4691 -0.8835 -0.4227
 3883SOL    HW223112   2.597   3.717   2.668 -0.0976  0.3129  0.6525
 3884SOL     OW23113   3.524   3.008   2.794  0.5238 -0.2098 -0.2638
 3884SOL    HW123114   3.467   3.056   2.734 -0.2982  0.8333  1.3390
 3884SOL    HW223115   3.561   3.079   2.848 -0.6878  1.2176 -1.3244
 3885SOL     OW23116   2.463   0.644   9.826 -0.4370  0.3444  0.2578
 3885SOL    HW123117   2.526   0.575   9.846 -2.0727 -1.3048 -0.2456
 3885SOL    HW223118   2.424   0.612   9.745 -0.8466  2.1466 -0.2673
 3886SOL     OW23119   4.612   3.747   8.565  0.4691  0.1506 -0.5790
 3886SOL    HW123120   4.536   3.700   8.532  1.8519 -1.4736 -1.4157
 3886SOL    HW223121   4.626   3.701   8.647  0.3186  1.3834  0.1393
 3887SOL     OW23122   4.416   3.062   9.874 -0.5669  0.1438 -0.0854
 3887SOL    HW123123   4.509   3.051   9.853 -0.0271 -0.9523  2.8843
 3887SOL    HW223124   4.383   2.991   9.819 -3.8002  0.4311  1.5054
 3888SOL     OW23125   2.129   1.513   3.188 -0.4618 -0.5599 -0.1145
 3888SOL    HW123126   2.218   1.547   3.184 -1.2379  1.4672  0.0513
 3888SOL    HW223127   2.132   1.451   3.261  0.2751  0.5748  0.8236
 3889SOL     OW23128   1.675   2.600   1.611 -0.1554 -0.0855 -0.5481
 3889SOL    HW123129   1.747   2.658   1.587  0.6219 -0.8282 -0.0431
 3889SOL    HW223130   1.598   2.625   1.560  0.3986  1.2814 -0.7025
 3890SOL     OW23131   4.225   1.425   4.919  0.3092 -0.2365 -0.9250
 3890SOL    HW123132   4.176   1.506   4.934 -0.8471 -1.2087  0.6435
 3890SOL    HW223133   4.265   1.443   4.834 -2.3302  2.2907 -1.6519
 3891SOL     OW23134   2.584   2.931   5.325  0.5026 -0.2147  0.3480
 3891SOL    HW123135   2.651   2.864   5.339  0.5507 -0.5561 -1.4740
 3891SOL    HW223136   2.615   2.975   5.245  1.8339 -0.9257  0.4762
 3892SOL     OW23137   4.259   4.399   9.209  0.2321 -0.6103 -0.1179
 3892SOL    HW123138   4.169   4.430   9.215  0.1934 -1.3562  2.9965
 3892SOL    HW223139   4.307   4.462   9.155 -1.5258  0.8047 -0.0240
 3893SOL     OW23140   3.353   0.806  10.360 -0.3953 -0.0999 -0.0899
 3893SOL    HW123141   3.447   0.787  10.353 -0.2001  0.3594  1.3159
 3893SOL    HW223142   3.318   0.728  10.403  1.3579  0.4503  2.3288
 3894SOL     OW23143   3.257   1.610  10.107  0.4920 -0.2569 -0.3946
 3894SOL    HW123144   3.296   1.604  10.020  2.6855  1.3453  0.4652
 3894SOL    HW223145   3.179   1.555  10.097  0.8576 -0.7417 -0.5539
 3895SOL     OW23146   3.403   1.186   5.655  0.1175 -0.0123  1.1246
 3895SOL    HW123147   3.331   1.137   5.616  0.8143 -0.9946  1.0820
 3895SOL    HW223148   3.393   1.260   5.595  2.5808 -0.5557  0.0281
 3896SOL     OW23149   2.760   3.581   7.388  0.1117  0.0367 -0.1014
 3896SOL    HW123150   2.714   3.630   7.457 -0.1474 -1.2614  0.6432
 3896SOL    HW223151   2.726   3.630   7.313  0.5727  0.3281 -0.1158
 3897SOL     OW23152   3.141   2.923  15.529  0.0708 -0.3224 -0.1479
 3897SOL    HW123153   3.118   2.886  15.614  2.6126  0.4612  0.8770
 3897SOL    HW223154   3.212   2.980  15.557 -0.3554  0.0978  0.0775
 3898SOL     OW23155   4.042   1.047  10.280 -0.0217  0.0283 -0.2670
 3898SOL    HW123156   3.974   0.991  10.315 -1.4770  0.7638 -1.9152
 3898SOL    HW223157   4.002   1.070  10.197 -0.1526 -0.8756 -0.4492
 3899SOL     OW23158   4.524   1.565   5.741  0.1882  0.0785  0.4433
 3899SOL    HW123159   4.504   1.595   5.829  1.2125  3.1699 -0.3853
 3899SOL    HW223160   4.609   1.602   5.717 -0.3556  0.7614 -0.4451
 3900SOL     OW23161   0.361   0.500   6.786 -0.8236  0.0753 -0.0817
 3900SOL    HW123162   0.400   0.426   6.740  0.3565  2.2582 -2.6043
 3900SOL    HW223163   0.311   0.539   6.715  0.2821 -0.8048 -1.3471
 3901SOL     OW23164   4.213   2.102   8.347 -0.0379 -0.3040  0.3534
 3901SOL    HW123165   4.287   2.048   8.373  1.0722 -0.6311 -3.5409
 3901SOL    HW223166   4.166   2.050   8.282  0.6331 -1.3598  0.7152
 3902SOL     OW23167   1.332   1.612   8.682  0.1866 -0.0022  0.2611
 3902SOL    HW123168   1.292   1.641   8.764 -2.3756 -0.6751 -0.7662
 3902SOL    HW223169   1.422   1.646   8.682  0.4662 -0.7844 -0.8148
 3903SOL     OW23170   3.714   3.630   6.572  0.3149 -0.2131 -0.0514
 3903SOL    HW123171   3.804   3.663   6.569 -0.5351  2.1947  0.2701
 3903SOL    HW223172   3.662   3.711   6.573 -1.1733 -1.1401 -1.1992
 3904SOL     OW23173   2.180   2.034   8.132  0.0841 -0.1713 -0.5613
 3904SOL    HW123174   2.184   1.939   8.120 -0.5371 -0.1705 -0.7744
 3904SOL    HW223175   2.095   2.045   8.174  0.8416  0.6294  0.7566
 3905SOL     OW23176   2.808   1.057   5.345 -0.0507 -0.3616  0.3854
 3905SOL    HW123177   2.750   1.133   5.355  0.2682  0.1987 -2.1263
 3905SOL    HW223178   2.869   1.094   5.282  0.6236 -0.7252  0.8207
 3906SOL     OW23179   0.900   2.409   5.638  0.0265  0.8339 -0.0486
 3906SOL    HW123180   0.823   2.393   5.693 -0.1339  0.6579 -0.3254
 3906SOL    HW223181   0.970   2.358   5.681  0.2598 -0.3925 -1.8679
 3907SOL     OW23182   3.853   4.061   5.477 -0.2098  0.0830  0.0895
 3907SOL    HW123183   3.771   4.105   5.457  0.6297  0.5039 -2.4451
 3907SOL    HW223184   3.851   4.045   5.571 -4.0481 -0.2409 -0.0560
 3908SOL     OW23185   3.394   4.438  15.545  0.3641 -0.2974 -0.0164
 3908SOL    HW123186   3.468   4.440  15.606  1.2080  0.7523 -1.0803
 3908SOL    HW223187   3.359   4.351  15.565  1.0082  0.1220  2.9431
 3909SOL     OW23188   3.630   3.113   3.345 -0.2524 -0.4182 -0.6205
 3909SOL    HW123189   3.643   3.204   3.321 -2.1336 -0.0457 -0.1808
 3909SOL    HW223190   3.716   3.092   3.382  1.2523  3.3822 -1.9696
 3910SOL     OW23191   0.584   1.748   7.993 -0.2689  0.0552  0.7318
 3910SOL    HW123192   0.634   1.668   8.011 -0.5356 -0.2271  0.2234
 3910SOL    HW223193   0.665   1.794   7.971  0.1583 -1.3628 -0.6137
 3911SOL     OW23194   3.513   2.512   7.568  0.2202  0.2046 -0.3353
 3911SOL    HW123195   3.451   2.561   7.622 -0.2989 -1.2562  0.3840
 3911SOL    HW223196   3.593   2.564   7.582 -0.7106  0.9754  2.1097
 3912SOL     OW23197   3.767   2.371   3.395 -0.1585  0.0925 -0.1098
 3912SOL    HW123198   3.720   2.353   3.314 -0.1255  0.0763 -0.1255
 3912SOL    HW223199   3.692   2.360   3.454 -0.2740 -1.5400 -0.5702
 3913SOL     OW23200   4.402   3.826   6.748 -0.1106 -0.2730 -0.0740
 3913SOL    HW123201   4.424   3.908   6.704  0.7615 -1.6422 -2.1876
 3913SOL    HW223202   4.379   3.849   6.838  0.6112 -1.5253  0.4362
 3914SOL     OW23203   0.780   2.032   3.437 -0.5642 -0.2825  0.6377
 3914SOL    HW123204   0.773   1.940   3.463  0.5115 -0.4523  0.2926
 3914SOL    HW223205   0.872   2.037   3.412 -0.6849  0.0590  0.2722
 3915SOL     OW23206   3.879   3.579   8.895  0.3139 -0.0834 -0.0143
 3915SOL    HW123207   3.909   3.555   8.983 -1.0537 -0.7106  0.2913
 3915SOL    HW223208   3.805   3.521   8.875  1.1038 -1.6328  1.5169
 3916SOL     OW23209   3.164   0.412   3.351 -0.4953 -0.1977 -0.0116
 3916SOL    HW123210   3.151   0.401   3.446 -1.0338 -3.7580 -0.4797
 3916SOL    HW223211   3.221   0.339   3.328  1.5371  1.0416  1.1433
 3917SOL     OW23212   0.928   2.272   4.045  0.0366 -0.8374 -0.1845
 3917SOL    HW123213   0.935   2.222   3.963  0.1542  1.6938 -1.7463
 3917SOL    HW223214   0.835   2.253   4.060 -0.0441  0.8812  1.4073
 3918SOL     OW23215   3.617   1.913   3.502  0.1195 -0.4387 -0.3125
 3918SOL    HW123216   3.693   1.874   3.544  1.1197  0.4807 -1.2660
 3918SOL    HW223217   3.599   1.836   3.448  1.9903  0.6277 -2.4869
 3919SOL     OW23218   4.069   0.581  11.876  0.9082  0.4602 -0.7326
 3919SOL    HW123219   4.135   0.649  11.891 -1.5750  2.4808  0.8998
 3919SOL    HW223220   4.119   0.502  11.855 -0.0572  0.0553 -1.5004
 3920SOL     OW23221   1.398   4.054  10.998 -0.1793  0.1850 -0.0044
 3920SOL    HW123222   1.453   4.122  10.958 -0.4549 -0.1154 -0.8960
 3920SOL    HW223223   1.332   4.115  11.029 -1.8708 -2.1024  0.9095
 3921SOL     OW23224   1.147   4.508   8.828  0.2141 -0.4588  0.2331
 3921SOL    HW123225   1.139   4.482   8.920 -0.5834 -0.2464  0.2306
 3921SOL    HW223226   1.158   4.426   8.780  0.2085 -0.4850  0.2762
 3922SOL     OW23227   3.686   3.568  10.086 -0.1019  0.4123  0.3652
 3922SOL    HW123228   3.594   3.588  10.102  0.1524 -1.0660  3.6621
 3922SOL    HW223229   3.720   3.574  10.175 -1.9753  1.7525  0.9815
 3923SOL     OW23230   1.712   0.425   4.794  0.1478 -0.2188 -0.8161
 3923SOL    HW123231   1.753   0.389   4.872  2.2116  0.0526 -1.7930
 3923SOL    HW223232   1.646   0.356   4.786 -0.2580  0.0317  0.3414
 3924SOL     OW23233   2.130   2.021  17.567 -0.1019  0.0064  0.4491
 3924SOL    HW123234   2.097   2.028  17.657  0.7321 -0.2243  0.7762
 3924SOL    HW223235   2.051   2.037  17.517 -0.7542 -0.2848  1.3804
 3925SOL     OW23236   2.691   4.411  13.803 -0.1029  1.1825  0.6062
 3925SOL    HW123237   2.699   4.468  13.727  1.6617  1.0340  0.6933
 3925SOL    HW223238   2.777   4.402  13.844 -0.3514  0.6747  1.0137
 3926SOL     OW23239   0.562   1.189   3.498 -0.2817  0.3552 -0.2120
 3926SOL    HW123240   0.655   1.198   3.522  0.3384 -0.6782 -2.1628
 3926SOL    HW223241   0.556   1.095   3.514 -1.5730  0.7999  1.8203
 3927SOL     OW23242   4.207   0.290  16.971 -0.0962 -0.2822  0.3517
 3927SOL    HW123243   4.119   0.252  16.962 -0.6353  1.3842 -1.2554
 3927SOL    HW223244   4.246   0.241  16.899  0.9964  0.1298  0.6760
 3928SOL     OW23245   4.704   3.316   5.370  0.3300 -0.3278 -0.4659
 3928SOL    HW123246   4.661   3.369   5.302 -0.4559 -0.9805 -0.4728
 3928SOL    HW223247   0.035   3.253   5.320 -1.1038 -2.6949  1.0295
 3929SOL     OW23248   2.308   3.676  10.227  0.1944 -0.3835 -0.5855
 3929SOL    HW123249   2.304   3.605  10.163 -2.1060 -0.7036 -0.1115
 3929SOL    HW223250   2.388   3.720  10.201  0.0562 -0.5474 -1.2936
 3930SOL     OW23251   3.300   4.680   2.629  0.0144  0.3303 -0.4260
 3930SOL    HW123252   3.380   4.695   2.578 -0.7478 -1.1465 -2.0549
 3930SOL    HW223253   3.263   0.047   2.633  0.7409  0.7026 -1.7974
 3931SOL     OW23254   2.215   3.927   3.230  0.9213 -0.1434 -0.0082
 3931SOL    HW123255   2.215   4.004   3.173 -3.1584  0.3558  0.6717
 3931SOL    HW223256   2.172   3.967   3.306  1.9062  0.7095  0.0988
 3932SOL     OW23257   1.858   4.641   5.126  0.4514 -0.0675 -0.0803
 3932SOL    HW123258   1.812   4.562   5.154  0.1583 -0.3155 -1.2750
 3932SOL    HW223259   1.927   4.649   5.193 -0.9835  1.8677  1.1615
 3933SOL     OW23260   1.206   3.034  11.662 -0.1611  0.0451  0.1847
 3933SOL    HW123261   1.197   3.119  11.618 -0.7121 -0.7439 -1.2591
 3933SOL    HW223262   1.197   2.973  11.588  1.7032  0.0487 -0.0442
 3934SOL     OW23263   3.862   2.668   9.068 -0.1097  0.1122  0.0624
 3934SOL    HW123264   3.922   2.603   9.105 -0.2245  0.6018  1.0863
 3934SOL    HW223265   3.799   2.611   9.022 -2.0566  1.6219  0.8592
 3935SOL     OW23266   3.830   4.346   2.781  0.6178 -0.3603  0.0709
 3935SOL    HW123267   3.736   4.362   2.785  0.3496 -1.8134 -0.2340
 3935SOL    HW223268   3.833   4.250   2.771  1.3766 -0.4337  0.9300
 3936SOL     OW23269   2.518   3.286   4.594 -0.4353 -0.2744 -0.1135
 3936SOL    HW123270   2.533   3.357   4.657  0.8856  0.5200 -1.3182
 3936SOL    HW223271   2.450   3.234   4.636  0.9649 -0.5611  1.7863
 3937SOL     OW23272   2.794   3.338   5.164  0.1747  0.0599  0.3550
 3937SOL    HW123273   2.879   3.294   5.155 -0.7832 -1.0420 -3.3265
 3937SOL    HW223274   2.812   3.426   5.194 -1.5276  0.1571  1.0448
 3938SOL     OW23275   2.044   0.098  10.244  0.3187  0.1571 -0.2975
 3938SOL    HW123276   1.960   0.083  10.288  0.2162 -0.6179 -0.7618
 3938SOL    HW223277   2.053   0.193  10.250  0.9167  0.0580  0.3656
 3939SOL     OW23278   0.473   1.277   1.803  0.7829  0.0142 -0.6672
 3939SOL    HW123279   0.503   1.352   1.751 -1.9659  0.8051 -1.1161
 3939SOL    HW223280   0.525   1.200   1.779 -0.1243 -1.4231  1.9730
 3940SOL     OW23281   4.137   3.896  14.805  0.0281 -0.3297 -0.2620
 3940SOL    HW123282   4.143   3.959  14.877 -1.6536  0.2703 -0.6502
 3940SOL    HW223283   4.162   3.816  14.852  0.8134 -0.0085 -0.1296
 3941SOL     OW23284   4.339   1.262   8.929  0.3169 -0.1915 -0.2734
 3941SOL    HW123285   4.430   1.255   8.898  0.3504 -3.5178  0.5359
 3941SOL    HW223286   4.292   1.241   8.848  0.6526 -2.6251  0.1549
 3942SOL     OW23287   0.053   2.308   0.377  0.6411 -0.0781 -0.2870
 3942SOL    HW123288   0.121   2.252   0.415 -0.4524 -0.9251  0.4061
 3942SOL    HW223289   4.715   2.313   0.452  2.5750  0.9556  1.1860
 3943SOL     OW23290   1.430   1.831   5.762 -0.0318  0.2326  0.0414
 3943SOL    HW123291   1.355   1.791   5.806  0.0001 -0.2628 -0.3516
 3943SOL    HW223292   1.398   1.921   5.764 -1.3659 -0.3081  2.4419
 3944SOL     OW23293   0.104   3.655   4.070 -0.1260 -0.6634 -0.0842
 3944SOL    HW123294   0.129   3.643   3.978  0.9231  1.1155 -0.0404
 3944SOL    HW223295   0.149   3.735   4.098 -0.1587 -0.6702 -0.0140
 3945SOL     OW23296   3.263   1.372  15.692  0.3367 -0.8689 -0.3431
 3945SOL    HW123297   3.307   1.319  15.625 -0.7754 -1.0525 -0.9206
 3945SOL    HW223298   3.205   1.423  15.636  0.7152 -0.6768 -0.5586
 3946SOL     OW23299   2.212   3.383  16.035 -0.1295  0.5197  0.0668
 3946SOL    HW123300   2.159   3.451  15.994  1.9806  1.1742 -1.5440
 3946SOL    HW223301   2.298   3.424  16.036 -0.9760  2.2749  1.8646
 3947SOL     OW23302   4.109   3.543   8.776  0.6856  0.6622 -0.0135
 3947SOL    HW123303   4.135   3.630   8.747  0.8104  0.0935 -1.5827
 3947SOL    HW223304   4.025   3.569   8.813  0.6075  1.4004 -0.7303
 3948SOL     OW23305   0.793   4.372   9.909  0.0151  0.2972 -0.0534
 3948SOL    HW123306   0.841   4.356   9.828 -0.3466  2.3521 -0.6706
 3948SOL    HW223307   0.712   4.333   9.878  0.0776 -0.0532  0.2261
 3949SOL     OW23308   1.741   2.043  11.385  0.0677 -0.1080  0.1582
 3949SOL    HW123309   1.738   1.955  11.348  1.8545  0.2946 -0.9768
 3949SOL    HW223310   1.686   2.027  11.462  0.6862  2.9189  1.2455
 3950SOL     OW23311   4.452   1.909   3.428  0.2334  0.1869 -0.0990
 3950SOL    HW123312   4.529   1.873   3.473  1.6507  2.6991 -0.4906
 3950SOL    HW223313   4.487   1.920   3.340 -0.7767  2.0805 -0.2633
 3951SOL     OW23314   0.975   0.002  10.651 -0.1041 -0.5881 -0.3646
 3951SOL    HW123315   0.972   0.049  10.734  2.7174 -0.3860 -0.3912
 3951SOL    HW223316   0.892   0.038  10.619  0.4960 -0.0821 -1.3664
 3952SOL     OW23317   3.133   0.960   3.148  0.4632 -0.2957  0.3206
 3952SOL    HW123318   3.040   0.979   3.136  0.0920 -2.1159  0.4075
 3952SOL    HW223319   3.165   1.033   3.201  1.0793 -0.2035 -0.1724
 3953SOL     OW23320   3.649   1.964   8.503  0.5675 -0.1993  0.5564
 3953SOL    HW123321   3.646   1.956   8.599  1.7970  1.2673  0.7136
 3953SOL    HW223322   3.558   1.985   8.484  0.2318 -0.0818  2.3136
 3954SOL     OW23323   3.933   3.125   4.720 -0.1758  0.1868 -0.2989
 3954SOL    HW123324   3.961   3.209   4.684 -0.1415 -0.3322 -1.4779
 3954SOL    HW223325   4.013   3.072   4.719  0.5007  1.1862  0.8455
 3955SOL     OW23326   3.008   4.328   3.434  0.5478 -0.1246  0.2312
 3955SOL    HW123327   2.991   4.237   3.462 -1.3051 -0.1099 -0.8424
 3955SOL    HW223328   2.921   4.341   3.395  1.7163  1.4525 -1.8605
 3956SOL     OW23329   2.660   0.905  15.805  0.6832 -0.4644 -0.4191
 3956SOL    HW123330   2.635   0.991  15.771  1.3416  0.0919  0.5205
 3956SOL    HW223331   2.654   0.844  15.732 -0.6850 -1.8633  0.8676
 3957SOL     OW23332   0.022   2.331   5.578  0.4776  0.4950 -0.2801
 3957SOL    HW123333   0.056   2.333   5.667 -0.5537  1.4276  0.0936
 3957SOL    HW223334   4.673   2.267   5.585  0.9327 -0.2072 -2.2159
 3958SOL     OW23335   3.154   4.039   9.104 -0.2701 -0.3109 -0.6088
 3958SOL    HW123336   3.126   4.100   9.172  1.0482  0.5168 -0.8209
 3958SOL    HW223337   3.131   4.090   9.027  0.3055  3.1416  1.5012
 3959SOL     OW23338   0.438   1.277  11.831  0.2685 -0.1164  0.0608
 3959SOL    HW123339   0.485   1.234  11.760 -1.3987  1.2811 -1.8703
 3959SOL    HW223340   0.447   1.367  11.799 -2.3168 -0.2483 -1.0330
 3960SOL     OW23341   2.016   0.149   7.666 -0.4559 -0.0207  0.1997
 3960SOL    HW123342   2.056   0.231   7.694 -0.8796  0.2827 -0.0908
 3960SOL    HW223343   1.970   0.121   7.745  1.5212  0.4732  1.5244
 3961SOL     OW23344   1.221   2.594   4.884  0.0261  0.0515 -0.0476
 3961SOL    HW123345   1.139   2.553   4.855 -0.7466  1.3724  0.2391
 3961SOL    HW223346   1.243   2.538   4.959  0.0477  2.8404  2.0427
 3962SOL     OW23347   0.823   1.069   3.071 -0.3195  0.1802 -0.3020
 3962SOL    HW123348   0.849   1.152   3.112 -1.5922  0.6479 -0.4339
 3962SOL    HW223349   0.844   1.001   3.135  0.8084 -1.0387 -1.9956
 3963SOL     OW23350   0.016   0.516   5.656 -0.1468  0.6301 -0.0822
 3963SOL    HW123351   4.663   0.543   5.710 -0.9240 -1.3171 -0.1972
 3963SOL    HW223352   0.063   0.599   5.647 -0.2241  0.7998  1.0494
 3964SOL     OW23353   4.277   0.577   5.858 -0.1925 -0.6919 -0.5574
 3964SOL    HW123354   4.223   0.629   5.917 -0.4307 -0.0689 -1.3183
 3964SOL    HW223355   4.221   0.590   5.782 -1.9073  0.2275  0.8624
 3965SOL     OW23356   2.510   4.419  12.768 -0.0829  0.2951  0.0922
 3965SOL    HW123357   2.417   4.441  12.777 -0.2618 -1.1256  1.7061
 3965SOL    HW223358   2.546   4.455  12.849  1.3893 -2.7459  0.7967
 3966SOL     OW23359   1.853   1.278   9.549 -0.2396  0.3124 -0.4411
 3966SOL    HW123360   1.943   1.310   9.553 -0.2317  0.4855 -2.1650
 3966SOL    HW223361   1.864   1.183   9.547  0.7592  0.4165  0.2356
 3967SOL     OW23362   4.145   4.473  17.456 -0.0613 -0.5134  0.0820
 3967SOL    HW123363   4.177   4.398  17.505 -2.1350 -1.6823 -0.3872
 3967SOL    HW223364   4.081   4.432  17.400 -0.9569 -0.0022  0.7336
 3968SOL     OW23365   0.636   0.309   9.636  0.2585 -0.3943 -0.0207
 3968SOL    HW123366   0.606   0.396   9.662  0.7100 -1.2677  3.3873
 3968SOL    HW223367   0.715   0.325   9.585  0.7961 -1.2591  0.5359
 3969SOL     OW23368   4.606   0.666   9.951  0.6132 -1.0906  0.0052
 3969SOL    HW123369   4.644   0.689   9.865 -0.0370 -1.8494 -0.4799
 3969SOL    HW223370   4.678   0.681  10.013 -0.3858  4.8013 -0.2396
 3970SOL     OW23371   2.760   2.212  11.416 -0.7625  0.0476  0.5613
 3970SOL    HW123372   2.779   2.302  11.392 -1.8925  0.6598  1.9685
 3970SOL    HW223373   2.789   2.157  11.344 -0.4876  0.9052  0.0236
 3971SOL     OW23374   3.916   1.638   7.307  0.4999 -0.4131 -0.3611
 3971SOL    HW123375   3.911   1.734   7.309  4.5942 -0.2042 -0.4894
 3971SOL    HW223376   3.849   1.627   7.239 -0.3766  0.1861  0.3959
 3972SOL     OW23377   2.020   0.915   6.639  0.1012 -0.6675  0.6835
 3972SOL    HW123378   2.081   0.865   6.693  1.5383 -0.9605 -1.2204
 3972SOL    HW223379   1.952   0.929   6.706  0.2497  0.8772  0.5096
 3973SOL     OW23380   0.802   2.768   7.135 -0.9295  0.2441  0.0985
 3973SOL    HW123381   0.773   2.762   7.044  5.5945 -1.8684 -1.8334
 3973SOL    HW223382   0.839   2.856   7.138  2.1451 -1.0258 -0.3944
 3974SOL     OW23383   1.014   1.126   5.046  0.0317 -0.5236  0.1688
 3974SOL    HW123384   1.064   1.099   5.123 -1.8319 -1.3597  1.1204
 3974SOL    HW223385   0.932   1.076   5.049  0.6278 -1.6368 -1.9256
 3975SOL     OW23386   1.337   0.005   3.680 -0.1022 -0.4788  0.6361
 3975SOL    HW123387   1.304   4.641   3.652 -2.0991  0.9785 -1.4051
 3975SOL    HW223388   1.374   4.718   3.768 -1.7937  0.3628  1.4153
 3976SOL     OW23389   2.456   1.189   7.358 -0.3985 -0.0591  0.8036
 3976SOL    HW123390   2.381   1.168   7.303 -0.1056  2.3836 -0.5414
 3976SOL    HW223391   2.404   1.215   7.434 -0.8362  0.0628  0.4575
 3977SOL     OW23392   4.444   1.385  10.827  0.4056 -0.4121  0.0594
 3977SOL    HW123393   4.505   1.422  10.764 -1.8791  1.1425 -1.2428
 3977SOL    HW223394   4.478   1.295  10.832 -1.7958 -1.2418  0.5053
 3978SOL     OW23395   1.758   4.646  14.255 -0.2309  0.6878 -0.0322
 3978SOL    HW123396   1.792   4.707  14.321  0.3275 -0.0505  0.3742
 3978SOL    HW223397   1.682   4.618  14.306  0.2734  1.2675  1.0432
 3979SOL     OW23398   2.331   4.236   4.251  0.8502  0.1043  0.2943
 3979SOL    HW123399   2.276   4.170   4.208  1.8913 -0.7505  0.2745
 3979SOL    HW223400   2.264   4.304   4.252  1.8031  1.0378  1.2023
 3980SOL     OW23401   0.423   1.125   1.135  0.3536  0.1107  0.2447
 3980SOL    HW123402   0.378   1.128   1.051 -0.4271  1.3721  0.7254
 3980SOL    HW223403   0.441   1.218   1.147  1.8274  0.2782 -3.0221
 3981SOL     OW23404   4.666   2.350   3.880  0.5171 -0.4301 -0.2623
 3981SOL    HW123405   4.592   2.294   3.858 -0.4153  0.5889  0.2777
 3981SOL    HW223406   4.676   2.413   3.809  0.0275 -2.1589 -1.8475
 3982SOL     OW23407   1.102   2.451   5.334  0.0656 -0.0526 -0.7012
 3982SOL    HW123408   1.018   2.496   5.328  0.1543  0.6157  3.2269
 3982SOL    HW223409   1.154   2.489   5.263  0.6263 -1.9762 -1.3326
 3983SOL     OW23410   0.009   2.822  13.451 -0.0316 -0.0636  0.2138
 3983SOL    HW123411   4.678   2.894  13.485  1.2328  1.4113 -0.9432
 3983SOL    HW223412   0.004   2.829  13.355  0.0867 -1.6284  0.0796
 3984SOL     OW23413   0.804   0.564   9.247 -0.3307  0.6310 -0.0362
 3984SOL    HW123414   0.897   0.542   9.249 -0.7135 -1.1892 -1.9718
 3984SOL    HW223415   0.809   0.632   9.179 -0.4041  0.3252 -0.3490
 3985SOL     OW23416   1.117   2.420   9.783  0.4579 -0.5069  0.2718
 3985SOL    HW123417   1.054   2.356   9.817  0.1176  0.1707  0.9078
 3985SOL    HW223418   1.199   2.392   9.824 -0.0088 -0.3378  1.3153
 3986SOL     OW23419   1.049   2.576   9.017 -0.4106 -0.0650  0.0091
 3986SOL    HW123420   1.017   2.624   8.941  0.6321  0.3504 -0.1602
 3986SOL    HW223421   0.993   2.614   9.085 -0.3236 -0.0776  0.0879
 3987SOL     OW23422   0.184   1.466   8.200 -0.0603 -0.2920 -0.1865
 3987SOL    HW123423   0.263   1.520   8.190  0.5114 -0.8734  1.1759
 3987SOL    HW223424   0.153   1.489   8.287 -0.3825 -1.3079 -0.0276
 3988SOL     OW23425   2.283   0.587   1.442 -0.2234  0.1164  0.3382
 3988SOL    HW123426   2.248   0.630   1.519 -0.2577  0.3787  0.1773
 3988SOL    HW223427   2.357   0.532   1.470 -0.0221  1.5305  2.5918
 3989SOL     OW23428   1.219   4.332  12.511  0.4772  0.5071  0.1353
 3989SOL    HW123429   1.188   4.313  12.423 -3.0124  1.7701  1.0711
 3989SOL    HW223430   1.161   4.278  12.564 -1.3893  1.4170 -0.9598
 3990SOL     OW23431   2.375   1.405   1.050 -0.1126 -0.0216  0.4493
 3990SOL    HW123432   2.345   1.351   0.976 -1.8501  1.4985  0.0330
 3990SOL    HW223433   2.311   1.390   1.120  0.8794 -0.1857  1.3245
 3991SOL     OW23434   2.700   1.705  14.496  0.1243  0.2433 -0.0022
 3991SOL    HW123435   2.632   1.759  14.456 -0.5319 -1.5259 -1.3211
 3991SOL    HW223436   2.667   1.710  14.585 -1.3303  2.9012 -0.6847
 3992SOL     OW23437   2.612   3.765  14.789  0.0179 -0.4241 -0.3807
 3992SOL    HW123438   2.527   3.806  14.801 -0.1279 -0.3226 -1.8343
 3992SOL    HW223439   2.596   3.703  14.718 -1.4107  0.4340 -0.7967
 3993SOL     OW23440   2.199   4.498   4.319 -0.0762 -0.8455  0.4664
 3993SOL    HW123441   2.260   4.468   4.386  0.5498 -3.1671 -1.1486
 3993SOL    HW223442   2.224   4.586   4.291  0.0885 -0.5643  1.4844
 3994SOL     OW23443   2.165   4.717   7.164 -0.1291 -0.6458  0.0784
 3994SOL    HW123444   2.097   0.015   7.228  2.6444  0.0513  2.8498
 3994SOL    HW223445   2.120   4.647   7.117 -1.6346  0.8084 -0.6278
 3995SOL     OW23446   1.301   4.448   6.171 -0.2597 -0.1155  0.4156
 3995SOL    HW123447   1.301   4.432   6.076 -1.5564  1.4601  0.1307
 3995SOL    HW223448   1.395   4.451   6.183 -0.2207 -4.1261  0.8481
 3996SOL     OW23449   3.017   1.057   4.043  0.1540 -0.0514 -0.5440
 3996SOL    HW123450   2.998   1.013   3.960  0.0068 -0.1787 -0.4432
 3996SOL    HW223451   3.107   1.080   4.021  0.3133 -1.1557 -1.0382
 3997SOL     OW23452   0.202   1.275   1.524  0.1074  0.2213 -0.2881
 3997SOL    HW123453   0.197   1.359   1.569 -0.4354 -0.1941  0.4337
 3997SOL    HW223454   0.295   1.255   1.535  0.1127  0.4644  0.0919
 3998SOL     OW23455   0.683   0.832   2.440  0.2077 -0.0774 -0.1157
 3998SOL    HW123456   0.736   0.859   2.515  0.4752  1.6518 -0.9534
 3998SOL    HW223457   0.661   0.741   2.464  1.2964 -0.5299 -0.8406
 3999SOL     OW23458   2.836   2.367   2.872 -0.1771  0.3322  0.2119
 3999SOL    HW123459   2.883   2.427   2.931  5.3268 -2.7451 -1.0525
 3999SOL    HW223460   2.784   2.324   2.940 -0.5003 -0.3115 -0.4464
 4000SOL     OW23461   4.242   0.053   2.297 -0.0019 -0.8544 -0.4529
 4000SOL    HW123462   4.293   0.125   2.261  0.2569 -0.5622  0.5150
 4000SOL    HW223463   4.314   4.720   2.329 -0.9377 -2.2189 -0.6308
 4001SOL     OW23464   4.437   1.443   2.673  0.4895 -0.1746 -0.2364
 4001SOL    HW123465   4.479   1.524   2.703 -0.5398  0.2346  0.1244
 4001SOL    HW223466   4.376   1.425   2.745  0.3436  0.9794 -0.0645
 4002SOL     OW23467   4.710   3.968  10.401  0.3652  0.1566 -0.0884
 4002SOL    HW123468   4.632   3.993  10.352  1.1624 -0.9795 -1.9334
 4002SOL    HW223469   0.040   3.933  10.328 -0.6457  2.0177 -1.6897
 4003SOL     OW23470   1.808   0.683   8.734  0.1944  0.4900 -0.0747
 4003SOL    HW123471   1.804   0.588   8.718 -1.5209  0.3551  1.0848
 4003SOL    HW223472   1.738   0.712   8.675  0.4785  1.8790  0.2744
 4004SOL     OW23473   0.793   2.241   3.142 -0.1459  0.2059 -0.3486
 4004SOL    HW123474   0.715   2.271   3.187 -0.2526 -0.3001 -0.1950
 4004SOL    HW223475   0.760   2.177   3.079  0.4784 -2.2580  1.7854
 4005SOL     OW23476   1.542   2.201   2.984 -0.0681  0.3555 -1.0139
 4005SOL    HW123477   1.574   2.158   2.904  2.1975 -1.9079  1.1289
 4005SOL    HW223478   1.453   2.166   2.987  0.1302 -0.0053  0.4172
 4006SOL     OW23479   0.083   1.137   3.686  0.0823  0.1020 -0.4382
 4006SOL    HW123480   0.069   1.196   3.612  1.6091 -0.1480 -0.9243
 4006SOL    HW223481   0.001   1.087   3.691 -0.8442  1.6387 -0.2558
 4007SOL     OW23482   2.818   3.950   7.462 -0.3432 -0.5559  0.3649
 4007SOL    HW123483   2.757   3.881   7.490 -0.9783  0.4904  1.5242
 4007SOL    HW223484   2.865   3.913   7.387 -0.2927  0.2968 -0.0200
 4008SOL     OW23485   1.067   1.671   3.499 -0.6757 -0.3471 -0.1361
 4008SOL    HW123486   1.140   1.730   3.475  0.2884 -1.5980 -0.2767
 4008SOL    HW223487   1.107   1.584   3.504  0.8166  0.2877 -0.8280
 4009SOL     OW23488   2.293   2.277  17.575  0.3856  0.1168 -0.1816
 4009SOL    HW123489   2.204   2.303  17.555  0.5795  0.8826 -0.0434
 4009SOL    HW223490   2.302   2.195  17.527  2.0131 -0.9984  2.0097
 4010SOL     OW23491   2.828   2.260  17.034 -0.2605 -0.8920  0.3235
 4010SOL    HW123492   2.802   2.337  17.084  0.6613  0.0296 -0.6301
 4010SOL    HW223493   2.901   2.295  16.982 -0.5366 -0.0378  0.5295
 4011SOL     OW23494   2.708   1.062   2.654  0.0063 -0.1445  0.2296
 4011SOL    HW123495   2.653   1.117   2.709  1.7213  1.1775  0.6156
 4011SOL    HW223496   2.660   0.981   2.638  1.1518 -0.7146 -0.3663
 4012SOL     OW23497   0.351   0.256   4.595  0.4984 -0.2844 -0.0798
 4012SOL    HW123498   0.302   0.329   4.558 -1.4913 -0.0733  2.8962
 4012SOL    HW223499   0.384   0.296   4.676 -0.4233 -0.2551  0.2924
 4013SOL     OW23500   0.352   2.077   6.007 -0.2130  0.2504  0.3620
 4013SOL    HW123501   0.315   2.152   6.054 -0.0511  0.4847  0.1224
 4013SOL    HW223502   0.445   2.093   6.026 -0.1959 -1.8428  1.9425
 4014SOL     OW23503   3.513   1.522   4.505  0.4373 -0.3623 -0.0472
 4014SOL    HW123504   3.559   1.593   4.550  0.5024 -0.9689  0.8455
 4014SOL    HW223505   3.461   1.576   4.446 -0.8777 -0.6554  0.8395
 4015SOL     OW23506   1.333   1.803   8.280 -0.1178 -0.6795  0.1167
 4015SOL    HW123507   1.334   1.713   8.314  0.1733 -0.5272  0.5129
 4015SOL    HW223508   1.352   1.849   8.362  0.1268 -1.3762  0.4485
 4016SOL     OW23509   2.018   3.233   7.842  0.4679  0.3440  0.2308
 4016SOL    HW123510   2.028   3.303   7.777  0.2095 -0.9113 -1.1449
 4016SOL    HW223511   1.973   3.165   7.791 -1.4130  2.1953 -0.6216
 4017SOL     OW23512   4.022   2.303   4.984  0.2605 -0.2064  0.3538
 4017SOL    HW123513   3.928   2.291   4.976  0.4044 -2.0276  1.3923
 4017SOL    HW223514   4.031   2.395   4.956 -0.2716 -0.0373  0.7489
 4018SOL     OW23515   3.359   3.773   3.724  0.1206 -0.2630 -0.0945
 4018SOL    HW123516   3.337   3.849   3.671  1.4597  2.7698  3.7205
 4018SOL    HW223517   3.398   3.826   3.793 -1.0722  1.0119 -0.4085
 4019SOL     OW23518   1.656   3.817   3.080  0.7528 -0.0411 -0.3527
 4019SOL    HW123519   1.679   3.875   3.007  0.3606 -1.4449 -1.5677
 4019SOL    HW223520   1.565   3.836   3.099  0.3013 -0.4200 -2.1441
 4020SOL     OW23521   3.879   0.547   9.274 -0.4492 -0.0658  0.3178
 4020SOL    HW123522   3.961   0.583   9.240 -0.9132  1.1724  0.5177
 4020SOL    HW223523   3.854   0.488   9.202 -2.2866 -1.4798  2.1298
 4021SOL     OW23524   0.855   2.393   8.122  0.3640  0.1369  0.0312
 4021SOL    HW123525   0.911   2.357   8.053  0.8037  0.6878  0.1025
 4021SOL    HW223526   0.772   2.389   8.075  1.1529  0.0603 -1.3611
 4022SOL     OW23527   3.039   1.630   4.074  0.0249 -0.1165  0.7162
 4022SOL    HW123528   2.950   1.638   4.039  0.6633  1.3277 -0.5711
 4022SOL    HW223529   3.057   1.540   4.046  0.9962  0.1998  0.3315
 4023SOL     OW23530   4.008   2.610   2.075  0.0690 -0.1104 -0.2607
 4023SOL    HW123531   4.004   2.545   2.005  1.9394 -2.3122  1.6476
 4023SOL    HW223532   4.098   2.641   2.069  0.1073  0.1382  1.6089
 4024SOL     OW23533   4.292   3.571  15.529 -0.1909  0.0961 -0.2390
 4024SOL    HW123534   4.256   3.490  15.492 -2.5805 -0.0535  2.5171
 4024SOL    HW223535   4.236   3.571  15.606  1.0312 -2.7477  0.6549
 4025SOL     OW23536   2.843   4.530   4.163 -0.0162  0.3987  0.4545
 4025SOL    HW123537   2.937   4.528   4.178  0.1391 -0.5327 -0.6601
 4025SOL    HW223538   2.828   4.496   4.075 -0.7837 -0.4619  0.9132
 4026SOL     OW23539   2.407   0.742   3.069  0.2117  0.6119  0.6696
 4026SOL    HW123540   2.445   0.829   3.054 -0.7052  0.4924 -2.3453
 4026SOL    HW223541   2.332   0.769   3.122  0.4892 -0.3805  1.5761
 4027SOL     OW23542   3.347   1.515  13.983  0.3449 -0.0619 -0.1061
 4027SOL    HW123543   3.371   1.581  13.918 -0.2370  0.2612  0.0141
 4027SOL    HW223544   3.254   1.536  13.982  0.5065  0.7069  0.5594
 4028SOL     OW23545   2.843   0.134   0.957 -0.1898 -0.2673 -0.1614
 4028SOL    HW123546   2.803   0.193   0.892  0.8555 -1.0133 -1.4804
 4028SOL    HW223547   2.795   0.164   1.034  0.6446  1.0444 -0.1510
 4029SOL     OW23548   3.460   0.293   5.030  0.1685  0.4337 -0.3262
 4029SOL    HW123549   3.436   0.247   5.110 -0.8719 -0.2595 -1.0456
 4029SOL    HW223550   3.379   0.284   4.981 -0.2932  0.5297  0.4123
 4030SOL     OW23551   2.237   1.972   8.605  0.3802  0.5505 -0.4148
 4030SOL    HW123552   2.225   2.064   8.584  1.7578  0.7500 -0.3349
 4030SOL    HW223553   2.296   1.945   8.535 -0.5140  0.1139 -1.0019
 4031SOL     OW23554   3.323   3.588   9.168 -0.3996  0.0082 -0.4662
 4031SOL    HW123555   3.277   3.651   9.224 -2.0527 -2.0689  0.4818
 4031SOL    HW223556   3.252   3.537   9.131 -1.7088  0.7096  1.0868
 4032SOL     OW23557   3.603   0.788   7.154 -0.7912 -0.2214 -0.3745
 4032SOL    HW123558   3.635   0.705   7.119  1.0747 -0.2685  1.4657
 4032SOL    HW223559   3.511   0.767   7.170 -1.1865  2.3123  0.7494
 4033SOL     OW23560   2.361   4.709   9.860  0.4434 -0.2150  0.2279
 4033SOL    HW123561   2.329   0.078   9.849  2.6752  0.5436 -0.2592
 4033SOL    HW223562   2.320   4.691   9.944 -0.2446  1.1675  0.1915
 4034SOL     OW23563   0.890   1.305   3.198  0.1350 -0.4309 -0.1021
 4034SOL    HW123564   0.849   1.371   3.254 -0.5601 -0.2167 -0.8647
 4034SOL    HW223565   0.981   1.316   3.224 -0.4387  1.6676  1.0004
 4035SOL     OW23566   3.597   4.432   6.996 -0.1641  0.2986  0.0364
 4035SOL    HW123567   3.601   4.364   6.929  0.2799 -0.2045  0.5770
 4035SOL    HW223568   3.691   4.445   7.009 -0.0464 -1.3572  0.7611
 4036SOL     OW23569   2.949   2.394   6.942 -0.1115  0.4733 -0.2553
 4036SOL    HW123570   3.036   2.425   6.919  0.9514 -1.4816  1.2036
 4036SOL    HW223571   2.966   2.323   7.004 -1.6617  0.5042  0.2002
 4037SOL     OW23572   1.690   2.699  16.841  0.1640 -0.4646  0.4077
 4037SOL    HW123573   1.729   2.611  16.839 -0.0748 -0.5348 -0.9518
 4037SOL    HW223574   1.595   2.693  16.844  0.0772 -0.3192 -1.7713
 4038SOL     OW23575   4.667   2.370   3.468  0.4583 -0.0724 -0.0083
 4038SOL    HW123576   0.026   2.323   3.491  0.1738 -0.0968  0.9506
 4038SOL    HW223577   4.604   2.301   3.488 -0.9587  1.1877 -0.0870
 4039SOL     OW23578   2.924   3.039   5.743  0.1512 -0.0154 -0.5523
 4039SOL    HW123579   2.998   2.982   5.762 -0.0120 -0.8791 -2.4236
 4039SOL    HW223580   2.971   3.105   5.692  2.4748  0.5634  2.3921
 4040SOL     OW23581   4.495   3.374  16.208 -0.4367 -0.1316  0.0388
 4040SOL    HW123582   4.414   3.339  16.245 -2.0986  1.8346 -1.6684
 4040SOL    HW223583   4.530   3.401  16.293  1.3469  0.5363 -0.9156
 4041SOL     OW23584   2.834   0.755   2.512  0.4829 -0.1376 -0.1620
 4041SOL    HW123585   2.743   0.770   2.484  0.2466 -2.5309 -0.7211
 4041SOL    HW223586   2.876   0.723   2.432 -0.0330  1.2871 -0.9952
 4042SOL     OW23587   3.535   2.265   3.557 -0.1466 -0.2023  0.2200
 4042SOL    HW123588   3.566   2.202   3.623 -1.0859 -1.1041 -0.2087
 4042SOL    HW223589   3.471   2.305   3.615  1.1459  0.3416  1.2692
 4043SOL     OW23590   0.718   0.582   6.713 -0.0190  0.0093 -0.3561
 4043SOL    HW123591   0.652   0.640   6.752  0.6871  0.3619  0.2991
 4043SOL    HW223592   0.789   0.596   6.775 -0.5555 -0.8916  0.4561
 4044SOL     OW23593   0.837   1.037   0.968  0.0447 -0.1558  0.6592
 4044SOL    HW123594   0.784   0.959   0.953 -0.6148  0.0874  1.7665
 4044SOL    HW223595   0.779   1.107   0.937 -0.0330 -1.2886 -1.7039
 4045SOL     OW23596   4.472   3.451  12.178  0.0037 -0.4419  0.1901
 4045SOL    HW123597   4.527   3.519  12.140 -0.5360 -1.6554 -2.8301
 4045SOL    HW223598   4.533   3.378  12.171 -0.1430 -0.3185 -2.5642
 4046SOL     OW23599   1.425   4.203   4.038 -0.0615  0.0637 -0.5154
 4046SOL    HW123600   1.442   4.286   3.994  1.4719  1.3481  2.5526
 4046SOL    HW223601   1.331   4.199   4.020 -0.0637  3.4014 -1.2252
 4047SOL     OW23602   0.262   3.218  14.888  0.1158  0.2389 -0.0220
 4047SOL    HW123603   0.195   3.281  14.914  1.3559  0.5751  2.3087
 4047SOL    HW223604   0.281   3.189  14.977  2.7155  1.2703 -0.2523
 4048SOL     OW23605   0.779   3.867   3.282 -0.1388 -0.5457  0.4055
 4048SOL    HW123606   0.718   3.807   3.239 -1.3754 -1.0749  2.9126
 4048SOL    HW223607   0.784   3.830   3.370  1.2849 -0.0219  0.5402
 4049SOL     OW23608   3.051   3.634  15.868 -0.1906  0.5730  0.6015
 4049SOL    HW123609   2.960   3.614  15.891 -0.6730  1.2864 -0.6803
 4049SOL    HW223610   3.055   3.633  15.772 -0.7087  0.6942  0.5806
 4050SOL     OW23611   1.308   0.587   4.627  0.1931  0.0789 -0.1995
 4050SOL    HW123612   1.313   0.492   4.614  2.0261 -0.0301  1.1908
 4050SOL    HW223613   1.403   0.602   4.623  0.4866 -1.7820 -0.2960
 4051SOL     OW23614   0.618   4.454   6.285  0.1878  0.0907 -0.5350
 4051SOL    HW123615   0.623   4.549   6.297  1.0493  0.0456 -0.5371
 4051SOL    HW223616   0.551   4.436   6.351  0.7669 -1.0773 -0.2786
 4052SOL     OW23617   0.533   0.169  15.031  0.2741  0.2774 -0.0541
 4052SOL    HW123618   0.536   0.253  15.077 -2.6998  0.0026  0.6185
 4052SOL    HW223619   0.514   0.209  14.947  1.3445  0.5311 -0.1725
 4053SOL     OW23620   4.376   3.781   2.688 -0.4086 -0.5014 -0.2594
 4053SOL    HW123621   4.389   3.687   2.672 -2.0724 -0.2469 -3.1193
 4053SOL    HW223622   4.281   3.787   2.692 -0.2180  2.4445 -0.2322
 4054SOL     OW23623   3.784   3.795   4.324  0.4499  0.0069 -0.3171
 4054SOL    HW123624   3.830   3.813   4.242  1.6833 -0.1934  0.3327
 4054SOL    HW223625   3.737   3.877   4.339 -0.4300 -0.1046 -2.4662
 4055SOL     OW23626   4.304   2.046   2.992  0.5470 -0.0937 -0.0580
 4055SOL    HW123627   4.269   2.131   2.963  0.6049  1.1785  3.6282
 4055SOL    HW223628   4.394   2.077   2.975  0.0164  1.3964 -0.1742
 4056SOL     OW23629   4.001   0.811   2.259  0.1104  0.3092 -0.2838
 4056SOL    HW123630   3.993   0.844   2.169 -0.3239 -0.3620 -0.4893
 4056SOL    HW223631   3.965   0.724   2.244  1.2575 -0.0975 -0.6907
 4057SOL     OW23632   0.096   0.060   8.056 -0.2113 -0.0753 -0.3840
 4057SOL    HW123633   0.042   4.706   8.078  1.7696 -1.4721 -0.3460
 4057SOL    HW223634   0.062   0.117   8.126 -1.4576 -0.7912 -0.4201
 4058SOL     OW23635   1.913   3.732  12.672 -0.0229  0.1245  0.5535
 4058SOL    HW123636   1.852   3.659  12.662  0.1879 -0.2578  2.1169
 4058SOL    HW223637   1.963   3.728  12.591 -1.7878  0.7554 -0.5605
 4059SOL     OW23638   1.986   0.171   3.867 -0.8840  0.4615 -0.1123
 4059SOL    HW123639   2.081   0.180   3.875 -0.7562 -0.0605 -1.0880
 4059SOL    HW223640   1.965   0.259   3.897  0.9459 -0.0736  2.8216
 4060SOL     OW23641   3.886   0.050   8.380  0.7087 -0.2049  0.0584
 4060SOL    HW123642   3.840   0.121   8.425  0.3271  0.3511 -1.1967
 4060SOL    HW223643   3.934   0.086   8.306  0.8456 -1.1386 -0.3117
 4061SOL     OW23644   4.269   1.723  17.007 -0.7058 -0.3807 -1.0660
 4061SOL    HW123645   4.300   1.805  17.045 -1.2576 -0.9466  0.5797
 4061SOL    HW223646   4.327   1.719  16.931 -0.1820  0.4275 -0.7110
 4062SOL     OW23647   4.280   4.231   7.647 -0.2763 -0.5769  0.5374
 4062SOL    HW123648   4.345   4.281   7.598  1.4593 -3.5044 -0.1231
 4062SOL    HW223649   4.240   4.173   7.582 -1.0170 -0.2704  0.7215
 4063SOL     OW23650   4.523   0.005   5.809 -0.4233  0.1149  0.4278
 4063SOL    HW123651   4.460   4.655   5.816  0.5121 -0.5053  2.4629
 4063SOL    HW223652   4.518   0.023   5.715 -1.2170 -1.8458  0.0865
 4064SOL     OW23653   2.224   3.298   3.847  0.1080 -0.0227 -0.6120
 4064SOL    HW123654   2.214   3.239   3.921 -0.4686  1.9863  0.9285
 4064SOL    HW223655   2.261   3.236   3.784  0.3302  0.5543 -1.0513
 4065SOL     OW23656   2.234   1.844  17.352  0.2665  0.1929  0.1960
 4065SOL    HW123657   2.141   1.841  17.328 -0.2940 -0.4297  2.4647
 4065SOL    HW223658   2.232   1.916  17.414  2.5720  0.7927 -0.4562
 4066SOL     OW23659   1.173   3.967   4.336  0.4830 -0.0449 -0.2151
 4066SOL    HW123660   1.262   3.934   4.348  0.1735 -0.9002 -0.2179
 4066SOL    HW223661   1.137   3.884   4.304 -0.0617 -0.3635  1.2002
 4067SOL     OW23662   4.695   2.122   8.342 -0.2682  0.0857 -0.0859
 4067SOL    HW123663   0.024   2.160   8.270 -0.0648 -0.3909 -0.1988
 4067SOL    HW223664   0.042   2.095   8.403  0.4708 -1.4031 -1.5623
 4068SOL     OW23665   4.111   3.727   3.474  0.0671  0.8865 -0.2156
 4068SOL    HW123666   4.172   3.796   3.448  0.3231  0.4211 -0.8490
 4068SOL    HW223667   4.044   3.787   3.506 -0.7415 -1.0797  1.7467
 4069SOL     OW23668   1.137   1.396   6.565 -0.0081  0.1764  0.6741
 4069SOL    HW123669   1.230   1.381   6.584 -0.0087 -1.3836 -0.4568
 4069SOL    HW223670   1.127   1.333   6.493  1.4897 -2.3574  2.6494
 4070SOL     OW23671   2.228   0.940   1.430  0.2935  0.1530  0.5114
 4070SOL    HW123672   2.172   1.016   1.411 -1.5774 -1.0579  1.1865
 4070SOL    HW223673   2.255   0.913   1.343  0.9416  1.0049  0.4403
 4071SOL     OW23674   1.205   0.837   5.211  0.2654  0.1176 -0.1886
 4071SOL    HW123675   1.258   0.774   5.261  2.4880  0.8528 -1.6317
 4071SOL    HW223676   1.132   0.782   5.182  1.4084 -1.2186 -0.5690
 4072SOL     OW23677   1.885   1.585  15.068 -0.2142  1.0896  0.3929
 4072SOL    HW123678   1.831   1.662  15.050 -0.3762  0.8984  0.0604
 4072SOL    HW223679   1.859   1.568  15.158  1.0134  0.8751  0.6980
 4073SOL     OW23680   0.207   3.992   5.522  0.6386  0.7504 -0.1399
 4073SOL    HW123681   0.224   3.899   5.539 -1.6136  0.0949 -1.4659
 4073SOL    HW223682   0.189   3.989   5.428  0.7604 -0.7928 -0.1150
 4074SOL     OW23683   0.897   4.275   9.007 -0.5539 -0.2318  0.2251
 4074SOL    HW123684   0.901   4.256   8.914 -2.1739  0.9320 -0.0939
 4074SOL    HW223685   0.803   4.273   9.027 -0.3886 -0.7463  0.9609
 4075SOL     OW23686   4.363   4.536  13.846  0.1884 -0.2685 -0.1616
 4075SOL    HW123687   4.404   4.593  13.911  0.0778 -1.8843  1.3115
 4075SOL    HW223688   4.371   4.584  13.763 -0.3764  1.2112  0.6243
 4076SOL     OW23689   1.472   0.854   9.294 -0.2893 -0.1573  0.4044
 4076SOL    HW123690   1.452   0.924   9.231 -0.9096 -0.2465  0.5014
 4076SOL    HW223691   1.560   0.831   9.266 -0.3765  1.4010 -1.1408
 4077SOL     OW23692   4.704   3.195   4.003  0.4155 -0.4216  0.1944
 4077SOL    HW123693   4.625   3.142   4.004  1.7565 -2.4223  0.0793
 4077SOL    HW223694   0.042   3.123   3.983 -2.8557 -1.9845 -3.8136
 4078SOL     OW23695   1.608   0.400   6.932 -0.1391 -0.4831 -0.6627
 4078SOL    HW123696   1.672   0.333   6.911  0.3602  0.1105 -1.0236
 4078SOL    HW223697   1.534   0.356   6.975  1.3696  0.8736  3.3381
 4079SOL     OW23698   2.745   2.730  11.608  0.1088  0.5443  0.1035
 4079SOL    HW123699   2.813   2.748  11.672  0.5193  0.3318 -0.2745
 4079SOL    HW223700   2.747   2.808  11.552 -2.4153  2.2607  2.4282
 4080SOL     OW23701   2.038   2.129   5.409 -0.4486  0.6162 -0.0503
 4080SOL    HW123702   2.097   2.204   5.401 -0.1525  0.5904  2.0251
 4080SOL    HW223703   1.956   2.176   5.427 -0.2450  2.2159 -3.1647
 4081SOL     OW23704   2.786   3.868  14.558  0.0053 -0.1350  0.0534
 4081SOL    HW123705   2.778   3.835  14.647  0.9464  0.5634  0.3930
 4081SOL    HW223706   2.716   3.822  14.511 -1.3590  0.5497  1.4289
 4082SOL     OW23707   3.293   4.406   2.610 -0.1628 -0.6951 -0.1025
 4082SOL    HW123708   3.299   4.502   2.613  1.1164 -0.8099  1.5790
 4082SOL    HW223709   3.239   4.389   2.687  2.6775  0.1206  2.0918
 4083SOL     OW23710   2.054   2.424   8.359 -0.5242 -0.7464 -0.0280
 4083SOL    HW123711   1.962   2.429   8.386 -0.2787  1.0520  0.4460
 4083SOL    HW223712   2.049   2.446   8.266 -3.4016 -0.0754  0.2924
 4084SOL     OW23713   4.616   2.459   5.235 -0.2699 -0.9046 -0.3253
 4084SOL    HW123714   4.693   2.448   5.291  1.9840  3.4860 -2.5358
 4084SOL    HW223715   4.550   2.447   5.304  0.6456 -1.3629  0.4749
 4085SOL     OW23716   1.996   1.279  17.123 -0.2050 -0.3759 -0.5401
 4085SOL    HW123717   1.910   1.276  17.080  0.1462 -1.5292 -1.1678
 4085SOL    HW223718   2.019   1.371  17.112  1.0170 -0.7058 -0.7434
 4086SOL     OW23719   0.109   3.254   2.851  0.6869  0.5416 -0.3014
 4086SOL    HW123720   0.044   3.313   2.813 -1.4598 -0.7830  1.3144
 4086SOL    HW223721   0.182   3.298   2.807  0.7862 -1.5755 -2.2315
 4087SOL     OW23722   3.163   0.442   1.113  0.2325 -0.7087 -0.1695
 4087SOL    HW123723   3.173   0.537   1.122  1.8148 -0.8050 -0.8701
 4087SOL    HW223724   3.120   0.427   1.197 -2.8865  0.7876 -1.4772
 4088SOL     OW23725   1.651   1.260   6.572  0.9972  0.2065  0.4307
 4088SOL    HW123726   1.742   1.234   6.562  0.5521 -1.5193  0.9039
 4088SOL    HW223727   1.657   1.279   6.666  1.5879 -0.0982  0.4539
 4089SOL     OW23728   0.554   4.154   6.818 -0.7198  0.1211  0.0549
 4089SOL    HW123729   0.502   4.165   6.738 -1.0870 -0.0066  0.2751
 4089SOL    HW223730   0.628   4.112   6.774 -1.5027  0.8689 -1.9475
 4090SOL     OW23731   4.210   2.445  10.539  0.4913 -0.4825 -0.7457
 4090SOL    HW123732   4.156   2.495  10.478 -1.1364 -0.3261  0.8099
 4090SOL    HW223733   4.287   2.438  10.483 -0.1330 -0.4674 -1.6022
 4091SOL     OW23734   1.444   0.908   4.530 -0.4669 -0.1414 -0.8270
 4091SOL    HW123735   1.466   1.001   4.529  3.0916 -0.9787 -3.4134
 4091SOL    HW223736   1.472   0.877   4.616 -0.3124  0.3531 -0.6981
 4092SOL     OW23737   1.586   4.215  10.565  0.1153  0.5331 -0.0933
 4092SOL    HW123738   1.671   4.204  10.523  0.1013  2.6253 -0.6746
 4092SOL    HW223739   1.524   4.205  10.493 -1.3485  0.5628  1.1643
 4093SOL     OW23740   0.089   3.022   4.641  0.2174 -0.4369 -0.2119
 4093SOL    HW123741   0.179   3.006   4.613  0.2484  0.6808 -0.7545
 4093SOL    HW223742   0.024   3.008   4.572  0.8222  1.4463 -1.1595
 4094SOL     OW23743   2.331   1.737  15.288 -0.2431 -0.4714 -0.0088
 4094SOL    HW123744   2.386   1.799  15.239 -1.3826 -0.2788 -1.0646
 4094SOL    HW223745   2.352   1.663  15.231 -0.2898 -0.2313 -0.3393
 4095SOL     OW23746   1.405   2.967  11.823 -0.2965 -0.3452  0.5576
 4095SOL    HW123747   1.341   2.988  11.756  1.0531 -1.0708 -0.9497
 4095SOL    HW223748   1.347   2.999  11.892 -0.0515  0.1681  0.5296
 4096SOL     OW23749   2.145   1.578   0.800 -0.1487 -0.0076  0.2452
 4096SOL    HW123750   2.141   1.496   0.751 -0.6612 -0.0071  0.2906
 4096SOL    HW223751   2.057   1.576   0.837  0.9194  0.7220  2.8704
 4097SOL     OW23752   2.655   0.363   4.126  0.3341 -0.3159  0.7761
 4097SOL    HW123753   2.562   0.378   4.144  0.1832  0.7338 -0.8402
 4097SOL    HW223754   2.677   0.431   4.063 -0.6003 -0.2748  0.4916
 4098SOL     OW23755   2.584   2.573  15.530 -0.2809  0.2220 -0.3882
 4098SOL    HW123756   2.652   2.638  15.543  0.1915 -0.2266 -0.6275
 4098SOL    HW223757   2.503   2.625  15.532  1.2555  2.6119 -0.5028
 4099SOL     OW23758   0.160   0.622   7.659  0.2241  0.8774  0.0451
 4099SOL    HW123759   0.189   0.713   7.652 -1.8812  1.5923  0.8204
 4099SOL    HW223760   0.065   0.632   7.658  0.5701  4.0488 -0.6173
 4100SOL     OW23761   2.972   0.945  12.243  0.6158 -0.1995 -0.3024
 4100SOL    HW123762   2.888   0.917  12.278  1.3039  2.1254  3.1825
 4100SOL    HW223763   3.031   0.955  12.318 -0.3958  1.1468  0.3158
 4101SOL     OW23764   0.391   1.236   7.076 -0.3333 -1.1848 -0.0480
 4101SOL    HW123765   0.346   1.204   6.998  0.8709 -2.4319 -0.2345
 4101SOL    HW223766   0.320   1.228   7.140 -0.2852  2.6922  0.4783
 4102SOL     OW23767   3.269   1.568   8.743 -0.5955  0.7310  0.0350
 4102SOL    HW123768   3.196   1.508   8.751  0.4781 -0.2930  2.1007
 4102SOL    HW223769   3.272   1.592   8.836  1.5043 -0.1803  0.1990
 4103SOL     OW23770   4.649   1.520  15.739  0.4942 -0.2623 -1.1204
 4103SOL    HW123771   4.671   1.614  15.740  1.3621 -0.4738 -0.6064
 4103SOL    HW223772   4.589   1.514  15.664 -3.0488 -0.2585  1.7247
 4104SOL     OW23773   0.599   3.184  11.569  0.2331 -0.1489 -0.5210
 4104SOL    HW123774   0.628   3.132  11.644  0.1599 -0.3148 -0.6075
 4104SOL    HW223775   0.671   3.161  11.509  2.1408 -0.2374  1.7758
 4105SOL     OW23776   2.893   1.310   0.453 -0.0140  0.4736  0.3577
 4105SOL    HW123777   2.929   1.392   0.487  0.5714  0.0924  0.6596
 4105SOL    HW223778   2.964   1.247   0.460  0.6300  1.1279 -0.2508
 4106SOL     OW23779   2.103   3.939   7.319 -0.2700  0.1605  0.5446
 4106SOL    HW123780   2.155   3.976   7.248 -0.1606  0.2152  0.6520
 4106SOL    HW223781   2.170   3.922   7.385 -0.2380  1.1029  0.7550
 4107SOL     OW23782   0.023   1.384  11.555  0.3451 -0.0388  0.7925
 4107SOL    HW123783   4.657   1.371  11.592 -0.7758  0.1446 -1.7597
 4107SOL    HW223784   0.054   1.471  11.581  0.4068  0.4034 -0.7431
 4108SOL     OW23785   3.690   1.816   8.121  0.2878  0.3175 -0.2475
 4108SOL    HW123786   3.763   1.820   8.183  1.5808 -0.9355 -1.6723
 4108SOL    HW223787   3.640   1.740   8.152 -0.0748  0.1106 -1.3469
 4109SOL     OW23788   1.196   2.038   3.801 -0.1770 -0.4389  0.0714
 4109SOL    HW123789   1.246   2.111   3.837  3.7518 -2.0691 -2.0038
 4109SOL    HW223790   1.257   2.001   3.736 -0.5569 -1.8911  0.5400
 4110SOL     OW23791   4.116   1.803   6.293 -0.3735  0.9081  0.1584
 4110SOL    HW123792   4.150   1.792   6.382 -1.9353  0.1471  0.6410
 4110SOL    HW223793   4.083   1.893   6.298 -0.3704  0.8496  1.1592
 4111SOL     OW23794   2.148   1.335  13.792  0.0987  0.3283 -0.1441
 4111SOL    HW123795   2.098   1.314  13.870 -1.4466  1.8934 -0.6910
 4111SOL    HW223796   2.083   1.316  13.724  2.0250 -1.6307 -1.4393
 4112SOL     OW23797   0.465   2.745   9.560  0.2789 -0.2525 -0.0917
 4112SOL    HW123798   0.467   2.826   9.610 -0.2811  1.0788 -2.2303
 4112SOL    HW223799   0.452   2.784   9.474 -1.2996  0.8573  0.6455
 4113SOL     OW23800   3.135   1.071   4.292  0.2034 -0.1205  0.1797
 4113SOL    HW123801   3.060   1.088   4.348  0.2424  1.4275 -0.2230
 4113SOL    HW223802   3.096   1.033   4.214  3.7670 -1.9226 -0.7082
 4114SOL     OW23803   1.605   2.009   4.351 -0.0208 -0.5073 -0.4041
 4114SOL    HW123804   1.583   2.008   4.258  1.3866 -1.4277 -0.7320
 4114SOL    HW223805   1.559   2.090   4.373  0.2682 -0.8669  1.4888
 4115SOL     OW23806   0.309   2.032  17.493 -0.6075  0.3540  0.5237
 4115SOL    HW123807   0.400   2.025  17.464 -0.8149  1.6389 -0.4206
 4115SOL    HW223808   0.263   2.079  17.423 -0.5969  0.2767  0.4643
 4116SOL     OW23809   2.397   4.501   5.749  0.5741 -0.1101 -0.1007
 4116SOL    HW123810   2.371   4.592   5.765  1.4411  0.3681 -1.3381
 4116SOL    HW223811   2.461   4.485   5.818  0.4846 -1.0712 -0.2461
 4117SOL     OW23812   2.994   3.206  10.657 -0.3673  0.2533 -0.6228
 4117SOL    HW123813   3.076   3.255  10.653 -0.6722  0.4755 -4.3205
 4117SOL    HW223814   2.964   3.236  10.571  1.6281  1.6859 -0.8153
 4118SOL     OW23815   3.462   3.157   2.281  0.2964 -1.0711 -0.1152
 4118SOL    HW123816   3.526   3.206   2.229  0.1761  0.1732  0.9016
 4118SOL    HW223817   3.385   3.153   2.225  0.3602 -0.0737 -0.2724
 4119SOL     OW23818   1.157   2.786   6.469  0.6457  0.0695 -0.0806
 4119SOL    HW123819   1.240   2.740   6.480 -0.1258 -0.5581  3.2283
 4119SOL    HW223820   1.121   2.740   6.393 -1.0781  0.6688  0.3613
 4120SOL     OW23821   4.293   3.776   5.317  0.1445 -0.3481 -0.2701
 4120SOL    HW123822   4.363   3.831   5.280 -1.6446  0.1397 -2.9218
 4120SOL    HW223823   4.304   3.791   5.411 -1.0668 -0.2286 -0.1500
 4121SOL     OW23824   1.516   2.285   4.426 -0.2604 -0.0317 -0.7829
 4121SOL    HW123825   1.573   2.322   4.360  0.0600  0.1262 -0.4162
 4121SOL    HW223826   1.437   2.336   4.408  0.1163  0.2470 -1.5997
 4122SOL     OW23827   3.900   1.937   7.311  0.6300 -1.1292  0.2412
 4122SOL    HW123828   3.847   1.965   7.386 -1.3815 -1.5134 -1.0461
 4122SOL    HW223829   3.841   1.955   7.238 -0.0920 -0.8327  0.9033
 4123SOL     OW23830   3.072   3.237   5.357 -0.2178 -0.7881  0.1255
 4123SOL    HW123831   3.107   3.152   5.330 -0.0998  0.2950 -3.0943
 4123SOL    HW223832   2.982   3.215   5.381  0.4736 -3.0931  0.6581
 4124SOL     OW23833   2.153   2.967  13.280 -0.5121  0.1803 -0.3254
 4124SOL    HW123834   2.184   2.990  13.368 -1.3033 -2.0775  0.5455
 4124SOL    HW223835   2.190   2.880  13.270 -1.3523 -0.2070 -0.0604
 4125SOL     OW23836   2.554   3.129   3.541 -0.2206 -0.3769 -0.1002
 4125SOL    HW123837   2.635   3.119   3.491 -1.1987  1.6346 -2.1069
 4125SOL    HW223838   2.500   3.068   3.491 -1.0557  0.4495 -0.2047
 4126SOL     OW23839   0.727   0.154   5.029  0.6244  0.2198 -0.2273
 4126SOL    HW123840   0.729   0.085   5.095  2.8676 -1.9813 -2.5677
 4126SOL    HW223841   0.669   0.202   5.087  1.3196  2.3025 -1.2438
 4127SOL     OW23842   0.535   1.000   1.695 -0.4154 -0.3764  0.0816
 4127SOL    HW123843   0.604   0.955   1.647  0.3198  1.6124 -0.7127
 4127SOL    HW223844   0.548   0.967   1.784  0.5937  2.7082  1.0975
 4128SOL     OW23845   4.088   0.696   5.672  0.7410  0.2617 -0.8035
 4128SOL    HW123846   4.155   0.714   5.606 -0.2167  0.6798 -1.6575
 4128SOL    HW223847   4.008   0.688   5.620 -0.6133  0.1606  1.2748
 4129SOL     OW23848   1.461   1.132   4.182 -0.2244  0.4248 -0.1211
 4129SOL    HW123849   1.398   1.202   4.167 -0.5366 -0.2613 -2.0174
 4129SOL    HW223850   1.526   1.169   4.121 -1.9262  2.7524 -0.5199
 4130SOL     OW23851   1.118   1.743  16.468  0.1924  0.0750  0.3978
 4130SOL    HW123852   1.120   1.837  16.454 -2.3844 -0.3190 -2.5681
 4130SOL    HW223853   1.209   1.743  16.498  0.4134 -0.5510 -0.2659
 4131SOL     OW23854   1.709   2.493  10.225 -0.2390  0.4116  0.4001
 4131SOL    HW123855   1.617   2.489  10.252 -0.4735 -2.0274 -0.8091
 4131SOL    HW223856   1.709   2.442  10.144 -2.3696  0.3062  0.4610
 4132SOL     OW23857   0.487   3.508   2.890 -0.7947 -0.6499  0.1685
 4132SOL    HW123858   0.494   3.569   2.963 -2.1412 -0.9428  0.5263
 4132SOL    HW223859   0.508   3.555   2.809 -0.1303  0.2655  0.8832
 4133SOL     OW23860   3.722   2.053   0.595  0.2403  0.8162  0.2712
 4133SOL    HW123861   3.812   2.073   0.568  0.0437  0.1207 -0.9160
 4133SOL    HW223862   3.688   2.016   0.513  0.8006 -1.5246  1.0762
 4134SOL     OW23863   3.149   3.780   7.533 -0.0274  0.2660 -0.4552
 4134SOL    HW123864   3.097   3.797   7.611  0.7315 -0.8335  0.2990
 4134SOL    HW223865   3.104   3.807   7.453 -1.6691  0.7201  0.6406
 4135SOL     OW23866   0.195   2.117  15.435 -0.3093 -0.3542 -0.3063
 4135SOL    HW123867   0.130   2.152  15.374  1.1254  2.9532  0.0285
 4135SOL    HW223868   0.273   2.115  15.379  0.4204  0.7573  0.6718
 4136SOL     OW23869   2.041   3.335  15.724  0.2146 -0.2804  0.0627
 4136SOL    HW123870   2.116   3.351  15.666 -0.0149  1.8265  0.3471
 4136SOL    HW223871   1.999   3.420  15.734  1.2814  0.4256 -1.4500
 4137SOL     OW23872   2.062   0.376   9.534 -0.3566  0.3036 -0.1417
 4137SOL    HW123873   1.982   0.328   9.557 -1.3949  1.7682 -0.6683
 4137SOL    HW223874   2.032   0.467   9.537 -2.4205 -0.3724 -0.1630
 4138SOL     OW23875   1.411   0.543   7.721  0.2368 -0.1836  0.0424
 4138SOL    HW123876   1.359   0.515   7.645 -1.7405  0.6574  1.0861
 4138SOL    HW223877   1.359   0.618   7.748  0.5014 -0.7983  2.2359
 4139SOL     OW23878   1.094   4.705   3.974  0.3935 -0.2375  0.6997
 4139SOL    HW123879   1.008   4.666   3.989  0.0084  0.0077 -0.8557
 4139SOL    HW223880   1.079   0.048   3.904 -0.6656  0.4027  1.5145
 4140SOL     OW23881   1.705   0.138   6.765  0.2087 -0.1577  0.0698
 4140SOL    HW123882   1.748   0.057   6.736 -0.7774 -0.4088 -0.6710
 4140SOL    HW223883   1.611   0.120   6.771  0.2657 -0.8548 -1.2938
 4141SOL     OW23884   2.827   2.235   4.944 -0.7681 -0.0615  0.2027
 4141SOL    HW123885   2.783   2.320   4.936 -1.7598 -0.6004  0.0518
 4141SOL    HW223886   2.811   2.210   4.854 -1.7092 -1.5437  0.7961
 4142SOL     OW23887   0.926   0.511   3.263  0.0549  0.0730 -0.1010
 4142SOL    HW123888   0.975   0.536   3.340  0.2367 -1.2993  0.2345
 4142SOL    HW223889   0.994   0.477   3.205  2.4936  1.1193  2.2014
 4143SOL     OW23890   3.395   4.712  12.018 -0.4161  0.3247 -0.1571
 4143SOL    HW123891   3.393   4.638  11.958  1.1173  0.4752 -0.3817
 4143SOL    HW223892   3.327   0.050  11.985  0.1521  1.5373  0.8287
 4144SOL     OW23893   1.436   0.734   0.290  0.2242  0.3675 -0.6857
 4144SOL    HW123894   1.449   0.829   0.293  0.8833  0.2461  0.4473
 4144SOL    HW223895   1.528   0.708   0.284 -0.1800 -1.0239 -0.8333
 4145SOL     OW23896   2.441   4.223   8.848  0.1743 -0.1760 -0.1252
 4145SOL    HW123897   2.488   4.162   8.904 -0.2739 -0.8336 -0.4525
 4145SOL    HW223898   2.419   4.174   8.768 -0.1130  0.7004 -0.5778
 4146SOL     OW23899   2.012   0.882   7.296  0.2225  0.5692 -0.2216
 4146SOL    HW123900   1.948   0.916   7.234 -0.0861  2.0456  0.9109
 4146SOL    HW223901   1.969   0.801   7.325 -1.5108  2.0650  1.3680
 4147SOL     OW23902   2.111   3.214   6.853  0.3031 -0.2037  0.0531
 4147SOL    HW123903   2.204   3.203   6.837  0.1449  0.8150 -1.5266
 4147SOL    HW223904   2.117   3.301   6.892 -1.6431  0.7290 -1.7671
 4148SOL     OW23905   4.523   1.120   5.057  0.0488  0.5241  0.0807
 4148SOL    HW123906   4.539   1.029   5.033 -2.6081  0.3272 -0.9578
 4148SOL    HW223907   4.451   1.119   5.121 -1.1844  1.1395 -1.2928
 4149SOL     OW23908   2.950   4.481   7.941  0.4891 -0.3995  0.2365
 4149SOL    HW123909   3.006   4.498   8.016  2.3528 -3.1259 -0.5590
 4149SOL    HW223910   2.869   4.453   7.984 -0.4790  2.3318  0.2074
 4150SOL     OW23911   1.890   1.465  16.015 -0.2914 -0.1059 -0.1952
 4150SOL    HW123912   1.942   1.388  15.993  0.6387  0.7896 -1.1625
 4150SOL    HW223913   1.891   1.506  15.929  0.9926  0.8668  0.2703
 4151SOL     OW23914   1.893   2.800   9.626 -0.4009  0.1867 -0.0710
 4151SOL    HW123915   1.905   2.754   9.543  0.4899 -2.3397  1.4689
 4151SOL    HW223916   1.836   2.739   9.673  0.8060  0.1840  1.3966
 4152SOL     OW23917   4.397   3.912   4.179  0.0197  0.0504 -0.2474
 4152SOL    HW123918   4.430   3.917   4.269  0.5558 -2.2376 -0.3162
 4152SOL    HW223919   4.463   3.962   4.132  0.7784 -0.8236 -0.1004
 4153SOL     OW23920   2.232   0.063   4.318 -0.2752  0.6405  0.1645
 4153SOL    HW123921   2.316   0.105   4.298  0.5913 -0.9155  0.5150
 4153SOL    HW223922   2.203   0.114   4.393  0.5740  0.6929  0.4588
 4154SOL     OW23923   2.619   2.528  11.494 -0.0593 -0.4777  0.2256
 4154SOL    HW123924   2.646   2.605  11.545  2.8323 -1.5026  0.2831
 4154SOL    HW223925   2.700   2.516  11.445 -0.1043 -1.0236  0.2895
 4155SOL     OW23926   3.600   2.724  13.473  0.1774  0.0010  0.4791
 4155SOL    HW123927   3.506   2.739  13.485  0.0970 -0.1083 -0.0432
 4155SOL    HW223928   3.608   2.718  13.378  2.0665  0.7078  0.6042
 4156SOL     OW23929   3.117   0.779   6.209  0.4286 -0.5973 -0.4904
 4156SOL    HW123930   3.100   0.734   6.292 -1.7568  1.5362  0.2257
 4156SOL    HW223931   3.136   0.867   6.242 -2.3152 -0.9918  2.1374
 4157SOL     OW23932   2.396   2.442   5.522 -0.1086  0.4230 -0.5829
 4157SOL    HW123933   2.419   2.381   5.592  1.5555 -0.4898 -1.9104
 4157SOL    HW223934   2.362   2.510   5.579  0.4717  0.4592 -0.2756
 4158SOL     OW23935   0.916   3.553  10.876  0.1099 -0.0191  0.5790
 4158SOL    HW123936   0.920   3.571  10.782  0.7504 -0.5514  0.4963
 4158SOL    HW223937   0.838   3.498  10.879  1.5163 -2.0953 -0.5736
 4159SOL     OW23938   2.718   4.020   3.400  0.1785  0.0299  0.1553
 4159SOL    HW123939   2.633   3.977   3.414 -0.5238  0.4100 -3.0528
 4159SOL    HW223940   2.720   4.017   3.305  1.5369 -1.3963  0.2321
 4160SOL     OW23941   3.173   1.639   5.112 -0.2388 -0.2642  0.0697
 4160SOL    HW123942   3.228   1.577   5.065 -1.2068  0.5985 -2.1962
 4160SOL    HW223943   3.097   1.586   5.135 -0.2414  0.6096  2.0877
 4161SOL     OW23944   4.586   3.741   3.957 -0.4718  0.5240  0.6749
 4161SOL    HW123945   4.677   3.718   3.979 -0.3496 -0.3887 -0.7466
 4161SOL    HW223946   4.529   3.695   4.018 -0.5103  0.1558  0.3626
 4162SOL     OW23947   4.021   2.125  12.959  0.3511 -0.2440 -0.0456
 4162SOL    HW123948   4.094   2.117  13.020 -0.4617  0.4636  1.0277
 4162SOL    HW223949   4.062   2.165  12.883  1.5441  0.9702  1.2225
 4163SOL     OW23950   3.232   4.628   3.239  0.0397 -0.4146  0.0052
 4163SOL    HW123951   3.248   4.717   3.208 -2.2001  0.9071  2.6737
 4163SOL    HW223952   3.141   4.636   3.267  0.5780  0.7019  1.4167
 4164SOL     OW23953   3.485   3.077   0.590  0.2222 -0.5068  0.0265
 4164SOL    HW123954   3.489   3.062   0.495  1.2615  2.2764 -0.3844
 4164SOL    HW223955   3.395   3.045   0.599 -0.7516  2.0432 -0.3988
 4165SOL     OW23956   0.802   3.629  10.087  0.2405 -0.2163 -0.6812
 4165SOL    HW123957   0.784   3.622   9.993 -4.1277  0.0803  0.1583
 4165SOL    HW223958   0.814   3.724  10.082 -0.4850 -0.0963 -0.0010
 4166SOL     OW23959   3.147   4.278   8.944  0.3577 -0.3989 -0.1020
 4166SOL    HW123960   3.206   4.349   8.919  0.5897 -0.0939  1.2793
 4166SOL    HW223961   3.072   4.329   8.974 -0.4654 -2.3160  1.1101
 4167SOL     OW23962   2.778   4.049   4.504  0.5351  0.0323  0.2278
 4167SOL    HW123963   2.867   4.016   4.492 -0.0188 -1.6801  0.8488
 4167SOL    HW223964   2.743   4.035   4.416  0.6094 -2.6931  0.6285
 4168SOL     OW23965   4.552   0.590   0.078  0.0243  0.3298  0.1491
 4168SOL    HW123966   4.518   0.508   0.041  1.3689  0.2647 -0.9174
 4168SOL    HW223967   4.538   0.652   0.006 -0.8327  2.0873  1.8179
 4169SOL     OW23968   0.309   2.095   2.198  0.3776  0.1386  0.3127
 4169SOL    HW123969   0.223   2.094   2.157  1.1183  0.5148 -1.2423
 4169SOL    HW223970   0.299   2.013   2.246  0.9927  0.3844  0.8582
 4170SOL     OW23971   1.107   2.617   1.104 -0.0597  0.3486  0.0141
 4170SOL    HW123972   1.099   2.684   1.036  0.7278 -0.2507 -0.6747
 4170SOL    HW223973   1.018   2.584   1.115  0.4399 -0.6445  1.0293
 4171SOL     OW23974   2.888   1.998   2.170  0.3280  0.7166  0.2026
 4171SOL    HW123975   2.800   2.023   2.142  0.4266 -0.6515 -1.3024
 4171SOL    HW223976   2.939   2.033   2.097  0.6313  1.7630  0.9083
 4172SOL     OW23977   2.465   0.902   4.529 -0.6583  0.6767 -0.0762
 4172SOL    HW123978   2.559   0.885   4.533 -0.9241 -1.8197 -3.3175
 4172SOL    HW223979   2.452   0.983   4.577 -0.2666  0.1309  0.9414
 4173SOL     OW23980   1.466   4.372  14.126  0.2900 -0.6521  0.3400
 4173SOL    HW123981   1.488   4.410  14.041 -0.0942  0.4653  0.7301
 4173SOL    HW223982   1.418   4.446  14.164  0.0582 -0.6658  0.0715
 4174SOL     OW23983   0.416   4.041  15.086 -0.1674 -0.1172 -0.2086
 4174SOL    HW123984   0.380   4.108  15.028  0.8168 -1.0081 -1.8705
 4174SOL    HW223985   0.359   4.065  15.159  1.9668 -3.0576  2.4392
 4175SOL     OW23986   4.112   0.008   6.264 -0.1626 -0.1572  0.4293
 4175SOL    HW123987   4.033   0.014   6.211  0.1703 -0.4590 -0.1046
 4175SOL    HW223988   4.170   0.060   6.209 -1.8989  0.0494 -1.2189
 4176SOL     OW23989   2.890   1.684   8.901 -0.0400  0.4154 -0.5230
 4176SOL    HW123990   2.822   1.627   8.865 -0.7629 -0.0951  1.6793
 4176SOL    HW223991   2.905   1.651   8.990 -0.3867  1.9851  0.1063
 4177SOL     OW23992   3.347   1.642   3.988 -0.0687 -0.4442  0.2992
 4177SOL    HW123993   3.365   1.722   4.037 -1.4109 -1.9016  3.1716
 4177SOL    HW223994   3.401   1.579   4.036 -2.3984 -2.0552  0.7863
 4178SOL     OW23995   2.259   0.087   7.529 -0.0361 -0.1526  0.2238
 4178SOL    HW123996   2.175   0.083   7.573 -0.0376  1.7317  0.3613
 4178SOL    HW223997   2.308   0.027   7.585 -0.4577 -1.0127 -0.3314
 4179SOL     OW23998   2.460   0.615   0.959 -0.3145 -0.5305 -0.1370
 4179SOL    HW123999   2.402   0.557   1.010 -1.0509  0.9072  0.6547
 4179SOL    HW224000   2.416   0.615   0.874  2.1270 -0.3326 -1.4094
 4180SOL     OW24001   1.338   0.995  16.655  0.7742  0.0213  0.3624
 4180SOL    HW124002   1.255   0.965  16.693  1.3379  1.0453  2.4298
 4180SOL    HW224003   1.313   0.985  16.564 -0.2586  0.2785  0.6172
 4181SOL     OW24004   4.037   2.940   0.637 -0.0204  0.4656  0.6453
 4181SOL    HW124005   3.943   2.956   0.642 -0.0697 -0.0361  1.3883
 4181SOL    HW224006   4.072   3.017   0.591 -1.7714 -1.0543 -3.1569
 4182SOL     OW24007   2.597   3.181   6.471  0.3461 -0.1300 -0.0424
 4182SOL    HW124008   2.667   3.227   6.518  0.2247  1.0417 -0.9973
 4182SOL    HW224009   2.593   3.098   6.519 -0.4139  0.1840  0.4377
 4183SOL     OW24010   1.175   4.439  13.722  0.1814 -0.1666 -0.4790
 4183SOL    HW124011   1.104   4.472  13.777  0.8060 -2.8430  1.9701
 4183SOL    HW224012   1.227   4.396  13.790 -3.0045 -0.3166  1.8509
 4184SOL     OW24013   4.131   4.309   7.192 -0.5884  0.2053  0.0634
 4184SOL    HW124014   4.060   4.269   7.142  2.1483 -2.9169 -1.3599
 4184SOL    HW224015   4.098   4.390   7.231  0.5127  0.6257  0.1258
 4185SOL     OW24016   1.278   4.318   5.928 -0.2291 -0.5014 -0.1318
 4185SOL    HW124017   1.210   4.279   5.984  1.1560 -0.2446  1.7221
 4185SOL    HW224018   1.240   4.304   5.841 -1.3310  0.1768  0.2345
 4186SOL     OW24019   2.978   1.918   4.592  0.7176 -0.2490 -0.1780
 4186SOL    HW124020   3.068   1.886   4.581  0.9980  0.1516  0.9321
 4186SOL    HW224021   2.937   1.849   4.643  0.9974  1.0348  1.7974
 4187SOL     OW24022   3.339   4.424   5.329 -0.1176  0.4542 -0.2564
 4187SOL    HW124023   3.414   4.426   5.269 -0.4659  0.1137 -0.7042
 4187SOL    HW224024   3.266   4.428   5.267 -0.2004 -0.8129 -0.2322
 4188SOL     OW24025   2.479   3.835  10.879  0.0140 -0.1949 -0.7090
 4188SOL    HW124026   2.464   3.888  10.956 -0.4283  0.2764 -1.1228
 4188SOL    HW224027   2.518   3.756  10.918  0.6456  0.9226  0.9166
 4189SOL     OW24028   4.063   4.621   5.766 -0.5546 -0.6221  0.3497
 4189SOL    HW124029   4.123   4.677   5.717 -1.9400  0.5681 -0.0183
 4189SOL    HW224030   3.999   4.608   5.696  0.5385  1.3119 -1.0090
 4190SOL     OW24031   0.816   4.466   7.299 -0.6777  0.7079  0.6173
 4190SOL    HW124032   0.874   4.479   7.374  1.2535  0.8177 -0.8837
 4190SOL    HW224033   0.747   4.530   7.315 -0.6686  0.6970  0.6972
 4191SOL     OW24034   3.660   2.390  12.913  0.2318  0.2160  0.0419
 4191SOL    HW124035   3.592   2.430  12.859 -1.2301  0.4650  2.0821
 4191SOL    HW224036   3.670   2.301  12.882 -0.6417  0.2810 -0.4220
 4192SOL     OW24037   0.509   2.314   8.349 -0.1757 -0.1617  0.2458
 4192SOL    HW124038   0.513   2.404   8.316  1.5340 -0.3904 -0.1656
 4192SOL    HW224039   0.417   2.305   8.372  0.2603  0.0499  2.1328
 4193SOL     OW24040   4.712   4.654   3.300  0.0564  0.3082 -0.9419
 4193SOL    HW124041   0.015   4.692   3.385 -3.4445  1.4224 -0.4537
 4193SOL    HW224042   0.042   4.710   3.241  1.3906 -1.2741 -1.2584
 4194SOL     OW24043   0.648   3.121  10.823 -0.1832  0.5736  0.1418
 4194SOL    HW124044   0.670   3.034  10.855 -0.5319  1.1476  1.9861
 4194SOL    HW224045   0.660   3.124  10.729 -0.1622 -1.4717  0.0890
 4195SOL     OW24046   4.148   2.760   6.141 -0.4210 -0.0634 -0.1811
 4195SOL    HW124047   4.214   2.725   6.081 -1.2184 -0.0362 -1.0755
 4195SOL    HW224048   4.077   2.708   6.105 -2.6331  3.0723 -0.3346
 4196SOL     OW24049   2.561   1.882   5.476 -0.0151 -0.4040  0.5258
 4196SOL    HW124050   2.647   1.842   5.494 -0.2501 -1.4241 -0.5942
 4196SOL    HW224051   2.580   1.963   5.429 -1.2949 -0.7469 -0.5898
 4197SOL     OW24052   0.553   0.441   5.903  0.2834 -0.0168 -0.0914
 4197SOL    HW124053   0.605   0.377   5.855  1.1548 -0.6962  1.7863
 4197SOL    HW224054   0.492   0.485   5.843  1.4881 -0.5474 -1.6821
 4198SOL     OW24055   0.552   0.879   7.259 -0.2116  0.4454 -0.6225
 4198SOL    HW124056   0.537   0.849   7.349  3.8193 -0.0731 -0.1033
 4198SOL    HW224057   0.645   0.873   7.239 -0.0270 -0.8882  0.5862
 4199SOL     OW24058   3.210   2.545  14.351 -0.2881  0.3386 -0.1723
 4199SOL    HW124059   3.246   2.620  14.399  3.2858 -1.0907 -0.6103
 4199SOL    HW224060   3.141   2.508  14.406  1.7505 -2.1174  0.7742
 4200SOL     OW24061   2.534   1.820   0.694 -0.4307 -0.3951 -0.1534
 4200SOL    HW124062   2.493   1.741   0.729  0.9944 -0.0320  2.3466
 4200SOL    HW224063   2.563   1.862   0.775 -1.5706  0.7244 -0.3266
 4201SOL     OW24064   0.770   3.479  16.223  0.3444 -0.1220  0.3474
 4201SOL    HW124065   0.837   3.503  16.158 -0.5964  2.0045  0.1963
 4201SOL    HW224066   0.774   3.384  16.210 -0.6472 -0.6500  3.7567
 4202SOL     OW24067   2.026   3.228  12.250  0.0102 -0.2128 -0.2395
 4202SOL    HW124068   2.106   3.265  12.287 -1.2485  1.9946  0.3564
 4202SOL    HW224069   1.964   3.301  12.257  0.2736  0.0148 -0.2806
 4203SOL     OW24070   3.684   3.339   5.880 -0.1885 -0.3539 -0.1399
 4203SOL    HW124071   3.750   3.284   5.837  0.2602 -0.9066  1.2547
 4203SOL    HW224072   3.711   3.341   5.972 -1.3534 -1.5812  0.2302
 4204SOL     OW24073   3.825   4.371   7.268 -0.4700 -0.1711  0.5368
 4204SOL    HW124074   3.890   4.434   7.300 -0.3000 -0.4430  0.7319
 4204SOL    HW224075   3.844   4.390   7.176 -1.7231  1.0154  0.5317
 4205SOL     OW24076   0.843   2.923   0.898 -0.0141  0.1033  0.0651
 4205SOL    HW124077   0.761   2.963   0.924 -0.5674 -0.6605 -0.4955
 4205SOL    HW224078   0.903   2.959   0.963  0.8625  2.7616 -2.2139
 4206SOL     OW24079   0.808   4.485  11.773 -0.6302  0.7191 -0.5342
 4206SOL    HW124080   0.896   4.448  11.763 -0.7140  0.1194  0.8662
 4206SOL    HW224081   0.771   4.401  11.801 -0.4841  0.6354 -0.5907
 4207SOL     OW24082   2.768   1.334   8.816 -0.1710 -0.7675 -0.6506
 4207SOL    HW124083   2.704   1.310   8.884 -2.3872 -0.9723 -2.8091
 4207SOL    HW224084   2.818   1.253   8.810 -0.5678 -0.9746 -1.1829
 4208SOL     OW24085   4.135   0.527   7.047 -0.3159 -0.1231  0.2373
 4208SOL    HW124086   4.171   0.466   6.982 -0.7663 -0.8189  0.6327
 4208SOL    HW224087   4.196   0.597   7.025 -1.7795  0.8214 -0.8168
 4209SOL     OW24088   4.300   2.242   9.276 -0.4685  0.0839  0.0638
 4209SOL    HW124089   4.293   2.202   9.190 -1.6762  0.9002 -0.2191
 4209SOL    HW224090   4.390   2.276   9.272 -0.9416  1.4419  0.8805
 4210SOL     OW24091   2.732   4.419   0.507 -0.0959  0.6897  0.1436
 4210SOL    HW124092   2.748   4.378   0.592  1.5853  0.5473 -0.2413
 4210SOL    HW224093   2.740   4.353   0.438  2.3108  1.0228  0.1310
 4211SOL     OW24094   4.170   0.281   0.123  0.3479 -0.0464  0.5543
 4211SOL    HW124095   4.203   0.345   0.060  1.6124 -1.9824 -0.7329
 4211SOL    HW224096   4.239   0.217   0.107 -0.6226 -1.2425  1.1588
 4212SOL     OW24097   0.637   2.242   3.532  0.0803  0.1104 -0.1424
 4212SOL    HW124098   0.695   2.170   3.509  1.0045  0.9325 -0.3698
 4212SOL    HW224099   0.594   2.247   3.446 -0.8030 -0.7908  0.2422
 4213SOL     OW24100   3.993   4.630  14.075  0.1599  0.2896 -0.4083
 4213SOL    HW124101   3.927   4.700  14.076 -2.9674 -2.6671  1.8418
 4213SOL    HW224102   3.969   4.591  14.159  0.2958 -0.3862 -0.6853
 4214SOL     OW24103   0.753   0.128   7.669 -0.1690 -0.6414  0.1771
 4214SOL    HW124104   0.803   0.080   7.735 -1.0302 -1.0000  0.5716
 4214SOL    HW224105   0.682   0.165   7.721  1.0235  1.0686  0.5732
 4215SOL     OW24106   3.776   4.080   2.738 -0.1590  0.0940  0.2316
 4215SOL    HW124107   3.698   4.091   2.682 -0.7032 -3.3491  0.3383
 4215SOL    HW224108   3.823   4.021   2.679  0.9274 -1.3503  2.5396
 4216SOL     OW24109   3.147   2.624   8.882  0.0719 -0.2497  0.3935
 4216SOL    HW124110   3.171   2.616   8.975 -1.1488 -0.3194  0.6969
 4216SOL    HW224111   3.222   2.670   8.843  0.3442 -0.3064  0.8414
 4217SOL     OW24112   3.222   2.473   2.779  0.1195  0.5808  0.3059
 4217SOL    HW124113   3.296   2.520   2.739  0.4501 -0.2577 -0.0831
 4217SOL    HW224114   3.225   2.519   2.862 -0.5381  0.0958  0.5953
 4218SOL     OW24115   4.457   1.963  11.019  0.2433 -0.2752  0.0283
 4218SOL    HW124116   4.444   2.024  11.091 -1.2149 -0.8864  0.3045
 4218SOL    HW224117   4.471   2.019  10.943  0.1069  0.3109  0.4385
 4219SOL     OW24118   4.448   0.097   9.772 -0.4783  0.3247  0.2697
 4219SOL    HW124119   4.366   0.110   9.818 -1.1297 -1.0583 -0.4991
 4219SOL    HW224120   4.452   0.152   9.694  0.9982 -0.7552 -0.4252
 4220SOL     OW24121   1.210   1.041   3.544  0.0446  0.2920  0.2516
 4220SOL    HW124122   1.267   0.966   3.525  1.1756  1.6415 -1.7452
 4220SOL    HW224123   1.208   1.081   3.457  1.8184 -1.7127 -0.7260
 4221SOL     OW24124   2.897   1.843  14.773  0.0469 -0.1679  0.3912
 4221SOL    HW124125   2.973   1.837  14.716 -0.6776  1.7245 -0.7769
 4221SOL    HW224126   2.875   1.935  14.759 -2.6681 -0.8957 -0.2315
 4222SOL     OW24127   2.339   1.504  15.818  0.5229 -0.1813 -0.2334
 4222SOL    HW124128   2.380   1.515  15.732 -0.8111 -2.0858 -1.1212
 4222SOL    HW224129   2.347   1.409  15.812  1.3572  0.0590 -3.1610
 4223SOL     OW24130   4.209   1.053   3.887  0.2571 -0.2202 -0.0968
 4223SOL    HW124131   4.223   1.011   3.973 -1.2559  0.2401  0.3764
 4223SOL    HW224132   4.272   1.125   3.896  0.5965 -0.4966 -0.2849
 4224SOL     OW24133   0.177   1.786  12.157  0.3998  0.2391 -0.1274
 4224SOL    HW124134   0.123   1.748  12.226 -2.8949 -0.6014 -3.1423
 4224SOL    HW224135   0.266   1.787  12.192  1.3177 -1.1258 -2.3802
 4225SOL     OW24136   2.412   3.521   3.849 -0.1851 -0.3692  0.1151
 4225SOL    HW124137   2.351   3.451   3.870  0.7486 -1.4706 -0.8692
 4225SOL    HW224138   2.474   3.478   3.790 -0.2023 -0.9743  0.5376
 4226SOL     OW24139   2.141   2.990   5.396 -0.3779  0.4580 -0.1946
 4226SOL    HW124140   2.103   2.941   5.469  1.2908 -1.0767 -0.3674
 4226SOL    HW224141   2.077   3.061   5.387 -0.1239  0.8322  0.8642
 4227SOL     OW24142   1.836   0.485   0.076  0.1978 -0.0142  0.2481
 4227SOL    HW124143   1.758   0.451   0.033 -0.3019  0.7725  0.5259
 4227SOL    HW224144   1.902   0.426   0.040  0.5253 -0.0213  0.8462
 4228SOL     OW24145   3.899   3.874   7.426 -0.6843 -0.2035 -0.0556
 4228SOL    HW124146   3.891   3.779   7.430 -0.3463 -0.1888  0.9162
 4228SOL    HW224147   3.857   3.893   7.510  0.4102 -1.3050  0.7414
 4229SOL     OW24148   0.612   0.427   6.512 -0.1238  0.2618 -0.2653
 4229SOL    HW124149   0.665   0.482   6.570  2.2887 -1.5041 -0.7957
 4229SOL    HW224150   0.556   0.373   6.569  0.3475  0.1682  0.1119
 4230SOL     OW24151   2.968   4.289   4.462  0.4163  0.2235  0.5156
 4230SOL    HW124152   2.872   4.294   4.459  0.3528 -1.1327  0.2467
 4230SOL    HW224153   2.995   4.367   4.414  0.2081 -0.4820 -0.7531
 4231SOL     OW24154   4.134   1.684   4.894  0.5672  0.3596  0.0588
 4231SOL    HW124155   4.149   1.731   4.976  2.4995 -2.1420  1.1222
 4231SOL    HW224156   4.186   1.735   4.831  0.6002 -0.6972 -0.7652
 4232SOL     OW24157   1.697   0.689   0.247 -0.3346  0.4646  0.2528
 4232SOL    HW124158   1.755   0.623   0.210  0.8347  0.8113  1.4955
 4232SOL    HW224159   1.741   0.772   0.229 -0.0441  0.3852  0.6103
 4233SOL     OW24160   0.520   3.189  14.717  0.0929  0.2875 -0.3558
 4233SOL    HW124161   0.535   3.278  14.750 -0.0768 -0.7230  2.4713
 4233SOL    HW224162   0.594   3.193  14.656  0.8025  0.7534  0.5293
 4234SOL     OW24163   2.182   1.945   9.861  0.0386  0.1433 -0.7281
 4234SOL    HW124164   2.112   1.936   9.925 -0.9988 -2.7250 -2.2495
 4234SOL    HW224165   2.191   1.853   9.835  1.0756  0.6148 -2.0495
 4235SOL     OW24166   0.036   2.919   8.858 -0.0731  0.4567 -0.3426
 4235SOL    HW124167   0.032   2.827   8.834 -0.9385 -0.0910  1.9660
 4235SOL    HW224168   4.680   2.918   8.914 -0.0130 -0.6179 -0.2877
 4236SOL     OW24169   4.018   2.461   3.469  0.1212 -0.0162 -0.6316
 4236SOL    HW124170   3.937   2.412   3.455  1.9006 -3.2923  0.6456
 4236SOL    HW224171   4.021   2.481   3.376  2.7153 -0.9290 -0.7398
 4237SOL     OW24172   0.335   2.730   2.296 -0.1219  0.4311  0.5725
 4237SOL    HW124173   0.304   2.779   2.220  0.2680 -0.5369 -0.2213
 4237SOL    HW224174   0.376   2.652   2.257  0.7756  1.6059 -0.8178
 4238SOL     OW24175   2.846   3.787   0.800  0.2988 -0.2523  0.0253
 4238SOL    HW124176   2.758   3.753   0.783  1.0206 -1.3558 -1.5136
 4238SOL    HW224177   2.887   3.775   0.715  0.8374 -0.7780  0.3528
 4239SOL     OW24178   4.535   4.218   4.616  0.2202  0.4292  0.2046
 4239SOL    HW124179   4.601   4.214   4.686  0.3785  0.4535  0.0558
 4239SOL    HW224180   4.508   4.126   4.620  1.2179  0.0576 -1.8660
 4240SOL     OW24181   2.427   3.786  10.549  0.3633 -0.1341  0.5882
 4240SOL    HW124182   2.493   3.829  10.495  0.4785 -0.0233  0.8157
 4240SOL    HW224183   2.487   3.744  10.611 -0.5170  0.2573  1.7013
 4241SOL     OW24184   1.730   3.563  13.119  0.3026 -0.5816 -0.7583
 4241SOL    HW124185   1.678   3.566  13.039 -1.4928 -0.1729  0.4149
 4241SOL    HW224186   1.744   3.469  13.132  1.3130 -0.6220 -2.1515
 4242SOL     OW24187   4.195   4.340  14.102  0.4545 -0.5187 -0.0150
 4242SOL    HW124188   4.204   4.352  14.008  0.3376 -0.8086 -0.0634
 4242SOL    HW224189   4.225   4.422  14.142  1.6911 -0.5561 -0.8708
 4243SOL     OW24190   3.223   2.512   6.917  0.6687  0.1104 -0.0682
 4243SOL    HW124191   3.290   2.466   6.966 -0.5209 -2.3461 -0.7710
 4243SOL    HW224192   3.220   2.598   6.960  1.8225 -0.0997  0.4115
 4244SOL     OW24193   3.388   1.979   4.726 -0.4511  0.0404 -0.1871
 4244SOL    HW124194   3.328   1.917   4.684  0.1481 -1.5881  1.3434
 4244SOL    HW224195   3.473   1.959   4.686  0.5355  0.0028  1.9646
 4245SOL     OW24196   2.407   3.764   1.877 -0.1738  0.5603  0.4972
 4245SOL    HW124197   2.322   3.719   1.872  0.3370 -0.3279 -0.1046
 4245SOL    HW224198   2.454   3.715   1.810 -0.1642  1.6457 -0.2796
 4246SOL     OW24199   3.506   3.561   2.352 -0.3069 -0.0147 -0.6857
 4246SOL    HW124200   3.476   3.556   2.261 -0.3368  1.4882 -0.7570
 4246SOL    HW224201   3.601   3.551   2.349 -0.3656 -1.0168  1.1255
 4247SOL     OW24202   2.915   4.149   2.037  0.3622 -0.3724  0.1445
 4247SOL    HW124203   2.952   4.161   1.949  0.9153 -1.8071  0.1886
 4247SOL    HW224204   2.910   4.241   2.063 -2.0461 -0.7861  1.1513
 4248SOL     OW24205   2.863   0.751   4.148 -0.0883  0.3306 -0.0215
 4248SOL    HW124206   2.809   0.691   4.097  1.8080 -0.9783 -0.4705
 4248SOL    HW224207   2.947   0.743   4.103 -0.9628  0.1086 -1.6193
 4249SOL     OW24208   2.049   0.605  16.513  0.6603 -0.1638 -0.3967
 4249SOL    HW124209   2.094   0.649  16.586  2.5415 -1.3649 -0.8331
 4249SOL    HW224210   2.055   0.514  16.541 -0.0289  0.0268  0.3602
 4250SOL     OW24211   0.769   1.779  16.398  0.2994 -0.0929  0.5519
 4250SOL    HW124212   0.792   1.760  16.307 -1.0699  1.5059 -0.1325
 4250SOL    HW224213   0.834   1.722  16.439 -1.5636 -0.2306  3.2260
 4251SOL     OW24214   3.798   4.705   7.744  0.1192  0.4136  0.4801
 4251SOL    HW124215   3.719   0.029   7.774 -0.2227 -0.0353  0.2556
 4251SOL    HW224216   3.825   4.664   7.826 -0.9912  0.0504  0.6658
 4252SOL     OW24217   4.302   4.506   1.703 -0.6546  0.1398 -0.0451
 4252SOL    HW124218   4.253   4.564   1.645  0.5256 -0.8302 -2.0026
 4252SOL    HW224219   4.307   4.558   1.784 -1.9880 -2.2011  1.5174
 4253SOL     OW24220   3.473   2.794  10.205 -0.0863 -0.1716  0.5116
 4253SOL    HW124221   3.423   2.716  10.226  1.4617 -0.9035  1.4812
 4253SOL    HW224222   3.546   2.792  10.267  0.9697 -1.1456 -0.7774
 4254SOL     OW24223   0.726   0.196   9.897 -0.4814  0.2031 -0.0018
 4254SOL    HW124224   0.709   0.216   9.805 -0.5694  1.6234  0.3378
 4254SOL    HW224225   0.721   0.100   9.896  1.7125  0.0799  1.1253
 4255SOL     OW24226   4.513   3.139  11.024 -0.0374  0.1073  0.7124
 4255SOL    HW124227   4.530   3.233  11.024  0.0072  0.1096  3.9828
 4255SOL    HW224228   4.571   3.119  11.098  0.9504  0.2780 -0.0124
 4256SOL     OW24229   0.023   1.871   3.014 -0.1365 -0.5192 -0.4141
 4256SOL    HW124230   0.075   1.868   2.933 -2.4798  0.2574 -1.9549
 4256SOL    HW224231   0.029   1.780   3.044  1.9303 -0.4762 -0.6493
 4257SOL     OW24232   1.242   2.471   1.551  0.2329  0.6266  0.1657
 4257SOL    HW124233   1.265   2.561   1.528  0.9433  0.0832 -1.2556
 4257SOL    HW224234   1.155   2.473   1.590 -0.8969  1.0104 -2.3577
 4258SOL     OW24235   1.850   2.918   3.939  0.1663 -0.0611 -0.0480
 4258SOL    HW124236   1.781   2.867   3.897 -0.3814 -0.5432  1.4040
 4258SOL    HW224237   1.859   2.997   3.887  2.8601  1.3907  2.6018
 4259SOL     OW24238   0.982   3.239   1.902 -0.1250 -0.2200  0.1575
 4259SOL    HW124239   1.036   3.285   1.966  0.2282 -0.1826 -0.1667
 4259SOL    HW224240   1.019   3.258   1.816  0.6835  0.7499  0.7286
 4260SOL     OW24241   2.544   0.106  14.988  0.2886 -0.0039  0.3241
 4260SOL    HW124242   2.626   0.069  15.020 -0.3986 -1.7414  0.1014
 4260SOL    HW224243   2.534   0.089  14.895  0.5153 -2.2562  0.7017
 4261SOL     OW24244   0.525   1.518   7.380  0.7487  0.3909  0.0750
 4261SOL    HW124245   0.447   1.537   7.433  1.5265 -1.3578  1.8489
 4261SOL    HW224246   0.488   1.545   7.297  0.3368 -1.6239 -0.3896
 4262SOL     OW24247   3.254   1.485   5.521 -0.2702 -0.2505  0.2733
 4262SOL    HW124248   3.222   1.443   5.601  0.0080  1.6207  1.3660
 4262SOL    HW224249   3.167   1.500   5.483 -0.7954 -1.7804  0.8916
 4263SOL     OW24250   2.426   1.283   8.272 -0.2028  0.2244 -0.1723
 4263SOL    HW124251   2.488   1.256   8.340  1.2950  1.9369 -0.8279
 4263SOL    HW224252   2.474   1.307   8.192  0.1559 -1.8273 -0.5795
 4264SOL     OW24253   3.973   3.690   4.489  0.3731  0.6852  0.4361
 4264SOL    HW124254   3.925   3.727   4.415  0.9938 -0.9123 -0.7554
 4264SOL    HW224255   3.915   3.622   4.523 -0.7107  0.9564 -0.8504
 4265SOL     OW24256   4.164   1.100  17.110 -0.1931  0.1917  0.2324
 4265SOL    HW124257   4.144   1.193  17.119  0.4268  0.6149 -2.7365
 4265SOL    HW224258   4.248   1.096  17.064 -0.3568  0.8307 -0.1123
 4266SOL     OW24259   2.614   3.266   6.204  0.6079  0.0822  0.0565
 4266SOL    HW124260   2.611   3.250   6.298 -2.7048  0.5479  0.0303
 4266SOL    HW224261   2.600   3.184   6.156  1.5196 -0.1793  0.2325
 4267SOL     OW24262   2.626   4.036   1.374 -0.0954  0.1169 -0.1513
 4267SOL    HW124263   2.625   4.132   1.379  2.0902  0.0803  0.8219
 4267SOL    HW224264   2.542   4.027   1.329 -1.3376  1.8153  1.7755
 4268SOL     OW24265   1.174   2.541   9.416  0.1857 -0.0756 -0.3891
 4268SOL    HW124266   1.165   2.588   9.499 -0.0946 -2.1763  0.7924
 4268SOL    HW224267   1.146   2.450   9.432 -1.6227  0.3120 -1.3823
 4269SOL     OW24268   4.059   2.219  10.560 -0.1925  0.4076  0.3361
 4269SOL    HW124269   4.025   2.207  10.471  0.6968 -0.8100  0.1580
 4269SOL    HW224270   4.100   2.305  10.567  0.8061 -0.0829  0.5144
 4270SOL     OW24271   1.365   1.719  16.593  0.0063 -0.1548  0.1624
 4270SOL    HW124272   1.342   1.631  16.621 -1.2923 -0.0344 -0.5427
 4270SOL    HW224273   1.364   1.765  16.678 -0.3482 -0.8312  0.5197
 4271SOL     OW24274   4.709   3.246  11.756  0.3845  0.4101 -0.4429
 4271SOL    HW124275   4.658   3.167  11.776 -0.9862  0.7695 -2.4609
 4271SOL    HW224276   4.632   3.299  11.734  1.0669  0.6387 -2.2375
 4272SOL     OW24277   4.139   2.104   9.992 -0.3892 -0.2343 -0.1323
 4272SOL    HW124278   4.235   2.100   9.990 -0.4545 -1.3922 -1.0062
 4272SOL    HW224279   4.127   2.031   9.931 -3.2255  0.2212 -0.1023
 4273SOL     OW24280   3.071   2.528  14.092  0.3608 -0.7260  0.5694
 4273SOL    HW124281   3.027   2.464  14.149  0.0022  0.8305  2.0381
 4273SOL    HW224282   2.991   2.560  14.049  0.9438  1.5615  1.2152
 4274SOL     OW24283   1.896   0.103  14.034 -0.0197  0.1949  0.0997
 4274SOL    HW124284   1.872   0.032  14.093 -0.4244  0.9276  0.8223
 4274SOL    HW224285   1.991   0.102  14.048 -0.1182 -0.6673  0.6532
 4275SOL     OW24286   4.212   4.180   0.534  0.3711 -0.9684 -0.2702
 4275SOL    HW124287   4.269   4.230   0.593  0.1688 -1.1077  0.0412
 4275SOL    HW224288   4.217   4.089   0.564  0.8139 -0.8363  0.0702
 4276SOL     OW24289   1.377   3.291   4.187 -0.3400 -0.0522  0.7251
 4276SOL    HW124290   1.380   3.314   4.280 -4.5293 -0.9268  1.0739
 4276SOL    HW224291   1.300   3.235   4.178 -1.1950  0.8005  2.6668
 4277SOL     OW24292   4.716   2.892   7.411  0.6815  0.0570  0.3350
 4277SOL    HW124293   0.070   2.835   7.428 -1.3376 -2.5425  0.6072
 4277SOL    HW224294   0.013   2.932   7.326 -1.0078  0.1823  0.0222
 4278SOL     OW24295   2.996   2.032   7.400 -0.0675 -1.0388 -0.0982
 4278SOL    HW124296   3.076   2.060   7.444 -0.7336 -0.5843  0.8126
 4278SOL    HW224297   2.982   1.955   7.455  0.0769  0.9311  2.6698
 4279SOL     OW24298   4.544   3.351   6.721 -0.4052 -0.4910  0.0647
 4279SOL    HW124299   4.507   3.329   6.636  1.0299  1.1317 -0.9616
 4279SOL    HW224300   4.481   3.410   6.762 -0.5897 -0.9104  0.3853
 4280SOL     OW24301   0.930   2.119   3.775  0.0440  0.4217 -0.3037
 4280SOL    HW124302   1.021   2.092   3.761 -0.5247 -1.8174  0.3792
 4280SOL    HW224303   0.889   2.049   3.826  1.7946 -1.4862 -1.4958
 4281SOL     OW24304   4.267   3.528   1.623  0.1994  0.2509 -0.2764
 4281SOL    HW124305   4.316   3.609   1.638 -0.0782  0.5072 -0.7410
 4281SOL    HW224306   4.196   3.534   1.686  0.3079  0.6066 -0.1894
 4282SOL     OW24307   3.349   4.716   4.876 -0.2867 -0.3705  0.2078
 4282SOL    HW124308   3.402   0.013   4.954  0.7537  1.3985 -0.9005
 4282SOL    HW224309   3.391   4.632   4.858 -1.0165 -0.4388 -1.1449
 4283SOL     OW24310   0.819   2.052   7.590  0.4360 -0.1533 -0.7395
 4283SOL    HW124311   0.884   2.110   7.552  2.9452 -1.6923  1.2400
 4283SOL    HW224312   0.777   2.105   7.658 -3.0036 -1.9276 -1.4732
 4284SOL     OW24313   0.673   2.233   6.125 -0.1844 -0.6941  0.2026
 4284SOL    HW124314   0.692   2.210   6.216  1.0595  1.5784  0.5246
 4284SOL    HW224315   0.647   2.324   6.133  0.7125 -0.4065 -0.1585
 4285SOL     OW24316   4.038   0.604   3.156 -0.2073  0.3549 -0.5455
 4285SOL    HW124317   3.973   0.621   3.088  0.0403 -0.8429 -1.0776
 4285SOL    HW224318   4.026   0.688   3.201  0.4540  1.4934 -2.4517
 4286SOL     OW24319   1.955   0.108   4.278 -0.4268  0.1070 -0.1036
 4286SOL    HW124320   2.035   0.073   4.317 -1.3164 -1.6320  0.1746
 4286SOL    HW224321   1.933   0.040   4.214 -1.3609  1.7930 -1.6148
 4287SOL     OW24322   3.514   2.122   0.787  0.7216  0.3392  0.0711
 4287SOL    HW124323   3.582   2.093   0.726  0.0627 -0.7865 -0.1324
 4287SOL    HW224324   3.445   2.058   0.770  1.4196 -0.9437  2.0222
 4288SOL     OW24325   0.610   0.269  15.923  0.4518 -0.2840 -0.4711
 4288SOL    HW124326   0.612   0.353  15.968  1.6356 -1.0737  0.9304
 4288SOL    HW224327   0.596   0.309  15.837 -1.4576  0.6777  0.2857
 4289SOL     OW24328   1.205   2.146   8.974  0.0846 -0.4359  0.0264
 4289SOL    HW124329   1.268   2.135   8.903 -1.0394  3.1793 -1.5265
 4289SOL    HW224330   1.240   2.105   9.054 -0.1232  0.4178  0.5500
 4290SOL     OW24331   4.072   0.860   1.342 -0.2780  0.5873  0.4170
 4290SOL    HW124332   4.120   0.872   1.260  0.0539  0.4710  0.5951
 4290SOL    HW224333   3.988   0.825   1.311  0.0039  1.0329 -0.8446
 4291SOL     OW24334   1.761   0.594   9.210 -0.5484 -0.1090 -0.4114
 4291SOL    HW124335   1.717   0.670   9.172  1.9388  1.7911  0.5312
 4291SOL    HW224336   1.790   0.560   9.126 -0.2523  2.4838 -1.3533
 4292SOL     OW24337   1.896   3.466   4.097 -0.1789 -0.0855 -0.0250
 4292SOL    HW124338   1.910   3.456   4.003  0.0545 -0.8547  0.0909
 4292SOL    HW224339   1.821   3.407   4.104  0.2201 -0.3181  2.3289
 4293SOL     OW24340   4.131   1.342   8.063  0.2519 -0.0169 -0.1241
 4293SOL    HW124341   4.051   1.392   8.043  0.2959  0.3269  0.5616
 4293SOL    HW224342   4.204   1.365   8.005 -0.2017  2.0466  0.1000
 4294SOL     OW24343   2.261   0.414   1.011  0.0108 -0.9090  0.0568
 4294SOL    HW124344   2.172   0.425   0.980 -0.2690 -2.2086  0.4237
 4294SOL    HW224345   2.278   0.349   0.944  0.0335 -1.5500  0.6866
 4295SOL     OW24346   1.596   0.870  14.511  0.4704 -0.6902  0.0878
 4295SOL    HW124347   1.535   0.889  14.440 -0.2970  1.2960  1.2650
 4295SOL    HW224348   1.542   0.794  14.531 -2.4617  1.2521 -0.5449
 4296SOL     OW24349   0.429   2.746   5.496  0.1532 -0.0657  0.2136
 4296SOL    HW124350   0.417   2.731   5.402  1.6059  4.2655 -0.6589
 4296SOL    HW224351   0.450   2.839   5.499 -0.0805  0.0165 -0.8488
 4297SOL     OW24352   1.747   1.877  15.696  0.1025  0.4609 -0.1216
 4297SOL    HW124353   1.821   1.925  15.659  0.7125 -0.7395 -0.4619
 4297SOL    HW224354   1.766   1.801  15.640  0.4582 -0.1340  0.8144
 4298SOL     OW24355   3.381   4.578  15.858 -0.4901 -0.3804 -0.3393
 4298SOL    HW124356   3.308   4.604  15.914  0.3281 -2.6039  1.7528
 4298SOL    HW224357   3.374   4.642  15.787 -0.0641 -1.8480 -1.7198
 4299SOL     OW24358   2.246   2.428   4.022 -0.5770 -0.4602  0.1172
 4299SOL    HW124359   2.330   2.452   3.981  0.2506 -1.7371  1.0568
 4299SOL    HW224360   2.195   2.411   3.943  0.3525 -0.8176 -0.4079
 4300SOL     OW24361   1.939   2.923   0.886  0.0448 -0.3364  0.8644
 4300SOL    HW124362   2.026   2.954   0.911  0.2672 -0.0678 -0.2223
 4300SOL    HW224363   1.893   3.006   0.870 -0.0385 -0.5033  0.2407
 4301SOL     OW24364   4.273   3.736   4.473 -0.3046  0.4261 -0.1071
 4301SOL    HW124365   4.210   3.704   4.409 -0.9237  0.7809  0.3357
 4301SOL    HW224366   4.296   3.651   4.511  0.7397  0.1733 -1.2707
 4302SOL     OW24367   4.028   2.273   2.053  0.4557 -0.2575 -0.1358
 4302SOL    HW124368   4.087   2.208   2.090  0.6726 -1.1370 -2.0407
 4302SOL    HW224369   3.987   2.300   2.136  0.9570  0.6650 -0.1886
 4303SOL     OW24370   2.251   1.742   3.434  0.5152 -0.0285 -0.3906
 4303SOL    HW124371   2.324   1.690   3.469  1.5068  2.2997  1.0154
 4303SOL    HW224372   2.246   1.736   3.339 -2.0442  0.8971 -0.3249
 4304SOL     OW24373   1.670   0.107   5.210  0.0326 -0.8741  0.2961
 4304SOL    HW124374   1.674   0.050   5.133 -2.1911 -1.7484  0.8196
 4304SOL    HW224375   1.692   0.041   5.276 -0.3022  0.3627  1.6331
 4305SOL     OW24376   0.895   2.899  10.774 -0.1103  0.1175 -0.1192
 4305SOL    HW124377   0.877   2.982  10.731 -1.8295 -0.9794 -1.5383
 4305SOL    HW224378   0.819   2.888  10.831  0.8301 -0.4541  1.0174
 4306SOL     OW24379   1.611   3.615  13.350 -0.5533  0.0615 -0.0986
 4306SOL    HW124380   1.669   3.585  13.420 -0.8868 -1.1991 -0.3644
 4306SOL    HW224381   1.664   3.580  13.279  0.4314 -0.2443  0.7905
 4307SOL     OW24382   3.001   4.428   0.252  0.5117 -0.4261 -0.1577
 4307SOL    HW124383   3.055   4.379   0.191  1.0277  0.1910 -0.1931
 4307SOL    HW224384   2.994   4.363   0.321 -1.5939 -2.1716 -1.9968
 4308SOL     OW24385   2.066   0.909   5.253 -0.8003 -0.1494 -0.7975
 4308SOL    HW124386   1.981   0.914   5.296 -0.4956  1.6417 -0.3983
 4308SOL    HW224387   2.098   0.826   5.288  0.7141  0.2878 -1.1621
 4309SOL     OW24388   3.259   3.452   7.489  0.5484  0.0957  0.4068
 4309SOL    HW124389   3.249   3.494   7.575 -2.0682 -1.5331  0.8822
 4309SOL    HW224390   3.168   3.442   7.463  0.8723 -0.9511 -0.3108
 4310SOL     OW24391   0.183   2.839   2.747  0.0796  0.0268 -0.3088
 4310SOL    HW124392   0.259   2.840   2.806  0.9002 -1.2312 -1.3655
 4310SOL    HW224393   0.144   2.914   2.793  0.4244  1.4434 -2.3562
 4311SOL     OW24394   4.426   4.187   4.061  0.1986 -0.1157 -0.4961
 4311SOL    HW124395   4.344   4.173   4.014 -0.6822 -1.2654  1.3350
 4311SOL    HW224396   4.483   4.143   3.999 -0.5367 -0.7582 -0.7089
 4312SOL     OW24397   0.632   1.137   7.097  0.3176  0.1535  0.0493
 4312SOL    HW124398   0.546   1.179   7.096  1.7269  3.0536  0.0811
 4312SOL    HW224399   0.661   1.156   7.187  1.5498  0.1479 -0.3496
 4313SOL     OW24400   0.680   1.450   3.663  0.3734 -0.2142 -0.0020
 4313SOL    HW124401   0.661   1.360   3.688  1.7583 -1.2000 -2.4898
 4313SOL    HW224402   0.592   1.470   3.631  1.0214  3.0326  0.2051
 4314SOL     OW24403   0.436   4.396   2.005  0.4392 -0.0607  0.1030
 4314SOL    HW124404   0.382   4.460   1.958  1.8081  0.8042 -0.2994
 4314SOL    HW224405   0.525   4.431   1.999 -0.0449  1.3883  1.3449
 4315SOL     OW24406   2.521   1.989   7.698 -0.3629 -0.4361  0.0152
 4315SOL    HW124407   2.521   1.950   7.786 -1.3276 -2.4188 -0.8533
 4315SOL    HW224408   2.487   2.074   7.724  3.1514  0.9373  0.0782
 4316SOL     OW24409   1.766   1.220  16.934 -0.1018  0.4885 -0.1962
 4316SOL    HW124410   1.687   1.270  16.915 -1.1797 -1.3184 -0.3954
 4316SOL    HW224411   1.832   1.265  16.880 -1.2272  1.9373 -0.3853
 4317SOL     OW24412   4.308   1.329   9.343  0.0546 -0.3529 -0.1009
 4317SOL    HW124413   4.387   1.275   9.335  0.2574  0.3372 -2.7179
 4317SOL    HW224414   4.310   1.387   9.267  0.4085 -1.6543 -1.0885
 4318SOL     OW24415   0.594   1.607  11.332 -0.1444 -0.2706  0.2763
 4318SOL    HW124416   0.641   1.614  11.415 -0.6906 -2.2390  0.7443
 4318SOL    HW224417   0.565   1.698  11.331 -0.2406 -0.3013  0.2633
 4319SOL     OW24418   3.819   0.912   1.479 -0.5044 -0.6732  0.3620
 4319SOL    HW124419   3.833   0.949   1.566 -1.2587 -1.2650  0.7280
 4319SOL    HW224420   3.726   0.890   1.481 -0.8233  0.4897 -1.3325
 4320SOL     OW24421   4.597   1.754  10.936  0.0988  0.7207  0.1886
 4320SOL    HW124422   4.528   1.809  10.973 -0.1294 -0.0176  0.8821
 4320SOL    HW224423   4.603   1.681  10.998  0.3553  0.9100  0.3856
 4321SOL     OW24424   1.866   3.929   6.794 -0.0861 -0.6483 -0.0891
 4321SOL    HW124425   1.795   3.956   6.735 -0.5332  1.5595  1.4665
 4321SOL    HW224426   1.867   4.008   6.848 -0.9700 -0.5050 -0.2756
 4322SOL     OW24427   4.711   3.860   6.638 -0.0958 -0.0244  0.5588
 4322SOL    HW124428   0.055   3.930   6.647 -0.0191 -0.0152 -0.0997
 4322SOL    HW224429   4.698   3.826   6.726  1.8476 -0.9384  0.4885
 4323SOL     OW24430   0.086   2.729   0.484  0.2366 -0.4887 -0.0461
 4323SOL    HW124431   0.095   2.668   0.410  1.0829 -0.1605 -0.2154
 4323SOL    HW224432   0.004   2.778   0.473  1.5981  1.8828  0.3829
 4324SOL     OW24433   3.186   2.650  14.704  0.0630 -0.0644 -0.2876
 4324SOL    HW124434   3.208   2.699  14.624 -0.9474 -0.3038 -0.7107
 4324SOL    HW224435   3.261   2.591  14.695  0.4426  0.4841 -0.7652
 4325SOL     OW24436   1.044   3.347  12.313 -0.3358  0.0367  0.8408
 4325SOL    HW124437   1.121   3.291  12.303 -2.8891 -3.5976  1.2967
 4325SOL    HW224438   1.075   3.428  12.273  0.6668 -1.5877 -1.6101
 4326SOL     OW24439   4.568   2.629  16.411 -0.1729 -0.6777  0.5484
 4326SOL    HW124440   4.571   2.683  16.333  1.5001 -1.0551  0.3619
 4326SOL    HW224441   4.521   2.687  16.471 -1.3876 -1.0863 -0.0179
 4327SOL     OW24442   0.107   0.428   3.154 -0.0376  0.0370 -0.4442
 4327SOL    HW124443   0.154   0.504   3.189 -2.2080  2.0079 -1.8012
 4327SOL    HW224444   0.037   0.480   3.115 -1.1362 -0.4343  0.8612
 4328SOL     OW24445   3.756   1.858   6.401  0.7058  0.2947 -0.6207
 4328SOL    HW124446   3.730   1.930   6.459  0.1634 -1.5203  1.3884
 4328SOL    HW224447   3.681   1.856   6.341 -0.3782  2.4705  0.6637
 4329SOL     OW24448   0.717   0.244  16.978 -0.0022  0.3797 -0.3238
 4329SOL    HW124449   0.715   0.231  16.883 -1.9751  0.7174 -0.3392
 4329SOL    HW224450   0.715   0.340  16.977  0.2616  0.4103  2.2624
 4330SOL     OW24451   4.481   2.500  10.796 -0.6485  0.1302 -0.2847
 4330SOL    HW124452   4.511   2.481  10.885  0.8638  2.0888 -0.3664
 4330SOL    HW224453   4.418   2.428  10.789  3.7099 -3.8050  0.2073
 4331SOL     OW24454   3.744   3.441   4.551 -0.0314 -0.5582 -0.3383
 4331SOL    HW124455   3.669   3.397   4.592 -1.3075  0.8480 -1.1758
 4331SOL    HW224456   3.751   3.395   4.467 -1.8638  3.0686 -2.4430
 4332SOL     OW24457   1.663   1.443   5.766  0.2032  0.2939  0.5637
 4332SOL    HW124458   1.611   1.487   5.699 -1.0706 -1.5289  0.3714
 4332SOL    HW224459   1.734   1.507   5.767 -1.6929  2.3896  0.6637
 4333SOL     OW24460   2.814   2.380   3.371  0.1309 -0.0014  0.4862
 4333SOL    HW124461   2.784   2.358   3.282 -0.4182  0.0827  0.6496
 4333SOL    HW224462   2.749   2.335   3.425 -0.5512  1.1787  0.6582
 4334SOL     OW24463   1.727   0.722   9.543 -0.4095 -0.0070  0.3475
 4334SOL    HW124464   1.663   0.667   9.500 -0.2214  0.9199 -1.1117
 4334SOL    HW224465   1.802   0.668   9.519  0.5808  1.0022  1.1527
 4335SOL     OW24466   0.457   1.702   3.312 -0.1842  0.6182  0.2450
 4335SOL    HW124467   0.392   1.705   3.241  0.9687 -0.3896 -0.8616
 4335SOL    HW224468   0.480   1.795   3.307 -0.0605  0.4983 -1.6810
 4336SOL     OW24469   4.285   1.139   6.731 -0.3044 -0.7586  0.0183
 4336SOL    HW124470   4.308   1.227   6.704  1.3050 -1.6999 -1.6636
 4336SOL    HW224471   4.200   1.163   6.767  0.4697 -0.8155  1.9038
 4337SOL     OW24472   3.896   2.339   2.294 -0.1010 -0.0492  0.0409
 4337SOL    HW124473   3.875   2.400   2.365  2.0693 -0.4581  1.0535
 4337SOL    HW224474   3.808   2.334   2.257 -0.8166  2.4254  1.3998
 4338SOL     OW24475   2.944   2.285   3.621 -0.4162 -0.4117  0.1385
 4338SOL    HW124476   2.929   2.362   3.567  0.5307 -0.4313 -0.1471
 4338SOL    HW224477   2.890   2.226   3.569  1.0116 -0.0404 -1.7526
 4339SOL     OW24478   2.005   2.839   2.847 -0.0546 -0.6841  0.4392
 4339SOL    HW124479   1.940   2.790   2.796  0.0995 -0.5136  0.0756
 4339SOL    HW224480   1.950   2.887   2.908 -0.5067 -0.1387 -0.3896
 4340SOL     OW24481   0.510   2.519  10.291 -0.0542  0.6128  0.1909
 4340SOL    HW124482   0.439   2.461  10.263  0.4083  0.8425 -1.4684
 4340SOL    HW224483   0.518   2.480  10.377  3.1623  0.7526 -0.0416
 4341SOL     OW24484   2.401   2.048   8.965 -0.7427  0.6180  0.3657
 4341SOL    HW124485   2.480   1.995   8.980  0.1583  1.2217 -2.1829
 4341SOL    HW224486   2.357   1.995   8.898  0.3006  0.3310 -0.0980
 4342SOL     OW24487   1.080   1.071   9.726 -0.5557  0.4087  0.2837
 4342SOL    HW124488   1.108   1.122   9.650 -0.7372  0.4955  0.2746
 4342SOL    HW224489   0.994   1.045   9.692 -0.6058 -1.1903  1.6432
 4343SOL     OW24490   4.374   0.429  12.954 -0.7900 -0.2251  0.2406
 4343SOL    HW124491   4.435   0.371  13.000 -1.4398 -1.6067 -0.6197
 4343SOL    HW224492   4.372   0.504  13.013  0.1335 -0.4950  0.6117
 4344SOL     OW24493   1.177   3.705   6.807 -0.4770 -0.0448 -0.3066
 4344SOL    HW124494   1.205   3.614   6.821 -0.6753 -0.3100 -1.5959
 4344SOL    HW224495   1.190   3.707   6.712  0.6532  0.1557 -0.1414
 4345SOL     OW24496   3.913   4.546   1.633  0.6796 -1.2694 -0.1086
 4345SOL    HW124497   3.824   4.512   1.643  1.6876 -4.3989 -2.0534
 4345SOL    HW224498   3.905   4.588   1.547  2.5552 -0.7935 -0.0533
 4346SOL     OW24499   0.539   1.082   2.089 -0.8236  0.2737  0.3930
 4346SOL    HW124500   0.537   1.173   2.118 -1.5972  0.6168 -0.7698
 4346SOL    HW224501   0.627   1.084   2.051 -0.3623  0.2729  1.4718
 4347SOL     OW24502   3.724   2.997   6.314 -0.9248  0.4575 -0.1325
 4347SOL    HW124503   3.677   3.009   6.396 -0.5372 -0.2058  0.1857
 4347SOL    HW224504   3.813   2.979   6.343 -1.0670  0.0311  0.0369
 4348SOL     OW24505   2.903   2.838   3.247 -0.2526 -0.0731  0.1321
 4348SOL    HW124506   2.922   2.744   3.242  1.2403  0.1680  1.4067
 4348SOL    HW224507   2.981   2.868   3.293 -0.4940  0.1084  0.4198
 4349SOL     OW24508   0.424   1.529   7.120 -0.1103  0.0128  0.6137
 4349SOL    HW124509   0.510   1.547   7.083 -1.0736  0.9426 -1.1921
 4349SOL    HW224510   0.406   1.437   7.103  0.8445 -0.2986  1.3226
 4350SOL     OW24511   0.698   2.434   6.884  0.8029 -0.1512  0.3655
 4350SOL    HW124512   0.643   2.368   6.926 -1.9359  1.5593 -0.5082
 4350SOL    HW224513   0.785   2.398   6.868  1.4218  0.4819  2.2903
 4351SOL     OW24514   3.146   4.391  17.059  0.1968  0.1427 -0.4269
 4351SOL    HW124515   3.154   4.443  16.979  0.0456 -0.3912 -0.7921
 4351SOL    HW224516   3.216   4.435  17.108 -0.9015  0.4853  0.8417
 4352SOL     OW24517   3.538   1.020   0.840  0.4307  0.0429  0.0436
 4352SOL    HW124518   3.610   0.957   0.836 -0.2365 -0.6999 -0.3168
 4352SOL    HW224519   3.575   1.085   0.900 -1.3412  2.1403 -1.1363
 4353SOL     OW24520   2.780   1.871   6.109 -0.1288 -0.3380 -0.9056
 4353SOL    HW124521   2.828   1.846   6.188 -0.2861 -1.5327 -1.1896
 4353SOL    HW224522   2.846   1.846   6.044  1.5446 -0.3382  0.8026
 4354SOL     OW24523   0.684   2.988   3.726  0.0315 -0.0734 -0.0889
 4354SOL    HW124524   0.636   2.908   3.744 -1.3975  1.0224  0.9686
 4354SOL    HW224525   0.654   3.011   3.638  2.4891 -2.5475 -1.5691
 4355SOL     OW24526   3.895   3.244  10.172  0.0272  0.3149 -0.1700
 4355SOL    HW124527   3.942   3.178  10.224 -0.3832  0.5620  0.5245
 4355SOL    HW224528   3.815   3.256  10.224 -0.5527  0.5015 -1.1119
 4356SOL     OW24529   2.254   2.125   3.511 -0.3749  0.1356  0.2247
 4356SOL    HW124530   2.273   2.216   3.491  0.6263 -0.3295 -0.9483
 4356SOL    HW224531   2.254   2.130   3.607  0.8631  1.2926  0.1643
 4357SOL     OW24532   0.448   0.381   1.948  0.6333  0.3742  0.2781
 4357SOL    HW124533   0.527   0.390   2.002  0.6388 -0.7790  0.4782
 4357SOL    HW224534   0.399   0.307   1.986  1.3429 -0.1513  0.1737
 4358SOL     OW24535   1.408   3.458   7.483  0.0932 -0.0469  0.5585
 4358SOL    HW124536   1.409   3.532   7.421  0.5103 -0.8696 -0.4263
 4358SOL    HW224537   1.352   3.499   7.549  0.7144 -0.1702  1.1590
 4359SOL     OW24538   4.014   3.287  15.266 -0.0146  0.4914 -0.2283
 4359SOL    HW124539   4.031   3.362  15.323  1.1015 -0.1326  0.2602
 4359SOL    HW224540   4.066   3.223  15.315  0.4508  0.4291 -0.7921
 4360SOL     OW24541   0.682   4.624  10.465  0.2051  0.4945  0.3139
 4360SOL    HW124542   0.636   4.618  10.549  1.7548  1.4944  1.2363
 4360SOL    HW224543   0.657   4.712  10.436  0.0055 -0.0444 -1.1673
 4361SOL     OW24544   3.606   1.440   7.902  0.7493  0.0280 -0.1578
 4361SOL    HW124545   3.618   1.367   7.962  0.6174 -1.4512 -1.9272
 4361SOL    HW224546   3.697   1.456   7.875  1.4325 -1.8301  1.0561
 4362SOL     OW24547   1.857   0.778  14.565  0.3004  0.0445 -0.2731
 4362SOL    HW124548   1.843   0.762  14.659 -0.8385  2.1051 -0.0847
 4362SOL    HW224549   1.768   0.809  14.547  1.2886  1.3018 -2.8781
 4363SOL     OW24550   0.477   0.875   7.885  0.1329  0.3824  0.0928
 4363SOL    HW124551   0.410   0.919   7.833  0.8119 -0.0409 -1.1397
 4363SOL    HW224552   0.534   0.951   7.898 -0.9821  1.2461 -0.1098
 4364SOL     OW24553   3.111   3.724   4.494  0.5509  0.0924  0.6845
 4364SOL    HW124554   3.080   3.764   4.413  2.2245  0.4628  0.2258
 4364SOL    HW224555   3.087   3.634   4.474 -1.0318  1.1090 -1.9618
 4365SOL     OW24556   4.007   3.694  13.943  0.3031  0.4551  0.3341
 4365SOL    HW124557   3.943   3.733  13.885 -0.6873 -1.0819  0.3980
 4365SOL    HW224558   3.994   3.600  13.932  0.7367  0.6211 -1.5494
 4366SOL     OW24559   0.858   1.735   6.806 -0.2591  0.3752 -0.1111
 4366SOL    HW124560   0.772   1.699   6.783  0.2812  1.0313 -3.1139
 4366SOL    HW224561   0.917   1.686   6.748 -0.1907  1.0857 -0.6414
 4367SOL     OW24562   0.262   1.391   4.001 -0.3199 -0.3438  0.6963
 4367SOL    HW124563   0.195   1.330   3.970 -0.1891  1.3806 -3.0213
 4367SOL    HW224564   0.339   1.347   3.966  1.6694  2.5904  1.3807
 4368SOL     OW24565   1.484   2.302  14.355  0.7672  0.1842 -0.3706
 4368SOL    HW124566   1.566   2.291  14.402  1.2293  0.0282 -1.2085
 4368SOL    HW224567   1.443   2.217  14.338  2.0993 -0.1609 -1.8037
 4369SOL     OW24568   3.905   2.751   2.830 -0.5886 -0.0241 -0.1051
 4369SOL    HW124569   3.877   2.660   2.838 -1.1543  0.1931  0.3773
 4369SOL    HW224570   3.913   2.746   2.734  0.7126 -1.0050  0.0452
 4370SOL     OW24571   3.463   1.875   9.044 -0.0940  0.3251  0.1975
 4370SOL    HW124572   3.416   1.956   9.065 -0.3849 -0.8301  4.0196
 4370SOL    HW224573   3.549   1.910   9.067 -1.1756  1.6511  2.2156
 4371SOL     OW24574   1.517   2.673   2.445 -0.4320 -0.0367 -0.4513
 4371SOL    HW124575   1.598   2.719   2.426  0.1115 -0.6693  0.3158
 4371SOL    HW224576   1.542   2.580   2.443 -1.0235 -0.1417 -2.9515
 4372SOL     OW24577   3.663   3.750   3.445  0.0933 -0.4799 -0.6732
 4372SOL    HW124578   3.598   3.735   3.376  0.1331 -0.0025 -0.8124
 4372SOL    HW224579   3.741   3.729   3.394  0.8539  0.0660  0.2524
 4373SOL     OW24580   2.280   0.899   8.448  0.6740 -0.1768 -0.6861
 4373SOL    HW124581   2.337   0.856   8.511 -0.6228  1.6063  1.7072
 4373SOL    HW224582   2.345   0.921   8.381 -0.2857 -0.5265 -1.7341
 4374SOL     OW24583   1.933   0.572   9.790 -0.0914 -0.1986  0.3423
 4374SOL    HW124584   1.958   0.579   9.883  4.5406  4.0468 -1.2293
 4374SOL    HW224585   1.919   0.478   9.779 -0.2582 -0.0837 -0.4057
 4375SOL     OW24586   3.272   0.714   5.098 -0.4458  0.1796 -0.1316
 4375SOL    HW124587   3.187   0.755   5.086  0.5364  2.6248  1.2113
 4375SOL    HW224588   3.256   0.640   5.157 -1.3598  0.3009 -0.2319
 4376SOL     OW24589   1.105   0.036   2.691 -0.3747 -0.0474  0.8774
 4376SOL    HW124590   1.162   0.025   2.615 -0.0215  1.3068  0.9497
 4376SOL    HW224591   1.174   0.015   2.753 -0.2370 -1.6620  0.1626
 4377SOL     OW24592   2.450   4.000   2.514 -0.4951  0.1480  0.1948
 4377SOL    HW124593   2.425   3.909   2.528 -1.2546 -0.0954 -2.7129
 4377SOL    HW224594   2.536   4.004   2.556  0.2550  0.0708 -1.3521
 4378SOL     OW24595   4.489   0.731   8.750 -0.6387 -0.3685 -0.1136
 4378SOL    HW124596   4.492   0.635   8.750  1.0667 -0.3178  0.7179
 4378SOL    HW224597   4.405   0.754   8.791 -0.8724  1.4005 -1.5985
 4379SOL     OW24598   0.412   3.317   6.467 -0.4721  0.2289 -0.4639
 4379SOL    HW124599   0.425   3.297   6.560 -0.9905  2.2595  0.0575
 4379SOL    HW224600   0.368   3.401   6.476  0.6014  0.6532  0.9673
 4380SOL     OW24601   1.391   3.031  10.523 -0.0787  0.1763 -0.3650
 4380SOL    HW124602   1.421   3.043  10.613  1.4260  1.9534 -1.1196
 4380SOL    HW224603   1.296   3.041  10.535 -0.2679 -0.4309 -1.3775
 4381SOL     OW24604   1.915   3.825   0.247 -0.3291 -0.5452  0.5655
 4381SOL    HW124605   1.915   3.920   0.234 -0.7424 -0.8906 -2.0553
 4381SOL    HW224606   2.001   3.796   0.217  0.8773  3.3923  0.2708
 4382SOL     OW24607   3.777   4.085  15.117  0.3028 -0.6656  0.6957
 4382SOL    HW124608   3.852   4.098  15.174  2.8666  0.1345 -2.8648
 4382SOL    HW224609   3.733   4.169  15.115 -0.0446 -0.8338  1.4886
 4383SOL     OW24610   2.240   0.556   3.623  0.2784  0.5964 -0.5155
 4383SOL    HW124611   2.253   0.507   3.541  0.2409 -0.3522  0.0509
 4383SOL    HW224612   2.166   0.502   3.651  0.7048 -0.0027 -0.5445
 4384SOL     OW24613   3.157   4.237   9.281  0.1555  0.2668  0.3681
 4384SOL    HW124614   3.167   4.332   9.288  0.5960  0.2267  0.2875
 4384SOL    HW224615   3.203   4.209   9.360 -0.5670 -2.9516 -0.3558
 4385SOL     OW24616   3.116   2.841  15.280 -0.4798 -0.5968  0.0048
 4385SOL    HW124617   3.139   2.827  15.372 -3.8608 -0.0557  0.9180
 4385SOL    HW224618   3.022   2.837  15.292 -0.5277 -1.9625 -0.8276
 4386SOL     OW24619   0.718   2.816   8.235  0.0142  0.2213  0.0424
 4386SOL    HW124620   0.668   2.893   8.262  3.1683  1.8371  1.3215
 4386SOL    HW224621   0.714   2.835   8.142 -2.3641 -1.8285 -0.2790
 4387SOL     OW24622   3.556   1.763   7.577  0.2764 -0.3020 -0.1617
 4387SOL    HW124623   3.461   1.769   7.574  0.2042 -0.9719  1.1747
 4387SOL    HW224624   3.576   1.767   7.670 -0.5228 -0.8873  0.0358
 4388SOL     OW24625   3.396   0.086  12.273 -0.3275  0.0167  0.2640
 4388SOL    HW124626   3.412   0.033  12.195  0.1843 -1.1466  1.1510
 4388SOL    HW224627   3.478   0.079  12.321 -0.1500  1.9231  0.2420
 4389SOL     OW24628   0.290   1.976   7.301  0.5248 -0.2752  0.0956
 4389SOL    HW124629   0.340   2.007   7.226  0.7084 -1.6796 -0.3549
 4389SOL    HW224630   0.281   1.886   7.269  0.8106 -0.3392  0.1889
 4390SOL     OW24631   4.629   0.528   2.771 -0.0361 -0.0359 -0.5301
 4390SOL    HW124632   4.653   0.547   2.861  0.1378  2.7898 -1.1659
 4390SOL    HW224633   4.616   0.434   2.779  0.9305  0.0252  1.5737
 4391SOL     OW24634   4.281   2.736   8.853  0.2813  0.2533 -0.2180
 4391SOL    HW124635   4.301   2.695   8.938 -0.4874 -2.2650 -1.2342
 4391SOL    HW224636   4.204   2.688   8.824  1.2145 -1.9433  0.8569
 4392SOL     OW24637   0.575   2.018   3.128  0.1157  0.4699  0.5822
 4392SOL    HW124638   0.622   1.940   3.099  0.7765  1.3032 -0.5984
 4392SOL    HW224639   0.518   2.032   3.052  0.4075  1.3392  0.5274
 4393SOL     OW24640   4.634   1.733   7.033  0.5136  0.0670 -0.1763
 4393SOL    HW124641   4.643   1.647   6.992  0.1133  0.8063 -1.8205
 4393SOL    HW224642   4.714   1.736   7.085 -0.3624  1.6522  1.0892
 4394SOL     OW24643   0.094   4.532   1.381  0.0958 -0.3797  0.2464
 4394SOL    HW124644   0.059   4.617   1.408 -0.9969  0.2890 -3.2862
 4394SOL    HW224645   0.031   4.504   1.314 -0.0327  2.8051 -0.9653
 4395SOL     OW24646   1.621   1.504   4.885 -0.0419  0.4772  0.4380
 4395SOL    HW124647   1.587   1.496   4.796  1.6058 -1.2779 -0.0094
 4395SOL    HW224648   1.618   1.599   4.898  0.5677  0.7266 -1.2374
 4396SOL     OW24649   0.773   3.340   1.637  0.4616 -0.1050 -0.1080
 4396SOL    HW124650   0.765   3.245   1.645 -2.9639  0.2884  1.5807
 4396SOL    HW224651   0.761   3.342   1.542  2.2862  2.2054 -0.2751
 4397SOL     OW24652   0.155   1.818   1.601  0.0099  0.2155 -0.4377
 4397SOL    HW124653   0.144   1.752   1.669  0.2128  1.7941  1.1089
 4397SOL    HW224654   0.192   1.752   1.542  1.4557  2.3530 -1.9358
 4398SOL     OW24655   1.021   3.553   2.545 -0.4452 -0.3388 -0.4123
 4398SOL    HW124656   0.957   3.483   2.534 -0.8480 -0.4428  2.4657
 4398SOL    HW224657   1.072   3.546   2.465 -0.1791 -2.1271 -0.0876
 4399SOL     OW24658   1.265   1.661   1.504 -0.2867  0.4999  0.2129
 4399SOL    HW124659   1.283   1.575   1.467  1.8022  0.0210  2.3610
 4399SOL    HW224660   1.170   1.655   1.513 -0.6603  0.3010 -3.9765
 4400SOL     OW24661   3.459   2.324  15.731 -0.4087 -0.7520  0.5642
 4400SOL    HW124662   3.509   2.245  15.709  1.1035  0.5494 -0.7193
 4400SOL    HW224663   3.504   2.387  15.674 -0.6547 -0.5739  0.5661
 4401SOL     OW24664   4.479   1.422   2.301 -0.7743 -0.2689 -0.4729
 4401SOL    HW124665   4.404   1.438   2.358 -0.7651 -0.6098 -0.3669
 4401SOL    HW224666   4.443   1.358   2.240 -0.6549 -0.1495 -0.6681
 4402SOL     OW24667   0.108   3.339   7.796 -0.5265 -0.1955 -0.0611
 4402SOL    HW124668   0.186   3.292   7.767 -2.0806 -3.1496  0.5968
 4402SOL    HW224669   0.050   3.263   7.794  0.3072 -0.8193 -0.6172
 4403SOL     OW24670   3.088   0.810   3.823 -0.7731 -0.2946 -0.1249
 4403SOL    HW124671   3.152   0.828   3.891 -0.0980  1.3551 -1.1824
 4403SOL    HW224672   3.100   0.715   3.816 -0.6854 -0.1665 -1.8254
 4404SOL     OW24673   2.465   0.287   7.486  0.5531 -0.0971 -0.2133
 4404SOL    HW124674   2.419   0.210   7.520 -2.8595  2.2638  0.3998
 4404SOL    HW224675   2.502   0.319   7.568  0.0581  1.0878 -0.4606
 4405SOL     OW24676   2.415   1.137   4.994  0.2471  0.7382  0.1905
 4405SOL    HW124677   2.404   1.161   5.086 -2.6945  1.4821 -0.3423
 4405SOL    HW224678   2.343   1.181   4.949  1.2067  1.4777 -0.6020
 4406SOL     OW24679   4.183   0.097   4.166  0.4572 -0.5421 -0.2283
 4406SOL    HW124680   4.236   0.176   4.162  1.3167 -1.0943  0.1163
 4406SOL    HW224681   4.258   0.038   4.170  0.1186 -0.8685  1.3869
 4407SOL     OW24682   2.309   4.463   1.102  0.4245  0.5234  0.2643
 4407SOL    HW124683   2.314   4.455   1.007 -0.4465  0.8915  0.1892
 4407SOL    HW224684   2.403   4.458   1.120  0.2290 -1.3292  0.7263
 4408SOL     OW24685   2.358   1.107   6.636 -0.1581 -0.5222  0.4581
 4408SOL    HW124686   2.362   1.175   6.569 -0.2408 -0.0614  0.9144
 4408SOL    HW224687   2.388   1.154   6.714  0.7962  2.2906 -1.5984
 4409SOL     OW24688   0.321   3.141  16.268 -0.9196  0.1412  0.4316
 4409SOL    HW124689   0.252   3.150  16.203 -1.2214 -2.0985  0.4494
 4409SOL    HW224690   0.332   3.231  16.299 -0.8425  1.2337 -2.7069
 4410SOL     OW24691   1.994   3.466   7.644  0.0740  0.1480  0.1557
 4410SOL    HW124692   1.940   3.470   7.724  1.4685 -0.4899  1.1231
 4410SOL    HW224693   2.040   3.547   7.627 -2.6293  1.4526 -0.9989
 4411SOL     OW24694   1.594   0.928   3.826  0.2560  0.5272 -0.3116
 4411SOL    HW124695   1.509   0.953   3.791  0.0576 -0.3273 -0.4356
 4411SOL    HW224696   1.568   0.844   3.864 -0.2459 -0.0428 -1.9099
 4412SOL     OW24697   4.362   0.632   2.417  0.3505 -0.2528  0.0789
 4412SOL    HW124698   4.372   0.539   2.395  0.9573 -0.5075  1.4389
 4412SOL    HW224699   4.455   0.656   2.420  0.1535  0.5988 -0.5484
 4413SOL     OW24700   1.754   4.537   4.606  0.6226  0.4040  0.5656
 4413SOL    HW124701   1.785   4.458   4.563  0.7513  1.8302 -1.9809
 4413SOL    HW224702   1.763   4.509   4.697  1.3921  2.6438  1.1815
 4414SOL     OW24703   0.371   2.114  15.204 -0.0943  0.0294  0.1954
 4414SOL    HW124704   0.312   2.118  15.129  2.1285 -0.1767 -1.5447
 4414SOL    HW224705   0.407   2.032  15.171  0.2699  0.1152  0.3749
 4415SOL     OW24706   0.660   4.258   4.398  0.0233 -0.1453 -0.3008
 4415SOL    HW124707   0.577   4.306   4.398  1.4746  2.3336  2.1321
 4415SOL    HW224708   0.668   4.208   4.479 -0.3331 -1.3746 -1.0123
 4416SOL     OW24709   4.250   1.295   2.183 -0.0212  0.4198  0.7566
 4416SOL    HW124710   4.229   1.221   2.126 -0.7511 -0.2836  1.9337
 4416SOL    HW224711   4.202   1.364   2.138  0.0977 -0.3210 -0.5208
 4417SOL     OW24712   0.198   3.170   5.646  1.1340  0.2276  1.0156
 4417SOL    HW124713   0.272   3.194   5.702 -0.6450 -1.1614  3.9199
 4417SOL    HW224714   0.134   3.242   5.649  2.9701  2.0226 -2.9132
 4418SOL     OW24715   4.340   3.531   9.622  0.0014 -0.3427 -0.4213
 4418SOL    HW124716   4.292   3.457   9.659 -1.6498  1.0093  0.1398
 4418SOL    HW224717   4.269   3.587   9.592  1.5130  2.1343  0.6145
 4419SOL     OW24718   2.667   2.413  17.671  0.1688 -0.2448 -0.0689
 4419SOL    HW124719   2.749   2.455   0.010 -1.3645  1.8090  1.4222
 4419SOL    HW224720   2.682   2.322   0.008 -0.4587 -0.2022  0.4688
 4420SOL     OW24721   2.801   2.498   8.624 -0.3237 -0.7275  0.0854
 4420SOL    HW124722   2.774   2.538   8.541  0.1544 -0.1400  0.2144
 4420SOL    HW224723   2.723   2.450   8.651 -0.0834 -0.6708  0.8802
 4421SOL     OW24724   0.387   0.197   5.414  0.3463  0.6551 -0.7529
 4421SOL    HW124725   0.344   0.111   5.418 -0.1403  0.9988  1.3561
 4421SOL    HW224726   0.333   0.248   5.474  1.4760 -1.5091  2.1235
 4422SOL     OW24727   3.261   0.889   4.514 -0.1058 -0.3666  0.2334
 4422SOL    HW124728   3.218   0.810   4.480  1.4678 -1.9199  1.8306
 4422SOL    HW224729   3.239   0.952   4.446 -1.5960 -1.5230 -0.3599
 4423SOL     OW24730   4.278   2.114   7.405  0.0991 -1.2807 -0.6374
 4423SOL    HW124731   4.281   2.175   7.478 -1.7169  1.2984 -2.7478
 4423SOL    HW224732   4.327   2.159   7.336 -1.3964 -2.1594 -2.2688
 4424SOL     OW24733   3.375   4.707  17.220 -0.2705  0.5739 -0.7751
 4424SOL    HW124734   3.420   4.681  17.140 -0.4595  0.8548 -0.9716
 4424SOL    HW224735   3.309   0.047  17.189 -0.8643 -0.7339 -2.0544
 4425SOL     OW24736   0.482   1.447   6.008 -0.1999  0.1198  0.5702
 4425SOL    HW124737   0.578   1.451   6.006 -0.2477  2.3221  4.4614
 4425SOL    HW224738   0.463   1.440   6.101 -1.9011  0.3960  0.2447
 4426SOL     OW24739   0.770   3.252  11.919 -0.3105  0.3634  0.6122
 4426SOL    HW124740   0.758   3.339  11.881 -1.0505 -0.6431 -1.4156
 4426SOL    HW224741   0.751   3.266  12.012 -0.7083  2.0114  0.2790
 4427SOL     OW24742   1.375   3.805   7.027 -0.6514 -0.4661 -0.3844
 4427SOL    HW124743   1.428   3.880   7.001  0.3044 -0.2590  2.2538
 4427SOL    HW224744   1.360   3.768   6.940  0.9882 -0.1612 -0.7919
 4428SOL     OW24745   0.981   4.506   6.476 -0.3327 -0.3191  0.2999
 4428SOL    HW124746   0.947   4.428   6.519 -0.4188  0.4339  1.5978
 4428SOL    HW224747   0.907   4.566   6.473  0.0798  0.1467 -1.0612
 4429SOL     OW24748   2.641   2.093   0.632 -0.3135  0.7665  0.5282
 4429SOL    HW124749   2.593   2.013   0.652  1.9373 -0.0407  2.7496
 4429SOL    HW224750   2.728   2.072   0.668 -0.1847  2.3316  1.1289
 4430SOL     OW24751   2.914   2.336  14.202  0.1141 -0.0084  0.2728
 4430SOL    HW124752   2.932   2.367  14.291  0.1182  1.6075 -0.2956
 4430SOL    HW224753   2.902   2.245  14.229 -0.5012  0.2756  0.9702
 4431SOL     OW24754   1.173   4.120   5.166  0.3665  0.3823 -0.2436
 4431SOL    HW124755   1.235   4.120   5.093 -1.1253  0.9703 -1.5101
 4431SOL    HW224756   1.232   4.141   5.238 -0.3851  2.1850 -0.1342
 4432SOL     OW24757   3.241   1.311  15.058  0.4693  0.0724 -0.3802
 4432SOL    HW124758   3.194   1.260  14.992  2.5298 -1.1441 -0.9292
 4432SOL    HW224759   3.326   1.328  15.017  0.3204 -0.0399 -0.7310
 4433SOL     OW24760   4.563   0.115   4.919 -0.3223  0.3603 -0.2134
 4433SOL    HW124761   4.628   0.095   4.852 -1.5024 -2.2231 -0.6007
 4433SOL    HW224762   4.623   0.112   4.994 -0.1884 -0.6191 -0.3560
 4434SOL     OW24763   0.913   0.214   5.293 -0.1245 -0.4236  0.2288
 4434SOL    HW124764   0.885   0.295   5.251 -0.8898 -0.5005  0.5870
 4434SOL    HW224765   0.992   0.187   5.246  1.1823  2.8807  0.5201
 4435SOL     OW24766   1.060   1.028   5.326 -0.4831  0.2973  0.2476
 4435SOL    HW124767   0.988   0.991   5.378 -0.3942  1.1334  0.9580
 4435SOL    HW224768   1.100   0.950   5.287 -0.8244 -0.7707  2.0555
 4436SOL     OW24769   0.978   0.896   3.921 -0.1914 -0.0076  0.2146
 4436SOL    HW124770   1.045   0.854   3.867  0.0570 -1.0971  1.3726
 4436SOL    HW224771   0.995   0.843   3.999 -1.1581 -1.5185 -0.5981
 4437SOL     OW24772   1.247   0.831   6.422  0.5879  0.3847  0.2149
 4437SOL    HW124773   1.333   0.788   6.425  1.9981  3.4089  2.6919
 4437SOL    HW224774   1.262   0.913   6.375  0.7291  0.1151 -0.2115
 4438SOL     OW24775   3.794   0.139   9.016  0.5729  0.8677 -0.3583
 4438SOL    HW124776   3.702   0.113   9.016  1.0945 -0.9557  1.2092
 4438SOL    HW224777   3.837   0.056   9.035 -1.1061  0.6433  2.5139
 4439SOL     OW24778   3.476   2.697   5.593  0.7530  0.0659  0.0618
 4439SOL    HW124779   3.415   2.761   5.557  0.0157 -0.9019 -0.4031
 4439SOL    HW224780   3.419   2.621   5.580  0.6311  0.2530 -0.5007
 4440SOL     OW24781   0.897   2.056   8.045  0.4565 -0.1695 -0.2698
 4440SOL    HW124782   0.967   2.121   8.050 -0.0091  0.2896  0.3206
 4440SOL    HW224783   0.897   2.036   8.139  0.8870  1.1756  0.0170
 4441SOL     OW24784   3.717   3.922   3.653 -0.1989 -0.5195 -0.7164
 4441SOL    HW124785   3.675   3.871   3.583  0.3451 -1.4918 -0.3368
 4441SOL    HW224786   3.690   4.005   3.615 -0.0475  0.3200  1.0074
 4442SOL     OW24787   1.257   1.123  15.869 -0.2750  0.0502 -0.2918
 4442SOL    HW124788   1.253   1.031  15.895  1.0041 -0.7227 -2.8219
 4442SOL    HW224789   1.347   1.127  15.836  0.2985  0.2989  1.3440
 4443SOL     OW24790   3.038   1.491   7.526  0.4689  0.2590  0.5877
 4443SOL    HW124791   3.064   1.408   7.486 -1.0581 -0.3155  0.7917
 4443SOL    HW224792   2.969   1.462   7.585  0.9135 -0.9813  0.4988
 4444SOL     OW24793   3.793   0.965   6.651 -0.3516  0.1951 -0.4765
 4444SOL    HW124794   3.886   0.977   6.630  0.1747 -1.5074  0.8324
 4444SOL    HW224795   3.769   1.052   6.681 -1.5010 -0.5487  0.7734
 4445SOL     OW24796   0.244   0.390  11.641 -0.2108  0.7226  0.0121
 4445SOL    HW124797   0.310   0.436  11.692  0.7924 -0.8239  0.1081
 4445SOL    HW224798   0.228   0.457  11.574 -0.2563 -0.6578 -1.3542
 4446SOL     OW24799   1.746   4.448   1.700  0.4069 -0.2389  0.2258
 4446SOL    HW124800   1.727   4.368   1.651 -0.2578  0.3327 -0.4673
 4446SOL    HW224801   1.833   4.479   1.673  0.9564 -0.7108  1.5016
 4447SOL     OW24802   1.000   1.609   3.945  0.0596  0.2364  0.0074
 4447SOL    HW124803   1.034   1.523   3.920  0.3353 -0.3092  2.2275
 4447SOL    HW224804   0.907   1.594   3.931  0.3063 -0.9974 -0.2762
 4448SOL     OW24805   3.549   2.779  12.310 -0.3396 -0.2465 -0.8647
 4448SOL    HW124806   3.640   2.804  12.326 -0.7427  0.9202 -0.4372
 4448SOL    HW224807   3.564   2.749  12.220 -0.9552 -0.1199 -1.0063
 4449SOL     OW24808   4.208   1.912   3.224 -0.5369  0.9428 -0.5655
 4449SOL    HW124809   4.124   1.901   3.180 -0.6372  1.8626 -0.5907
 4449SOL    HW224810   4.261   1.968   3.167  0.2188  0.4605 -0.3386
 4450SOL     OW24811   4.647   2.914  10.819 -0.1048 -0.3867  0.3150
 4450SOL    HW124812   4.679   2.969  10.890  1.5661  0.4018 -1.0516
 4450SOL    HW224813   4.610   2.984  10.766 -1.0038  0.2190  1.7498
 4451SOL     OW24814   4.125   1.185   6.258 -0.2927 -0.0770  0.5490
 4451SOL    HW124815   4.102   1.112   6.200 -0.8940  0.4191  0.1576
 4451SOL    HW224816   4.059   1.252   6.238  0.0729  0.5523  1.4691
 4452SOL     OW24817   1.793   1.989  16.712 -0.2239 -0.3585 -0.8936
 4452SOL    HW124818   1.703   2.018  16.696 -0.1763  1.0107  1.3287
 4452SOL    HW224819   1.812   1.936  16.635 -1.2362  1.8428 -2.6495
 4453SOL     OW24820   3.827   4.582   9.394 -0.5849  0.0828 -0.4651
 4453SOL    HW124821   3.776   4.654   9.432  1.2251  1.5836 -0.8792
 4453SOL    HW224822   3.754   4.530   9.361 -1.4009 -1.0896  3.1340
 4454SOL     OW24823   3.260   2.581   1.848  0.3466  0.1546 -0.5524
 4454SOL    HW124824   3.222   2.664   1.876 -1.3917 -1.3593  1.5186
 4454SOL    HW224825   3.235   2.579   1.756 -2.4442 -1.2055  0.2408
 4455SOL     OW24826   2.800   3.851   6.888 -0.0030  0.2935 -0.0129
 4455SOL    HW124827   2.740   3.828   6.817  3.0795 -0.8783 -2.2690
 4455SOL    HW224828   2.880   3.842   6.836 -0.0022 -0.6503  0.1460
 4456SOL     OW24829   2.638   1.472  11.472 -0.6731  0.1402 -0.1487
 4456SOL    HW124830   2.585   1.412  11.419  0.2833  1.0496 -2.1322
 4456SOL    HW224831   2.725   1.439  11.449 -1.1609 -0.3680 -1.2541
 4457SOL     OW24832   2.760   1.032   0.164 -0.3513  0.1015 -0.3743
 4457SOL    HW124833   2.683   0.992   0.125 -0.1377 -1.1783  0.5023
 4457SOL    HW224834   2.803   1.044   0.079  1.9972 -0.0862  0.7625
 4458SOL     OW24835   1.821   0.520   5.372 -0.4698  0.1949 -0.1923
 4458SOL    HW124836   1.731   0.527   5.405  0.5710 -0.2607  2.6830
 4458SOL    HW224837   1.820   0.560   5.285  1.6718 -0.6341 -0.5906
 4459SOL     OW24838   2.206   0.095  10.838 -0.1177  0.6565 -0.4822
 4459SOL    HW124839   2.175   0.149  10.765  0.5289  0.5754 -0.8213
 4459SOL    HW224840   2.170   0.008  10.819  0.9569  0.2311 -0.5835
 4460SOL     OW24841   0.585   0.843   5.814  0.0515  0.6724  0.1121
 4460SOL    HW124842   0.639   0.850   5.893 -1.7430 -0.7536  1.4493
 4460SOL    HW224843   0.637   0.783   5.761 -1.0954  0.0616 -0.3244
 4461SOL     OW24844   0.514   2.089   3.917 -0.1025  0.0727  0.1337
 4461SOL    HW124845   0.577   2.138   3.971  0.7808  0.0705 -0.8932
 4461SOL    HW224846   0.527   1.996   3.935  0.2110  0.0201 -0.3702
 4462SOL     OW24847   3.323   2.522   4.751 -1.0120 -0.0139  0.1891
 4462SOL    HW124848   3.404   2.483   4.719 -0.3179  1.5389  0.0627
 4462SOL    HW224849   3.281   2.562   4.675 -0.5403  2.6093  1.3135
 4463SOL     OW24850   2.477   2.122   8.636 -0.0205 -0.4487 -0.1588
 4463SOL    HW124851   2.405   2.181   8.613 -2.5268 -3.6125 -0.3888
 4463SOL    HW224852   2.453   2.041   8.590 -0.2737 -0.8843  0.7483
 4464SOL     OW24853   0.094   1.816   4.843 -0.2337 -0.2510 -0.8544
 4464SOL    HW124854   0.028   1.886   4.835  0.0928  0.0338 -1.0619
 4464SOL    HW224855   0.169   1.862   4.806  1.5989 -1.9227  0.7807
 4465SOL     OW24856   4.178   0.346   6.302 -0.4816  0.1762  0.1496
 4465SOL    HW124857   4.123   0.417   6.335 -1.0432  0.6685 -1.8942
 4465SOL    HW224858   4.129   0.323   6.223 -3.2990 -0.9340  2.1987
 4466SOL     OW24859   4.623   4.113   3.403 -0.0123  0.0273 -0.2564
 4466SOL    HW124860   4.630   4.022   3.434  1.9305  0.4601  0.5784
 4466SOL    HW224861   4.713   4.137   3.383  0.7066 -3.5790 -1.4362
 4467SOL     OW24862   2.471   1.004  16.435  0.7848  0.3047 -0.6979
 4467SOL    HW124863   2.546   1.015  16.493 -0.4642  1.2225  0.7443
 4467SOL    HW224864   2.469   1.093  16.400  0.2103  1.0290  1.2033
 4468SOL     OW24865   3.734   1.587   6.623  0.3079  0.2991  0.2905
 4468SOL    HW124866   3.766   1.575   6.534 -0.1609  1.2638 -0.0040
 4468SOL    HW224867   3.813   1.606   6.673 -0.2463 -0.0474  1.3082
 4469SOL     OW24868   4.270   0.374  11.749  0.2845  0.0398  0.3647
 4469SOL    HW124869   4.261   0.377  11.653  1.7235 -0.9800  0.1865
 4469SOL    HW224870   4.284   0.282  11.771  0.3564 -0.5274 -2.0313
 4470SOL     OW24871   1.739   2.847   9.268  0.0464  0.6522 -0.3698
 4470SOL    HW124872   1.709   2.903   9.196  1.6738  1.1635 -0.6443
 4470SOL    HW224873   1.656   2.807   9.293  0.5618  1.2565  2.3903
 4471SOL     OW24874   1.957   3.539   1.550  0.3953 -0.0901 -0.0374
 4471SOL    HW124875   1.912   3.548   1.634  2.3201 -1.1565  1.1156
 4471SOL    HW224876   1.987   3.450   1.565  2.9202  0.9678  1.1661
 4472SOL     OW24877   0.559   0.766   6.832  0.1623  0.1438  0.3855
 4472SOL    HW124878   0.472   0.786   6.795  0.8523 -1.1772 -1.9335
 4472SOL    HW224879   0.603   0.850   6.847  2.0251 -0.3952 -2.0320
 4473SOL     OW24880   1.761   1.452  12.037  0.2128  0.0398  0.1403
 4473SOL    HW124881   1.779   1.453  12.131  0.2105  0.4146  0.1354
 4473SOL    HW224882   1.818   1.518  11.996 -0.4114 -0.4792 -1.5891
 4474SOL     OW24883   1.867   3.535   7.873  0.1622  0.0242  0.5989
 4474SOL    HW124884   1.921   3.585   7.934  0.5190 -1.5644  1.6070
 4474SOL    HW224885   1.777   3.523   7.903 -0.0887  2.4221  0.7642
 4475SOL     OW24886   3.609   2.698   1.444 -0.3531 -0.5901 -0.0829
 4475SOL    HW124887   3.544   2.706   1.514  0.4915 -0.8965  0.7252
 4475SOL    HW224888   3.665   2.768   1.475 -1.1281 -0.5708  1.2961
 4476SOL     OW24889   0.633   4.142   5.874  0.0621  0.2364 -0.4544
 4476SOL    HW124890   0.579   4.064   5.885 -0.5080  0.6251 -0.4483
 4476SOL    HW224891   0.589   4.203   5.935  1.5650  0.8869 -0.0291
 4477SOL     OW24892   1.552   4.424  13.883 -0.0885 -0.3501  0.3272
 4477SOL    HW124893   1.605   4.351  13.849 -0.5821 -0.8237  0.5663
 4477SOL    HW224894   1.528   4.468  13.801  2.3837  1.5179  0.6336
 4478SOL     OW24895   0.362   0.070  14.315  0.2829  0.1697  0.4334
 4478SOL    HW124896   0.423   0.133  14.276  2.0269 -1.0028  1.2953
 4478SOL    HW224897   0.283   0.124  14.309  0.1860 -0.1221 -0.9170
 4479SOL     OW24898   2.456   2.159   0.853 -0.1571  0.3721  0.2766
 4479SOL    HW124899   2.391   2.218   0.815  0.6174  1.6967  1.0169
 4479SOL    HW224900   2.526   2.166   0.789  1.0205 -0.8302  1.4388
 4480SOL     OW24901   2.911   0.826   1.200 -0.1519  0.3749 -0.0507
 4480SOL    HW124902   2.833   0.799   1.153 -0.3764  0.0330  0.5116
 4480SOL    HW224903   2.968   0.748   1.201 -0.0829  0.4440  2.8484
 4481SOL     OW24904   3.998   1.533  16.036 -0.0089  0.4792  0.1627
 4481SOL    HW124905   4.084   1.493  16.034  0.6587  1.9724 -0.8806
 4481SOL    HW224906   4.016   1.625  16.018  2.3989 -0.0589 -0.0987
 4482SOL     OW24907   2.311   3.401   7.814 -0.3155  0.1852 -0.4376
 4482SOL    HW124908   2.241   3.379   7.752 -0.0275  0.3332 -0.8162
 4482SOL    HW224909   2.278   3.484   7.847 -1.1589 -0.6102  0.7334
 4483SOL     OW24910   4.669   4.517  11.524 -0.1751 -0.1661  0.2078
 4483SOL    HW124911   0.022   4.563  11.485  0.5598 -2.0247 -0.5725
 4483SOL    HW224912   4.610   4.522  11.449  1.7201  2.2915 -1.1172
 4484SOL     OW24913   1.607   3.449   1.551 -0.1309  0.1946  0.1639
 4484SOL    HW124914   1.534   3.508   1.531  0.5573  1.3389  1.0058
 4484SOL    HW224915   1.658   3.507   1.608 -4.4568  2.0849  2.1733
 4485SOL     OW24916   2.350   0.172   0.257 -0.0134 -0.4901 -0.0489
 4485SOL    HW124917   2.330   0.166   0.164  0.6828 -1.5802 -0.1216
 4485SOL    HW224918   2.341   0.266   0.271  1.0451 -0.4648  0.4802
 4486SOL     OW24919   3.921   3.518  12.459 -0.1166  0.2502 -0.1867
 4486SOL    HW124920   3.891   3.604  12.488 -0.0909 -0.6273  2.4794
 4486SOL    HW224921   3.931   3.460  12.535  0.5266  0.3349 -0.2113
 4487SOL     OW24922   2.468   3.000   3.870  0.0209 -0.1552 -0.4767
 4487SOL    HW124923   2.540   3.029   3.814 -1.2436  0.1553 -1.9260
 4487SOL    HW224924   2.498   3.049   3.947  0.9044 -1.5286  0.0656
 4488SOL     OW24925   1.420   3.323  11.704 -0.1235  0.1266 -0.5565
 4488SOL    HW124926   1.467   3.367  11.634  1.4787  3.1005  2.3788
 4488SOL    HW224927   1.332   3.316  11.668  0.4848  0.0628 -1.9949
 4489SOL     OW24928   1.845   3.168   9.771 -0.2476  0.5587 -0.0600
 4489SOL    HW124929   1.903   3.096   9.797 -1.2450 -0.2160  0.0033
 4489SOL    HW224930   1.910   3.233   9.743  0.3768  0.2364  0.6391
 4490SOL     OW24931   3.130   4.320  15.188 -0.3281 -0.3583 -0.2818
 4490SOL    HW124932   3.125   4.241  15.135 -0.2642 -1.0002  0.6832
 4490SOL    HW224933   3.214   4.352  15.154  0.8867 -1.1940  1.9718
 4491SOL     OW24934   0.785   3.802   5.292 -0.4181 -0.1049  0.0907
 4491SOL    HW124935   0.715   3.737   5.291 -0.8269  0.3473 -1.7938
 4491SOL    HW224936   0.824   3.797   5.204  1.3829 -0.0190  0.8864
 4492SOL     OW24937   3.065   2.369   9.010 -0.3179 -0.4538  0.1840
 4492SOL    HW124938   3.122   2.410   8.945 -0.7576 -1.2346 -0.7072
 4492SOL    HW224939   2.989   2.427   9.013 -0.3046 -0.4079 -0.2890
 4493SOL     OW24940   0.714   3.452  13.919 -0.2059 -0.4679  0.5575
 4493SOL    HW124941   0.802   3.418  13.905 -0.1717 -0.3218  0.4186
 4493SOL    HW224942   0.663   3.446  13.838  1.3627 -0.9078 -0.3863
 4494SOL     OW24943   3.739   4.671   2.654 -0.3622  1.0476  0.2199
 4494SOL    HW124944   3.777   4.708   2.575  0.1974  1.3835  0.6485
 4494SOL    HW224945   3.710   4.584   2.625 -2.0292  1.8364 -0.4705
 4495SOL     OW24946   2.748   0.971  16.535  0.2345  0.4764 -0.7502
 4495SOL    HW124947   2.784   1.019  16.460  1.2747  1.5392  0.4297
 4495SOL    HW224948   2.790   0.888  16.514  1.4731  1.7522 -3.2874
 4496SOL     OW24949   3.221   0.739  10.926 -0.0915  0.9106  0.6435
 4496SOL    HW124950   3.157   0.810  10.930 -1.7459 -0.5841  1.1576
 4496SOL    HW224951   3.189   0.675  10.990  0.6106  0.2612  0.3379
 4497SOL     OW24952   2.582   2.822   2.764 -0.4291  0.0504 -0.4331
 4497SOL    HW124953   2.621   2.802   2.679  0.6775 -1.0573  0.3429
 4497SOL    HW224954   2.658   2.826   2.822  0.0230 -1.3809 -0.9226
 4498SOL     OW24955   0.119   0.766   4.210 -0.0152 -0.6738  0.3019
 4498SOL    HW124956   0.186   0.727   4.154 -0.0918  1.7836 -1.4737
 4498SOL    HW224957   0.118   0.854   4.174 -1.2502 -1.2570 -1.0971
 4499SOL     OW24958   1.869   1.538  16.295 -0.0598 -0.0781  0.4770
 4499SOL    HW124959   1.924   1.474  16.341  1.1918  0.9278  0.4069
 4499SOL    HW224960   1.907   1.547  16.208 -1.5385  0.1139 -0.1373
 4500SOL     OW24961   1.803   0.956   1.057  0.0208  0.1552  0.2417
 4500SOL    HW124962   1.815   0.922   1.146  2.0151 -1.6508 -0.7191
 4500SOL    HW224963   1.742   1.029   1.069 -0.9873 -0.4969 -0.8636
 4501SOL     OW24964   4.375   1.580  11.447 -0.3810 -0.0059 -0.1620
 4501SOL    HW124965   4.316   1.633  11.501  2.0447  3.5497 -1.0034
 4501SOL    HW224966   4.338   1.492  11.445  2.2775 -1.1144  0.3059
 4502SOL     OW24967   0.318   2.985   6.053 -0.3959 -0.4807  0.1208
 4502SOL    HW124968   0.334   2.973   6.146  1.8251 -0.7428 -0.3071
 4502SOL    HW224969   0.380   3.057   6.038 -1.9760  0.4605 -1.9384
 4503SOL     OW24970   2.852   2.916   3.554  0.3477 -0.1106  0.1405
 4503SOL    HW124971   2.838   2.995   3.501 -2.8725  1.6160  3.4629
 4503SOL    HW224972   2.946   2.908   3.543  0.4815  1.2720  0.2565
 4504SOL     OW24973   3.821   0.650   9.906 -0.1804  0.3724  0.3536
 4504SOL    HW124974   3.766   0.725   9.929  1.1135  1.1372  0.9343
 4504SOL    HW224975   3.901   0.696   9.883  0.4226 -0.8713 -0.0379
 4505SOL     OW24976   4.475   4.647   6.589 -0.3103 -0.0433  0.6417
 4505SOL    HW124977   4.421   4.617   6.516  0.2641 -0.9857  0.6102
 4505SOL    HW224978   4.566   4.621   6.572 -0.4022 -0.8013  1.2910
 4506SOL     OW24979   2.228   3.281   3.180  0.0611  0.5327  0.1251
 4506SOL    HW124980   2.205   3.189   3.165 -4.4379  1.7384 -0.5048
 4506SOL    HW224981   2.149   3.316   3.221  1.2059  2.2597  0.8539
 4507SOL     OW24982   1.614   2.349   9.703 -0.7973 -0.6906  0.1212
 4507SOL    HW124983   1.563   2.283   9.656 -4.3703  2.9913 -1.1881
 4507SOL    HW224984   1.578   2.336   9.791 -1.1864 -1.0871 -0.0937
 4508SOL     OW24985   0.886   2.350   4.552 -0.4920 -0.0281  0.5189
 4508SOL    HW124986   0.794   2.373   4.539 -0.2403  0.9080  0.3793
 4508SOL    HW224987   0.906   2.316   4.465 -1.1722 -0.8472  0.6913
 4509SOL     OW24988   1.398   3.511   1.071  0.6138  0.7015 -0.6000
 4509SOL    HW124989   1.432   3.438   1.020  0.8600  1.0913 -0.9913
 4509SOL    HW224990   1.335   3.471   1.131  1.4807  0.7243  0.3409
 4510SOL     OW24991   1.863   0.925   0.328 -0.2622 -0.3938  0.2326
 4510SOL    HW124992   1.947   0.895   0.361  0.2666  0.9523  0.1156
 4510SOL    HW224993   1.892   0.999   0.274  2.5749  0.2751  2.7104
 4511SOL     OW24994   3.606   2.897   7.097  0.1229 -0.2982  0.2490
 4511SOL    HW124995   3.579   2.972   7.150  0.6330 -0.3271  0.5497
 4511SOL    HW224996   3.551   2.823   7.123 -1.8512  0.8160 -0.7491
 4512SOL     OW24997   3.892   1.385   3.016  0.1874 -0.7857  0.2708
 4512SOL    HW124998   3.942   1.459   3.049 -0.2247 -1.2048  1.8305
 4512SOL    HW224999   3.825   1.388   3.084 -0.2095  0.2938 -0.1715
 4513SOL     OW25000   1.959   2.165  13.605 -0.2998  0.0744  0.6883
 4513SOL    HW125001   1.941   2.073  13.587  0.0864  0.4708 -1.8195
 4513SOL    HW225002   1.927   2.173  13.695 -1.0799 -0.4337  0.4520
 4514SOL     OW25003   2.727   3.053  15.574 -0.3436 -0.1599 -0.1574
 4514SOL    HW125004   2.706   2.960  15.587 -0.1177 -0.1067  0.6233
 4514SOL    HW225005   2.786   3.050  15.498  0.1751  0.4411  0.2245
 4515SOL     OW25006   2.526   0.522   5.548  0.1905 -0.3139 -0.0237
 4515SOL    HW125007   2.580   0.452   5.511 -0.2274 -1.2047  1.0681
 4515SOL    HW225008   2.447   0.485   5.508  0.1515 -0.2047 -0.0485
 4516SOL     OW25009   0.586   4.447   9.278  0.0200 -0.0137  0.2260
 4516SOL    HW125010   0.551   4.505   9.345 -1.2778 -0.8999  0.3194
 4516SOL    HW225011   0.673   4.419   9.308  0.5929  2.6691  1.0296
 4517SOL     OW25012   0.752   0.065   5.489 -0.2907 -0.2549  0.4327
 4517SOL    HW125013   0.707   0.148   5.500  0.1246 -0.1726  1.4786
 4517SOL    HW225014   0.779   0.061   5.397 -1.8900 -1.4691  0.0119
 4518SOL     OW25015   1.774   3.120   2.699  0.6152 -0.2322 -0.1762
 4518SOL    HW125016   1.805   3.156   2.782 -0.2880  0.1762 -0.0209
 4518SOL    HW225017   1.732   3.042   2.735  0.8886  0.3741  1.4438
 4519SOL     OW25018   2.382   3.450  10.758  0.4975  0.4514 -0.0489
 4519SOL    HW125019   2.290   3.472  10.739 -0.5075 -4.3611 -0.6764
 4519SOL    HW225020   2.364   3.388  10.828 -0.6890  0.0601 -0.6887
 4520SOL     OW25021   3.477   1.415   5.372 -0.3747 -0.0799 -0.0204
 4520SOL    HW125022   3.443   1.397   5.284  0.3591 -0.8225 -0.1548
 4520SOL    HW225023   3.405   1.466   5.407  0.3187  2.8366 -2.7802
 4521SOL     OW25024   0.262   1.228   8.492  0.1293 -0.3821 -0.2253
 4521SOL    HW125025   0.203   1.256   8.423 -1.7686  1.0113  1.9479
 4521SOL    HW225026   0.203   1.202   8.564 -1.2108  2.7455 -0.1803
 4522SOL     OW25027   0.207   1.218   4.666  0.2975 -0.1501 -0.2357
 4522SOL    HW125028   0.135   1.185   4.612 -0.7773  2.0881 -0.1768
 4522SOL    HW225029   0.275   1.209   4.598  1.2407 -0.0556  0.6911
 4523SOL     OW25030   2.837   3.640   5.179  0.5880 -0.1899  0.1714
 4523SOL    HW125031   2.806   3.731   5.184 -3.9665 -1.8037  1.7168
 4523SOL    HW225032   2.773   3.605   5.241 -0.6238  1.8184  0.0724
 4524SOL     OW25033   4.334   4.133   6.919  0.2518 -0.3886  0.2139
 4524SOL    HW125034   4.243   4.164   6.923  0.6112  0.5531  1.1777
 4524SOL    HW225035   4.367   4.217   6.885 -0.7255 -1.5463 -3.5858
 4525SOL     OW25036   1.195   0.725   6.172 -0.3431 -0.0119 -0.2031
 4525SOL    HW125037   1.189   0.752   6.264 -1.2906  0.3475 -0.3699
 4525SOL    HW225038   1.285   0.694   6.165  0.0547  1.3086 -0.9011
 4526SOL     OW25039   3.095   3.446   4.326  0.4767 -0.1900  0.2791
 4526SOL    HW125040   3.023   3.386   4.310 -1.2371  1.8923  0.2474
 4526SOL    HW225041   3.074   3.514   4.262  1.4859 -2.4254 -2.4270
 4527SOL     OW25042   3.771   0.710  15.296  0.0694  0.0515  0.0555
 4527SOL    HW125043   3.750   0.618  15.316  0.3868 -0.5462 -2.4502
 4527SOL    HW225044   3.686   0.738  15.264  0.4436  2.0787  0.7976
 4528SOL     OW25045   3.077   3.885   3.480  0.2889  0.2398  0.1407
 4528SOL    HW125046   3.036   3.808   3.519  1.0566  1.3857  3.2511
 4528SOL    HW225047   3.025   3.962   3.503 -0.6811 -0.1070 -0.8833
 4529SOL     OW25048   3.141   0.084   8.064 -0.3951  0.6982  0.1501
 4529SOL    HW125049   3.142   0.040   7.978  1.9894 -1.3608  1.2395
 4529SOL    HW225050   3.142   0.001   8.112  0.9722 -0.7034 -2.2751
 4530SOL     OW25051   4.150   1.167   4.834 -0.5586  0.1778  0.0523
 4530SOL    HW125052   4.180   1.252   4.867 -1.2179 -0.3334  1.9488
 4530SOL    HW225053   4.155   1.179   4.739 -0.6598  1.1514  0.1754
 4531SOL     OW25054   4.591   0.553  13.661  0.4632  0.0541 -0.2511
 4531SOL    HW125055   4.510   0.506  13.640  0.0426  1.3443 -1.4871
 4531SOL    HW225056   4.612   0.518  13.748 -3.6145 -1.0445  0.2853
 4532SOL     OW25057   2.734   4.371  12.633  0.1704  0.2133  0.2225
 4532SOL    HW125058   2.800   4.341  12.696 -2.5957 -3.3096  1.4023
 4532SOL    HW225059   2.654   4.400  12.676 -1.3320  0.4789 -2.7173
 4533SOL     OW25060   1.651   0.006   4.455 -0.2278  0.3698  1.0613
 4533SOL    HW125061   1.630   4.684   4.373 -1.2269 -0.7390  1.8903
 4533SOL    HW225062   1.678   4.650   4.506  0.2939  0.8318  1.4919
 4534SOL     OW25063   0.206   3.693   3.786 -0.5600 -0.3197 -0.5009
 4534SOL    HW125064   0.165   3.757   3.727  0.3762  0.8550  0.1230
 4534SOL    HW225065   0.208   3.613   3.733  2.1001 -0.6806  0.1316
 4535SOL     OW25066   1.611   3.840   5.424 -0.4468 -0.4411 -0.1162
 4535SOL    HW125067   1.531   3.788   5.424  0.1144 -1.3273 -2.9770
 4535SOL    HW225068   1.676   3.780   5.461 -2.3205 -2.6569 -0.4307
 4536SOL     OW25069   3.367   2.609  10.719  0.0255 -0.3157  0.2236
 4536SOL    HW125070   3.364   2.675  10.649 -3.0650 -0.9006 -0.2027
 4536SOL    HW225071   3.458   2.612  10.750  0.9958 -1.3423 -2.5684
 4537SOL     OW25072   3.809   4.105   8.964 -0.2116 -1.0897  0.1821
 4537SOL    HW125073   3.850   4.083   8.881  3.0687 -2.2007  2.0850
 4537SOL    HW225074   3.839   4.038   9.026 -1.1069 -0.9715  0.7431
 4538SOL     OW25075   2.180   2.623   7.299 -0.1485 -0.3148  0.1266
 4538SOL    HW125076   2.124   2.621   7.376  1.5549 -1.3594  1.3259
 4538SOL    HW225077   2.150   2.702   7.254 -2.5721 -1.7372 -0.8165
 4539SOL     OW25078   4.302   4.316   2.467  0.5821 -0.3386  0.6774
 4539SOL    HW125079   4.316   4.227   2.435 -1.3394  0.1155 -1.4698
 4539SOL    HW225080   4.207   4.306   2.475  0.8116 -0.9712  2.4832
 4540SOL     OW25081   2.546   3.032  14.053  0.2238 -0.0250 -0.0649
 4540SOL    HW125082   2.529   2.940  14.035 -1.4827  0.6725 -2.0445
 4540SOL    HW225083   2.631   3.045  14.011  0.3906 -0.4638  0.1357
 4541SOL     OW25084   2.602   1.454   9.571 -0.4321 -0.3647  0.3618
 4541SOL    HW125085   2.686   1.408   9.568 -1.0977 -1.5166 -0.3263
 4541SOL    HW225086   2.598   1.489   9.660  1.7173  0.5474  0.1125
 4542SOL     OW25087   0.042   4.302   6.800  0.4482  0.7199  0.0275
 4542SOL    HW125088   0.001   4.314   6.715  1.3700 -2.6960 -0.9040
 4542SOL    HW225089   4.691   4.324   6.860  0.1635 -0.0548 -0.0229
 4543SOL     OW25090   2.216   4.233   1.634  0.1611 -0.5020 -0.5540
 4543SOL    HW125091   2.211   4.328   1.625 -1.6023 -0.7525 -2.1991
 4543SOL    HW225092   2.146   4.212   1.572 -1.2810 -0.0201  0.9287
 4544SOL     OW25093   1.282   4.678   4.576  0.5647  0.7231  0.3373
 4544SOL    HW125094   1.234   4.678   4.493 -0.5131 -1.7484  0.9465
 4544SOL    HW225095   1.206   4.677   4.634 -0.3468  1.6747 -0.8441
 4545SOL     OW25096   1.318   2.782   7.912 -0.3273  0.0602 -0.0384
 4545SOL    HW125097   1.329   2.876   7.902  0.3573 -0.1702 -1.4249
 4545SOL    HW225098   1.224   2.772   7.930 -0.4644 -1.7162 -1.7550
 4546SOL     OW25099   3.704   1.020   6.110 -0.5429  0.3903 -0.0430
 4546SOL    HW125100   3.631   1.033   6.050 -1.3039  3.0237  1.4360
 4546SOL    HW225101   3.671   1.083   6.175 -0.2985  1.4549 -0.9609
 4547SOL     OW25102   0.911   4.377  15.419  0.4092  0.3436  1.0709
 4547SOL    HW125103   0.963   4.454  15.441  0.7732  0.2059  0.6971
 4547SOL    HW225104   0.913   4.329  15.502 -0.2423 -0.8282  0.4036
 4548SOL     OW25105   1.043   3.243  11.913  0.8753 -0.1229  0.7153
 4548SOL    HW125106   1.097   3.321  11.916 -2.0722  1.8779  2.0229
 4548SOL    HW225107   0.955   3.278  11.925  0.5714 -1.2057  1.6736
 4549SOL     OW25108   0.228   0.172  13.377  1.1319  0.3153 -0.3558
 4549SOL    HW125109   0.146   0.199  13.420  0.6065  0.7944 -1.6757
 4549SOL    HW225110   0.199   0.199  13.290  2.4584  0.6538 -0.6846
 4550SOL     OW25111   0.756   2.903   4.574 -0.0079 -0.6955 -0.1546
 4550SOL    HW125112   0.824   2.958   4.534  1.3140 -0.9590  1.7169
 4550SOL    HW225113   0.702   2.890   4.497  0.7647 -1.6404 -0.5380
 4551SOL     OW25114   3.595   3.399  12.417 -0.7888 -0.4854  0.2978
 4551SOL    HW125115   3.598   3.452  12.496 -0.7826 -0.9328  0.5986
 4551SOL    HW225116   3.669   3.340  12.431 -1.2770 -1.2006 -0.1036
 4552SOL     OW25117   3.265   3.238  10.670  0.0506  0.1842  0.0514
 4552SOL    HW125118   3.360   3.244  10.685 -0.1948  2.9709  0.4494
 4552SOL    HW225119   3.221   3.214  10.752  0.5093 -1.9330 -0.3136
 4553SOL     OW25120   0.285   0.883   6.806  0.6366  0.3973 -0.8491
 4553SOL    HW125121   0.286   0.882   6.902  2.4296  2.6407 -0.8310
 4553SOL    HW225122   0.270   0.975   6.784  0.0974  0.5374  0.1289
 4554SOL     OW25123   2.781   4.353  16.047 -0.3561 -0.3034  0.3952
 4554SOL    HW125124   2.789   4.260  16.028  2.0404 -0.3659  1.6593
 4554SOL    HW225125   2.718   4.350  16.119  1.3783 -0.2604  1.9173
 4555SOL     OW25126   4.591   0.568   3.827 -0.4423 -0.0423 -0.0721
 4555SOL    HW125127   4.544   0.485   3.832 -2.6517  1.2316 -0.1455
 4555SOL    HW225128   4.539   0.622   3.886 -0.6852 -1.8014  1.3430
 4556SOL     OW25129   3.459   3.585  11.045  0.2351 -0.4761  0.1999
 4556SOL    HW125130   3.457   3.520  11.115 -0.4249 -1.3464 -0.6439
 4556SOL    HW225131   3.444   3.665  11.096  0.0175 -0.0185 -0.5805
 4557SOL     OW25132   3.833   0.729   6.513 -0.2714  0.1573 -0.2896
 4557SOL    HW125133   3.899   0.759   6.451  0.7643 -1.6377 -0.0688
 4557SOL    HW225134   3.822   0.805   6.569  0.1822 -0.3486  0.4870
 4558SOL     OW25135   4.444   2.893   9.659 -0.7152  0.6529  0.1530
 4558SOL    HW125136   4.399   2.822   9.614  0.1352 -0.0406  0.3769
 4558SOL    HW225137   4.525   2.884   9.609  0.1963  1.0460  1.5433
 4559SOL     OW25138   2.783   0.076  14.773  0.5130 -0.4305  0.6348
 4559SOL    HW125139   2.803   0.044  14.861  0.4942  1.1387  1.2158
 4559SOL    HW225140   2.698   0.033  14.763 -0.3544  1.5892 -0.5281
 4560SOL     OW25141   3.702   3.134   9.542 -0.3485  0.1298 -0.0951
 4560SOL    HW125142   3.767   3.110   9.608  0.7300  1.9603 -0.5113
 4560SOL    HW225143   3.738   3.207   9.492 -0.3597 -0.3486 -0.8157
 4561SOL     OW25144   2.125   1.216   7.716  0.1393  0.2224 -0.0137
 4561SOL    HW125145   2.153   1.272   7.788 -1.1910  0.6832  0.1522
 4561SOL    HW225146   2.038   1.253   7.699  0.4639  0.1545 -1.7942
 4562SOL     OW25147   2.358   3.994  10.164  0.2594  0.4155  0.2910
 4562SOL    HW125148   2.344   3.980  10.070  0.4061  2.7879 -0.0829
 4562SOL    HW225149   2.451   4.015  10.168  0.3295 -0.1723  1.5059
 4563SOL     OW25150   4.199   0.189   5.299  0.1579  0.9745  0.0877
 4563SOL    HW125151   4.283   0.144   5.297  0.9875  2.6009 -2.3524
 4563SOL    HW225152   4.179   0.209   5.207  3.8209  3.0800 -0.2547
 4564SOL     OW25153   0.368   4.262  12.325  0.1575 -0.3012  0.3800
 4564SOL    HW125154   0.372   4.281  12.419  2.3632 -0.6241  0.3480
 4564SOL    HW225155   0.421   4.184  12.337 -0.9440 -1.0185  0.6036
 4565SOL     OW25156   2.015   0.527  10.870  0.3336 -0.2204 -0.6337
 4565SOL    HW125157   2.090   0.499  10.923 -2.1822 -1.0652  2.4229
 4565SOL    HW225158   1.974   0.589  10.929  0.4737 -0.3048 -0.4476
 4566SOL     OW25159   3.574   0.761   6.411  0.3599 -0.1648  0.4924
 4566SOL    HW125160   3.668   0.766   6.431  0.3622  2.3981 -0.2448
 4566SOL    HW225161   3.558   0.790   6.322 -0.2223 -0.2747  0.5614
 4567SOL     OW25162   4.394   3.000   0.605  0.1205 -0.3395 -0.0083
 4567SOL    HW125163   4.315   3.053   0.615  0.7672  0.5145  0.6715
 4567SOL    HW225164   4.404   3.024   0.513  0.7604  4.5260  1.3047
 4568SOL     OW25165   0.873   0.482   2.953  0.3198 -0.6570  0.0714
 4568SOL    HW125166   0.829   0.566   2.969 -0.7737 -1.1993 -0.1352
 4568SOL    HW225167   0.867   0.486   2.858  0.4920 -0.4423  0.0691
 4569SOL     OW25168   1.005   3.420  13.019  0.2901  0.2375  0.0464
 4569SOL    HW125169   0.927   3.393  12.972  1.0263 -0.6920 -0.6418
 4569SOL    HW225170   1.063   3.344  13.014 -0.4160 -0.4814  2.3264
 4570SOL     OW25171   2.668   1.147   4.633  0.0044 -0.2246  0.6449
 4570SOL    HW125172   2.696   1.122   4.721  0.4075 -0.9115  0.3233
 4570SOL    HW225173   2.584   1.185   4.657  0.4916  0.1211  1.7698
 4571SOL     OW25174   2.407   0.122   8.593 -0.3596  0.2848  0.0798
 4571SOL    HW125175   2.364   0.192   8.544 -1.1707  0.0140  0.4052
 4571SOL    HW225176   2.331   0.079   8.633 -0.1937 -0.0627  0.0232
 4572SOL     OW25177   1.134   4.262   8.634  0.2966  0.0385 -0.0105
 4572SOL    HW125178   1.166   4.324   8.568  1.9671  1.4117  2.1036
 4572SOL    HW225179   1.162   4.185   8.584 -0.9849  0.2396 -1.0686
 4573SOL     OW25180   1.526   4.503  10.618 -0.1657 -0.0838  0.1656
 4573SOL    HW125181   1.574   4.425  10.589  0.0433 -0.0593  0.4436
 4573SOL    HW225182   1.444   4.469  10.656 -0.6404 -1.0733 -1.7583
 4574SOL     OW25183   2.371   2.388   9.831  0.6076 -0.1065 -0.1337
 4574SOL    HW125184   2.278   2.409   9.832  0.4910 -0.7017  2.0103
 4574SOL    HW225185   2.366   2.298   9.864  1.7253  0.3046  1.1293
 4575SOL     OW25186   2.428   1.455   5.022  0.0067  0.1349  0.0167
 4575SOL    HW125187   2.358   1.416   4.969  1.2430 -2.0844  0.0257
 4575SOL    HW225188   2.465   1.513   4.954 -1.3416 -0.0808 -0.8921
 4576SOL     OW25189   2.833   2.292   2.346  0.2670 -0.0895  0.9631
 4576SOL    HW125190   2.859   2.306   2.255  3.1272 -0.6196  1.7028
 4576SOL    HW225191   2.880   2.361   2.392 -0.2061  2.0663 -1.7908
 4577SOL     OW25192   3.704   0.066   5.271  0.0615  0.3437 -0.8006
 4577SOL    HW125193   3.756   4.706   5.274 -0.7330 -0.1048  1.0253
 4577SOL    HW225194   3.774   0.129   5.284  2.5052 -1.8683 -3.0566
 4578SOL     OW25195   4.516   4.141   6.237  0.4633 -0.3144 -0.2048
 4578SOL    HW125196   4.583   4.199   6.272  0.8199 -1.0409  0.3075
 4578SOL    HW225197   4.525   4.167   6.145 -3.7823  0.6054 -0.3770
 4579SOL     OW25198   4.471   2.032   8.456  0.2056 -0.0995  0.1062
 4579SOL    HW125199   4.534   2.073   8.396 -0.7730  2.3058  0.7097
 4579SOL    HW225200   4.500   1.942   8.471 -0.4292 -0.4351 -0.6302
 4580SOL     OW25201   1.908   0.723   1.777 -0.8855 -0.6553  0.2322
 4580SOL    HW125202   1.848   0.796   1.793  1.0048  1.3673 -1.8181
 4580SOL    HW225203   1.872   0.688   1.696 -0.0847  0.1507 -0.4776
 4581SOL     OW25204   3.716   2.104   2.112  0.0813  0.5970 -0.3981
 4581SOL    HW125205   3.648   2.078   2.175  1.5320 -1.1734  0.4358
 4581SOL    HW225206   3.697   2.197   2.102  0.5121  0.5394 -1.6729
 4582SOL     OW25207   2.953   2.688   4.993 -0.0234 -0.2487  0.2997
 4582SOL    HW125208   2.948   2.773   5.037  1.2370 -1.8129  3.4341
 4582SOL    HW225209   3.012   2.707   4.921  1.3918 -0.5844  1.3850
 4583SOL     OW25210   0.678   0.587   8.872  0.0051  0.3457 -0.5709
 4583SOL    HW125211   0.635   0.639   8.941  0.0005  0.1428 -0.4209
 4583SOL    HW225212   0.630   0.504   8.873  1.4638 -0.4881 -0.9373
 4584SOL     OW25213   0.699   4.562  11.325  0.0678 -0.1313  0.5372
 4584SOL    HW125214   0.793   4.577  11.316  0.0149  1.2328  2.1828
 4584SOL    HW225215   0.695   4.516  11.408  1.1288 -2.4529 -0.7066
 4585SOL     OW25216   0.639   1.565   0.463 -0.1722  0.3086 -0.0268
 4585SOL    HW125217   0.731   1.541   0.475 -0.4769 -0.3609  1.0187
 4585SOL    HW225218   0.615   1.613   0.542 -0.0246 -0.1493  0.3001
 4586SOL     OW25219   2.695   1.785   6.857 -0.0790  0.1974  0.0433
 4586SOL    HW125220   2.684   1.856   6.794 -1.6373  0.2447  0.3657
 4586SOL    HW225221   2.721   1.841   6.930  1.9233 -0.1862 -0.3791
 4587SOL     OW25222   3.035   1.450   8.115 -0.1009  0.1482 -0.2847
 4587SOL    HW125223   3.118   1.412   8.144  1.1692  1.5912 -2.0301
 4587SOL    HW225224   3.038   1.407   8.030 -1.1401  0.2503 -0.3831
 4588SOL     OW25225   1.886   0.844   1.377 -0.0018 -0.3034  0.1200
 4588SOL    HW125226   1.877   0.760   1.423  1.5163  0.6653  2.1687
 4588SOL    HW225227   1.967   0.834   1.328 -1.0939  2.8081 -2.2519
 4589SOL     OW25228   0.343   2.286   2.652 -0.0718  0.1500  0.3808
 4589SOL    HW125229   0.298   2.233   2.718  0.4222 -0.5424  0.1644
 4589SOL    HW225230   0.277   2.287   2.584  0.8685  0.7907 -0.5189
 4590SOL     OW25231   3.345   3.253   7.218 -0.1050  0.0331  0.1228
 4590SOL    HW125232   3.340   3.165   7.254 -1.1988 -0.7073 -1.8720
 4590SOL    HW225233   3.338   3.232   7.125 -1.0396  2.1564 -0.2801
 4591SOL     OW25234   3.700   0.294   2.809  0.6214 -0.2368  0.6151
 4591SOL    HW125235   3.788   0.314   2.775 -0.2991  0.0694 -1.5802
 4591SOL    HW225236   3.690   0.199   2.797  0.5716 -0.1181 -0.3462
 4592SOL     OW25237   0.879   4.709   0.094  0.2766  0.1304  0.4391
 4592SOL    HW125238   0.798   4.718   0.144 -1.0472 -2.2493 -1.3021
 4592SOL    HW225239   0.933   4.655   0.153  1.8627  0.5565 -0.6139
 4593SOL     OW25240   2.667   1.625  12.070  0.6430  0.5423  0.3964
 4593SOL    HW125241   2.650   1.558  12.004  1.2037  1.0516 -0.2652
 4593SOL    HW225242   2.615   1.689  12.022  1.1816 -0.7980 -1.9457
 4594SOL     OW25243   4.624   4.717   1.461 -0.4062  0.5548 -0.4467
 4594SOL    HW125244   4.687   0.066   1.475  0.2408 -0.4605  1.6606
 4594SOL    HW225245   4.568   0.031   1.391 -0.5543  1.2338  0.0122
 4595SOL     OW25246   0.628   0.318   5.513 -0.3526 -0.0445  0.3258
 4595SOL    HW125247   0.596   0.407   5.505  0.7992  0.0976 -2.3701
 4595SOL    HW225248   0.559   0.274   5.464  0.5050 -1.7803  0.6479
 4596SOL     OW25249   0.890   2.501   3.144  0.4801 -0.0364 -0.5318
 4596SOL    HW125250   0.848   2.415   3.139  0.1345 -0.0552  2.3252
 4596SOL    HW225251   0.940   2.516   3.064  0.4228  0.0117 -0.5588
 4597SOL     OW25252   0.519   0.755  15.854  0.0955  0.3303 -0.1493
 4597SOL    HW125253   0.474   0.828  15.811  0.3250  0.8276  0.4373
 4597SOL    HW225254   0.443   0.710  15.890  1.1782 -1.4456 -0.1009
 4598SOL     OW25255   3.367   0.462   1.848 -0.1906 -0.0658  0.1338
 4598SOL    HW125256   3.371   0.445   1.754 -0.1598  0.6782 -0.0001
 4598SOL    HW225257   3.280   0.503   1.855  0.7945  2.0652 -0.0709
 4599SOL     OW25258   2.285   4.035   7.758  0.1685 -0.1494  0.4299
 4599SOL    HW125259   2.200   4.032   7.802  0.5759 -0.1907  1.2241
 4599SOL    HW225260   2.339   4.015   7.835  0.6005  1.5314  0.5659
 4600SOL     OW25261   4.534   1.994   7.065  0.1105 -0.3277  0.1716
 4600SOL    HW125262   4.440   1.985   7.077 -0.0139  0.5264 -0.1482
 4600SOL    HW225263   4.567   1.905   7.053  1.2948  0.0697  0.4901
 4601SOL     OW25264   2.975   0.563   8.396 -0.0986 -0.4156  0.2567
 4601SOL    HW125265   2.911   0.502   8.359 -0.5485 -0.7545  1.5913
 4601SOL    HW225266   2.919   0.632   8.432  0.1311 -0.6721  1.1147
 4602SOL     OW25267   0.134   2.427   4.092  0.0387 -0.1983  0.2820
 4602SOL    HW125268   0.171   2.489   4.030  0.3981  0.8009  1.5082
 4602SOL    HW225269   0.064   2.393   4.036  0.4185 -1.8101  0.7885
 4603SOL     OW25270   1.254   2.148   9.585 -0.3085 -0.7061 -0.4769
 4603SOL    HW125271   1.211   2.226   9.552  2.1428  0.7715 -0.1923
 4603SOL    HW225272   1.218   2.138   9.673  0.1164 -1.8365 -0.4223
 4604SOL     OW25273   3.216   1.159  15.475  0.1813 -0.4697 -0.0706
 4604SOL    HW125274   3.152   1.088  15.473  0.0235 -0.3305  0.0469
 4604SOL    HW225275   3.176   1.229  15.423 -0.4205 -1.5758 -1.0872
 4605SOL     OW25276   0.458   2.457  13.605 -0.0321 -0.0113  0.0945
 4605SOL    HW125277   0.539   2.504  13.626  0.7356 -0.9738 -0.6849
 4605SOL    HW225278   0.403   2.494  13.674 -0.9116 -0.2323 -0.4878
 4606SOL     OW25279   1.870   2.449   4.863  0.3731  0.5206 -0.3360
 4606SOL    HW125280   1.872   2.359   4.895  0.3625  0.5777 -0.1746
 4606SOL    HW225281   1.775   2.462   4.856  0.2077  0.1163  1.1351
 4607SOL     OW25282   0.268   0.804   5.862 -0.2369 -0.3356 -0.0419
 4607SOL    HW125283   0.219   0.727   5.890  0.5128 -0.6872  0.2689
 4607SOL    HW225284   0.359   0.778   5.871  0.3187  1.1401 -1.2369
 4608SOL     OW25285   2.151   0.569   6.099  0.6861 -0.1757  0.6869
 4608SOL    HW125286   2.219   0.565   6.031  1.0390  0.4632  1.0022
 4608SOL    HW225287   2.196   0.622   6.164  0.5629  1.5059 -0.5892
 4609SOL     OW25288   4.698   3.299   3.548 -0.5383  0.8187 -0.0783
 4609SOL    HW125289   4.631   3.366   3.535  0.2473  1.0225 -3.1180
 4609SOL    HW225290   4.680   3.272   3.638  0.7713 -0.5998 -0.2447
 4610SOL     OW25291   2.430   0.464   7.126 -0.3052 -0.0459 -0.3492
 4610SOL    HW125292   2.346   0.471   7.171 -0.7203  1.4340 -1.3470
 4610SOL    HW225293   2.441   0.369   7.126  0.6927  0.0825  1.5450
 4611SOL     OW25294   1.366   2.119   8.735 -0.3198  0.1841  0.3112
 4611SOL    HW125295   1.459   2.102   8.747 -0.1126  0.5680 -0.7364
 4611SOL    HW225296   1.368   2.214   8.720  1.2974 -0.0092 -0.7300
 4612SOL     OW25297   3.897   3.728  15.492  0.1416 -0.5078 -0.1061
 4612SOL    HW125298   3.901   3.750  15.585  0.1976  2.5305 -0.8404
 4612SOL    HW225299   3.909   3.814  15.452 -1.6905 -0.3504 -0.3129
 4613SOL     OW25300   0.099   1.226   5.411  0.0786  0.2498  0.1307
 4613SOL    HW125301   0.105   1.151   5.351 -2.4604  0.5224 -0.4575
 4613SOL    HW225302   0.006   1.235   5.430  0.0463  0.9066 -0.3539
 4614SOL     OW25303   0.472   0.540   4.768 -0.4375  0.8272  0.0018
 4614SOL    HW125304   0.379   0.518   4.771 -0.4370  0.7277 -1.0462
 4614SOL    HW225305   0.488   0.609   4.703 -4.5399  0.0865 -1.7735
 4615SOL     OW25306   4.331   1.768   4.670 -0.2719  0.2183  1.2390
 4615SOL    HW125307   4.353   1.860   4.684 -0.9900  0.5606  0.0323
 4615SOL    HW225308   4.315   1.760   4.576  3.4617 -2.7711  0.8164
 4616SOL     OW25309   4.069   4.608   3.647  0.3356  0.0082  0.2407
 4616SOL    HW125310   3.978   4.638   3.636  0.9783  2.1798  0.7482
 4616SOL    HW225311   4.113   4.690   3.622 -0.4140  0.1254 -0.7273
 4617SOL     OW25312   3.310   3.652   7.703 -0.4344 -0.5389 -0.2141
 4617SOL    HW125313   3.276   3.698   7.626  0.3731 -1.3476 -1.0535
 4617SOL    HW225314   3.308   3.717   7.773 -0.4850 -0.1207 -0.6004
 4618SOL     OW25315   3.756   3.045   5.666  0.7064  0.2973  0.0860
 4618SOL    HW125316   3.725   2.956   5.685  0.7784  0.4068  0.7177
 4618SOL    HW225317   3.822   3.062   5.733  1.6116  1.1309 -1.0249
 4619SOL     OW25318   2.162   3.784   0.083  0.1325 -0.9746 -0.4199
 4619SOL    HW125319   2.116   3.716   0.033 -0.3664 -1.0806  0.1823
 4619SOL    HW225320   2.251   3.749   0.083  0.8000  0.6698 -1.7438
 4620SOL     OW25321   3.391   2.372   7.373  0.3147 -0.2808  0.1757
 4620SOL    HW125322   3.469   2.344   7.325 -1.4723 -2.1741 -1.6296
 4620SOL    HW225323   3.426   2.432   7.439  1.7125 -1.0595  0.1452
 4621SOL     OW25324   4.448   4.286   1.783  0.0236  0.1822  0.1436
 4621SOL    HW125325   4.372   4.228   1.786  0.4864 -0.4744 -0.8667
 4621SOL    HW225326   4.408   4.366   1.747 -1.9003 -0.8265 -0.0069
 4622SOL     OW25327   3.874   0.035   7.324 -0.1286  0.6387 -0.6825
 4622SOL    HW125328   3.825   0.063   7.247  1.6150  1.1818 -1.6163
 4622SOL    HW225329   3.867   0.107   7.387 -0.9402 -0.6678  0.6886
 4623SOL     OW25330   1.779   3.337   0.964  0.1634  0.0515  0.8105
 4623SOL    HW125331   1.732   3.259   0.936  3.6448 -0.9914 -2.2031
 4623SOL    HW225332   1.860   3.334   0.913 -0.5078 -0.6642 -0.2222
 4624SOL     OW25333   3.463   1.057   2.364  0.8381 -0.0877 -0.3590
 4624SOL    HW125334   3.556   1.038   2.355  0.6292 -1.4680  0.3678
 4624SOL    HW225335   3.433   0.968   2.380  1.0658 -0.2181 -0.6571
 4625SOL     OW25336   2.282   4.657   0.371  1.1201  0.2646  0.2949
 4625SOL    HW125337   2.310   0.024   0.347 -0.6318  1.0384  1.1330
 4625SOL    HW225338   2.366   4.624   0.402  0.2547 -0.0678  2.2808
 4626SOL     OW25339   1.725   0.930   1.780 -0.1716  0.6669 -0.1484
 4626SOL    HW125340   1.648   0.961   1.828  0.2854  1.2484  0.2087
 4626SOL    HW225341   1.728   0.984   1.701  0.1441  0.7681 -0.0650
 4627SOL     OW25342   3.371   1.654   6.960 -0.3055  0.5506 -0.3245
 4627SOL    HW125343   3.333   1.568   6.980  0.4543  0.6858  1.7214
 4627SOL    HW225344   3.452   1.628   6.915 -0.5354 -2.2358  0.8467
 4628SOL     OW25345   4.422   3.209   2.926 -0.5967  0.0234  0.4679
 4628SOL    HW125346   4.468   3.233   3.006  0.1393  1.7960 -0.4859
 4628SOL    HW225347   4.497   3.201   2.866  0.0986 -1.3063  1.5087
 4629SOL     OW25348   4.624   2.473   7.397 -0.4970  0.2986 -0.1048
 4629SOL    HW125349   4.679   2.418   7.454 -0.2191  1.1230  0.4154
 4629SOL    HW225350   4.692   2.521   7.350 -2.7799  1.1141 -2.5858
 4630SOL     OW25351   2.085   3.610   5.348 -0.1039  0.1286 -0.2201
 4630SOL    HW125352   2.113   3.675   5.413  2.4813 -1.5763  0.3610
 4630SOL    HW225353   2.125   3.532   5.387  0.2502  0.9399  1.0392
 4631SOL     OW25354   4.392   1.836  16.174  0.3045 -0.1127  0.2872
 4631SOL    HW125355   4.463   1.781  16.140 -3.0085 -2.5550 -2.6964
 4631SOL    HW225356   4.386   1.895  16.099  0.7746 -0.2012  0.1807
 4632SOL     OW25357   4.337   2.350   4.489 -0.0216 -0.0878  0.1237
 4632SOL    HW125358   4.352   2.359   4.583  3.8411  1.3479 -0.6395
 4632SOL    HW225359   4.403   2.290   4.455 -2.1652 -1.2713 -1.9931
 4633SOL     OW25360   1.371   3.020   5.670  0.1999  0.1487 -0.2470
 4633SOL    HW125361   1.302   2.969   5.627 -0.8297  1.2997  0.0334
 4633SOL    HW225362   1.323   3.070   5.736 -0.2710 -1.9749  1.0242
 4634SOL     OW25363   2.313   1.926   5.626 -0.0533 -0.9228  0.2773
 4634SOL    HW125364   2.323   1.858   5.692  0.4067 -0.5625  0.5722
 4634SOL    HW225365   2.355   1.890   5.548  0.9717  1.7461 -0.3975
 4635SOL     OW25366   2.338   3.948   0.606  0.2882 -0.4983 -0.3122
 4635SOL    HW125367   2.272   3.938   0.538 -0.8073 -2.7455  1.0882
 4635SOL    HW225368   2.402   4.006   0.564 -0.4606 -1.4247 -2.7230
 4636SOL     OW25369   4.556   3.183   2.647 -0.2567  0.1590 -0.1648
 4636SOL    HW125370   4.491   3.115   2.665 -1.3865  0.6442 -2.4235
 4636SOL    HW225371   4.544   3.211   2.556 -2.0871 -0.7773 -0.2023
 4637SOL     OW25372   0.733   3.569   8.662 -0.0370  0.5767 -0.2414
 4637SOL    HW125373   0.694   3.514   8.594  0.4775  1.1016 -0.9612
 4637SOL    HW225374   0.657   3.603   8.710 -0.7618 -0.9217 -0.3168
 4638SOL     OW25375   1.666   3.609   0.997  0.3113 -0.0679 -0.2505
 4638SOL    HW125376   1.689   3.517   0.982  0.9726  0.1085 -0.2966
 4638SOL    HW225377   1.571   3.608   1.010  0.3514  1.2967  0.0685
 4639SOL     OW25378   1.775   0.144  10.322  0.3213 -0.3201 -0.2490
 4639SOL    HW125379   1.764   0.236  10.343  1.7679 -0.3394  0.5238
 4639SOL    HW225380   1.728   0.138  10.239 -1.0302 -0.0713  0.4959
 4640SOL     OW25381   0.238   2.861   8.595 -0.2724 -0.7939 -1.2566
 4640SOL    HW125382   0.327   2.898   8.599 -0.6483  0.1441 -1.4724
 4640SOL    HW225383   0.238   2.798   8.667  0.8429  1.2710  0.5707
 4641SOL     OW25384   4.289   0.715   6.945 -0.4837 -0.4807  0.1733
 4641SOL    HW125385   4.214   0.775   6.949  1.3170  2.0027 -2.8632
 4641SOL    HW225386   4.361   0.777   6.932  1.7934 -3.1642  0.0471
 4642SOL     OW25387   2.018   2.597   7.523 -0.2623  0.3041  0.0371
 4642SOL    HW125388   1.970   2.515   7.514  1.4769 -0.7965  0.6853
 4642SOL    HW225389   2.009   2.623   7.615 -0.0834 -0.4727  0.2800
 4643SOL     OW25390   4.371   1.682   4.204 -0.3822 -0.0136  0.6433
 4643SOL    HW125391   4.375   1.699   4.110 -2.4900 -1.0620  0.3580
 4643SOL    HW225392   4.355   1.587   4.206  1.1671 -0.2881 -0.1157
 4644SOL     OW25393   3.907   3.742  16.310  0.9749 -0.0112 -0.2165
 4644SOL    HW125394   3.912   3.661  16.259  0.7100 -0.7115  0.8775
 4644SOL    HW225395   3.966   3.794  16.255 -1.8347  1.2134 -2.0879
 4645SOL     OW25396   2.416   2.701   9.097  0.2578 -0.4741  0.0201
 4645SOL    HW125397   2.428   2.784   9.143 -0.0911  0.3705 -1.4286
 4645SOL    HW225398   2.477   2.639   9.136  1.4596  0.9907  0.4632
 4646SOL     OW25399   3.785   3.396  10.760  0.0540 -0.2119  0.5420
 4646SOL    HW125400   3.693   3.414  10.781 -1.2015 -2.1906 -3.2041
 4646SOL    HW225401   3.792   3.301  10.749  0.7497  0.1479 -2.1979
 4647SOL     OW25402   1.522   2.428  17.251 -0.1434  0.5509 -0.8196
 4647SOL    HW125403   1.507   2.496  17.185  0.0457  0.4000 -1.0177
 4647SOL    HW225404   1.432   2.401  17.268  0.1988  0.2387  0.5060
 4648SOL     OW25405   0.544   1.198   4.920 -0.1059 -0.3893  0.3972
 4648SOL    HW125406   0.597   1.133   4.875 -2.9082 -2.3982  0.0285
 4648SOL    HW225407   0.595   1.275   4.946 -0.4982  0.7309 -2.0692
 4649SOL     OW25408   2.892   0.877   8.422  0.3381 -0.3692  0.3625
 4649SOL    HW125409   2.909   0.857   8.330 -3.1612 -1.3813 -0.0644
 4649SOL    HW225410   2.822   0.814   8.441 -1.6233  1.0151 -2.3052
 4650SOL     OW25411   2.262   2.084   3.221 -0.0360 -0.5764  0.1767
 4650SOL    HW125412   2.256   2.091   3.316  1.8123  3.3160  0.0455
 4650SOL    HW225413   2.293   1.995   3.206  3.3436  0.1737  2.5867
 4651SOL     OW25414   4.127   1.654   2.262 -0.1722 -0.1865  0.2087
 4651SOL    HW125415   4.155   1.586   2.324 -1.0907  0.4775  1.3472
 4651SOL    HW225416   4.207   1.705   2.255 -1.2487  1.5339  0.4197
 4652SOL     OW25417   3.030   2.474   5.413 -0.0697 -0.0750 -0.0036
 4652SOL    HW125418   3.032   2.379   5.399 -1.2972 -0.3364  1.5535
 4652SOL    HW225419   3.017   2.503   5.323  3.1692 -0.7311 -0.6812
 4653SOL     OW25420   2.162   3.339   2.266  0.0139 -0.4503 -0.4637
 4653SOL    HW125421   2.199   3.353   2.179 -2.0122 -1.5568 -1.4865
 4653SOL    HW225422   2.076   3.366   2.234 -1.2092 -0.7500  2.5452
 4654SOL     OW25423   2.695   3.195  16.056  0.2769  0.0200  0.4929
 4654SOL    HW125424   2.678   3.282  16.091 -2.7482 -0.8506  1.2066
 4654SOL    HW225425   2.625   3.150  16.105  2.8336 -1.4424  2.7908
 4655SOL     OW25426   4.265   1.501   2.474  0.3104  0.7048 -0.8508
 4655SOL    HW125427   4.197   1.547   2.523  1.0442 -0.7775  1.5299
 4655SOL    HW225428   4.323   1.468   2.541 -0.3957  1.2905  0.0456
 4656SOL     OW25429   0.728   3.472   3.304  0.3305 -0.2136 -0.3246
 4656SOL    HW125430   0.777   3.403   3.349 -1.8027 -0.5901  1.3923
 4656SOL    HW225431   0.786   3.480   3.228  0.4853 -1.3244 -0.3316
 4657SOL     OW25432   2.472   4.219   4.480  0.1459  0.5016 -0.6128
 4657SOL    HW125433   2.553   4.248   4.438  1.6586 -0.5488  1.5930
 4657SOL    HW225434   2.415   4.217   4.403  2.5295 -1.9554 -2.3205
 4658SOL     OW25435   0.668   0.609   7.143  0.5571  0.2136  0.0844
 4658SOL    HW125436   0.682   0.701   7.121 -1.5308  0.5694  0.2999
 4658SOL    HW225437   0.740   0.572   7.091  0.8923  1.5326 -0.3943
 4659SOL     OW25438   1.223   4.715  15.148  0.2251  0.0335  0.4046
 4659SOL    HW125439   1.273   4.663  15.086  2.6617  2.1690  0.5942
 4659SOL    HW225440   1.143   0.004  15.097  0.6802  0.5179 -0.2064
 4660SOL     OW25441   4.442   2.621   6.341  0.2205  0.0026  0.4556
 4660SOL    HW125442   4.382   2.683   6.381 -0.7918 -0.0341 -1.0004
 4660SOL    HW225443   4.507   2.632   6.410 -0.3391  1.0694  0.8232
 4661SOL     OW25444   2.935   2.518   4.309  0.8993  0.6891 -0.2450
 4661SOL    HW125445   3.013   2.556   4.270  1.4752 -1.3142 -1.0122
 4661SOL    HW225446   2.890   2.603   4.315 -0.8563 -0.0560 -3.1522
 4662SOL     OW25447   1.733   3.410  13.472 -0.1413 -0.1999  0.4862
 4662SOL    HW125448   1.824   3.439  13.472  0.2268 -1.3736  0.2784
 4662SOL    HW225449   1.743   3.337  13.411 -0.6341  0.4399 -0.3566
 4663SOL     OW25450   3.988   1.521   0.407  0.1705 -0.3890  0.6105
 4663SOL    HW125451   4.000   1.611   0.436 -2.4111 -0.0441  0.6006
 4663SOL    HW225452   4.077   1.494   0.382 -0.2488 -0.3600 -0.9250
 4664SOL     OW25453   2.341   3.605   3.390 -0.7478  0.7371 -1.0028
 4664SOL    HW125454   2.257   3.574   3.423  0.2225  0.6579  1.3991
 4664SOL    HW225455   2.341   3.701   3.394 -1.8702  0.7223 -0.5939
 4665SOL     OW25456   2.748   3.673  16.230  0.1420  0.3515 -0.3723
 4665SOL    HW125457   2.746   3.759  16.187  1.4176  0.6708  0.2039
 4665SOL    HW225458   2.768   3.692  16.321  1.6912 -0.8709 -0.4649
 4666SOL     OW25459   1.819   3.611   9.244  0.3308  0.2482 -0.8428
 4666SOL    HW125460   1.870   3.539   9.280 -1.2808 -0.7561 -0.5781
 4666SOL    HW225461   1.789   3.559   9.170 -1.2809 -0.9593  0.6766
 4667SOL     OW25462   3.729   0.518  12.422 -0.3613  0.1862 -0.3092
 4667SOL    HW125463   3.635   0.527  12.439 -0.4147 -1.0365  0.0743
 4667SOL    HW225464   3.750   0.436  12.467  1.0104  0.8214  0.2101
 4668SOL     OW25465   1.948   0.049   0.523 -0.2060 -0.3212  0.1470
 4668SOL    HW125466   1.946   0.103   0.444 -1.4267  2.2310  1.9296
 4668SOL    HW225467   1.867   0.073   0.567  0.6807 -0.0662  1.6277
 4669SOL     OW25468   2.403   4.651   1.519  0.2001 -0.1452  0.1294
 4669SOL    HW125469   2.314   4.638   1.553 -0.0538 -1.5730 -1.0633
 4669SOL    HW225470   2.375   4.634   1.429  1.7271  0.7124 -0.4961
 4670SOL     OW25471   2.955   3.826   9.827  0.4969  0.1498 -0.3123
 4670SOL    HW125472   2.862   3.849   9.827  1.1919  2.9053 -1.5720
 4670SOL    HW225473   2.994   3.911   9.846  1.7632  0.4190 -4.1073
 4671SOL     OW25474   2.543   1.179   2.877  0.1632  0.3855 -0.2946
 4671SOL    HW125475   2.528   1.255   2.933  3.0142  0.5877  0.1874
 4671SOL    HW225476   2.473   1.185   2.811 -1.4150  2.0711  1.5504
 4672SOL     OW25477   1.307   2.494  14.214 -0.0021 -0.0935 -0.4239
 4672SOL    HW125478   1.345   2.425  14.268 -3.2929 -1.4981  0.1099
 4672SOL    HW225479   1.266   2.550  14.280  0.7575  0.3738 -0.3525
 4673SOL     OW25480   4.243   4.720  14.108 -0.3580  0.3287  0.3133
 4673SOL    HW125481   4.259   4.664  14.184  2.9568 -1.8630 -2.0187
 4673SOL    HW225482   4.160   4.688  14.074  0.0943 -0.2259 -0.2692
 4674SOL     OW25483   0.233   0.784   3.673  0.6916  0.4493  0.0947
 4674SOL    HW125484   0.235   0.859   3.733  1.6183  0.0952  0.4990
 4674SOL    HW225485   0.139   0.774   3.656  1.3583 -1.8007 -2.2398
 4675SOL     OW25486   4.332   0.433   7.991  0.0657 -0.9146 -0.0261
 4675SOL    HW125487   4.373   0.372   8.053  0.6714  0.0918  0.5706
 4675SOL    HW225488   4.275   0.371   7.945 -0.6471 -0.0262 -0.3345
 4676SOL     OW25489   2.738   0.040   2.288 -0.1123 -0.1702  0.2351
 4676SOL    HW125490   2.755   0.131   2.264 -1.5802  0.9228  3.2711
 4676SOL    HW225491   2.724   4.716   2.205  0.9263 -1.0940  0.5707
 4677SOL     OW25492   1.150   0.756   9.174 -0.1045 -0.6122 -0.0248
 4677SOL    HW125493   1.072   0.740   9.121 -1.5520 -0.5749  2.0587
 4677SOL    HW225494   1.214   0.725   9.110 -0.2670  1.3852 -1.1598
 4678SOL     OW25495   2.010   4.253   0.624  0.4107  0.8112 -0.1681
 4678SOL    HW125496   2.066   4.225   0.552  2.2503  1.8273  0.8904
 4678SOL    HW225497   2.021   4.347   0.608 -0.0706  0.5182 -2.2531
 4679SOL     OW25498   0.381   1.893   6.931  0.1138 -0.0536  0.1322
 4679SOL    HW125499   0.298   1.941   6.932  0.0419 -0.1836  0.3611
 4679SOL    HW225500   0.422   1.953   6.869  0.8983 -0.0988  0.6010
 4680SOL     OW25501   0.853   1.871   0.541 -0.0869  0.7814 -0.1206
 4680SOL    HW125502   0.871   1.790   0.493 -3.2507 -0.0477  0.0754
 4680SOL    HW225503   0.897   1.847   0.623  1.1822  0.1775 -0.9789
 4681SOL     OW25504   4.407   2.687   3.500 -0.1127  0.2160 -0.4453
 4681SOL    HW125505   4.400   2.593   3.482 -0.5336  0.6131 -2.3281
 4681SOL    HW225506   4.401   2.724   3.411  2.8293  0.6458 -0.4577
 4682SOL     OW25507   1.049   0.156  10.377  0.1903 -0.1034  0.1916
 4682SOL    HW125508   1.014   0.181  10.292  0.5607 -0.0877  0.0407
 4682SOL    HW225509   1.035   0.061  10.384 -3.0918  0.4341  0.6210
 4683SOL     OW25510   4.545   3.467  11.372 -0.6693 -0.4497  0.2145
 4683SOL    HW125511   4.533   3.550  11.418 -0.3194  0.3903 -1.1860
 4683SOL    HW225512   4.578   3.415  11.445 -2.8714 -2.5710 -0.3275
 4684SOL     OW25513   1.316   4.552  13.522  0.1692  0.3020  0.0915
 4684SOL    HW125514   1.383   4.550  13.590 -1.0637 -1.0239  1.2766
 4684SOL    HW225515   1.252   4.498  13.568 -0.9311  1.9837  0.5359
 4685SOL     OW25516   3.359   1.804   8.464 -0.8343 -0.1673  0.5237
 4685SOL    HW125517   3.365   1.830   8.556 -1.6413  1.1978  0.1942
 4685SOL    HW225518   3.268   1.826   8.444 -1.0605 -0.2811  1.4194
 4686SOL     OW25519   2.936   1.143  12.059  0.0186 -0.1682  0.6639
 4686SOL    HW125520   2.927   1.207  12.130  1.5052  0.0849  0.6345
 4686SOL    HW225521   2.951   1.061  12.107 -0.6193 -0.3506  0.5459
 4687SOL     OW25522   0.551   1.262   6.802 -0.6914 -0.0164 -0.2247
 4687SOL    HW125523   0.522   1.209   6.876 -1.1076  0.3254 -0.1435
 4687SOL    HW225524   0.488   1.333   6.791 -0.4892  0.0518 -0.9566
 4688SOL     OW25525   0.430   0.561   5.163  0.4932  0.0522  0.0380
 4688SOL    HW125526   0.344   0.581   5.127  0.7855 -0.4172 -0.9021
 4688SOL    HW225527   0.484   0.602   5.095 -1.8235  0.5060 -1.5182
 4689SOL     OW25528   1.246   2.304   7.392  0.0505  0.7108 -0.4333
 4689SOL    HW125529   1.178   2.281   7.329 -2.4599  1.8503  1.8319
 4689SOL    HW225530   1.320   2.284   7.336  1.3069  1.0298  1.1167
 4690SOL     OW25531   0.549   2.617   8.350  0.1891  0.9326 -0.1453
 4690SOL    HW125532   0.571   2.701   8.308  1.6613  1.2821  1.3357
 4690SOL    HW225533   0.460   2.631   8.380  0.4538 -0.7019  1.3568
 4691SOL     OW25534   1.428   3.519  14.195  0.0680  0.0505  0.5620
 4691SOL    HW125535   1.400   3.428  14.197 -1.2605  0.4634  0.3394
 4691SOL    HW225536   1.357   3.567  14.237 -0.5356  0.0126 -0.4216
 4692SOL     OW25537   1.967   0.597   5.582  0.4275 -0.4814  0.4592
 4692SOL    HW125538   1.909   0.565   5.514 -1.3186  2.9806  0.2993
 4692SOL    HW225539   1.921   0.678   5.605 -2.5046 -2.1641  0.4439
 4693SOL     OW25540   2.698   2.083   4.074  0.0952 -0.0828  0.2754
 4693SOL    HW125541   2.669   2.147   4.009  1.5625  1.6020  1.2826
 4693SOL    HW225542   2.787   2.117   4.085  0.2968 -0.0989 -1.2149
 4694SOL     OW25543   3.836   0.505   8.581  0.6510  1.0130 -0.1720
 4694SOL    HW125544   3.767   0.571   8.587 -1.0073 -0.7388  0.0939
 4694SOL    HW225545   3.881   0.533   8.502 -2.4692  2.1864 -1.5381
 4695SOL     OW25546   3.846   2.697   9.724 -0.5241 -0.0379 -0.0137
 4695SOL    HW125547   3.812   2.666   9.808  0.5561 -4.4769 -1.2006
 4695SOL    HW225548   3.934   2.659   9.729 -0.7692 -0.6028 -0.0612
 4696SOL     OW25549   3.430   2.496  12.765 -0.4269 -0.5669  0.1246
 4696SOL    HW125550   3.470   2.563  12.709  1.1075 -0.1823  1.6696
 4696SOL    HW225551   3.404   2.430  12.701  0.6245 -2.5028  1.6727
 4697SOL     OW25552   0.277   0.201   5.890 -0.0788  0.1438 -0.2031
 4697SOL    HW125553   0.243   0.237   5.808 -0.3212  0.2045 -0.0758
 4697SOL    HW225554   0.363   0.178   5.856 -0.3089 -1.7287  0.4885
 4698SOL     OW25555   0.675   3.813   2.919  0.0473  0.2840 -0.0252
 4698SOL    HW125556   0.752   3.860   2.886 -0.5456  2.5081  1.8602
 4698SOL    HW225557   0.708   3.750   2.983  1.3400 -1.2816 -2.1979
 4699SOL     OW25558   3.191   4.604  15.404  0.3225 -0.2510  0.5260
 4699SOL    HW125559   3.275   4.582  15.445  0.0201  1.8762  2.2778
 4699SOL    HW225560   3.146   4.520  15.406 -0.4050  0.1062 -0.7536
 4700SOL     OW25561   3.474   3.667   6.351  0.3146  0.7425 -0.1527
 4700SOL    HW125562   3.491   3.575   6.368 -1.4901  0.7009  1.3968
 4700SOL    HW225563   3.485   3.709   6.437  3.7891 -0.7724  0.1300
 4701SOL     OW25564   0.317   1.663   4.000 -0.3781 -0.2043  0.4638
 4701SOL    HW125565   0.328   1.568   4.002  2.1295  0.0751 -0.6186
 4701SOL    HW225566   0.302   1.696   4.089 -1.2716  0.2612  0.1429
 4702SOL     OW25567   2.116   0.174   8.126 -0.2907  0.2453 -0.1524
 4702SOL    HW125568   2.188   0.113   8.110  0.5853  0.6947  2.0735
 4702SOL    HW225569   2.102   0.212   8.039  0.6084  1.1010  0.0810
 4703SOL     OW25570   3.449   1.153   9.049 -0.4564 -0.0137 -0.2443
 4703SOL    HW125571   3.496   1.216   9.104  0.5589 -0.3723 -0.7031
 4703SOL    HW225572   3.507   1.156   8.973 -2.6075  0.5138 -1.8663
 4704SOL     OW25573   3.445   0.862   3.893  0.2826  0.0525 -0.0757
 4704SOL    HW125574   3.430   0.814   3.811  1.2722  0.4944 -0.5130
 4704SOL    HW225575   3.407   0.794   3.948 -1.6589  0.4164 -0.9621
 4705SOL     OW25576   0.340   4.233  14.181 -0.2640  0.5469 -0.0727
 4705SOL    HW125577   0.344   4.150  14.135 -0.3415  0.2625  0.4271
 4705SOL    HW225578   0.401   4.288  14.132  0.3044  1.0906  1.2454
 4706SOL     OW25579   3.730   1.301   5.373  0.3269  0.0238  0.0403
 4706SOL    HW125580   3.776   1.352   5.439  0.5493 -0.5031  0.2893
 4706SOL    HW225581   3.637   1.307   5.398 -0.1374  1.4481 -2.0440
 4707SOL     OW25582   0.881   2.639   3.835  0.0219  0.2074 -0.0785
 4707SOL    HW125583   0.810   2.578   3.858  0.3773  0.8744  2.8593
 4707SOL    HW225584   0.855   2.711   3.892  2.0444 -0.7508  2.0452
 4708SOL     OW25585   4.622   0.236  15.091  0.1398 -0.2260  0.0404
 4708SOL    HW125586   4.695   0.175  15.089  0.3000 -0.0071 -0.7185
 4708SOL    HW225587   4.613   0.250  14.997 -3.1821  2.5027  0.7679
 4709SOL     OW25588   2.555   2.797  16.301  0.4455  0.3530 -0.0587
 4709SOL    HW125589   2.524   2.779  16.389 -0.6469 -0.8817 -0.6942
 4709SOL    HW225590   2.499   2.747  16.242  0.1614 -1.1577  1.5287
 4710SOL     OW25591   3.417   3.336   7.951  0.3794 -0.0591 -0.5111
 4710SOL    HW125592   3.417   3.398   8.024  1.2984  0.2721 -0.7852
 4710SOL    HW225593   3.323   3.321   7.944  0.4677 -0.8882  0.0684
 4711SOL     OW25594   1.357   4.382  10.368 -0.1520  0.0220  0.0636
 4711SOL    HW125595   1.324   4.308  10.420 -0.7944  1.0187  1.0586
 4711SOL    HW225596   1.336   4.364  10.276  0.4478 -1.9907  0.3057
 4712SOL     OW25597   0.968   1.702  11.497 -0.2687 -0.1396 -0.1789
 4712SOL    HW125598   1.044   1.700  11.439  0.7000 -0.4546  1.1145
 4712SOL    HW225599   0.959   1.797  11.495  0.5370 -0.0505  0.7638
 4713SOL     OW25600   3.003   3.725   1.295  0.2399  0.0152 -0.0437
 4713SOL    HW125601   3.042   3.651   1.341 -1.5209  0.7485  2.5809
 4713SOL    HW225602   3.032   3.700   1.207  2.9378  2.7032  0.0754
 4714SOL     OW25603   3.406   1.585  14.572 -0.2842 -0.0359 -0.4068
 4714SOL    HW125604   3.485   1.530  14.573  0.3998  0.9284 -0.9015
 4714SOL    HW225605   3.382   1.599  14.480 -1.6408 -1.4768 -0.2743
 4715SOL     OW25606   0.754   4.286  16.062 -0.2640  0.1549  0.2380
 4715SOL    HW125607   0.736   4.309  15.970 -1.0099  0.4703  0.4628
 4715SOL    HW225608   0.712   4.201  16.048  2.9300 -1.1070 -1.9550
 4716SOL     OW25609   0.035   4.671  16.444  0.0641 -0.4048 -0.6600
 4716SOL    HW125610   0.063   4.604  16.506  1.2526 -0.2948 -1.0800
 4716SOL    HW225611   0.073   4.636  16.363 -2.2101  1.5961 -2.6147
 4717SOL     OW25612   4.463   0.558   4.422 -0.2469 -0.2597 -0.2967
 4717SOL    HW125613   4.541   0.586   4.470  0.0930 -1.2015 -0.3022
 4717SOL    HW225614   4.504   0.557   4.336  0.2356  0.6254 -0.0815
 4718SOL     OW25615   3.342   2.422   4.075 -0.5532 -0.1133 -0.2145
 4718SOL    HW125616   3.296   2.337   4.073  1.4100 -1.1601 -0.5213
 4718SOL    HW225617   3.432   2.394   4.087 -0.7498 -0.4338  0.5208
 4719SOL     OW25618   4.251   2.654   2.008  0.2054  0.0844 -0.4050
 4719SOL    HW125619   4.271   2.562   2.026  1.2016 -0.2588 -3.3070
 4719SOL    HW225620   4.338   2.692   2.012 -0.3455  1.5364 -2.2393
 4720SOL     OW25621   0.857   3.661   8.240  0.1315  0.8404 -0.0882
 4720SOL    HW125622   0.844   3.715   8.318 -2.5040  0.0733  0.0128
 4720SOL    HW225623   0.914   3.718   8.190  0.2864  0.8219  0.0665
 4721SOL     OW25624   2.687   3.613   3.026 -0.7412 -0.0327 -0.2882
 4721SOL    HW125625   2.663   3.523   3.004 -0.2688 -0.7007  1.9950
 4721SOL    HW225626   2.600   3.651   3.034 -0.6555  0.3098 -0.9858
 4722SOL     OW25627   0.787   1.856   6.135  0.2014  0.4947 -0.4605
 4722SOL    HW125628   0.747   1.879   6.219 -0.5989 -0.2639 -0.6367
 4722SOL    HW225629   0.879   1.863   6.160  0.0469 -0.6498  0.4322
 4723SOL     OW25630   3.083   0.026  11.906  0.5211  0.3931 -0.6471
 4723SOL    HW125631   3.062   0.012  11.998  1.9603 -0.7244 -0.4905
 4723SOL    HW225632   3.002   0.073  11.887  0.5814  1.0406  0.6994
 4724SOL     OW25633   3.176   0.886   6.594  0.3657 -0.1920 -0.0039
 4724SOL    HW125634   3.097   0.906   6.543  0.0131  1.7412  1.2995
 4724SOL    HW225635   3.140   0.920   6.676 -0.3793  0.0936 -0.4490
 4725SOL     OW25636   0.169   0.580   5.950  0.4383 -0.1127  0.4084
 4725SOL    HW125637   0.091   0.612   5.995 -0.3321 -2.0064  0.4228
 4725SOL    HW225638   0.182   0.489   5.976 -0.3322  0.2977  2.1984
 4726SOL     OW25639   1.680   3.387   0.276 -0.1933  0.4266 -0.1332
 4726SOL    HW125640   1.761   3.352   0.314 -0.4026  0.7180  0.5781
 4726SOL    HW225641   1.684   3.481   0.293 -0.8724  0.2325  1.0538
 4727SOL     OW25642   1.443   4.054   6.408 -0.7520 -0.2805  0.2808
 4727SOL    HW125643   1.388   4.067   6.485 -0.3211  0.2493  0.5035
 4727SOL    HW225644   1.379   4.069   6.339  0.0246 -1.3533 -0.6646
 4728SOL     OW25645   2.047   4.279   7.358 -0.1728  0.2241 -0.2447
 4728SOL    HW125646   2.069   4.268   7.450 -0.0090  1.4300 -0.1408
 4728SOL    HW225647   2.023   4.371   7.353 -0.6033  0.1591  0.6168
 4729SOL     OW25648   0.827   3.029   7.058 -0.7684 -0.0230  0.4446
 4729SOL    HW125649   0.771   3.050   6.984  0.6811  1.2483 -0.3015
 4729SOL    HW225650   0.791   3.085   7.127  0.6080 -1.0715  2.0133
 4730SOL     OW25651   0.294   1.811   5.708  0.2006 -0.4592  0.3861
 4730SOL    HW125652   0.341   1.800   5.625 -0.4959 -2.4858  0.2776
 4730SOL    HW225653   0.320   1.728   5.747  1.7285 -0.2175 -0.0867
 4731SOL     OW25654   0.289   3.880   9.963 -0.0485 -0.6691 -0.0170
 4731SOL    HW125655   0.269   3.878  10.057 -0.8995 -1.2025 -0.2117
 4731SOL    HW225656   0.384   3.869   9.958 -0.0668 -1.3050  1.0182
 4732SOL     OW25657   2.698   2.934   1.961  0.7692 -0.1517 -0.5937
 4732SOL    HW125658   2.723   2.939   1.869  1.7152  2.6809 -0.1761
 4732SOL    HW225659   2.758   2.875   2.008 -0.0373  0.6302  1.4140
 4733SOL     OW25660   3.446   4.623   3.633  0.0947  0.0245  0.2716
 4733SOL    HW125661   3.504   4.663   3.568  0.1615  0.3025  0.5023
 4733SOL    HW225662   3.413   4.691   3.691  2.0633 -0.3310  1.8288
 4734SOL     OW25663   0.769   3.267   4.674 -0.0849 -0.3906 -0.4316
 4734SOL    HW125664   0.684   3.304   4.694  0.7809  0.6352  1.2714
 4734SOL    HW225665   0.775   3.196   4.738  1.5169 -0.4674 -0.6557
 4735SOL     OW25666   3.638   3.163   7.253 -0.4447  0.3942  0.7030
 4735SOL    HW125667   3.691   3.162   7.333 -0.8935 -0.7018  0.9938
 4735SOL    HW225668   3.558   3.210   7.279 -0.4680  0.2484  0.8954
 4736SOL     OW25669   1.339   1.280   5.555 -0.0611 -0.2706 -0.0612
 4736SOL    HW125670   1.372   1.228   5.482 -0.4759  1.8794 -1.7880
 4736SOL    HW225671   1.379   1.367   5.554 -0.2863 -0.2002 -1.5946
 4737SOL     OW25672   4.449   4.033   0.739 -0.2231 -0.1763  0.1915
 4737SOL    HW125673   4.530   4.025   0.791 -1.0292  1.8537  1.7739
 4737SOL    HW225674   4.421   4.122   0.760  3.0314  1.1140 -0.9981
 4738SOL     OW25675   0.341   4.107   7.146 -0.0388 -0.3242  0.4147
 4738SOL    HW125676   0.280   4.034   7.145 -1.3702  0.7967  0.5818
 4738SOL    HW225677   0.419   4.059   7.118 -0.6026 -0.2574 -1.2449
 4739SOL     OW25678   1.901   1.888   9.217 -0.0447 -0.2098  0.1634
 4739SOL    HW125679   1.911   1.793   9.219 -1.8892 -0.4333 -0.7374
 4739SOL    HW225680   1.980   1.906   9.165  0.6534  0.1926  1.3743
 4740SOL     OW25681   2.418   2.799   0.566  0.1495 -0.0253 -0.7272
 4740SOL    HW125682   2.351   2.731   0.556 -0.6544  0.8361 -1.2388
 4740SOL    HW225683   2.484   2.743   0.606 -0.0868  0.7559  0.7425
 4741SOL     OW25684   0.571   4.340  14.128 -0.1075 -0.4599  0.4168
 4741SOL    HW125685   0.600   4.372  14.213  0.1562  0.9252 -0.1984
 4741SOL    HW225686   0.633   4.273  14.099  0.1848  0.1048 -0.2734
 4742SOL     OW25687   2.912   1.644   1.701 -0.0197  0.2723 -0.2659
 4742SOL    HW125688   2.922   1.680   1.789  0.0351 -1.3027  0.3772
 4742SOL    HW225689   2.844   1.690   1.653 -1.4051 -1.5066 -0.0212
 4743SOL     OW25690   2.458   0.803  17.082 -0.3540 -0.6063  0.1950
 4743SOL    HW125691   2.413   0.820  17.165 -0.5951 -0.3908  0.0172
 4743SOL    HW225692   2.521   0.875  17.082  0.4086 -1.2579  1.4666
 4744SOL     OW25693   2.548   3.652   2.128  0.0300  0.1092  0.3537
 4744SOL    HW125694   2.483   3.692   2.071 -3.0790 -0.6489  3.3899
 4744SOL    HW225695   2.616   3.641   2.062  0.2051  2.8465  0.1000
 4745SOL     OW25696   3.978   0.305  10.759  0.3582 -0.5168  0.1066
 4745SOL    HW125697   3.971   0.385  10.811  1.7770  1.1062 -2.1750
 4745SOL    HW225698   4.032   0.329  10.684 -1.8494 -0.1934 -1.3890
 4746SOL     OW25699   3.238   0.609  17.572  0.0042 -0.3796  0.5168
 4746SOL    HW125700   3.204   0.560  17.647  1.9673  1.1671  2.4165
 4746SOL    HW225701   3.160   0.660  17.552 -0.5051 -1.5262 -0.4098
 4747SOL     OW25702   2.081   4.492   6.661 -0.0710 -0.2319 -0.3046
 4747SOL    HW125703   2.086   4.436   6.739 -3.1817 -0.1892 -0.0722
 4747SOL    HW225704   2.125   4.423   6.610 -2.0897 -0.9145 -1.1112
 4748SOL     OW25705   0.559   1.641   2.051  0.2722  0.2249 -0.4710
 4748SOL    HW125706   0.604   1.668   2.131 -0.9357 -2.5212  1.1386
 4748SOL    HW225707   0.528   1.726   2.020 -1.7690 -0.9074 -1.5493
 4749SOL     OW25708   0.188   1.739   9.568 -0.5430  0.0650 -0.0597
 4749SOL    HW125709   0.188   1.756   9.474 -1.2982  2.3010  0.3278
 4749SOL    HW225710   0.107   1.774   9.603 -1.0426 -0.1104 -1.0460
 4750SOL     OW25711   2.056   0.541  16.202 -0.8385  0.4493  0.3876
 4750SOL    HW125712   2.143   0.538  16.241 -0.1835 -0.7008 -1.1101
 4750SOL    HW225713   2.073   0.561  16.110  2.4184  2.6142  1.4625
 4751SOL     OW25714   2.490   1.175   3.236  0.3379  0.6469  0.3368
 4751SOL    HW125715   2.484   1.259   3.191 -0.2721 -0.0779 -0.9540
 4751SOL    HW225716   2.427   1.187   3.307  0.1746  0.1478  0.2752
 4752SOL     OW25717   1.326   0.033  12.728 -0.1799  0.2099  0.4400
 4752SOL    HW125718   1.412   4.715  12.746  0.1329  0.7771  0.1643
 4752SOL    HW225719   1.342   0.127  12.736  0.8079  0.2370 -2.0487
 4753SOL     OW25720   2.748   1.076   3.642 -0.6807 -0.2153 -0.5968
 4753SOL    HW125721   2.703   1.120   3.714 -2.3889 -3.3919  0.2653
 4753SOL    HW225722   2.732   1.136   3.569  1.8733  1.0708 -0.0675
 4754SOL     OW25723   0.123   0.982   9.057  0.3779 -0.3512 -0.4896
 4754SOL    HW125724   0.063   1.019   8.991  0.5475  1.0531  0.1401
 4754SOL    HW225725   0.069   0.916   9.101 -1.8249  1.6109 -0.2459
 4755SOL     OW25726   3.169   0.035  15.766 -0.1064 -0.3054 -0.3800
 4755SOL    HW125727   3.096   4.710  15.725  2.1663 -3.0580 -1.3030
 4755SOL    HW225728   3.243   0.028  15.707  0.0296  0.8427 -0.3475
 4756SOL     OW25729   0.543   4.282   8.484  0.1096 -0.4448  0.4263
 4756SOL    HW125730   0.621   4.275   8.428 -0.9163 -0.8281 -0.9651
 4756SOL    HW225731   0.585   4.282   8.570  1.7391 -0.7106 -0.3498
 4757SOL     OW25732   0.083   0.377   8.995  0.3658  0.2230 -0.1691
 4757SOL    HW125733   0.035   0.455   9.022 -0.7624 -1.0947  1.6877
 4757SOL    HW225734   0.009   0.316   8.990  2.3660 -2.1090 -1.3764
 4758SOL     OW25735   1.299   2.952  15.409  0.2935  0.2341 -0.1291
 4758SOL    HW125736   1.239   2.885  15.377  1.7009 -0.1666 -1.9575
 4758SOL    HW225737   1.246   3.018  15.453  2.1469  1.1299  0.7492
 4759SOL     OW25738   2.623   1.626   8.138  0.5374 -0.3311  0.0474
 4759SOL    HW125739   2.669   1.546   8.164  0.8128 -0.0523  0.4202
 4759SOL    HW225740   2.703   1.679   8.132 -1.6680  2.8264 -1.1388
 4760SOL     OW25741   2.982   3.090   7.064  0.5279  0.1460  0.1336
 4760SOL    HW125742   3.039   3.036   7.119 -1.1725 -0.6035  1.1702
 4760SOL    HW225743   2.914   3.116   7.126  1.4931 -0.4746  1.4622
 4761SOL     OW25744   3.183   0.381   6.928  0.0773 -0.1539 -0.5810
 4761SOL    HW125745   3.169   0.475   6.942  0.1117  0.0575 -1.9987
 4761SOL    HW225746   3.190   0.389   6.833  0.2764 -0.6410 -0.6073
 4762SOL     OW25747   3.608   3.843   0.952 -0.0959  0.2496 -0.3690
 4762SOL    HW125748   3.660   3.814   0.877  2.8842  2.1593  0.9484
 4762SOL    HW225749   3.533   3.783   0.955  0.6906 -0.7079  0.0626
 4763SOL     OW25750   3.246   4.370  16.248  0.1150  0.4885 -0.2375
 4763SOL    HW125751   3.236   4.402  16.158  0.8990 -0.3364 -0.6066
 4763SOL    HW225752   3.312   4.431  16.281  0.6922  0.4431 -1.3055
 4764SOL     OW25753   3.204   1.597   3.438  0.3387  0.1637 -0.1684
 4764SOL    HW125754   3.266   1.656   3.395 -0.4448  0.3737 -1.0164
 4764SOL    HW225755   3.168   1.549   3.364  0.6629  0.9423 -0.8269
 4765SOL     OW25756   0.667   4.335   4.115  0.1738 -0.4010 -0.3129
 4765SOL    HW125757   0.597   4.277   4.086  1.6408 -2.5541  0.4426
 4765SOL    HW225758   0.700   4.292   4.194 -1.7752  1.2770  1.4211
 4766SOL     OW25759   2.340   0.056   8.055  0.0869 -0.1011 -0.6634
 4766SOL    HW125760   2.409   0.059   7.989  0.8078 -0.9952  0.0445
 4766SOL    HW225761   2.385   0.047   8.139 -1.1303 -0.0259 -0.0076
 4767SOL     OW25762   4.261   0.277   8.385 -0.3998  0.9330  0.2162
 4767SOL    HW125763   4.306   0.194   8.399 -0.8994  0.5145 -0.6450
 4767SOL    HW225764   4.177   0.265   8.339 -0.8522 -1.0625  1.5960
 4768SOL     OW25765   1.012   4.101   6.638  0.3988 -0.2700 -0.2178
 4768SOL    HW125766   0.950   4.174   6.643 -1.3641 -1.7590 -0.3296
 4768SOL    HW225767   1.011   4.093   6.543 -0.1994 -0.7399 -0.1732
 4769SOL     OW25768   0.178   2.850   5.327 -0.0408 -0.4115  0.2434
 4769SOL    HW125769   0.109   2.785   5.340 -1.0602  0.8410  1.0940
 4769SOL    HW225770   0.256   2.796   5.314  0.7689  0.6139  0.8834
 4770SOL     OW25771   0.625   4.339  10.396  0.0255 -0.2929  0.1553
 4770SOL    HW125772   0.609   4.430  10.421  0.7025 -0.1812  0.1820
 4770SOL    HW225773   0.715   4.333  10.428 -0.0848  0.2070  0.5660
 4771SOL     OW25774   0.705   3.597   9.844  0.5286  0.0457  0.5706
 4771SOL    HW125775   0.645   3.535   9.803  0.7617  0.5917 -0.5985
 4771SOL    HW225776   0.769   3.604   9.773 -1.8570 -0.3403 -1.6307
 4772SOL     OW25777   0.847   4.323  12.328 -0.1205 -0.3552  0.4482
 4772SOL    HW125778   0.753   4.331  12.340 -0.2528 -0.0670 -0.8757
 4772SOL    HW225779   0.873   4.327  12.420 -0.2875  0.3922  0.4681
 4773SOL     OW25780   1.040   4.241   1.329 -0.3171  0.1120  0.6798
 4773SOL    HW125781   1.121   4.261   1.282 -0.7292  0.5411  0.1592
 4773SOL    HW225782   1.075   4.223   1.416 -0.2740 -0.7788  0.4781
 4774SOL     OW25783   2.387   3.226   6.816  0.0067 -0.3721  0.0394
 4774SOL    HW125784   2.407   3.236   6.909 -0.1207  1.3256 -0.1007
 4774SOL    HW225785   2.412   3.136   6.799  0.6769 -0.0331 -0.7594
 4775SOL     OW25786   1.566   1.185   4.642  0.2230 -0.0379  0.4273
 4775SOL    HW125787   1.639   1.216   4.588 -1.1085  1.7092 -0.3794
 4775SOL    HW225788   1.608   1.124   4.702  2.7851  1.5330  0.2347
 4776SOL     OW25789   3.678   4.324   7.592 -0.2853 -0.3869  0.2091
 4776SOL    HW125790   3.735   4.396   7.563  0.2433 -0.3867  1.2345
 4776SOL    HW225791   3.733   4.250   7.566 -0.3531  0.3148 -1.9544
 4777SOL     OW25792   3.610   2.475   6.168  0.7036 -0.2511 -0.3869
 4777SOL    HW125793   3.630   2.454   6.077  2.1446  3.4070 -0.9021
 4777SOL    HW225794   3.562   2.395   6.191 -1.6239  1.2756  0.0953
 4778SOL     OW25795   4.643   3.585   6.012 -0.6129  0.0054 -0.2022
 4778SOL    HW125796   4.663   3.502   6.055 -0.1203  0.6820  0.8957
 4778SOL    HW225797   0.005   3.633   6.013 -0.2859 -0.5754  0.8800
 4779SOL     OW25798   0.056   2.647   2.887  0.1252 -0.0247  0.0321
 4779SOL    HW125799   0.105   2.710   2.834 -1.6069  0.7686 -0.6367
 4779SOL    HW225800   4.716   2.600   2.830  2.3671 -0.3974 -2.0470
 4780SOL     OW25801   4.617   3.342  16.960 -0.7690 -0.1657  0.5266
 4780SOL    HW125802   4.671   3.385  16.895 -0.1542  1.6630  2.2735
 4780SOL    HW225803   4.677   3.343  17.035  0.4903 -0.6894 -0.4745
 4781SOL     OW25804   4.217   0.581   6.600  0.2740  0.6845  0.1331
 4781SOL    HW125805   4.250   0.552   6.685  1.5690 -1.3083 -1.0621
 4781SOL    HW225806   4.236   0.675   6.599 -0.5979  0.8651  0.0454
 4782SOL     OW25807   2.391   3.623  15.292 -0.0505 -0.0430  0.3907
 4782SOL    HW125808   2.478   3.649  15.263  0.2877 -0.4900  1.0045
 4782SOL    HW225809   2.374   3.534  15.261  0.4272 -1.4073  4.0708
 4783SOL     OW25810   0.579   0.621   6.305  0.2708 -0.1778  0.9130
 4783SOL    HW125811   0.568   0.532   6.338  0.5815 -0.0030  1.4840
 4783SOL    HW225812   0.498   0.658   6.340 -2.7893 -2.8667 -3.3945
 4784SOL     OW25813   0.093   4.569   7.803  0.5564 -0.3218  0.0540
 4784SOL    HW125814   0.112   4.663   7.807  1.2328 -0.3224 -3.1749
 4784SOL    HW225815   0.132   4.534   7.723  2.7904 -2.0478  1.8994
 4785SOL     OW25816   4.571   1.133   6.313  0.0158 -0.0071 -0.0411
 4785SOL    HW125817   4.601   1.134   6.222 -1.5716  0.2745 -0.5608
 4785SOL    HW225818   4.509   1.206   6.313  0.5440  0.4593  2.3373
 4786SOL     OW25819   0.555   1.068   9.763  0.3914  0.1754  0.3745
 4786SOL    HW125820   0.564   1.155   9.803  0.5665  0.1477  0.3945
 4786SOL    HW225821   0.466   1.045   9.787  0.4999 -0.0776  0.5313
 4787SOL     OW25822   0.638   1.306   9.605 -0.1077 -0.4518 -0.2339
 4787SOL    HW125823   0.608   1.220   9.635 -0.0093 -0.1581  0.7033
 4787SOL    HW225824   0.563   1.354   9.571  0.8349  1.8173  0.8746
 4788SOL     OW25825   2.145   4.469   1.562 -0.5890  0.2269 -0.1271
 4788SOL    HW125826   2.052   4.489   1.549 -0.3281  0.4521 -1.6711
 4788SOL    HW225827   2.174   4.442   1.475  2.0548 -2.3565  1.5868
 4789SOL     OW25828   2.151   0.333   5.580 -0.7308  0.0889  0.4874
 4789SOL    HW125829   2.202   0.294   5.508  0.0235 -0.1423  1.1434
 4789SOL    HW225830   2.084   0.388   5.540 -1.3930 -0.1095  1.3242
 4790SOL     OW25831   2.128   3.736   0.440 -0.1300 -0.6978  0.2003
 4790SOL    HW125832   2.039   3.768   0.426  0.1521  0.5833  1.3826
 4790SOL    HW225833   2.134   3.674   0.366 -1.3936 -1.4712  0.7471
 4791SOL     OW25834   3.720   3.601   6.236 -0.0372  0.2851  0.5306
 4791SOL    HW125835   3.773   3.608   6.316  0.9180 -0.8901  0.0106
 4791SOL    HW225836   3.631   3.631   6.253 -1.1935 -1.3719 -2.6429
 4792SOL     OW25837   0.041   2.911   8.066  0.2856  0.0187  0.6990
 4792SOL    HW125838   0.117   2.892   8.121  0.8084 -0.3092 -0.1303
 4792SOL    HW225839   0.021   3.004   8.068 -1.5419 -0.3477 -0.3272
 4793SOL     OW25840   2.513   0.397   0.570  0.4453  0.2013 -0.4092
 4793SOL    HW125841   2.575   0.468   0.586  0.0940  0.3590  0.2696
 4793SOL    HW225842   2.496   0.427   0.480  2.2863 -0.9234 -1.1413
 4794SOL     OW25843   4.036   2.338   8.180 -0.7049 -0.0702  0.1472
 4794SOL    HW125844   4.002   2.416   8.138  3.1940  1.1313 -0.7595
 4794SOL    HW225845   4.111   2.373   8.229 -1.5819  1.3638  0.4596
 4795SOL     OW25846   4.360   1.616  10.932 -0.3928  0.2289  0.5886
 4795SOL    HW125847   4.447   1.580  10.952 -0.1134  0.0740 -0.8701
 4795SOL    HW225848   4.321   1.544  10.881  1.7030  0.0002 -0.7152
 4796SOL     OW25849   1.515   0.273   0.371 -0.1417 -0.5885  0.2889
 4796SOL    HW125850   1.450   0.286   0.440  3.5086  0.5625  3.5102
 4796SOL    HW225851   1.577   0.344   0.386 -1.0689 -0.3717  3.1987
 4797SOL     OW25852   4.567   0.260   9.006  0.2634 -0.1098 -0.7588
 4797SOL    HW125853   4.525   0.345   8.991  2.4061  1.0113 -0.4336
 4797SOL    HW225854   4.491   0.213   9.042 -0.2033 -0.0886 -1.7082
 4798SOL     OW25855   1.240   0.827   2.709  0.3922 -0.1124  0.1463
 4798SOL    HW125856   1.220   0.751   2.655 -2.1454 -0.1042  1.0375
 4798SOL    HW225857   1.290   0.876   2.644 -1.6811  0.0398 -1.3213
 4799SOL     OW25858   0.441   3.626   7.034 -0.0760  0.4596 -0.6664
 4799SOL    HW125859   0.460   3.691   7.102 -4.5710  3.2982 -2.2048
 4799SOL    HW225860   0.404   3.559   7.092  1.8405  0.2267  0.2831
 4800SOL     OW25861   3.106   3.539  10.974 -0.3714 -0.1140  0.5399
 4800SOL    HW125862   3.037   3.529  10.908  0.2643 -3.2014  0.3440
 4800SOL    HW225863   3.174   3.576  10.917  0.9957 -2.3792  0.6736
 4801SOL     OW25864   0.600   3.873   0.283  0.0311 -0.4170 -0.9188
 4801SOL    HW125865   0.560   3.828   0.357  2.0743  0.3025  0.5937
 4801SOL    HW225866   0.621   3.960   0.317  0.9842 -0.7312 -0.7045
 4802SOL     OW25867   0.332   3.888  13.300  0.9830 -0.3287  0.0866
 4802SOL    HW125868   0.360   3.842  13.221 -0.2916  0.3205 -0.7487
 4802SOL    HW225869   0.415   3.929  13.325  1.2923 -1.0476  0.2287
 4803SOL     OW25870   1.884   1.809   7.970 -1.0091 -0.2798 -0.4756
 4803SOL    HW125871   1.798   1.797   7.928  0.6967  1.0607 -4.3319
 4803SOL    HW225872   1.936   1.759   7.906  0.8430  1.2826 -0.1767
 4804SOL     OW25873   2.046   2.354  13.218 -0.0674 -0.0428 -0.4600
 4804SOL    HW125874   1.981   2.309  13.273 -0.7225 -0.4702 -1.5734
 4804SOL    HW225875   2.124   2.335  13.269  0.0313 -2.3936 -1.4665
 4805SOL     OW25876   0.368   4.029  10.261  0.7808  0.2846  0.1631
 4805SOL    HW125877   0.325   4.036  10.346  0.4329  1.2772 -0.1032
 4805SOL    HW225878   0.307   4.083  10.211 -0.9669 -1.5723  0.2799
 4806SOL     OW25879   4.341   2.705   9.475 -0.1203  0.1067 -0.3883
 4806SOL    HW125880   4.304   2.629   9.522  1.6973  0.3686  1.4756
 4806SOL    HW225881   4.261   2.752   9.453  0.0425 -1.2284 -3.7359
 4807SOL     OW25882   3.994   4.055   4.963 -0.7997  0.0979  0.2241
 4807SOL    HW125883   3.901   4.042   4.983 -0.3857 -0.9337  1.4655
 4807SOL    HW225884   4.012   4.121   5.031  0.7169 -0.6400  0.5261
 4808SOL     OW25885   1.765   3.767   4.920 -0.0270 -0.2166  0.1478
 4808SOL    HW125886   1.709   3.807   4.985  0.3392  0.7849 -0.1608
 4808SOL    HW225887   1.750   3.674   4.936  1.3502 -0.8852 -2.2902
 4809SOL     OW25888   1.816   4.622   6.703 -0.0159 -0.1176 -0.4118
 4809SOL    HW125889   1.756   4.569   6.650 -0.2840  0.3771 -0.6096
 4809SOL    HW225890   1.898   4.573   6.714 -0.8118 -0.9730  1.8471
 4810SOL     OW25891   3.569   0.812   4.588 -0.1540  0.7410 -0.3383
 4810SOL    HW125892   3.590   0.837   4.677  2.4244  0.2282 -0.8204
 4810SOL    HW225893   3.542   0.897   4.554 -2.1697 -0.9460 -3.0045
 4811SOL     OW25894   1.249   4.705   9.152 -0.2394 -0.4864 -0.6514
 4811SOL    HW125895   1.245   4.628   9.209 -1.9577  0.3165  0.2824
 4811SOL    HW225896   1.336   4.695   9.111 -0.3039 -0.2928 -0.8365
 4812SOL     OW25897   2.473   1.762  11.967 -0.4973  0.2063 -0.3827
 4812SOL    HW125898   2.393   1.750  11.915 -0.7951  1.0657 -0.1204
 4812SOL    HW225899   2.436   1.796  12.048 -0.6585 -0.8178 -0.0277
 4813SOL     OW25900   1.328   0.497   9.275  0.4972 -0.5642 -0.2920
 4813SOL    HW125901   1.352   0.512   9.184  2.9924 -2.0546  0.1162
 4813SOL    HW225902   1.233   0.507   9.268  0.3240 -3.9564 -2.7841
 4814SOL     OW25903   2.896   2.514  15.231  0.2928  0.3498 -0.0617
 4814SOL    HW125904   2.920   2.456  15.303  2.5643  0.8216 -0.4604
 4814SOL    HW225905   2.844   2.448  15.186  1.5694 -0.3052 -0.5499
 4815SOL     OW25906   3.189   0.948  16.385 -0.5443  0.4584 -0.5141
 4815SOL    HW125907   3.134   0.948  16.307 -2.9969 -2.5484  1.2470
 4815SOL    HW225908   3.157   1.028  16.428 -2.5377 -0.3046 -0.5590
 4816SOL     OW25909   3.765   1.007   5.354 -0.4747 -0.0449 -0.3003
 4816SOL    HW125910   3.846   1.057   5.359 -0.9805  0.6918  0.5138
 4816SOL    HW225911   3.728   1.022   5.441 -0.7533 -0.9345 -0.2683
 4817SOL     OW25912   2.012   2.931   8.406 -0.0996 -0.3442 -0.3514
 4817SOL    HW125913   1.956   3.000   8.442 -0.0122 -0.3661 -0.1706
 4817SOL    HW225914   2.055   2.892   8.482 -1.1600 -1.0345 -0.1002
 4818SOL     OW25915   1.020   0.603   6.518 -0.3293  0.2314  0.1897
 4818SOL    HW125916   1.018   0.507   6.516  1.1465  0.2073 -0.4768
 4818SOL    HW225917   1.104   0.622   6.561 -0.9599  2.1136  0.5493
 4819SOL     OW25918   3.176   1.256   7.410  0.4806  0.0641 -0.1148
 4819SOL    HW125919   3.150   1.165   7.395 -0.2249  0.4757 -1.3499
 4819SOL    HW225920   3.249   1.259   7.349 -0.2214  1.0249 -0.9030
 4820SOL     OW25921   2.205   0.959   7.756  0.0089  0.3268 -0.0677
 4820SOL    HW125922   2.170   0.914   7.680 -1.0905 -0.0667  0.6634
 4820SOL    HW225923   2.154   1.039   7.741  1.7883  1.7859  1.6372
 4821SOL     OW25924   2.690   1.108  10.105 -0.3650  0.1851 -0.8240
 4821SOL    HW125925   2.724   1.028  10.144  0.7181  0.2561 -1.6191
 4821SOL    HW225926   2.758   1.132  10.043 -0.2940 -0.5666 -1.0386
 4822SOL     OW25927   1.939   3.522   2.204  0.0797  0.0115 -0.5084
 4822SOL    HW125928   1.989   3.552   2.280  0.2099  1.1963 -1.0622
 4822SOL    HW225929   1.861   3.578   2.200 -0.6585 -0.9595  0.3347
 4823SOL     OW25930   0.107   1.359  15.848  0.6420 -0.5832 -0.3829
 4823SOL    HW125931   0.056   1.285  15.816  0.5845  0.0687 -1.7979
 4823SOL    HW225932   0.067   1.435  15.806 -0.6773 -1.3463 -0.4981
 4824SOL     OW25933   2.621   1.613   9.046  0.0648  0.4405 -0.3649
 4824SOL    HW125934   2.619   1.546   9.114  2.0968 -0.7099 -1.4411
 4824SOL    HW225935   2.575   1.573   8.972  0.1120 -1.2608  0.5169
 4825SOL     OW25936   4.675   0.542   5.011 -0.4624  0.1923  0.3712
 4825SOL    HW125937   4.621   0.594   4.951  1.5631  1.1336 -0.6271
 4825SOL    HW225938   4.642   0.456   4.986 -0.1334 -0.5725  2.5066
 4826SOL     OW25939   1.476   2.810   6.208  0.2195 -0.0296 -0.0224
 4826SOL    HW125940   1.466   2.882   6.270  0.1948 -0.6965  0.7576
 4826SOL    HW225941   1.509   2.740   6.265 -1.4549 -1.1336 -0.3813
 4827SOL     OW25942   3.086   2.535   3.549 -0.6060  0.3724  0.2469
 4827SOL    HW125943   3.109   2.572   3.635 -0.7471  0.3431  0.2972
 4827SOL    HW225944   3.171   2.552   3.509 -0.2602 -0.6045  0.5812
 4828SOL     OW25945   3.530   3.304   9.686 -0.5167 -0.5815  0.4223
 4828SOL    HW125946   3.542   3.234   9.623  2.7859  1.2708 -0.9818
 4828SOL    HW225947   3.510   3.246   9.759 -2.2940  0.5437  0.8370
 4829SOL     OW25948   1.522   4.402   1.086 -0.1159  0.4901  0.0250
 4829SOL    HW125949   1.607   4.368   1.059 -0.4730 -0.7502  0.4910
 4829SOL    HW225950   1.485   4.408   0.998 -0.4539  0.5493  0.1713
 4830SOL     OW25951   2.346   1.286   5.250 -0.3390  0.3129 -0.2445
 4830SOL    HW125952   2.400   1.353   5.207 -0.7462  0.0961 -1.0935
 4830SOL    HW225953   2.365   1.316   5.339  1.6364 -0.7273 -0.3180
 4831SOL     OW25954   2.464   0.504  14.870  0.1468  0.0727  0.3276
 4831SOL    HW125955   2.414   0.586  14.872  0.7291  0.4516 -0.7498
 4831SOL    HW225956   2.532   0.538  14.927  0.2579  1.9131 -0.9027
 4832SOL     OW25957   2.783   0.927  13.677 -0.4077 -0.2911 -0.2368
 4832SOL    HW125958   2.729   0.849  13.687  1.1495 -1.2913  0.5147
 4832SOL    HW225959   2.737   0.987  13.619 -1.0797 -1.3415 -0.7789
 4833SOL     OW25960   1.162   3.229   8.274  0.3812  0.6627  0.0588
 4833SOL    HW125961   1.214   3.163   8.320  0.4552  0.0328 -0.9043
 4833SOL    HW225962   1.126   3.291   8.337  1.7109 -0.8443  2.2982
 4834SOL     OW25963   0.695   3.120   7.342 -0.5665  0.2036  0.2206
 4834SOL    HW125964   0.661   3.171   7.268 -0.9180 -0.9065 -0.3913
 4834SOL    HW225965   0.789   3.138   7.353 -0.4883 -1.1417  1.7235
 4835SOL     OW25966   1.525   3.726   2.822  0.0998  0.7338 -0.5055
 4835SOL    HW125967   1.529   3.687   2.735 -1.2784  0.1627 -0.3230
 4835SOL    HW225968   1.619   3.740   2.833  0.1166 -1.4254  2.1678
 4836SOL     OW25969   2.625   3.301  10.824 -0.1748 -0.3730 -0.2713
 4836SOL    HW125970   2.558   3.338  10.766 -0.5156 -0.2133  0.2172
 4836SOL    HW225971   2.598   3.335  10.909  0.7543 -0.3928  0.0272
 4837SOL     OW25972   3.359   2.591   3.859 -0.6583  0.0398  0.1638
 4837SOL    HW125973   3.351   2.538   3.939  0.1117  0.3797  0.4688
 4837SOL    HW225974   3.427   2.650   3.891  0.4199 -0.6769 -0.8361
 4838SOL     OW25975   1.485   1.180  16.227 -0.4163 -0.5604  0.3452
 4838SOL    HW125976   1.510   1.093  16.197 -3.0065 -1.7776  1.7568
 4838SOL    HW225977   1.566   1.226  16.202 -0.2813  0.4481  2.6094
 4839SOL     OW25978   3.474   0.060   2.444  0.0514  0.5924 -0.3937
 4839SOL    HW125979   3.518   0.144   2.434  2.1972 -0.4320  0.3440
 4839SOL    HW225980   3.524   0.002   2.386  1.1361  0.0160  1.1156
 4840SOL     OW25981   3.880   2.980   1.089  0.1843  0.2783  0.1077
 4840SOL    HW125982   3.913   3.032   1.016  0.7868 -0.2660 -0.0082
 4840SOL    HW225983   3.879   2.894   1.047  0.2230  0.3307 -0.0002
 4841SOL     OW25984   2.868   2.130  14.688  0.5629 -0.4806 -0.1747
 4841SOL    HW125985   2.929   2.186  14.737 -0.0967  1.3798 -1.4714
 4841SOL    HW225986   2.790   2.186  14.685 -0.3712 -1.7569  0.4671
 4842SOL     OW25987   0.604   4.674  16.266  0.0429  0.1813  0.4244
 4842SOL    HW125988   0.621   4.682  16.172 -3.0414 -2.3195 -0.3400
 4842SOL    HW225989   0.653   0.024  16.307 -1.0231  1.3927 -0.3891
 4843SOL     OW25990   3.964   4.515   2.429 -0.0211  0.1275  0.5452
 4843SOL    HW125991   4.009   4.431   2.440 -0.2401  0.0100  0.5366
 4843SOL    HW225992   3.872   4.489   2.432  0.6029 -2.1479 -0.0417
 4844SOL     OW25993   3.250   1.783   1.231 -0.3954  0.4012  0.3615
 4844SOL    HW125994   3.329   1.763   1.282  0.5648  2.4652 -0.3153
 4844SOL    HW225995   3.240   1.703   1.178 -0.4458  0.1810  0.7064
 4845SOL     OW25996   0.887   4.448  16.520 -0.0891  0.7196  0.9405
 4845SOL    HW125997   0.955   4.401  16.472 -1.8128  0.0929 -0.9121
 4845SOL    HW225998   0.808   4.414  16.477  0.1381  1.1789  0.1690
 4846SOL     OW25999   1.573   2.977   3.189 -0.3404  0.1431  0.0901
 4846SOL    HW126000   1.614   2.900   3.150  0.6116  0.1173  1.1263
 4846SOL    HW226001   1.536   3.001   3.104 -2.1584 -1.0474  0.5609
 4847SOL     OW26002   2.681   4.398   6.171 -0.2150 -0.9157 -0.4354
 4847SOL    HW126003   2.722   4.367   6.252 -0.4885  1.8347  0.7372
 4847SOL    HW226004   2.712   4.336   6.105 -0.1734  1.7122 -2.8556
 4848SOL     OW26005   0.776   3.353  12.207  0.3437 -0.4295 -0.9436
 4848SOL    HW126006   0.858   3.362  12.255 -0.1139  0.7170 -0.3731
 4848SOL    HW226007   0.786   3.434  12.158  3.9615  0.0301  0.6123
 4849SOL     OW26008   1.241   4.270   5.397 -0.3989  0.4311  0.6651
 4849SOL    HW126009   1.226   4.322   5.318 -0.6211 -0.0462  0.3963
 4849SOL    HW226010   1.164   4.290   5.450 -0.8884 -1.7301  0.7362
 4850SOL     OW26011   3.069   1.048   9.214 -0.9715  0.6865 -0.1670
 4850SOL    HW126012   3.118   1.038   9.132  0.7125 -0.2407  0.9592
 4850SOL    HW226013   3.147   1.046   9.270  0.0762  1.1010 -1.6277
 4851SOL     OW26014   1.024   1.011   0.504  0.0343 -0.7407 -0.6107
 4851SOL    HW126015   1.056   0.949   0.439  0.1944 -0.1952 -1.0506
 4851SOL    HW226016   0.938   0.972   0.523 -0.1852  0.9985  2.0389
 4852SOL     OW26017   1.304   4.228   1.211  0.8816 -0.7725  0.1512
 4852SOL    HW126018   1.291   4.202   1.120 -0.4715  1.0375 -0.1818
 4852SOL    HW226019   1.387   4.275   1.209 -0.0022  0.8671  2.0118
 4853SOL     OW26020   4.609   3.413   5.133 -0.5736  0.1280 -0.3301
 4853SOL    HW126021   4.652   3.495   5.111  1.5388 -1.0278 -0.4532
 4853SOL    HW226022   4.520   3.447   5.146 -0.7868 -0.6891  0.3318
 4854SOL     OW26023   1.587   1.144   3.549  0.2302  0.6614 -0.1169
 4854SOL    HW126024   1.564   1.170   3.639  1.4034  1.1702  0.0412
 4854SOL    HW226025   1.681   1.128   3.561  0.2471  1.7122  1.2010
 4855SOL     OW26026   1.503   1.004  12.294  0.7428 -0.8222  0.6210
 4855SOL    HW126027   1.572   0.989  12.358  1.2281 -0.8336  0.0971
 4855SOL    HW226028   1.544   0.972  12.214  1.5529 -0.6577  0.9703
 4856SOL     OW26029   1.512   2.038  16.737 -0.0225  0.7345 -0.1045
 4856SOL    HW126030   1.495   1.988  16.817 -1.5734  1.0942 -0.2217
 4856SOL    HW226031   1.497   2.128  16.766 -2.0856  0.7619 -1.2868
 4857SOL     OW26032   4.592   0.049  13.479 -0.1230 -0.9843 -0.1435
 4857SOL    HW126033   4.610   0.136  13.515 -0.5837 -1.5271  1.3938
 4857SOL    HW226034   4.541   0.079  13.404  0.7245 -2.1498 -1.1928
 4858SOL     OW26035   0.798   3.236   8.428  0.1217  0.2110 -0.3755
 4858SOL    HW126036   0.738   3.214   8.499 -0.4045 -1.7480 -1.4359
 4858SOL    HW226037   0.876   3.189   8.458  0.0793  0.6024  0.3469
 4859SOL     OW26038   0.645   3.091   9.732  0.2676 -0.9192  0.5361
 4859SOL    HW126039   0.714   3.136   9.781  0.4782 -0.8784  0.1972
 4859SOL    HW226040   0.609   3.030   9.796  1.2814 -0.3881  1.6065
 4860SOL     OW26041   1.983   3.549  14.425 -0.0326  0.7866 -0.1404
 4860SOL    HW126042   2.056   3.585  14.375 -1.5061  1.2368 -1.9613
 4860SOL    HW226043   1.921   3.622  14.422 -2.5238 -1.3336 -0.2214
 4861SOL     OW26044   3.886   4.281  14.158  0.4956 -0.5677 -0.1696
 4861SOL    HW126045   3.852   4.352  14.213  1.3596 -1.3774  1.3978
 4861SOL    HW226046   3.978   4.295  14.179  0.0266  0.4323  1.2463
 4862SOL     OW26047   0.801   2.397   4.893 -0.0811  0.5499  0.2157
 4862SOL    HW126048   0.800   2.304   4.873  0.5657  0.5040  0.3866
 4862SOL    HW226049   0.709   2.420   4.884 -0.3581 -1.0331 -0.9502
 4863SOL     OW26050   3.313   3.808   8.180 -0.0471  0.3396 -0.3260
 4863SOL    HW126051   3.255   3.792   8.254  1.3992 -0.2353  0.6860
 4863SOL    HW226052   3.377   3.856   8.232 -1.3432  3.3095 -1.5089
 4864SOL     OW26053   3.272   0.551   1.453 -0.4089 -0.2543  0.0791
 4864SOL    HW126054   3.313   0.483   1.506 -1.2216 -1.5298 -0.9206
 4864SOL    HW226055   3.350   0.602   1.433  0.8151 -3.0403 -2.0637
 4865SOL     OW26056   0.274   4.455   1.006  0.5541 -0.2272 -0.4674
 4865SOL    HW126057   0.280   4.390   0.936  1.3753  0.1623 -0.7667
 4865SOL    HW226058   0.210   4.510   0.959  0.3277 -0.8418 -0.8776
 4866SOL     OW26059   4.072   0.155   1.625  0.3010 -0.8063 -0.3047
 4866SOL    HW126060   4.043   0.196   1.707 -0.6738 -2.4715  0.1824
 4866SOL    HW226061   3.992   0.171   1.575 -0.1880 -0.7506  0.4852
 4867SOL     OW26062   4.391   4.077  12.505  0.1615  0.0942  0.2204
 4867SOL    HW126063   4.421   4.016  12.571  0.8155 -0.1917 -0.3394
 4867SOL    HW226064   4.465   4.137  12.511 -0.7263  0.9220  2.6732
 4868SOL     OW26065   2.415   3.036  11.039  0.3004  0.0151  0.3125
 4868SOL    HW126066   2.476   3.006  10.971 -1.6545 -1.7668 -0.6635
 4868SOL    HW226067   2.391   3.122  11.003 -1.5816 -0.8158 -0.4238
 4869SOL     OW26068   2.497   2.685   7.398 -0.8662  0.0119 -0.1050
 4869SOL    HW126069   2.457   2.757   7.447  1.8284  1.3703  0.0788
 4869SOL    HW226070   2.464   2.622   7.462  0.9075 -0.7372  0.0816
 4870SOL     OW26071   1.881   3.819   7.215  0.6868  0.1300  0.2207
 4870SOL    HW126072   1.843   3.769   7.288  2.8931  1.9928  2.6384
 4870SOL    HW226073   1.945   3.872   7.262  3.0212 -2.0851 -0.4948
 4871SOL     OW26074   2.460   3.061   0.572  0.4381 -0.9267 -0.7723
 4871SOL    HW126075   2.433   2.969   0.579  0.4115 -1.0583 -2.4393
 4871SOL    HW226076   2.545   3.053   0.616  0.3048  1.2456 -0.1683
 4872SOL     OW26077   4.396   0.949   5.805 -0.2746 -0.5277 -0.2625
 4872SOL    HW126078   4.331   1.020   5.807 -0.4656 -0.7294  0.6641
 4872SOL    HW226079   4.473   0.986   5.848 -1.2100 -0.0255  0.9903
 4873SOL     OW26080   2.937   0.959   6.466  0.0948 -0.0858  0.2183
 4873SOL    HW126081   2.891   1.037   6.496  0.7779  0.5888 -0.4834
 4873SOL    HW226082   2.877   0.938   6.395 -1.1748 -2.1241  1.8787
 4874SOL     OW26083   3.305   2.729   9.112  0.0368 -0.5197 -0.6994
 4874SOL    HW126084   3.319   2.795   9.179 -0.8430 -0.3820 -0.6520
 4874SOL    HW226085   3.322   2.650   9.164  1.8897 -1.1093 -2.1882
 4875SOL     OW26086   3.592   0.101   5.527  0.1014 -0.6343 -0.0707
 4875SOL    HW126087   3.623   0.078   5.439  0.3529  0.8042 -0.3597
 4875SOL    HW226088   3.543   0.181   5.507  1.9282  0.3288 -0.6993
 4876SOL     OW26089   0.836   4.657  16.711  0.4435 -0.7187  0.0228
 4876SOL    HW126090   0.844   4.626  16.802  0.6201 -0.1604  0.2007
 4876SOL    HW226091   0.818   4.573  16.671  2.6472 -0.0654 -2.3360
 4877SOL     OW26092   2.296   0.183  17.657 -0.2518 -0.6596 -0.3197
 4877SOL    HW126093   2.260   0.103  17.619  1.0648 -1.7659  0.7579
 4877SOL    HW226094   2.340   0.221  17.581  0.4354  2.1687  1.4932
 4878SOL     OW26095   2.546   0.513  14.049 -0.1325 -0.1791  0.6934
 4878SOL    HW126096   2.546   0.604  14.079  0.3200 -0.6345  2.0533
 4878SOL    HW226097   2.566   0.533  13.957  0.6869  0.2404  0.9639
 4879SOL     OW26098   4.206   3.128   5.449  0.9279  0.5689  0.6614
 4879SOL    HW126099   4.240   3.047   5.487 -0.3767  0.6137  1.9489
 4879SOL    HW226100   4.274   3.187   5.482  2.7341 -1.9634  1.4417
 4880SOL     OW26101   3.593   1.215   8.072  0.0131  0.1738  0.0588
 4880SOL    HW126102   3.632   1.151   8.131  1.5083  0.6988 -0.3700
 4880SOL    HW226103   3.596   1.293   8.128  0.6448 -0.8473  1.4425
 4881SOL     OW26104   1.193   1.545   7.875  0.1318 -0.4836 -0.0980
 4881SOL    HW126105   1.258   1.492   7.921  2.6681 -0.4536 -3.6326
 4881SOL    HW226106   1.142   1.585   7.945  0.1267  1.6453 -1.3109
 4882SOL     OW26107   3.688   3.069   1.258 -0.1609  0.1179  0.8362
 4882SOL    HW126108   3.639   3.151   1.262  2.5433  1.8587 -1.4644
 4882SOL    HW226109   3.761   3.086   1.198 -1.0108 -0.8302 -0.4593
 4883SOL     OW26110   4.529   4.476   1.498  0.4142  0.3361  0.1162
 4883SOL    HW126111   4.441   4.512   1.510 -0.7989 -2.7158  0.3998
 4883SOL    HW226112   4.579   4.556   1.482  0.6824 -0.4494 -3.0049
 4884SOL     OW26113   3.870   4.566   5.556  0.3509 -0.2724  0.3798
 4884SOL    HW126114   3.789   4.539   5.601  0.4856 -2.4536 -0.6734
 4884SOL    HW226115   3.830   4.596   5.474 -0.4975 -0.7759  0.6061
 4885SOL     OW26116   1.961   4.318   4.587 -0.4307 -0.0611  0.0621
 4885SOL    HW126117   1.911   4.315   4.506  1.1852 -0.0584 -0.9335
 4885SOL    HW226118   1.920   4.242   4.629  0.4521 -0.3899  0.3192
 4886SOL     OW26119   2.193   3.669  14.686  0.3685  0.7362 -0.3131
 4886SOL    HW126120   2.287   3.660  14.672  0.4538  1.2396 -0.0657
 4886SOL    HW226121   2.172   3.756  14.652 -0.6668  1.1518  1.3962
 4887SOL     OW26122   0.159   0.478  13.319  0.2686 -0.4331 -0.5763
 4887SOL    HW126123   0.144   0.413  13.251 -0.9771  1.7983 -2.4206
 4887SOL    HW226124   0.249   0.465  13.348  0.2839 -2.6302 -1.6178
 4888SOL     OW26125   1.751   4.561   5.822  0.2034  0.0395 -1.1464
 4888SOL    HW126126   1.759   4.653   5.845  1.0221 -0.3088 -0.0039
 4888SOL    HW226127   1.803   4.560   5.741  1.3175 -0.2038 -0.4333
 4889SOL     OW26128   1.613   3.487  11.277  0.0711 -0.5458 -0.0180
 4889SOL    HW126129   1.666   3.449  11.208  0.0913 -1.6180  0.5877
 4889SOL    HW226130   1.526   3.466  11.242  0.7064  0.1577 -2.0102
 4890SOL     OW26131   0.560   4.539  11.078 -0.2279 -0.7056 -0.2422
 4890SOL    HW126132   0.608   4.538  11.161  1.0055 -4.0981 -1.0102
 4890SOL    HW226133   0.631   4.579  11.028 -0.4155  1.2288  1.0464
 4891SOL     OW26134   0.646   0.370  11.760 -0.0638  0.1651 -0.1715
 4891SOL    HW126135   0.641   0.311  11.836  0.6151  1.8230  1.1575
 4891SOL    HW226136   0.740   0.386  11.759  0.1658 -1.2038 -0.4200
 4892SOL     OW26137   2.142   2.070   5.922  0.4087  0.1832  0.5343
 4892SOL    HW126138   2.189   2.111   5.995 -0.0244  1.1595  0.2572
 4892SOL    HW226139   2.185   1.986   5.905  0.5966  0.1995  0.9217
 4893SOL     OW26140   2.237   4.687   8.844  0.0442  0.0922 -0.2022
 4893SOL    HW126141   2.311   4.630   8.823 -1.2276 -1.0180 -1.5983
 4893SOL    HW226142   2.278   0.052   8.836 -0.4574  0.2274 -1.2116
 4894SOL     OW26143   3.452   2.388   8.305  0.2560  0.5058 -0.2597
 4894SOL    HW126144   3.514   2.360   8.237 -0.4554  1.4671 -1.3135
 4894SOL    HW226145   3.401   2.307   8.308  1.7928 -0.3489  2.3108
 4895SOL     OW26146   0.690   3.643  10.347  0.0967 -0.1255  0.0061
 4895SOL    HW126147   0.726   3.617  10.262 -0.8335  0.9633 -0.7237
 4895SOL    HW226148   0.747   3.598  10.409  1.0125 -1.2246 -1.6420
 4896SOL     OW26149   3.228   4.702  10.277 -0.2850  0.1277  0.2841
 4896SOL    HW126150   3.308   0.022  10.244  0.6496 -0.7413  1.4834
 4896SOL    HW226151   3.188   4.683  10.192  0.3699  0.0996 -0.0217
 4897SOL     OW26152   0.691   3.134   8.926 -0.1982  0.9384 -0.0934
 4897SOL    HW126153   0.734   3.127   9.011  0.5073 -2.7944 -0.7937
 4897SOL    HW226154   0.756   3.179   8.871 -0.6645  2.1170  0.3102
 4898SOL     OW26155   2.529   3.753   7.778 -0.2752  0.4005  0.1354
 4898SOL    HW126156   2.497   3.682   7.833  2.2682 -1.9067 -1.3269
 4898SOL    HW226157   2.485   3.827   7.820  1.1204  0.5406  1.3500
 4899SOL     OW26158   2.967   0.347   2.411  0.0595 -0.0062  0.6003
 4899SOL    HW126159   3.050   0.395   2.405  0.7698 -1.5338 -1.6654
 4899SOL    HW226160   2.915   0.407   2.465 -0.3326  1.9468 -1.9512
 4900SOL     OW26161   1.725   1.807  16.094  0.1058 -0.4886  0.0550
 4900SOL    HW126162   1.665   1.811  16.020  0.9200 -0.6642 -0.6242
 4900SOL    HW226163   1.743   1.901  16.099 -1.1047 -0.4520  3.2774
 4901SOL     OW26164   3.079   0.915  16.716  0.1950  0.1458  0.3506
 4901SOL    HW126165   3.151   0.976  16.727  0.4306 -0.2716  1.0942
 4901SOL    HW226166   3.015   0.980  16.746 -1.5986 -1.9133  0.9956
 4902SOL     OW26167   3.321   1.257   4.180 -0.6333  0.5754 -0.1420
 4902SOL    HW126168   3.298   1.193   4.248 -0.1738 -2.5018 -2.9196
 4902SOL    HW226169   3.231   1.284   4.161 -0.1920  0.7741 -1.9690
 4903SOL     OW26170   3.908   4.453   3.011  0.0912  0.1029 -0.0951
 4903SOL    HW126171   3.907   4.547   2.995  0.8447  0.4020  1.6821
 4903SOL    HW226172   3.893   4.415   2.924 -0.3485 -0.6480  0.3087
 4904SOL     OW26173   4.484   4.667   4.638  0.4952 -0.1765  0.2557
 4904SOL    HW126174   4.462   4.619   4.559 -2.7619  0.5872  0.6894
 4904SOL    HW226175   4.426   0.022   4.629  4.3839  2.7572 -0.0876
 4905SOL     OW26176   0.147   4.243  16.735  0.3743 -0.7553  0.7437
 4905SOL    HW126177   0.212   4.253  16.805  0.8468 -1.8330  0.4555
 4905SOL    HW226178   0.068   4.233  16.788  1.7111  0.3227  2.9708
 4906SOL     OW26179   2.538   3.885   2.942 -0.1810  0.1808  0.1027
 4906SOL    HW126180   2.553   3.817   2.877  0.8535 -0.6945  1.2449
 4906SOL    HW226181   2.485   3.836   3.005  2.0253  1.2426  2.7979
 4907SOL     OW26182   2.849   0.078   2.528 -0.0965  0.2449  0.0517
 4907SOL    HW126183   2.808   0.162   2.549  1.1814  0.8738  0.0237
 4907SOL    HW226184   2.813   0.060   2.441  0.0736  3.0718 -0.5905
 4908SOL     OW26185   3.641   3.713   2.072  0.3070  0.0894 -0.9243
 4908SOL    HW126186   3.635   3.665   1.990 -3.3283 -2.2817  0.7446
 4908SOL    HW226187   3.701   3.653   2.116 -1.2553 -1.2006 -0.5773
 4909SOL     OW26188   2.468   3.975   7.968  0.5368 -0.1027  0.2793
 4909SOL    HW126189   2.463   3.938   8.056 -4.3362 -0.0373  0.0296
 4909SOL    HW226190   2.537   4.042   7.975 -1.4411  2.3032 -3.2011
 4910SOL     OW26191   2.970   1.941   9.997 -0.3412 -0.2535 -0.2496
 4910SOL    HW126192   3.058   1.918  10.027 -1.0904  0.1508  2.3156
 4910SOL    HW226193   2.919   1.892  10.063  0.8092  0.9795  1.5593
 4911SOL     OW26194   3.145   0.635   2.608 -0.1870  0.8570 -0.0585
 4911SOL    HW126195   3.110   0.711   2.655  0.8386  1.1223  0.2733
 4911SOL    HW226196   3.107   0.565   2.662  1.5552  0.2616  0.3804
 4912SOL     OW26197   1.300   2.007   0.822 -0.0381 -0.0746 -0.7227
 4912SOL    HW126198   1.348   2.043   0.747 -1.2079  2.2534 -0.3537
 4912SOL    HW226199   1.338   2.064   0.888  2.0735 -0.2282 -1.8025
 4913SOL     OW26200   3.176   4.644   9.561 -0.3015  0.3628 -0.1163
 4913SOL    HW126201   3.209   4.654   9.650  0.0392 -0.8642 -0.1100
 4913SOL    HW226202   3.088   4.611   9.577 -0.0080  0.2808  1.3007
 4914SOL     OW26203   3.085   3.091   3.285  0.4316  0.4755 -0.3808
 4914SOL    HW126204   3.108   3.106   3.193  2.7758  0.8089  0.2533
 4914SOL    HW226205   3.169   3.065   3.323  0.1512 -0.5209 -0.4565
 4915SOL     OW26206   1.330   3.092   2.624 -0.0430 -0.1903 -0.3410
 4915SOL    HW126207   1.405   3.151   2.617  0.5888 -1.0014 -0.4451
 4915SOL    HW226208   1.301   3.099   2.533  1.5543  0.8144 -0.7818
 4916SOL     OW26209   0.458   0.180   9.329 -0.3193 -0.1602 -0.3497
 4916SOL    HW126210   0.402   0.248   9.292  1.1828  0.6306 -1.1643
 4916SOL    HW226211   0.431   0.185   9.420  1.3596 -1.3718  0.2296
 4917SOL     OW26212   2.901   1.512   4.928 -0.1199 -0.0188 -0.0053
 4917SOL    HW126213   2.808   1.497   4.943 -0.3178  1.3263  0.1025
 4917SOL    HW226214   2.937   1.488   5.014 -1.5420  1.3177  0.9644
 4918SOL     OW26215   1.718   3.284  11.075  0.1695  0.0314 -0.0130
 4918SOL    HW126216   1.701   3.196  11.041 -1.4390  1.0907 -1.9377
 4918SOL    HW226217   1.799   3.265  11.123  0.2877  1.8328  0.4765
 4919SOL     OW26218   4.544   0.644   1.587  0.4360  0.0446  0.3536
 4919SOL    HW126219   4.604   0.632   1.660  2.2248  1.0403 -0.9458
 4919SOL    HW226220   4.587   0.716   1.539  0.5512 -2.1370 -2.7992
 4920SOL     OW26221   4.509   1.562  15.505 -0.1092  0.5739 -0.0866
 4920SOL    HW126222   4.477   1.545  15.417  1.9781  1.5182 -1.0191
 4920SOL    HW226223   4.454   1.636  15.530  2.1928  2.4390 -0.5601
 4921SOL     OW26224   3.411   1.607   5.736  0.6658 -0.6051 -0.3293
 4921SOL    HW126225   3.483   1.662   5.769  1.3532 -0.6601 -1.6938
 4921SOL    HW226226   3.394   1.643   5.649  1.1980  1.3669  0.3842
 4922SOL     OW26227   3.511   3.570   9.622  0.4070 -0.6883 -0.5910
 4922SOL    HW126228   3.539   3.561   9.531 -0.1378 -1.5462 -0.6686
 4922SOL    HW226229   3.483   3.479   9.629 -0.8887 -0.2638 -0.3115
 4923SOL     OW26230   1.401   1.837  10.103  0.0978 -0.1320  0.4725
 4923SOL    HW126231   1.435   1.923  10.126 -1.0881  0.9690 -1.9420
 4923SOL    HW226232   1.470   1.784  10.144  0.2501  0.0826  0.4946
 4924SOL     OW26233   2.357   4.477   4.567  0.1213  0.9194 -0.3914
 4924SOL    HW126234   2.398   4.390   4.570  1.1773  1.2727 -4.3023
 4924SOL    HW226235   2.425   4.542   4.586 -0.2267  1.4931 -1.1459
 4925SOL     OW26236   1.304   0.259   8.557 -0.4946  0.4515  0.0566
 4925SOL    HW126237   1.392   0.279   8.588 -0.9871  1.3344  0.8761
 4925SOL    HW226238   1.319   0.178   8.509  0.6598 -0.8563  2.6266
 4926SOL     OW26239   1.494   2.812  12.566 -0.1770 -0.0565  0.3146
 4926SOL    HW126240   1.530   2.900  12.579 -0.2771  0.2397 -1.5370
 4926SOL    HW226241   1.491   2.813  12.471  1.1963 -0.3739  0.2752
 4927SOL     OW26242   4.405   4.282   2.794  0.2521  0.0801  0.1491
 4927SOL    HW126243   4.388   4.375   2.814  0.8634  0.2837 -0.2693
 4927SOL    HW226244   4.428   4.272   2.702  3.1884 -3.1273  1.2355
 4928SOL     OW26245   2.238   3.672   2.567 -0.6218  0.3236 -0.4268
 4928SOL    HW126246   2.332   3.683   2.559 -0.5531  0.2490  0.2389
 4928SOL    HW226247   2.212   3.639   2.481  1.1511  2.0686 -1.5950
 4929SOL     OW26248   1.973   1.333   7.173  0.1486  0.3693 -0.3668
 4929SOL    HW126249   2.014   1.260   7.128  3.1674  0.8769  1.5722
 4929SOL    HW226250   2.018   1.410   7.137  0.6250  0.7868  1.1321
 4930SOL     OW26251   3.864   1.493   5.543  0.2039  0.0036  0.3511
 4930SOL    HW126252   3.807   1.445   5.602  0.7982 -2.5161 -1.1483
 4930SOL    HW226253   3.831   1.582   5.531 -2.7831 -1.0945  0.4935
 4931SOL     OW26254   2.382   2.359   4.941  0.2652  0.1807 -0.4494
 4931SOL    HW126255   2.303   2.332   4.988  0.6694  0.3303  0.3109
 4931SOL    HW226256   2.375   2.315   4.856  1.5528 -1.1351  0.1191
 4932SOL     OW26257   3.794   0.423   4.543 -0.1601 -0.3488  0.0705
 4932SOL    HW126258   3.752   0.509   4.539  0.7961 -0.0268 -3.1073
 4932SOL    HW226259   3.882   0.431   4.506 -0.2995  0.0943 -0.1739
 4933SOL     OW26260   2.100   2.245  15.018  0.3474 -0.0511 -0.1577
 4933SOL    HW126261   2.061   2.165  14.982 -1.2979  0.1024  1.3040
 4933SOL    HW226262   2.104   2.304  14.943  0.5684 -0.9916 -0.8846
 4934SOL     OW26263   2.614   2.662   5.633  0.4156 -0.1008 -0.0311
 4934SOL    HW126264   2.644   2.751   5.617 -1.5149  0.7327  0.9079
 4934SOL    HW226265   2.519   2.668   5.624  0.5015  1.0420 -0.1184
 4935SOL     OW26266   1.982   2.666   5.408 -0.3765 -0.1262 -0.0562
 4935SOL    HW126267   1.957   2.684   5.317 -0.2088 -1.4729 -0.3723
 4935SOL    HW226268   1.893   2.645   5.437  0.0260 -0.3446  1.0135
 4936SOL     OW26269   2.769   0.623   1.558  0.2672  0.0915 -0.0352
 4936SOL    HW126270   2.714   0.699   1.575  1.2522  0.4299  1.5850
 4936SOL    HW226271   2.759   0.607   1.464  1.9243  1.5443 -0.4540
 4937SOL     OW26272   3.389   2.765  10.498  0.5346 -0.4294  0.2519
 4937SOL    HW126273   3.314   2.733  10.448  1.0179  2.9109 -2.5361
 4937SOL    HW226274   3.469   2.741  10.451  0.1695 -0.0539 -0.5504
 4938SOL     OW26275   2.682   2.369   4.304 -0.7860 -0.2137 -0.2816
 4938SOL    HW126276   2.764   2.409   4.335  0.7130 -2.7254 -0.9767
 4938SOL    HW226277   2.673   2.416   4.221 -1.3139  0.2157  0.0270
 4939SOL     OW26278   0.954   2.577   8.298 -0.0701  0.3601  0.1810
 4939SOL    HW126279   0.908   2.516   8.240 -0.8677  0.6826  0.4766
 4939SOL    HW226280   0.938   2.659   8.250 -2.2472 -0.9616 -1.3766
 4940SOL     OW26281   3.660   1.213   7.073 -0.0354 -0.2453 -0.3066
 4940SOL    HW126282   3.620   1.188   7.157 -0.3919 -1.2439 -0.7870
 4940SOL    HW226283   3.673   1.124   7.042 -2.6064  0.1503 -2.5144
 4941SOL     OW26284   2.840   3.788  16.499  0.5368  0.2302  0.6414
 4941SOL    HW126285   2.848   3.800  16.594  0.4341 -2.9695  1.0624
 4941SOL    HW226286   2.924   3.751  16.472  1.0571  0.7454  1.5656
 4942SOL     OW26287   2.477   1.842   4.032 -0.0234  0.2026 -0.7035
 4942SOL    HW126288   2.411   1.778   4.004 -2.7067  2.7787 -0.3337
 4942SOL    HW226289   2.433   1.877   4.110  1.2215  1.1683 -0.4379
 4943SOL     OW26290   0.490   4.016   7.651  0.5563  0.1082 -0.1480
 4943SOL    HW126291   0.568   4.072   7.656  0.1683  0.7688 -1.5217
 4943SOL    HW226292   0.525   3.931   7.626  1.4992  0.6415 -0.6299
 4944SOL     OW26293   4.105   3.509  14.187  0.4078 -0.3074 -0.2745
 4944SOL    HW126294   4.068   3.590  14.151 -2.4050  0.1331  3.5796
 4944SOL    HW226295   4.181   3.534  14.241  0.3900 -0.4620 -0.1779
 4945SOL     OW26296   3.418   0.237   3.355 -0.1471 -0.2858 -0.1851
 4945SOL    HW126297   3.466   0.313   3.323  1.9468 -1.3137  0.4923
 4945SOL    HW226298   3.360   0.216   3.282 -0.2210 -3.3251  0.7278
 4946SOL     OW26299   4.653   1.458   9.113 -0.0769  0.4551 -0.4989
 4946SOL    HW126300   4.654   1.519   9.187 -0.0911 -0.7082  0.4721
 4946SOL    HW226301   4.712   1.388   9.142  0.5950  0.3926 -2.0694
 4947SOL     OW26302   0.077   1.385   7.668 -0.4572  0.1009 -0.3938
 4947SOL    HW126303   0.140   1.432   7.722 -2.1449  1.6155  0.2781
 4947SOL    HW226304   0.044   1.459   7.615 -0.4447 -0.6669 -1.4773
 4948SOL     OW26305   2.404   0.615   4.812 -0.1012  0.0567 -0.2647
 4948SOL    HW126306   2.316   0.579   4.820 -0.1211  0.2492  0.3684
 4948SOL    HW226307   2.395   0.696   4.863 -0.0543 -0.7392  1.0030
 4949SOL     OW26308   0.823   1.371   8.333  0.0903 -0.5643  0.4389
 4949SOL    HW126309   0.791   1.357   8.422  1.9127  0.3526  1.2364
 4949SOL    HW226310   0.765   1.444   8.310  0.2858 -0.8253 -0.8690
 4950SOL     OW26311   1.575   0.676   5.614  0.5535 -0.5189 -0.7534
 4950SOL    HW126312   1.523   0.685   5.694  1.0429 -2.5176 -0.2144
 4950SOL    HW226313   1.547   0.591   5.579  0.7485  0.0764 -2.3812
 4951SOL     OW26314   3.073   1.365   7.855  0.2057 -0.5489 -0.0291
 4951SOL    HW126315   3.167   1.354   7.842 -0.0992 -1.7366 -1.1964
 4951SOL    HW226316   3.041   1.280   7.825 -1.7060 -0.3747  1.5013
 4952SOL     OW26317   0.979   3.376   3.394 -0.2658 -0.3609 -0.2976
 4952SOL    HW126318   0.968   3.284   3.369 -2.3121  0.2046 -1.4760
 4952SOL    HW226319   1.023   3.362   3.479  0.0884  1.8620 -0.1319
 4953SOL     OW26320   4.619   3.142   5.035  0.1874 -0.2497  0.0972
 4953SOL    HW126321   4.611   3.234   5.060  0.8737  0.1390 -1.0844
 4953SOL    HW226322   4.687   3.157   4.969  2.5360 -2.0755  2.1138
 4954SOL     OW26323   0.368   0.086   7.188 -0.4042 -0.1207 -0.1937
 4954SOL    HW126324   0.382   0.176   7.215 -0.6918 -0.1225 -0.0441
 4954SOL    HW226325   0.278   0.061   7.208 -0.8551 -0.3798 -2.5388
 4955SOL     OW26326   0.629   1.582   9.263  0.1019  0.4289  0.0958
 4955SOL    HW126327   0.679   1.650   9.219  0.1571 -0.0637 -0.6046
 4955SOL    HW226328   0.540   1.609   9.241 -0.1425  0.7899  1.5267
 4956SOL     OW26329   0.425   1.113   2.695 -0.2283  0.1533 -0.3249
 4956SOL    HW126330   0.484   1.083   2.765 -0.5044  0.1100 -0.1101
 4956SOL    HW226331   0.470   1.105   2.611  0.1741 -1.0339  0.0031
 4957SOL     OW26332   0.711   1.899   1.082 -0.4594  1.0896 -0.3804
 4957SOL    HW126333   0.802   1.909   1.111 -0.3226 -0.2407 -0.3376
 4957SOL    HW226334   0.675   1.880   1.169  1.0513 -0.6893 -0.1550
 4958SOL     OW26335   0.821   2.880   2.404  0.0812 -0.9258  0.1647
 4958SOL    HW126336   0.748   2.938   2.382  1.2649  0.5094  0.0340
 4958SOL    HW226337   0.878   2.947   2.442  0.7657 -0.5339 -1.5848
 4959SOL     OW26338   1.344   1.457  16.638 -0.0561 -0.3015  0.2710
 4959SOL    HW126339   1.339   1.402  16.560 -1.0055  1.7202 -1.1232
 4959SOL    HW226340   1.434   1.433  16.657  0.5370  1.1883 -0.6309
 4960SOL     OW26341   2.870   0.113   2.996  1.1846  0.0695  0.3486
 4960SOL    HW126342   2.953   0.156   3.018  0.6624  1.7586 -0.9617
 4960SOL    HW226343   2.884   0.071   2.911  0.1924  1.1512 -0.3487
 4961SOL     OW26344   4.191   4.034   7.512 -0.3158  0.4977 -0.2772
 4961SOL    HW126345   4.261   4.036   7.446  1.3133 -0.2011  1.4320
 4961SOL    HW226346   4.172   3.940   7.513 -0.0042  0.4312 -0.3655
 4962SOL     OW26347   1.056   0.937   8.662  0.3269  0.1942 -0.2064
 4962SOL    HW126348   0.999   0.985   8.722 -3.5552  1.1973 -4.6809
 4962SOL    HW226349   1.021   0.938   8.572  1.0728 -1.7998 -0.5312
 4963SOL     OW26350   4.466   2.682   7.263 -0.6477 -0.4386  0.0723
 4963SOL    HW126351   4.501   2.745   7.200  0.2887  0.0102  1.0396
 4963SOL    HW226352   4.537   2.674   7.326  0.8103  3.4648 -1.1028
 4964SOL     OW26353   2.744   0.220   5.978 -0.3213 -0.3326 -0.4068
 4964SOL    HW126354   2.779   0.223   6.067 -1.7472 -0.0664  0.1443
 4964SOL    HW226355   2.679   0.151   5.985  0.7616 -1.2531  0.5881
 4965SOL     OW26356   3.797   2.743   8.281 -0.0613  0.9149  0.5298
 4965SOL    HW126357   3.853   2.716   8.354 -0.6032 -0.1914  0.5246
 4965SOL    HW226358   3.830   2.687   8.211 -2.5513 -1.5237  1.3332
 4966SOL     OW26359   3.621   1.954   0.061  0.0671  0.0603 -0.1619
 4966SOL    HW126360   3.708   1.947   0.023  0.2428 -0.2145  0.2928
 4966SOL    HW226361   3.562   1.935  17.675  0.8185  0.6266 -0.8994
 4967SOL     OW26362   4.439   2.794   3.867 -0.1799 -0.9284  0.5542
 4967SOL    HW126363   4.396   2.823   3.787 -0.4342  0.9174  1.3553
 4967SOL    HW226364   4.522   2.758   3.837  0.9407 -0.5745  3.1758
 4968SOL     OW26365   3.841   3.199   8.281 -0.1346  0.2272 -0.0807
 4968SOL    HW126366   3.784   3.136   8.325 -0.1368  0.7438  0.6651
 4968SOL    HW226367   3.779   3.226   8.214 -0.5823 -0.7248 -0.0462
 4969SOL     OW26368   3.272   0.434   8.005 -0.2804  0.2575  0.1233
 4969SOL    HW126369   3.302   0.460   8.092 -1.0416 -0.9773  0.7431
 4969SOL    HW226370   3.180   0.415   8.019  0.3420 -0.5155  3.1345
 4970SOL     OW26371   3.092   2.008   6.005 -0.0752  0.0868  0.4390
 4970SOL    HW126372   3.187   2.021   6.003 -0.2848  1.5615  0.0962
 4970SOL    HW226373   3.082   1.957   6.086  0.7769  0.9802  1.1070
 4971SOL     OW26374   4.701   1.071   2.667  0.4365  0.1510 -0.0799
 4971SOL    HW126375   0.050   1.029   2.617  0.6640 -2.2371  2.2468
 4971SOL    HW226376   0.031   1.118   2.732 -1.0098  2.6580 -0.7592
 4972SOL     OW26377   0.060   4.475   4.409 -0.1736 -0.0804 -0.3524
 4972SOL    HW126378   4.692   4.471   4.441  0.0001 -0.6149  0.0663
 4972SOL    HW226379   0.043   4.533   4.335 -1.2653  0.9736  0.7256
 4973SOL     OW26380   0.534   1.831  10.991 -0.0925 -0.0355  0.2803
 4973SOL    HW126381   0.591   1.902  10.962  0.9790 -0.9926  0.0614
 4973SOL    HW226382   0.517   1.849  11.083 -0.3748  2.2578 -0.2166
 4974SOL     OW26383   1.389   4.159   3.589 -0.0210  0.0344  0.3026
 4974SOL    HW126384   1.347   4.101   3.653 -1.7397  0.2629 -0.6243
 4974SOL    HW226385   1.325   4.160   3.517 -1.1410  0.2980  1.2967
 4975SOL     OW26386   2.970   3.183   4.985 -0.1686  0.2471  0.0287
 4975SOL    HW126387   3.056   3.218   5.009  0.9427 -1.5840 -1.1721
 4975SOL    HW226388   2.993   3.100   4.942  0.6903  0.0014  0.9611
 4976SOL     OW26389   2.582   0.956   3.039 -0.1213 -0.2688  0.0827
 4976SOL    HW126390   2.571   1.035   2.986  2.7022 -0.1984 -0.3961
 4976SOL    HW226391   2.576   0.989   3.129 -1.5065 -3.0301  0.9889
 4977SOL     OW26392   0.240   0.267   3.344 -0.3583  0.2041 -0.5328
 4977SOL    HW126393   0.175   0.213   3.387 -1.0018  1.1368 -0.3377
 4977SOL    HW226394   0.181   0.326   3.298 -0.8696  0.3884  0.3742
 4978SOL     OW26395   2.770   2.222  16.596  0.1641 -0.9380  0.3218
 4978SOL    HW126396   2.720   2.288  16.644  4.1698  0.2969  2.7439
 4978SOL    HW226397   2.754   2.148  16.654 -1.3602 -1.6123 -0.9367
 4979SOL     OW26398   2.690   4.448   8.043  0.3292  0.2324  0.2249
 4979SOL    HW126399   2.611   4.410   8.004 -0.5914  2.0162  0.3603
 4979SOL    HW226400   2.718   4.372   8.093 -0.5134  0.2074  0.6663
 4980SOL     OW26401   0.092   4.527  16.690 -0.3470 -0.1775 -0.6000
 4980SOL    HW126402   0.079   4.435  16.711 -0.1607 -0.4220 -1.5535
 4980SOL    HW226403   0.032   4.569  16.752  0.7309 -1.6238  1.4202
 4981SOL     OW26404   4.119   4.464  14.554 -0.3710 -0.1274  0.6412
 4981SOL    HW126405   4.133   4.427  14.641 -3.6953 -0.2546  1.1324
 4981SOL    HW226406   4.041   4.515  14.577 -1.1654 -1.4286  0.7814
 4982SOL     OW26407   2.513   2.076  17.547 -0.0664  0.2114  0.4636
 4982SOL    HW126408   2.595   2.089  17.594 -1.1369  3.0594  1.5239
 4982SOL    HW226409   2.458   2.035  17.614 -1.6043 -1.2033 -1.6296
 4983SOL     OW26410   3.698   3.924   8.738 -0.2553 -0.3336  0.2313
 4983SOL    HW126411   3.741   3.844   8.706 -1.9069 -1.3201  0.5004
 4983SOL    HW226412   3.774   3.977   8.762 -0.8813  0.6159  0.0929
 4984SOL     OW26413   4.717   1.587   4.956  0.0258 -0.0182  0.1300
 4984SOL    HW126414   0.035   1.529   4.890 -2.2659 -0.1762 -1.0929
 4984SOL    HW226415   0.021   1.668   4.911 -2.2776  0.0753 -1.0041
 4985SOL     OW26416   0.990   0.132   4.942 -0.4762  1.0374  0.1623
 4985SOL    HW126417   1.011   0.105   5.031  0.0642 -1.2423 -0.6596
 4985SOL    HW226418   0.894   0.136   4.950 -0.6667 -4.0090  0.8296
 4986SOL     OW26419   4.515   3.489   3.513  0.0511  0.2301  0.0953
 4986SOL    HW126420   4.543   3.549   3.444  0.4532 -1.1134 -0.9270
 4986SOL    HW226421   4.503   3.550   3.585  0.9429 -0.6459  0.9905
 4987SOL     OW26422   3.396   3.521   8.155  0.1332  0.4463 -0.3673
 4987SOL    HW126423   3.305   3.548   8.164  0.4679  0.7683  2.2528
 4987SOL    HW226424   3.430   3.541   8.243 -1.7806  0.1480  0.4445
 4988SOL     OW26425   0.655   3.080   3.985  0.3598  0.3517  0.2566
 4988SOL    HW126426   0.710   3.059   3.910 -0.1030  1.8686 -0.5153
 4988SOL    HW226427   0.566   3.074   3.949 -0.1807  1.6350  1.3527
 4989SOL     OW26428   4.476   2.434   6.151 -0.1296 -0.4340 -0.8810
 4989SOL    HW126429   4.424   2.467   6.078 -2.2974 -1.2739  0.2799
 4989SOL    HW226430   4.451   2.502   6.214  0.7754 -0.6079 -0.3284
 4990SOL     OW26431   0.761   4.448   7.719  0.0369  0.0280 -0.4253
 4990SOL    HW126432   0.719   4.500   7.787 -0.6618 -1.4527  0.2738
 4990SOL    HW226433   0.697   4.403   7.664  1.8077 -2.5485 -0.3336
 4991SOL     OW26434   0.685   4.486   1.916 -0.1596  0.1983 -0.4460
 4991SOL    HW126435   0.681   4.463   1.823 -1.7294 -2.7005  0.3608
 4991SOL    HW226436   0.667   4.581   1.914 -2.0730 -0.1004  3.0666
 4992SOL     OW26437   2.241   2.923  12.113  0.2354 -0.3105 -0.4733
 4992SOL    HW126438   2.309   2.955  12.171 -0.6564 -0.8328  0.8612
 4992SOL    HW226439   2.163   2.953  12.160 -1.0039 -0.2943 -2.5089
 4993SOL     OW26440   1.311   2.419  12.618 -0.1594  0.5405  0.1964
 4993SOL    HW126441   1.402   2.425  12.586 -0.7039 -0.3713 -1.4989
 4993SOL    HW226442   1.282   2.344  12.566 -0.0873  1.0424 -0.5824
 4994SOL     OW26443   0.764   2.001  10.955  0.5478 -0.0919  0.2558
 4994SOL    HW126444   0.794   1.943  10.886  1.0910 -0.4729  0.8084
 4994SOL    HW226445   0.788   2.088  10.922 -1.4878  0.1982 -0.4331
 4995SOL     OW26446   1.645   2.189  11.106 -0.3653  0.1936 -0.3144
 4995SOL    HW126447   1.615   2.118  11.049 -0.6328 -1.5511  2.0036
 4995SOL    HW226448   1.638   2.253  11.035  1.1355 -1.3246 -1.8662
 4996SOL     OW26449   3.436   1.440   6.210  0.7953  0.1415  0.1559
 4996SOL    HW126450   3.473   1.495   6.141  1.0981 -0.2976 -0.0267
 4996SOL    HW226451   3.342   1.455   6.194  1.5386  1.8390 -2.6495
 4997SOL     OW26452   1.729   1.813  11.249 -0.3318 -0.3785  0.3691
 4997SOL    HW126453   1.817   1.775  11.255  0.4962  1.8388  2.4121
 4997SOL    HW226454   1.713   1.823  11.155 -1.0622 -0.0073  0.5323
 4998SOL     OW26455   1.681   2.160   3.221 -0.2362  0.1667 -0.2194
 4998SOL    HW126456   1.653   2.196   3.136  0.2236  0.6192 -0.1791
 4998SOL    HW226457   1.625   2.082   3.226  0.6447 -0.4134  0.6321
 4999SOL     OW26458   2.525   0.454  12.519  0.1153 -0.6600 -0.1439
 4999SOL    HW126459   2.616   0.473  12.543  0.1709 -1.5094  0.3190
 4999SOL    HW226460   2.527   0.359  12.509  1.4575 -0.1480 -5.1640
 5000SOL     OW26461   4.163   2.612   5.000 -0.1407 -0.2456  0.4199
 5000SOL    HW126462   4.068   2.610   4.984  0.1316  1.1064 -1.4122
 5000SOL    HW226463   4.190   2.698   5.033  1.3688 -0.8221  0.6816
 5001SOL     OW26464   3.715   4.430   5.930 -0.0056 -0.2454  0.7057
 5001SOL    HW126465   3.655   4.362   5.961 -1.1557  1.4474  2.2217
 5001SOL    HW226466   3.733   4.486   6.006  2.4960 -0.2060  0.0784
 5002SOL     OW26467   0.637   2.370  17.474  0.1815 -0.3633 -0.2874
 5002SOL    HW126468   0.552   2.342  17.506 -0.4359  1.4785 -0.3490
 5002SOL    HW226469   0.682   2.377  17.558 -0.5134  0.4668  0.0016
 5003SOL     OW26470   1.139   4.721   7.589  0.1195 -0.4071  0.0842
 5003SOL    HW126471   1.209   0.053   7.626  0.5213 -1.3642  0.7025
 5003SOL    HW226472   1.141   4.655   7.659 -0.1744  0.1390  0.6056
 5004SOL     OW26473   3.124   4.186   2.284  0.0472  0.2231  0.0945
 5004SOL    HW126474   3.111   4.280   2.292  3.1383  0.3367  3.6123
 5004SOL    HW226475   3.126   4.161   2.191  1.0065  0.0548  0.1525
 5005SOL     OW26476   0.883   4.694   1.523  0.6396  0.0554 -0.0236
 5005SOL    HW126477   0.880   0.058   1.481 -2.4638 -0.5998 -1.1005
 5005SOL    HW226478   0.927   4.643   1.455  3.0895  1.1518  0.7421
 5006SOL     OW26479   3.525   3.808   6.631 -0.1145  0.0395 -0.1806
 5006SOL    HW126480   3.457   3.746   6.658 -1.5027  1.6706  0.0719
 5006SOL    HW226481   3.565   3.809   6.719 -1.5787  0.1289  0.4778
 5007SOL     OW26482   0.602   2.867  11.344  0.4833  0.0055 -0.2329
 5007SOL    HW126483   0.623   2.936  11.281 -0.1371 -0.7555 -1.2758
 5007SOL    HW226484   0.660   2.893  11.415  1.4592 -0.6260 -0.7876
 5008SOL     OW26485   3.949   0.906   0.256 -0.1107  0.1861 -0.4043
 5008SOL    HW126486   3.972   0.990   0.298 -0.2962  0.0269  0.0110
 5008SOL    HW226487   3.970   0.846   0.328  2.0044  2.8025  1.1983
 5009SOL     OW26488   0.491   1.873   6.599 -0.3508  0.8199  0.2183
 5009SOL    HW126489   0.401   1.900   6.584 -0.4695  0.2521 -0.0802
 5009SOL    HW226490   0.480   1.778   6.598  1.4633  0.5735  2.3761
 5010SOL     OW26491   2.783   1.984   9.271  0.6385  0.2683 -0.2992
 5010SOL    HW126492   2.815   1.894   9.271  0.1237  0.0803 -1.0971
 5010SOL    HW226493   2.760   1.986   9.178 -1.6952  1.7651  0.2996
 5011SOL     OW26494   0.124   2.141   6.360 -0.2443 -0.2040  0.4626
 5011SOL    HW126495   0.041   2.153   6.315  0.6091  4.5440  0.2013
 5011SOL    HW226496   0.173   2.205   6.308  0.4481 -0.2288  1.0837
 5012SOL     OW26497   1.907   3.377   1.207 -0.1533  0.1398 -0.3592
 5012SOL    HW126498   1.992   3.344   1.177  0.9320  0.2699  2.6311
 5012SOL    HW226499   1.860   3.375   1.124 -0.5267  1.0194 -0.1650
 5013SOL     OW26500   0.182   0.114  17.410 -0.0028 -0.2270 -0.3247
 5013SOL    HW126501   0.158   0.037  17.462  3.1877 -0.7212  0.4645
 5013SOL    HW226502   0.101   0.147  17.373  0.1861 -1.1851 -1.5812
 5014SOL     OW26503   1.978   2.075  11.171  0.4917 -0.1296 -0.3214
 5014SOL    HW126504   2.031   2.095  11.094  0.1106  2.4464  0.0885
 5014SOL    HW226505   2.031   2.012  11.220 -2.6200 -1.8292  0.8282
 5015SOL     OW26506   0.124   4.289   1.538 -0.6220 -0.5482  0.3821
 5015SOL    HW126507   0.119   4.374   1.495 -1.0924 -1.0174 -0.4961
 5015SOL    HW226508   0.055   4.244   1.489  0.6965 -0.8735 -1.1870
 5016SOL     OW26509   2.983   2.856   4.535  0.2748  0.4111  0.2830
 5016SOL    HW126510   2.956   2.927   4.476 -1.5230 -1.1330 -0.7990
 5016SOL    HW226511   2.947   2.884   4.619 -0.2196  3.8310 -1.0734
 5017SOL     OW26512   2.202   3.400   4.987  0.3794 -0.2857 -0.0624
 5017SOL    HW126513   2.114   3.375   5.014  0.3438 -0.7002 -0.5677
 5017SOL    HW226514   2.245   3.433   5.066 -0.0936  1.1724 -0.3994
 5018SOL     OW26515   1.743   1.361  15.655  0.2211 -0.0211  0.6928
 5018SOL    HW126516   1.722   1.268  15.650 -2.0453  0.5751 -0.7685
 5018SOL    HW226517   1.693   1.396  15.581  2.0826 -0.6725 -0.8944
 5019SOL     OW26518   2.775   2.682   4.556 -0.3467 -0.4509 -0.2489
 5019SOL    HW126519   2.845   2.732   4.514  0.4943 -1.1463  0.3441
 5019SOL    HW226520   2.747   2.746   4.622  1.6339 -0.9255  1.0417
 5020SOL     OW26521   2.643   2.647  10.942  0.0231  0.3261  0.0761
 5020SOL    HW126522   2.650   2.605  10.856 -4.0986  1.1936 -0.6972
 5020SOL    HW226523   2.600   2.727  10.913  1.4689  1.1712  0.3111
 5021SOL     OW26524   2.418   2.516  17.651 -0.1844 -0.1799  0.0160
 5021SOL    HW126525   2.362   2.441  17.633  1.4885 -1.5639  0.6515
 5021SOL    HW226526   2.502   2.472  17.653 -0.6466 -1.0120  1.0071
 5022SOL     OW26527   1.558   2.107   2.426 -0.4921  0.5749 -0.2583
 5022SOL    HW126528   1.531   2.196   2.447  1.3079  1.3365 -1.2310
 5022SOL    HW226529   1.580   2.070   2.511  1.4600 -0.9096 -1.4164
 5023SOL     OW26530   1.507   0.168   7.539 -0.1891  0.3888 -0.2652
 5023SOL    HW126531   1.553   0.249   7.514 -0.4075  0.8047  0.6769
 5023SOL    HW226532   1.445   0.205   7.603  2.0023 -1.9141  3.1467
 5024SOL     OW26533   1.677   0.019   7.981 -0.5512 -0.2638 -0.1740
 5024SOL    HW126534   1.677   4.707   8.070  0.2654 -1.8771 -0.7828
 5024SOL    HW226535   1.583   0.017   7.961 -0.6839  0.3232  0.4055
 5025SOL     OW26536   0.195   3.692   8.351 -0.3258 -0.1605  0.2239
 5025SOL    HW126537   0.287   3.667   8.341 -0.7301 -1.5832  0.1556
 5025SOL    HW226538   0.145   3.611   8.353 -0.6217 -0.0059 -0.9041
 5026SOL     OW26539   0.470   0.937   4.653  0.3972 -0.2372 -0.6940
 5026SOL    HW126540   0.443   1.000   4.586 -0.8256 -0.1577 -0.1287
 5026SOL    HW226541   0.520   0.873   4.601 -0.8360 -0.8513 -1.1449
 5027SOL     OW26542   1.694   1.216   0.229  0.3138  0.6805 -0.7186
 5027SOL    HW126543   1.722   1.276   0.298  0.0469 -0.1867  0.1368
 5027SOL    HW226544   1.780   1.195   0.193  1.5446  1.1969  1.9807
 5028SOL     OW26545   4.110   3.872   7.191  0.1955 -0.4253  0.0892
 5028SOL    HW126546   4.075   3.841   7.274  2.7658 -1.0300  0.9286
 5028SOL    HW226547   4.201   3.891   7.213  0.4248  0.3480 -1.5471
 5029SOL     OW26548   3.030   3.656   2.631  0.3165  0.1896  0.6301
 5029SOL    HW126549   2.983   3.639   2.713 -0.0430 -3.5382 -0.3701
 5029SOL    HW226550   3.113   3.611   2.650 -0.0182 -0.6435  0.1040
 5030SOL     OW26551   3.299   4.061   5.223  0.0216 -0.0577  0.2121
 5030SOL    HW126552   3.276   4.112   5.146 -0.2493  0.3549  0.5688
 5030SOL    HW226553   3.246   4.089   5.297 -0.4261  2.8715 -1.2106
 5031SOL     OW26554   0.735   3.530  11.995  0.0646 -0.0968  0.4290
 5031SOL    HW126555   0.657   3.586  11.993  1.1604  1.3356 -2.8125
 5031SOL    HW226556   0.798   3.585  11.949  0.4881 -0.3261  0.7451
 5032SOL     OW26557   1.312   3.838   5.194  0.1593  0.2737  0.6215
 5032SOL    HW126558   1.300   3.831   5.288  0.1602  0.8050  0.6623
 5032SOL    HW226559   1.246   3.782   5.154 -0.1009  1.8106 -1.0852
 5033SOL     OW26560   4.122   2.171   4.720  0.1593 -0.1955  0.2605
 5033SOL    HW126561   4.099   2.175   4.813 -1.8456  2.5519 -0.3416
 5033SOL    HW226562   4.216   2.180   4.738 -0.0197  1.2246  0.5416
 5034SOL     OW26563   3.020   1.660   7.825 -0.0908  0.4124  0.5970
 5034SOL    HW126564   3.016   1.566   7.842  1.1888  0.4053  0.9209
 5034SOL    HW226565   3.113   1.675   7.844 -0.4882 -0.6007  3.3039
 5035SOL     OW26566   1.111   0.292   3.952  0.2352 -0.3123 -0.9468
 5035SOL    HW126567   1.180   0.310   3.889  0.5694  1.8350  0.0369
 5035SOL    HW226568   1.046   0.256   3.891 -0.5202  0.1348 -0.4163
 5036SOL     OW26569   1.858   0.473  12.460  1.0032  0.2536 -0.2975
 5036SOL    HW126570   1.829   0.559  12.491 -1.7174  0.3284 -2.9536
 5036SOL    HW226571   1.871   0.498  12.368  0.4579  0.8099 -0.2292
 5037SOL     OW26572   0.634   0.546   4.992  0.2152  0.4699 -0.0490
 5037SOL    HW126573   0.584   0.537   4.911 -0.5012 -0.8072  0.5293
 5037SOL    HW226574   0.701   0.603   4.955  0.4177  0.7715  0.7765
 5038SOL     OW26575   3.504   2.129   2.341  0.0207  0.1341  0.1234
 5038SOL    HW126576   3.456   2.212   2.340  1.0298  0.7162 -0.0518
 5038SOL    HW226577   3.578   2.166   2.390 -1.7833 -1.5435  4.1579
 5039SOL     OW26578   1.529   0.061   7.052 -0.0077  0.3558  0.1946
 5039SOL    HW126579   1.517   4.692   7.022 -1.9921  0.6710  0.0527
 5039SOL    HW226580   1.471   0.057   7.129 -1.6985  2.5110 -0.9608
 5040SOL     OW26581   2.998   3.978   2.448  0.0685  0.3214  0.4236
 5040SOL    HW126582   2.938   3.990   2.375  0.3674 -1.8524 -0.1646
 5040SOL    HW226583   3.071   4.031   2.415 -0.5150  0.1975 -1.0835
 5041SOL     OW26584   1.219   2.360   3.537  0.0147 -0.2240  0.4062
 5041SOL    HW126585   1.223   2.354   3.441 -2.8425 -0.6072  0.2965
 5041SOL    HW226586   1.158   2.434   3.540 -0.7320 -0.8363  0.5113
 5042SOL     OW26587   2.515   2.941  11.293  0.2099 -0.0915  0.3239
 5042SOL    HW126588   2.582   2.874  11.281  0.4334 -0.0709  1.4213
 5042SOL    HW226589   2.489   2.964  11.204  1.4409  2.4231  0.5961
 5043SOL     OW26590   2.378   3.454  10.391  0.6405  0.2808 -0.1779
 5043SOL    HW126591   2.417   3.536  10.362 -0.3854  1.2216  1.1129
 5043SOL    HW226592   2.286   3.476  10.380  1.0878  1.9223 -0.5589
 5044SOL     OW26593   0.877   3.432   7.074 -0.0960 -0.4002 -0.1521
 5044SOL    HW126594   0.833   3.438   7.159 -2.3623  0.5730 -1.4081
 5044SOL    HW226595   0.809   3.401   7.016  2.2662 -0.9543 -2.6144
 5045SOL     OW26596   1.107   2.253   1.751 -0.3205 -0.1192  0.3931
 5045SOL    HW126597   1.064   2.216   1.828  2.2488 -1.1212  1.3214
 5045SOL    HW226598   1.194   2.215   1.762 -0.3623 -0.8881 -1.9312
 5046SOL     OW26599   0.481   1.663  10.194  0.1053 -0.2136 -0.1488
 5046SOL    HW126600   0.517   1.732  10.138 -0.2181  1.0653  1.2358
 5046SOL    HW226601   0.441   1.596  10.138  1.1578 -0.4577 -0.6122
 5047SOL     OW26602   3.111   4.044   8.505 -0.0548  0.0229 -0.6525
 5047SOL    HW126603   3.135   3.951   8.509 -1.0887 -0.2340 -0.3576
 5047SOL    HW226604   3.148   4.082   8.585  0.7547 -1.5623 -0.2784
 5048SOL     OW26605   0.083   0.207   1.484  0.2978  0.0470  0.6212
 5048SOL    HW126606   0.074   0.295   1.447 -0.7378 -1.1886 -2.0770
 5048SOL    HW226607   0.175   0.215   1.508  0.1355 -0.8697  1.5207
 5049SOL     OW26608   0.788   2.789  17.208 -0.0776  0.6759  0.8517
 5049SOL    HW126609   0.731   2.717  17.181 -1.2055  2.1102 -0.6260
 5049SOL    HW226610   0.757   2.861  17.152 -1.5685 -1.0801 -0.5873
 5050SOL     OW26611   2.067   3.864   2.727  0.1194  0.3877  0.5091
 5050SOL    HW126612   2.115   3.781   2.737  1.0992  1.0287  1.1526
 5050SOL    HW226613   1.977   3.844   2.753  0.2371  0.4845  0.9873
 5051SOL     OW26614   3.281   1.699   7.875 -0.0913  0.1521 -0.4564
 5051SOL    HW126615   3.321   1.726   7.792 -1.3810 -1.9153 -1.7453
 5051SOL    HW226616   3.358   1.684   7.929  0.0625 -0.3632 -0.8139
 5052SOL     OW26617   4.053   3.449   4.917  0.2867  0.3354  0.5959
 5052SOL    HW126618   4.060   3.518   4.851 -2.4156  0.6936  0.6871
 5052SOL    HW226619   4.137   3.404   4.907  0.0335 -0.5651  2.5844
 5053SOL     OW26620   3.654   1.323   5.997 -0.2707 -0.4706 -0.5349
 5053SOL    HW126621   3.731   1.374   6.023 -2.1425  2.0906 -0.0362
 5053SOL    HW226622   3.650   1.262   6.071 -0.1399 -0.7142 -0.7290
 5054SOL     OW26623   3.099   2.435   7.312  0.2741 -0.3758 -0.2512
 5054SOL    HW126624   3.172   2.498   7.318 -0.2314  0.1363  0.4970
 5054SOL    HW226625   3.093   2.412   7.405  2.5405 -0.6640 -0.1563
 5055SOL     OW26626   0.955   0.868  12.751 -0.0329  0.0378  0.0785
 5055SOL    HW126627   0.932   0.936  12.688  0.9337  1.1924  0.9720
 5055SOL    HW226628   0.998   0.808  12.690 -0.5221  0.7220 -0.9276
 5056SOL     OW26629   3.153   3.627   3.834 -0.3121  0.2981 -0.3940
 5056SOL    HW126630   3.154   3.677   3.916 -1.7825  1.3103 -0.9837
 5056SOL    HW226631   3.217   3.668   3.776  0.6709  1.3617  1.4678
 5057SOL     OW26632   1.367   1.713   9.247 -0.4934  0.1280  0.5217
 5057SOL    HW126633   1.298   1.741   9.307 -1.2659 -0.5172 -0.0753
 5057SOL    HW226634   1.420   1.792   9.259 -2.0557  0.9944  1.7699
 5058SOL     OW26635   2.089   1.535   5.710  0.7145  0.3214  0.1279
 5058SOL    HW126636   2.152   1.601   5.680  0.7263  1.5024  2.7276
 5058SOL    HW226637   2.048   1.506   5.629 -1.0370  3.2935 -0.0488
 5059SOL     OW26638   3.098   3.463   3.499 -0.0823 -0.3811  0.4991
 5059SOL    HW126639   3.087   3.454   3.593 -1.0469  0.5311  0.4729
 5059SOL    HW226640   3.012   3.433   3.469  0.2408 -0.9486  0.1451
 5060SOL     OW26641   3.274   2.042   2.781 -0.3036 -0.1296 -0.2909
 5060SOL    HW126642   3.228   2.070   2.861 -1.6608 -1.3941 -0.6243
 5060SOL    HW226643   3.196   2.036   2.726 -0.1658  0.8736 -0.5952
 5061SOL     OW26644   3.097   0.415   2.787 -0.4763  0.0409  0.3390
 5061SOL    HW126645   3.134   0.373   2.864 -1.3201  0.4055  0.9469
 5061SOL    HW226646   3.056   0.338   2.748 -0.2708  0.1734 -0.1448
 5062SOL     OW26647   2.415   1.848  13.535  0.2495 -0.4976 -0.4191
 5062SOL    HW126648   2.447   1.823  13.448  4.7599 -0.7108  1.2641
 5062SOL    HW226649   2.451   1.782  13.594  0.6899 -1.0534 -1.3001
 5063SOL     OW26650   0.235   2.764   6.736  0.1015  0.6644 -0.7544
 5063SOL    HW126651   0.147   2.747   6.770  0.0671  3.1446  0.3470
 5063SOL    HW226652   0.241   2.704   6.661  0.4992 -0.1105 -0.0944
 5064SOL     OW26653   2.455   2.000   6.995 -0.3388  0.3079 -0.2240
 5064SOL    HW126654   2.435   1.918   7.041  1.0939  0.7840  1.2644
 5064SOL    HW226655   2.550   1.993   6.988 -0.3513 -0.4852  0.3757
 5065SOL     OW26656   3.092   2.219  11.815 -0.4687 -0.5458  0.1204
 5065SOL    HW126657   3.051   2.305  11.821 -1.7522 -1.0601 -1.4321
 5065SOL    HW226658   3.133   2.218  11.901  1.7011 -0.5095 -0.8972
 5066SOL     OW26659   2.103   2.589   6.949 -0.0447 -0.3109  0.5458
 5066SOL    HW126660   2.178   2.646   6.967  0.2363 -0.4517 -0.1601
 5066SOL    HW226661   2.030   2.650   6.941  0.3995 -0.2759 -3.1652
 5067SOL     OW26662   2.137   4.131   0.853  0.2738 -0.4181  0.1946
 5067SOL    HW126663   2.054   4.086   0.864 -1.1020  1.2997 -3.0854
 5067SOL    HW226664   2.112   4.186   0.779 -1.6331 -0.0970  1.0937
 5068SOL     OW26665   0.990   3.037   5.812  0.3159  0.2247 -0.3750
 5068SOL    HW126666   1.050   3.085   5.869  1.5593  0.1621 -1.6625
 5068SOL    HW226667   1.031   2.950   5.816  0.3853  0.2280 -1.1160
 5069SOL     OW26668   3.795   3.466   2.763  0.2013 -0.1021 -0.5161
 5069SOL    HW126669   3.713   3.450   2.717  0.7619 -0.3526 -1.4260
 5069SOL    HW226670   3.833   3.543   2.720  1.2318 -0.7184 -0.7119
 5070SOL     OW26671   3.343   0.405  16.785  1.0491 -0.5401  0.2065
 5070SOL    HW126672   3.382   0.491  16.771 -0.9145 -0.1860 -3.1569
 5070SOL    HW226673   3.277   0.409  16.716 -0.0158 -0.1968  1.2379
 5071SOL     OW26674   1.779   1.188   4.496  0.1044 -0.2772  0.4660
 5071SOL    HW126675   1.838   1.168   4.424  0.9331  2.0329  0.5101
 5071SOL    HW226676   1.812   1.274   4.524 -0.7414  0.3272 -0.3783
 5072SOL     OW26677   4.032   3.591  13.556 -0.0478 -0.1939  0.0080
 5072SOL    HW126678   4.022   3.655  13.486  0.6774 -1.7919 -1.5499
 5072SOL    HW226679   4.045   3.514  13.501  0.0678 -0.2179  0.0674
 5073SOL     OW26680   2.480   0.395   2.800 -0.2767  0.3051  0.6663
 5073SOL    HW126681   2.528   0.357   2.874  2.9856  0.3099 -1.4392
 5073SOL    HW226682   2.503   0.488   2.800  1.4765 -0.1452 -3.0011
 5074SOL     OW26683   0.696   2.816   2.930 -0.1354 -0.2246 -0.0300
 5074SOL    HW126684   0.684   2.779   2.842  0.1800 -0.2840 -0.0483
 5074SOL    HW226685   0.727   2.904   2.910  1.3715 -0.8135 -0.2561
 5075SOL     OW26686   3.590   1.146   2.959  0.1662 -0.4823 -0.2918
 5075SOL    HW126687   3.536   1.140   3.039 -0.0405  2.3438 -0.2062
 5075SOL    HW226688   3.552   1.216   2.906  0.9898  0.3384  0.1968
 5076SOL     OW26689   0.563   1.909   9.381 -0.2573  0.1870  0.1766
 5076SOL    HW126690   0.532   1.983   9.432 -1.7049 -1.0422  1.0958
 5076SOL    HW226691   0.659   1.906   9.379 -0.2584  0.2095  0.0823
 5077SOL     OW26692   2.201   0.295   2.364  0.0301 -0.3443  0.1630
 5077SOL    HW126693   2.222   0.308   2.457  2.0865 -1.3072 -0.1862
 5077SOL    HW226694   2.288   0.269   2.335  0.6466 -0.6068  2.2390
 5078SOL     OW26695   4.463   0.701   4.850  0.2671  0.5141  0.1434
 5078SOL    HW126696   4.382   0.652   4.839  1.5300 -1.4618 -0.3952
 5078SOL    HW226697   4.421   0.785   4.871  0.1055  0.6485 -0.7246
 5079SOL     OW26698   4.338   2.174   5.855  0.1702  0.2202 -0.2865
 5079SOL    HW126699   4.264   2.132   5.811  0.9717 -0.1487 -1.2715
 5079SOL    HW226700   4.358   2.112   5.926  0.2519 -0.7293 -1.1422
 5080SOL     OW26701   2.542   1.962   8.219 -0.1217  0.2425 -0.2198
 5080SOL    HW126702   2.635   1.985   8.214 -0.3628  1.6603  2.1844
 5080SOL    HW226703   2.510   2.052   8.231 -1.5176 -0.3139  0.2372
 5081SOL     OW26704   2.874   4.317  16.947  0.2332  0.4119 -0.3532
 5081SOL    HW126705   2.959   4.347  16.982  1.1387  1.2059 -3.2370
 5081SOL    HW226706   2.876   4.335  16.853  1.2474  1.4791 -0.1351
 5082SOL     OW26707   3.480   0.250   5.808 -0.4104 -0.2918  0.7040
 5082SOL    HW126708   3.409   0.213   5.755  0.0840 -0.4221  0.1350
 5082SOL    HW226709   3.468   0.201   5.889  0.9804  1.9415  2.2676
 5083SOL     OW26710   0.431   2.015   8.489 -0.0338 -0.1625 -0.0121
 5083SOL    HW126711   0.458   1.934   8.532 -0.0627  0.3940  1.0547
 5083SOL    HW226712   0.496   2.070   8.532 -1.0975  2.0602 -1.2350
 5084SOL     OW26713   4.407   1.522   5.331  0.3890  0.4645  0.0028
 5084SOL    HW126714   4.457   1.510   5.250  0.2648 -0.3433  0.0407
 5084SOL    HW226715   4.327   1.475   5.309 -0.6673  1.6805  1.2361
 5085SOL     OW26716   3.650   3.945  12.787 -0.6209 -0.1117  0.2060
 5085SOL    HW126717   3.689   3.985  12.709 -1.4093  1.8162  0.7908
 5085SOL    HW226718   3.683   3.855  12.792 -0.4422 -0.0686 -0.2354
 5086SOL     OW26719   3.041   2.824   9.868  0.4479  0.2248 -0.1439
 5086SOL    HW126720   3.039   2.904   9.815  1.4519 -0.4034 -1.1522
 5086SOL    HW226721   3.035   2.752   9.804  1.0209  0.4539 -0.4643
 5087SOL     OW26722   4.563   3.809   4.699  0.1214  0.3228 -0.2707
 5087SOL    HW126723   4.650   3.849   4.691 -0.2967  1.3081  0.0983
 5087SOL    HW226724   4.570   3.756   4.779 -0.8948 -0.2305 -0.5596
 5088SOL     OW26725   1.125   3.021  12.044  0.1341 -0.0868  0.3723
 5088SOL    HW126726   1.065   3.084  12.003  0.0575  0.3258  1.1176
 5088SOL    HW226727   1.187   3.085  12.079  1.2700  0.9945 -3.6160
 5089SOL     OW26728   4.131   2.707   8.321  0.3361  0.1944  0.5340
 5089SOL    HW126729   4.183   2.629   8.302  0.0602  0.2694 -0.4870
 5089SOL    HW226730   4.102   2.698   8.412 -1.5944  1.4738  0.0284
 5090SOL     OW26731   0.628   1.288   9.939 -0.0139 -0.4034 -0.0422
 5090SOL    HW126732   0.608   1.345  10.013 -0.5307 -2.3946  1.3389
 5090SOL    HW226733   0.624   1.202   9.981 -1.8474 -0.5044 -0.4304
 5091SOL     OW26734   4.630   3.326   7.546  0.2118  0.1836  0.2103
 5091SOL    HW126735   4.680   3.273   7.485 -1.4632  0.0957 -1.0818
 5091SOL    HW226736   4.641   3.271   7.624  0.4958 -0.2072 -0.1089
 5092SOL     OW26737   0.095   3.560   8.925 -0.1687  0.0914  0.1784
 5092SOL    HW126738   0.065   3.641   8.966 -0.7729  0.4875 -1.0502
 5092SOL    HW226739   0.159   3.592   8.862  0.1980 -1.6243 -0.3156
 5093SOL     OW26740   4.546   4.066   9.016  0.0005  0.5850 -0.0503
 5093SOL    HW126741   4.523   4.099   9.103 -2.2233 -1.6814  0.2297
 5093SOL    HW226742   4.458   4.060   8.979 -0.5046  2.1388  0.8776
 5094SOL     OW26743   3.889   1.511   7.882  0.3560  0.4753  0.2553
 5094SOL    HW126744   3.924   1.516   7.793  1.3683  1.3858  0.7096
 5094SOL    HW226745   3.947   1.565   7.935 -0.6590  0.2127  1.6324
 5095SOL     OW26746   3.272   2.500   5.574 -0.1163 -0.3010 -0.2341
 5095SOL    HW126747   3.197   2.512   5.516 -1.1449  0.0946  1.1823
 5095SOL    HW226748   3.247   2.411   5.600 -1.7684  0.5585  1.1641
 5096SOL     OW26749   0.575   4.588   8.969 -0.0039 -0.4892 -0.4985
 5096SOL    HW126750   0.633   4.654   8.932 -1.3830  0.7874 -0.3970
 5096SOL    HW226751   0.628   4.516   9.004 -1.2387  0.0092  2.3951
 5097SOL     OW26752   0.447   4.003   2.376 -0.9231 -0.4605 -0.6341
 5097SOL    HW126753   0.397   3.991   2.296 -0.7424  0.6108 -0.9119
 5097SOL    HW226754   0.500   4.080   2.355 -0.7332 -0.1607  0.9467
 5098SOL     OW26755   4.076   4.346   1.740  0.1605  0.2402 -0.6316
 5098SOL    HW126756   4.032   4.410   1.684 -2.4284  0.4619  1.6345
 5098SOL    HW226757   4.157   4.393   1.761 -0.4441  1.6452 -1.4589
 5099SOL     OW26758   4.385   3.554   6.820 -0.5428 -0.5110  0.1748
 5099SOL    HW126759   4.381   3.639   6.778 -0.9382 -0.5264  0.1775
 5099SOL    HW226760   4.398   3.579   6.912 -1.7447 -1.5690  0.6415
 5100SOL     OW26761   4.077   3.936   2.937 -0.0004  0.3927  0.3664
 5100SOL    HW126762   4.099   3.880   2.863  2.3227  0.9647  0.6134
 5100SOL    HW226763   4.166   3.955   2.968  0.5800 -0.5729 -0.7047
 5101SOL     OW26764   1.980   0.945   8.522 -0.7235 -0.1092  0.7188
 5101SOL    HW126765   2.016   0.864   8.556  0.1055 -0.6774 -1.4896
 5101SOL    HW226766   2.028   1.005   8.580 -1.3735  0.1230  1.0118
 5102SOL     OW26767   0.640   3.447   6.869  0.0942 -0.6734 -0.8711
 5102SOL    HW126768   0.583   3.517   6.900 -0.1109 -1.8718  1.4631
 5102SOL    HW226769   0.574   3.394   6.823 -2.4230  2.6205 -1.0517
 5103SOL     OW26770   3.224   1.885  10.116 -0.0580  0.0516  0.6739
 5103SOL    HW126771   3.254   1.794  10.118  1.6106  0.5688 -0.5906
 5103SOL    HW226772   3.309   1.927  10.123  0.0689 -0.1491  0.3507
 5104SOL     OW26773   0.556   2.157  12.646 -0.2339 -0.7699 -0.0430
 5104SOL    HW126774   0.622   2.172  12.577 -0.7000  1.7143  0.0528
 5104SOL    HW226775   0.493   2.226  12.625  1.1397  1.0074  1.6999
 5105SOL     OW26776   2.398   1.104   6.974 -0.2614 -0.1266  0.1044
 5105SOL    HW126777   2.403   1.035   6.908 -0.5851  0.3204 -0.4029
 5105SOL    HW226778   2.457   1.062   7.036 -0.1360  0.3167  0.2859
 5106SOL     OW26779   3.529   0.145   0.611  0.0122 -0.0749 -0.1317
 5106SOL    HW126780   3.458   0.117   0.553 -0.8410 -0.5123  1.1310
 5106SOL    HW226781   3.496   0.224   0.652  0.2833  0.3054 -0.6355
 5107SOL     OW26782   4.457   0.928   7.210  0.0955  0.2738  0.4258
 5107SOL    HW126783   4.374   0.893   7.242 -0.1402  0.8017  0.3862
 5107SOL    HW226784   4.504   0.845   7.199  0.6006  0.2144  3.0339
 5108SOL     OW26785   2.280   0.176  16.946  0.1058  0.0415 -0.0178
 5108SOL    HW126786   2.334   0.160  16.869 -0.9298 -0.6722 -0.6025
 5108SOL    HW226787   2.206   0.125  16.912  1.1890 -0.5120 -1.5397
 5109SOL     OW26788   3.985   0.603   8.383 -0.5540 -0.1790  0.0310
 5109SOL    HW126789   4.068   0.567   8.413 -0.4368 -1.0889 -1.4127
 5109SOL    HW226790   3.950   0.558   8.306  0.1163  1.3230 -1.1680
 5110SOL     OW26791   2.716   4.177   2.474 -0.3234 -0.6128  0.0867
 5110SOL    HW126792   2.736   4.114   2.404  0.6644  1.9414 -1.9610
 5110SOL    HW226793   2.732   4.134   2.558 -0.2316  0.9074  0.8343
 5111SOL     OW26794   3.480   3.929   4.876  0.5898  0.0825  0.1050
 5111SOL    HW126795   3.399   3.880   4.887 -0.3979  1.9339  0.9857
 5111SOL    HW226796   3.460   4.015   4.839  2.1054  0.9631  1.3409
 5112SOL     OW26797   3.724   4.352   3.200  0.4856  0.0708  0.0743
 5112SOL    HW126798   3.787   4.375   3.131  0.6430  1.2555  0.5945
 5112SOL    HW226799   3.643   4.401   3.184  0.3019 -0.0402  0.6791
 5113SOL     OW26800   1.880   0.660   1.051  0.0606 -0.4219 -0.1429
 5113SOL    HW126801   1.844   0.715   0.982  0.8602  0.9123  0.5080
 5113SOL    HW226802   1.939   0.721   1.095  0.5810 -0.2791 -1.0560
 5114SOL     OW26803   0.062   0.130   5.174  0.1415 -0.2887 -0.9072
 5114SOL    HW126804   0.106   0.193   5.116 -0.3241  0.1117 -0.8247
 5114SOL    HW226805   0.110   0.052   5.147 -0.8733 -1.5975  1.0761
 5115SOL     OW26806   0.041   1.720   5.876 -0.2096  0.4215 -0.3501
 5115SOL    HW126807   0.067   1.780   5.946  0.8737  1.3370 -1.5396
 5115SOL    HW226808   4.717   1.782   5.819  1.7901 -0.3882 -2.8180
 5116SOL     OW26809   3.083   4.503   8.483  0.0463 -0.7699 -0.1308
 5116SOL    HW126810   3.038   4.465   8.558  0.8753  0.7994  1.1487
 5116SOL    HW226811   3.138   4.574   8.515  1.0833 -1.3255 -0.6737
 5117SOL     OW26812   0.034   4.288   8.280  0.0147 -0.1402  0.7684
 5117SOL    HW126813   4.699   4.334   8.342 -1.2581  0.9085 -1.1709
 5117SOL    HW226814   0.107   4.261   8.337  0.4161  3.7750  2.0797
 5118SOL     OW26815   2.203   3.626   7.916 -0.2141 -0.4275 -0.0359
 5118SOL    HW126816   2.174   3.715   7.897  0.3026  0.2257  2.1795
 5118SOL    HW226817   2.139   3.611   7.986  2.0238 -0.6955  1.9425
 5119SOL     OW26818   0.164   2.142   2.811  0.2057 -0.7759 -0.5447
 5119SOL    HW126819   0.137   2.084   2.740  0.0924  1.2298 -2.1503
 5119SOL    HW226820   0.077   2.165   2.844 -0.7999 -1.9946 -2.3266
 5120SOL     OW26821   0.217   3.132  13.219 -0.4726 -0.4084  0.1208
 5120SOL    HW126822   0.202   3.167  13.307  0.2562  0.0136  0.0690
 5120SOL    HW226823   0.295   3.180  13.192 -0.9529  0.8096  0.9079
 5121SOL     OW26824   4.476   1.175   2.612 -0.0690  0.2055 -0.1518
 5121SOL    HW126825   4.502   1.263   2.638 -1.8797  1.6481 -3.2635
 5121SOL    HW226826   4.559   1.133   2.638 -1.2149 -1.5646  0.6801
 5122SOL     OW26827   1.014   4.147   6.337  0.3764 -0.2766  0.0283
 5122SOL    HW126828   0.945   4.197   6.295 -1.1054 -0.6874  1.9919
 5122SOL    HW226829   1.076   4.220   6.339  0.2610 -0.2106  1.1386
 5123SOL     OW26830   0.088   0.023   7.369 -0.2518 -0.3430  0.1918
 5123SOL    HW126831   4.720   4.710   7.369 -1.3132  2.3817  0.9616
 5123SOL    HW226832   0.094   0.048   7.276 -2.1380 -0.6794 -0.0167
 5124SOL     OW26833   0.044   1.515   6.586  0.1481  0.1846  0.0673
 5124SOL    HW126834   0.030   1.420   6.579 -0.9263  0.2427  1.3553
 5124SOL    HW226835   0.089   1.529   6.503  1.1734 -0.9920  0.4150
 5125SOL     OW26836   1.796   3.291   0.516 -0.0131  0.6588  0.1376
 5125SOL    HW126837   1.844   3.374   0.517  0.3301  0.4756 -1.3424
 5125SOL    HW226838   1.868   3.230   0.534 -0.2093 -0.1067 -1.6615
 5126SOL     OW26839   0.606   4.501  12.279 -0.4664  0.1700  0.3309
 5126SOL    HW126840   0.568   4.472  12.362 -2.3292 -0.5781 -0.7754
 5126SOL    HW226841   0.662   4.575  12.301 -2.0637  1.3150  0.5039
 5127SOL     OW26842   4.341   0.612   1.151  0.1379 -0.3397 -0.2483
 5127SOL    HW126843   4.294   0.643   1.229  1.0381  2.2296 -0.7108
 5127SOL    HW226844   4.410   0.558   1.190  0.2216 -1.0070 -1.3228
 5128SOL     OW26845   2.116   4.311   2.230 -0.4744  0.0487  0.3142
 5128SOL    HW126846   2.148   4.233   2.276  1.5198  0.3067 -0.6062
 5128SOL    HW226847   2.197   4.362   2.231 -1.6229  1.8805 -0.4406
 5129SOL     OW26848   1.270   0.552   5.438  0.0794  0.0358 -0.2763
 5129SOL    HW126849   1.209   0.578   5.506  0.2151 -2.0467  0.6598
 5129SOL    HW226850   1.213   0.531   5.364 -1.3233 -1.4413  1.2226
 5130SOL     OW26851   3.016   3.657   1.040 -0.0829 -0.0031  0.7030
 5130SOL    HW126852   2.979   3.723   0.982 -1.8492 -0.9827  0.7092
 5130SOL    HW226853   3.083   3.605   0.995 -0.7806 -0.4732  0.2063
 5131SOL     OW26854   2.214   0.519   5.758  0.2727 -0.1669  0.4393
 5131SOL    HW126855   2.129   0.564   5.747  0.9354  0.7395 -1.0351
 5131SOL    HW226856   2.207   0.450   5.691 -1.1876 -0.6820  1.1182
 5132SOL     OW26857   1.062   2.780   0.880 -0.1711 -0.9079  0.1169
 5132SOL    HW126858   0.978   2.828   0.880 -0.0149 -0.6362 -2.0425
 5132SOL    HW226859   1.054   2.727   0.801 -0.8563 -0.0245 -0.4125
 5133SOL     OW26860   0.174   1.204   7.227 -0.5663  0.0841 -0.9240
 5133SOL    HW126861   0.187   1.224   7.319 -3.1736  0.7708 -0.7063
 5133SOL    HW226862   0.114   1.130   7.229  0.7963 -0.8781  3.1613
 5134SOL     OW26863   4.304   3.920   1.460  0.1751 -0.0293 -0.2511
 5134SOL    HW126864   4.283   3.999   1.510  0.9029 -0.4699  0.7703
 5134SOL    HW226865   4.345   3.873   1.533  0.5141 -0.0294 -0.4419
 5135SOL     OW26866   3.717   0.715  14.139 -0.2962 -0.3140 -0.6331
 5135SOL    HW126867   3.710   0.801  14.096  2.1593 -0.4957 -1.4008
 5135SOL    HW226868   3.646   0.721  14.204  0.2972  0.6819 -0.0663
 5136SOL     OW26869   0.157   2.181   3.607 -0.2289 -0.1412  0.1246
 5136SOL    HW126870   0.208   2.102   3.625 -0.6365 -0.3919  0.1751
 5136SOL    HW226871   0.083   2.125   3.586 -0.9982  0.1487  2.0641
 5137SOL     OW26872   0.286   0.813  12.313 -0.1579  0.2545  0.0673
 5137SOL    HW126873   0.295   0.726  12.275  0.9195  0.4234 -0.0565
 5137SOL    HW226874   0.211   0.842  12.262 -0.6114  1.7931  1.5978
 5138SOL     OW26875   0.965   4.406   5.456 -0.5958  0.1723  0.0775
 5138SOL    HW126876   0.927   4.459   5.526 -0.2212 -1.0072  1.1730
 5138SOL    HW226877   0.886   4.362   5.424  0.4464  1.0365 -3.7114
 5139SOL     OW26878   2.432   3.413   6.019 -0.9591 -0.2294 -0.0010
 5139SOL    HW126879   2.347   3.420   6.063 -0.5739  0.9558  0.5369
 5139SOL    HW226880   2.481   3.357   6.079 -1.4845  1.0317  1.6016
 5140SOL     OW26881   0.707   2.021   2.297  0.4692  0.2517  0.2947
 5140SOL    HW126882   0.703   1.930   2.326  0.0330  0.6650  1.5103
 5140SOL    HW226883   0.788   2.034   2.248  0.1911 -0.9146 -0.4888
 5141SOL     OW26884   3.573   1.959   6.201  0.0175 -0.4838 -0.2713
 5141SOL    HW126885   3.636   2.018   6.158 -0.7741  0.3749 -0.2413
 5141SOL    HW226886   3.544   2.020   6.269 -4.2361 -2.8203 -0.0373
 5142SOL     OW26887   0.597   4.385  12.515  0.1502 -0.3710 -0.5213
 5142SOL    HW126888   0.653   4.405  12.590  1.0855 -1.0203 -1.0543
 5142SOL    HW226889   0.539   4.318  12.552  2.0113 -1.0930  1.0552
 5143SOL     OW26890   2.695   0.856   3.499 -0.4552  0.3395  0.1230
 5143SOL    HW126891   2.709   0.937   3.550 -2.2936  1.6102 -1.3813
 5143SOL    HW226892   2.602   0.859   3.474 -0.5867 -0.3655  0.5383
 5144SOL     OW26893   0.396   2.181  13.593  0.0027 -0.3834 -0.6734
 5144SOL    HW126894   0.311   2.196  13.634 -0.0786 -0.1985 -0.9119
 5144SOL    HW226895   0.424   2.271  13.580 -0.4282  0.0227  1.1426
 5145SOL     OW26896   0.600   0.596   2.592 -0.6028  0.7672  0.0083
 5145SOL    HW126897   0.547   0.636   2.660 -2.0346  2.5223 -2.1474
 5145SOL    HW226898   0.525   0.569   2.539 -0.3436  0.6554 -0.3068
 5146SOL     OW26899   4.107   4.568   3.322 -0.1259  0.5289  0.5789
 5146SOL    HW126900   4.020   4.553   3.358 -1.2556  0.7979 -2.0484
 5146SOL    HW226901   4.085   4.622   3.246  3.6684  4.1128  1.9938
 5147SOL     OW26902   1.224   1.040  12.283  0.2812  0.4552 -0.2034
 5147SOL    HW126903   1.316   1.011  12.285  0.1853 -0.0725 -2.4034
 5147SOL    HW226904   1.182   0.972  12.229  1.6186 -1.6882  1.4380
 5148SOL     OW26905   0.573   4.020  17.212 -0.2496 -0.3821  0.4416
 5148SOL    HW126906   0.609   3.990  17.295  1.0952  0.2739  0.0841
 5148SOL    HW226907   0.539   3.936  17.182  3.1974 -0.5289 -2.9860
 5149SOL     OW26908   3.944   0.665   4.338 -0.0716 -0.0165 -0.2485
 5149SOL    HW126909   3.983   0.577   4.338 -0.1397 -0.0467 -0.1761
 5149SOL    HW226910   3.851   0.652   4.355  0.4376 -2.1824  0.8942
 5150SOL     OW26911   0.821   3.580   6.734  0.0274 -0.0533 -0.2955
 5150SOL    HW126912   0.770   3.521   6.790  0.8285 -0.2827  0.1848
 5150SOL    HW226913   0.877   3.615   6.803 -2.7570 -0.3004  2.0824
 5151SOL     OW26914   3.017   3.549   9.821 -0.1035  0.4090  0.2708
 5151SOL    HW126915   3.005   3.644   9.832 -1.2421 -0.0695  3.1778
 5151SOL    HW226916   3.105   3.553   9.857  0.1425  0.2903 -0.3221
 5152SOL     OW26917   1.603   4.267   6.824  0.4725  0.2822 -0.0336
 5152SOL    HW126918   1.565   4.351   6.798 -0.4611  0.2576  1.2461
 5152SOL    HW226919   1.662   4.252   6.751  2.1254 -0.2065  1.4219
 5153SOL     OW26920   1.875   0.568   6.738 -0.3973 -0.3519  0.5151
 5153SOL    HW126921   1.779   0.558   6.736 -0.6403  2.0116 -0.0752
 5153SOL    HW226922   1.909   0.483   6.765  0.6563  0.2002  0.9194
 5154SOL     OW26923   2.836   1.449  12.616 -0.6174  0.3417  0.0825
 5154SOL    HW126924   2.766   1.387  12.641  1.6442 -2.0482  0.5210
 5154SOL    HW226925   2.895   1.445  12.691 -0.0220 -0.6024 -0.4369
 5155SOL     OW26926   3.697   4.647  17.107  0.6243  0.1166 -0.5604
 5155SOL    HW126927   3.636   4.672  17.037  0.4796  0.4592 -0.3080
 5155SOL    HW226928   3.654   4.563  17.124  0.7519  0.0855 -0.3948
 5156SOL     OW26929   2.331   1.454   4.547 -0.8470  0.4272 -0.1697
 5156SOL    HW126930   2.302   1.528   4.600 -2.4456 -1.0709  1.0849
 5156SOL    HW226931   2.274   1.454   4.469  0.3839  1.9112 -1.0632
 5157SOL     OW26932   1.215   3.247   5.220  0.5772 -0.4454 -0.2791
 5157SOL    HW126933   1.308   3.253   5.199  1.3267 -1.8635  2.5932
 5157SOL    HW226934   1.203   3.156   5.246  0.9772  0.1887  2.1158
 5158SOL     OW26935   2.796   1.537   2.357 -0.4585 -0.1638  0.4287
 5158SOL    HW126936   2.788   1.619   2.308  1.0234  0.3770  1.0794
 5158SOL    HW226937   2.751   1.484   2.291  0.2840  0.4906 -0.6040
 5159SOL     OW26938   2.358   2.753  15.540  0.6911 -0.9569  0.2080
 5159SOL    HW126939   2.412   2.822  15.499  1.4581 -1.6491  0.0526
 5159SOL    HW226940   2.275   2.772  15.496  1.3364 -0.7584 -0.9249
 5160SOL     OW26941   2.414   0.674   2.515  1.0721  0.1269 -0.4624
 5160SOL    HW126942   2.454   0.681   2.602 -2.6060  0.7943  1.2147
 5160SOL    HW226943   2.323   0.702   2.528  1.3713  1.0218 -0.2783
 5161SOL     OW26944   3.640   0.586   5.899  0.4108 -0.7733 -0.2213
 5161SOL    HW126945   3.550   0.561   5.880  0.2901  1.6386 -2.8175
 5161SOL    HW226946   3.643   0.591   5.995  3.3828 -1.4085 -0.2565
 5162SOL     OW26947   0.425   2.849   9.305  0.1741 -0.5091  0.3194
 5162SOL    HW126948   0.402   2.927   9.354 -0.1938 -0.8398  0.6682
 5162SOL    HW226949   0.518   2.866   9.291 -0.2811  1.4913 -0.1933
 5163SOL     OW26950   1.299   1.598   3.895 -0.7260  0.0682 -0.1639
 5163SOL    HW126951   1.332   1.622   3.982  0.3315  1.1745 -0.8776
 5163SOL    HW226952   1.212   1.638   3.894 -0.9373 -0.3396  0.9089
 5164SOL     OW26953   1.406   0.989  10.967  0.2305 -0.3862 -0.1272
 5164SOL    HW126954   1.355   1.038  10.903  2.4735 -0.0268 -1.6536
 5164SOL    HW226955   1.365   0.905  10.947 -0.1453 -0.0029 -0.9918
 5165SOL     OW26956   1.688   3.320   6.750  0.3685  0.2830 -0.2129
 5165SOL    HW126957   1.737   3.401   6.736  0.5059  0.6306  2.2635
 5165SOL    HW226958   1.642   3.355   6.826  1.1052  1.5510 -0.3491
 5166SOL     OW26959   3.128   4.065   6.624 -0.1529 -0.5128 -0.2604
 5166SOL    HW126960   3.221   4.088   6.619 -1.1041  3.4083 -0.1878
 5166SOL    HW226961   3.110   4.025   6.539  2.0227 -1.3035 -0.3416
 5167SOL     OW26962   1.958   1.817  10.011 -0.2149 -0.3269  0.1413
 5167SOL    HW126963   2.013   1.758   9.959  0.1015 -1.1021  1.3507
 5167SOL    HW226964   1.885   1.759  10.033  0.3810 -0.9253  0.5353
 5168SOL     OW26965   3.058   3.214   4.075  0.5798 -0.2115  0.3791
 5168SOL    HW126966   2.981   3.220   4.131 -0.5643  1.1541 -1.3114
 5168SOL    HW226967   3.063   3.296   4.024  0.8297 -0.1708  0.4675
 5169SOL     OW26968   4.401   2.449   5.444  0.0589 -0.8188 -0.2987
 5169SOL    HW126969   4.424   2.448   5.537  2.0493 -1.0047 -0.8134
 5169SOL    HW226970   4.308   2.462   5.466  0.2629 -0.1818  0.1749
 5170SOL     OW26971   0.672   2.774   4.276 -0.7112  0.7105 -0.0433
 5170SOL    HW126972   0.656   2.868   4.274 -2.6233  0.4167  1.0963
 5170SOL    HW226973   0.585   2.739   4.297 -0.9880  0.3996 -1.7136
 5171SOL     OW26974   1.383   2.283   5.775  0.2076  0.5578 -0.1551
 5171SOL    HW126975   1.370   2.205   5.829  1.9451 -0.2365 -0.8869
 5171SOL    HW226976   1.409   2.250   5.689  2.8978  1.9615  0.1089
 5172SOL     OW26977   2.962   4.511  15.644 -0.2342  0.2266  0.0449
 5172SOL    HW126978   2.998   4.452  15.578  1.0155  1.0862 -0.0318
 5172SOL    HW226979   2.949   4.590  15.592  1.5803  1.1600  0.9964
 5173SOL     OW26980   2.579   1.560  12.574 -0.8825 -0.3819  0.1105
 5173SOL    HW126981   2.549   1.492  12.635 -1.3652  1.4508  1.9335
 5173SOL    HW226982   2.668   1.527  12.560 -0.8626 -0.1921 -0.1864
 5174SOL     OW26983   2.483   2.397   3.764  0.1173  0.0062 -0.3619
 5174SOL    HW126984   2.485   2.406   3.669 -0.2783  0.8392 -0.2979
 5174SOL    HW226985   2.523   2.483   3.778  1.5093 -0.8960  1.1849
 5175SOL     OW26986   0.170   2.415  13.487  0.0277 -0.0811 -0.4249
 5175SOL    HW126987   0.139   2.334  13.528 -0.5776  0.2494 -0.2404
 5175SOL    HW226988   0.176   2.469  13.565 -2.4268 -0.4013 -0.0236
 5176SOL     OW26989   4.636   0.854   4.424 -0.2973  0.0917 -0.7722
 5176SOL    HW126990   4.704   0.850   4.356  0.5151  0.7764  0.0016
 5176SOL    HW226991   4.667   0.791   4.488 -1.6619  0.4251  0.2154
 5177SOL     OW26992   0.568   1.822   8.604  0.4880 -0.0658 -0.1566
 5177SOL    HW126993   0.507   1.800   8.674 -0.6032 -1.7685 -1.6690
 5177SOL    HW226994   0.641   1.865   8.649  0.8597 -0.4906 -0.3496
 5178SOL     OW26995   1.305   1.887   8.560  0.0672  0.4981  0.0666
 5178SOL    HW126996   1.315   1.806   8.610 -0.5371 -1.2113 -2.6096
 5178SOL    HW226997   1.318   1.951   8.629  2.1207  1.6414 -1.3607
 5179SOL     OW26998   2.962   0.866   5.460 -0.3451  0.0259  0.4986
 5179SOL    HW126999   2.897   0.834   5.523 -1.0506 -1.5190 -1.0207
 5179SOL    HW227000   2.919   0.941   5.419 -2.9636 -1.0391  1.2984
 5180SOL     OW27001   1.916   2.430   4.362  0.2386 -0.0963 -0.3966
 5180SOL    HW127002   1.933   2.524   4.366  1.1160 -0.3264  1.1171
 5180SOL    HW227003   2.007   2.404   4.352 -0.1345 -1.2315 -0.8764
 5181SOL     OW27004   3.710   2.481   8.940  0.2430  0.1027 -0.1078
 5181SOL    HW127005   3.700   2.411   8.876 -1.2476 -1.2277  1.5777
 5181SOL    HW227006   3.675   2.550   8.884  0.8040  0.9936  0.6436
 5182SOL     OW27007   3.780   4.386  14.880  0.4511 -0.6784  0.2251
 5182SOL    HW127008   3.744   4.364  14.966 -1.1689 -0.5458 -0.4185
 5182SOL    HW227009   3.709   4.364  14.820 -0.5004 -1.0050  1.4728
 5183SOL     OW27010   0.916   4.288  12.590 -0.3115  0.7045  0.0134
 5183SOL    HW127011   0.883   4.198  12.581 -0.4525  0.7450  0.1252
 5183SOL    HW227012   0.965   4.280  12.672 -1.0109 -1.2011  0.2518
 5184SOL     OW27013   3.020   1.503  13.933 -0.1623 -0.4242  0.1872
 5184SOL    HW127014   2.966   1.427  13.911 -0.0669 -0.1365 -1.0226
 5184SOL    HW227015   2.986   1.517  14.021 -2.0074 -1.8451 -0.3001
 5185SOL     OW27016   2.373   1.624  16.062  0.1251  0.0561  0.4068
 5185SOL    HW127017   2.308   1.561  16.093  2.1308 -0.4731  3.5543
 5185SOL    HW227018   2.375   1.599  15.970 -0.9546  0.5462  0.2546
 5186SOL     OW27019   0.741   3.733  16.682  0.4301  0.0829 -0.5145
 5186SOL    HW127020   0.832   3.726  16.708  0.1664  1.9354  0.8990
 5186SOL    HW227021   0.738   3.686  16.598 -0.8967  3.8945 -2.6025
 5187SOL     OW27022   2.959   2.208   5.406  0.1327 -0.1563  0.4265
 5187SOL    HW127023   2.867   2.218   5.430  0.0840 -0.9645  0.5740
 5187SOL    HW227024   2.967   2.114   5.391  0.9930  0.1345 -0.8759
 5188SOL     OW27025   4.720   2.249  15.264  0.5396  0.3887 -0.2948
 5188SOL    HW127026   0.022   2.254  15.172  0.4108 -2.0220 -0.4583
 5188SOL    HW227027   4.649   2.184  15.265  0.5079  0.4245 -0.2344
 5189SOL     OW27028   1.871   2.478   9.738  0.0507  0.3475 -0.2149
 5189SOL    HW127029   1.787   2.445   9.706 -1.9400  1.9907  3.2734
 5189SOL    HW227030   1.894   2.402   9.792  1.1603 -0.7488 -2.2555
 5190SOL     OW27031   3.629   1.320   3.458  0.3842  0.0591 -0.3116
 5190SOL    HW127032   3.594   1.236   3.429 -0.3481  0.3331 -0.2343
 5190SOL    HW227033   3.547   1.370   3.458 -0.2906 -1.0458 -1.0030
 5191SOL     OW27034   1.715   1.233  16.063 -0.4135  0.4820 -0.7183
 5191SOL    HW127035   1.769   1.156  16.043 -1.0043  0.2506 -1.4436
 5191SOL    HW227036   1.782   1.300  16.054 -1.5089  1.4664 -1.5391
 5192SOL     OW27037   3.865   4.688   6.843 -0.2730 -0.0079  0.0616
 5192SOL    HW127038   3.829   4.637   6.771 -1.1987 -0.1240  0.6078
 5192SOL    HW227039   3.950   4.713   6.805 -0.4505 -1.0252 -1.0046
 5193SOL     OW27040   1.797   4.446  14.076 -1.1847 -0.2981 -0.3851
 5193SOL    HW127041   1.729   4.392  14.117 -1.2675  0.5300  0.5452
 5193SOL    HW227042   1.774   4.528  14.118  2.1601  0.1721  0.5022
 5194SOL     OW27043   1.394   0.512   4.970 -0.2082 -0.0630  0.1253
 5194SOL    HW127044   1.474   0.468   4.941 -0.2620 -0.4820  0.6186
 5194SOL    HW227045   1.337   0.445   5.007  0.1791 -0.6625 -0.3762
 5195SOL     OW27046   3.704   1.207   6.797 -0.2367 -0.0731  0.5788
 5195SOL    HW127047   3.671   1.136   6.852  1.1103 -2.1052 -1.2405
 5195SOL    HW227048   3.759   1.253   6.860 -1.5498  1.5641  0.5465
 5196SOL     OW27049   0.121   3.640   5.681  0.1914  0.5903 -0.1414
 5196SOL    HW127050   0.215   3.628   5.669 -0.1461 -1.9326 -0.3792
 5196SOL    HW227051   0.123   3.662   5.774  3.8117 -1.9099  0.3744
 5197SOL     OW27052   1.274   2.401  12.908  0.3989 -0.5521  0.0171
 5197SOL    HW127053   1.350   2.343  12.908 -0.5122 -1.7561 -0.9738
 5197SOL    HW227054   1.272   2.416  12.813  1.7291  3.0761  0.5984
 5198SOL     OW27055   4.543   1.147   3.150  0.9464 -0.0323 -0.3088
 5198SOL    HW127056   4.457   1.107   3.141  1.0405 -0.5279  1.0346
 5198SOL    HW227057   4.601   1.094   3.095 -0.0622 -1.1066 -0.3455
 5199SOL     OW27058   1.379   4.542   5.200  0.4535 -0.0516  0.2626
 5199SOL    HW127059   1.289   4.529   5.230  0.2425  3.7102  1.3044
 5199SOL    HW227060   1.386   4.462   5.148 -0.1760  1.1491 -1.6589
 5200SOL     OW27061   3.596   3.542  16.001  0.0879 -0.4403  0.0848
 5200SOL    HW127062   3.596   3.612  15.936  0.2362  0.3881  0.9724
 5200SOL    HW227063   3.584   3.594  16.080  0.4831  1.7733 -1.3230
 5201SOL     OW27064   2.436   2.272   3.119  0.2446  0.3504 -0.0391
 5201SOL    HW127065   2.361   2.323   3.089  0.0336  0.7151  1.1222
 5201SOL    HW227066   2.397   2.213   3.183  1.2577  0.3103  0.5392
 5202SOL     OW27067   3.319   4.005   3.561 -0.3072 -0.3134  0.1195
 5202SOL    HW127068   3.348   4.041   3.477 -0.2701  2.1498  1.1726
 5202SOL    HW227069   3.242   3.961   3.525 -1.1357  1.4012 -0.2492
 5203SOL     OW27070   3.086   4.350  11.341 -0.3756 -0.0408  0.1328
 5203SOL    HW127071   3.026   4.321  11.271 -1.8132  1.8009  0.5993
 5203SOL    HW227072   3.028   4.400  11.398 -0.0527 -2.3770  2.4992
 5204SOL     OW27073   1.450   3.441   3.809 -0.5111  0.2258  0.4444
 5204SOL    HW127074   1.496   3.411   3.731  1.0228  0.9140  1.0845
 5204SOL    HW227075   1.507   3.514   3.834  0.9596 -1.4913  2.1504
 5205SOL     OW27076   2.578   3.044   8.223 -0.0570  0.4593  0.2001
 5205SOL    HW127077   2.500   3.098   8.237 -0.0461  0.7272 -0.8309
 5205SOL    HW227078   2.562   2.976   8.289 -1.1241  1.1125  0.6116
 5206SOL     OW27079   2.959   2.911  13.057 -0.1068 -0.1378  0.7026
 5206SOL    HW127080   3.037   2.964  13.042 -0.1985 -0.0861  0.4207
 5206SOL    HW227081   2.936   2.872  12.973 -0.5818  1.8707 -0.0967
 5207SOL     OW27082   1.395   2.564   4.061  0.2412  0.2118 -0.6150
 5207SOL    HW127083   1.375   2.646   4.108 -0.5485 -0.3570  0.0535
 5207SOL    HW227084   1.338   2.575   3.985 -0.1362  0.8753 -0.2440
 5208SOL     OW27085   4.312   3.168   4.121 -0.0727 -0.1418  0.2885
 5208SOL    HW127086   4.284   3.095   4.175 -0.1092 -0.0426  0.4030
 5208SOL    HW227087   4.385   3.119   4.084  0.2743  1.5404 -1.2657
 5209SOL     OW27088   3.384   0.707   7.319  0.2982  0.4114 -0.1745
 5209SOL    HW127089   3.316   0.641   7.331 -0.7643  1.7626  1.1767
 5209SOL    HW227090   3.334   0.781   7.286 -2.8251 -1.0221  1.3478
 5210SOL     OW27091   4.335   0.536   0.239  0.4564  0.4261 -0.5580
 5210SOL    HW127092   4.365   0.445   0.238 -1.4425 -0.2344  2.4372
 5210SOL    HW227093   4.323   0.554   0.146 -0.7153 -3.3490 -1.1628
 5211SOL     OW27094   4.401   4.573   2.414  0.3917  0.1898 -0.4146
 5211SOL    HW127095   4.342   4.501   2.437  2.1015 -1.0497  0.0386
 5211SOL    HW227096   4.467   4.571   2.483  1.6817 -0.1540 -1.6618
 5212SOL     OW27097   1.764   2.175   4.044 -0.1358 -0.0931 -0.1157
 5212SOL    HW127098   1.712   2.094   4.046  0.3052 -0.3435  1.1561
 5212SOL    HW227099   1.705   2.242   4.079  1.0095  0.7700  0.1522
 5213SOL     OW27100   3.201   4.717   7.553 -0.2240  0.2391 -0.2867
 5213SOL    HW127101   3.245   0.078   7.577 -2.6757  1.2449  0.7121
 5213SOL    HW227102   3.275   4.669   7.515 -0.2323  1.4424 -1.8278
 5214SOL     OW27103   4.473   1.030   2.385 -0.0849  0.3478 -0.4225
 5214SOL    HW127104   4.388   0.986   2.399  0.6127 -0.6543  0.6973
 5214SOL    HW227105   4.470   1.089   2.460 -0.0407 -1.8722  1.3335
 5215SOL     OW27106   1.874   3.899   7.599  0.9846  0.3955 -0.3616
 5215SOL    HW127107   1.813   3.833   7.631  0.1587  2.3791  2.2036
 5215SOL    HW227108   1.961   3.887   7.635  1.2096  0.1787 -0.9806
 5216SOL     OW27109   4.013   4.617  16.885  0.2565  0.4567  0.1153
 5216SOL    HW127110   4.015   4.652  16.974 -0.1182  0.9139 -0.0604
 5216SOL    HW227111   3.928   4.650  16.858  0.4658  0.6901 -0.2635
 5217SOL     OW27112   4.645   1.215   7.790  0.6984 -0.0906  0.2729
 5217SOL    HW127113   4.692   1.281   7.740 -3.1005  2.4029  0.0369
 5217SOL    HW227114   4.682   1.231   7.877  0.7930  0.8753  0.0473
 5218SOL     OW27115   3.226   2.910   2.955  0.4762 -0.4564  0.2012
 5218SOL    HW127116   3.311   2.924   2.914  0.2634  0.0625 -0.0602
 5218SOL    HW227117   3.199   2.997   2.987  1.9950  0.6981 -1.6851
 5219SOL     OW27118   2.616   3.652   1.722 -0.0762  0.6039 -0.1219
 5219SOL    HW127119   2.618   3.735   1.675  0.2690  2.2483  2.7601
 5219SOL    HW227120   2.668   3.599   1.662  0.7028  2.5917 -1.2341
 5220SOL     OW27121   1.199   2.172  15.786 -1.0031 -0.2112 -0.0992
 5220SOL    HW127122   1.201   2.219  15.702  0.2068 -1.7162 -0.9067
 5220SOL    HW227123   1.233   2.236  15.848 -1.3236  0.6129 -0.7793
 5221SOL     OW27124   2.687   2.232   8.985 -0.5255 -0.0408  0.2822
 5221SOL    HW127125   2.758   2.168   8.977  0.2043  0.8121  0.0183
 5221SOL    HW227126   2.677   2.243   9.080 -1.1130  0.9466  0.1065
 5222SOL     OW27127   3.053   3.208   3.630  0.1304 -0.0912  0.0516
 5222SOL    HW127128   3.029   3.153   3.704 -0.9107 -0.7910 -0.7872
 5222SOL    HW227129   3.032   3.146   3.559 -0.6617  0.1758  0.0468
 5223SOL     OW27130   2.625   3.750  12.926  0.5253 -0.4144  0.4444
 5223SOL    HW127131   2.584   3.695  12.859  0.2465  0.0954  0.1928
 5223SOL    HW227132   2.601   3.711  13.010  1.4651 -0.1290  0.8486
 5224SOL     OW27133   2.110   0.242   8.556  0.0859 -0.4604 -0.2215
 5224SOL    HW127134   2.073   0.285   8.634 -1.0451 -0.5190 -0.7362
 5224SOL    HW227135   2.034   0.206   8.512 -1.2865 -0.5091  2.1502
 5225SOL     OW27136   2.437   0.606   8.261 -0.7553  0.0359 -0.2198
 5225SOL    HW127137   2.368   0.564   8.211  0.1998  1.5110 -2.7471
 5225SOL    HW227138   2.390   0.610   8.345 -0.9134 -1.8425 -0.2206
 5226SOL     OW27139   1.352   0.895   4.020  0.1822 -0.2909 -0.3961
 5226SOL    HW127140   1.392   0.954   4.084 -2.1216  0.8511 -0.0026
 5226SOL    HW227141   1.326   0.952   3.948 -1.4369 -0.1404  0.2987
 5227SOL     OW27142   0.352   3.097   0.696 -0.6244  0.0631  0.2756
 5227SOL    HW127143   0.291   3.169   0.716  0.1148  0.8211 -0.1783
 5227SOL    HW227144   0.296   3.021   0.684 -0.9876  0.2074  1.0152
 5228SOL     OW27145   3.825   2.854  12.398  0.4571 -0.7655 -0.2107
 5228SOL    HW127146   3.873   2.800  12.461  1.1377 -1.0869 -0.9997
 5228SOL    HW227147   3.891   2.874  12.332  1.4287  0.7552  1.2136
 5229SOL     OW27148   1.259   2.492  13.519 -0.0937  0.1469  0.6469
 5229SOL    HW127149   1.351   2.516  13.533  0.3273 -0.5762 -0.8410
 5229SOL    HW227150   1.234   2.491  13.611  1.6136 -0.5835  1.1025
 5230SOL     OW27151   2.221   2.674   7.752  0.2564 -0.2333 -0.1610
 5230SOL    HW127152   2.226   2.630   7.667  0.6941 -0.3908 -0.0534
 5230SOL    HW227153   2.153   2.629   7.802 -2.1443  1.2438 -2.1122
 5231SOL     OW27154   0.176   0.536  14.994 -0.2856 -0.4829  0.0905
 5231SOL    HW127155   0.095   0.584  14.977  0.8778  1.1292 -0.9454
 5231SOL    HW227156   0.229   0.596  14.941  1.5411 -4.0211 -2.0834
 5232SOL     OW27157   3.680   1.146  17.369  0.2256  0.5043  0.2138
 5232SOL    HW127158   3.725   1.155  17.453  0.2814 -0.0954  0.2534
 5232SOL    HW227159   3.748   1.127  17.305  1.6465 -0.4797  2.0175
 5233SOL     OW27160   3.803   1.449   7.473  0.0057 -0.1021 -0.1070
 5233SOL    HW127161   3.715   1.474   7.444  0.1759  0.2690 -0.2976
 5233SOL    HW227162   3.849   1.521   7.430  0.5722 -0.2232  0.2950
 5234SOL     OW27163   2.966   0.757   7.541  0.0904 -0.2843 -0.2582
 5234SOL    HW127164   2.898   0.808   7.495 -0.6980 -1.0301  0.0773
 5234SOL    HW227165   2.920   0.679   7.571 -1.3700  1.3000  1.6780
 5235SOL     OW27166   2.798   4.606   1.074  0.1038  0.1953 -0.1803
 5235SOL    HW127167   2.842   4.633   0.994 -0.7720 -0.5665 -0.9188
 5235SOL    HW227168   2.796   4.696   1.107  0.3792  0.3612 -0.6148
 5236SOL     OW27169   3.392   0.698   8.749  0.3043  0.1457  0.3798
 5236SOL    HW127170   3.324   0.688   8.682  0.9820 -0.2716 -0.2490
 5236SOL    HW227171   3.417   0.790   8.735 -0.7283  0.3477 -0.1866
 5237SOL     OW27172   1.419   3.743   6.103  0.7431  0.0513  0.3702
 5237SOL    HW127173   1.489   3.807   6.118  0.8387  0.0431 -0.0375
 5237SOL    HW227174   1.348   3.803   6.081  0.9989  0.1335 -0.2416
 5238SOL     OW27175   0.931   3.034   8.118  0.1166 -0.2794  0.0290
 5238SOL    HW127176   0.887   3.118   8.131 -0.8264 -0.6478 -0.8085
 5238SOL    HW227177   1.008   3.037   8.175  0.6160  0.1270 -0.6663
 5239SOL     OW27178   4.566   1.084   6.659 -0.4284  0.5375 -0.4055
 5239SOL    HW127179   4.534   1.003   6.698  0.2650 -0.4484 -1.8951
 5239SOL    HW227180   4.536   1.085   6.568  0.9724 -3.0788 -0.8825
 5240SOL     OW27181   2.356   3.821  16.113 -0.5038  0.2104  0.1174
 5240SOL    HW127182   2.297   3.871  16.057  1.0010  0.1013 -1.5555
 5240SOL    HW227183   2.340   3.862  16.198  0.6426  2.1245 -0.5890
 5241SOL     OW27184   0.983   1.553   2.003 -0.1850 -0.2300 -0.0082
 5241SOL    HW127185   1.035   1.545   2.083 -0.0876  1.3418  0.0749
 5241SOL    HW227186   1.025   1.480   1.956  3.9327  0.9976  1.7496
 5242SOL     OW27187   3.632   1.718   5.246 -0.1535  0.0271 -0.9796
 5242SOL    HW127188   3.578   1.651   5.203 -0.0505 -1.4070  1.1024
 5242SOL    HW227189   3.630   1.674   5.331 -1.7923  4.0296  1.0539
 5243SOL     OW27190   0.287   0.753   2.134 -0.3284 -0.4176  0.0480
 5243SOL    HW127191   0.314   0.669   2.170 -1.4314 -1.2852 -1.1234
 5243SOL    HW227192   0.277   0.719   2.045  1.3859  0.9348 -0.6557
 5244SOL     OW27193   2.673   1.521  16.791  0.4224  0.4540 -0.7198
 5244SOL    HW127194   2.763   1.553  16.792  0.6285 -0.1647  1.2596
 5244SOL    HW227195   2.625   1.591  16.836 -0.7091  0.2151 -1.5402
 5245SOL     OW27196   3.476   3.612   2.649 -0.5905  0.3258 -0.1882
 5245SOL    HW127197   3.393   3.573   2.677 -1.5496  2.5133 -0.0038
 5245SOL    HW227198   3.472   3.596   2.555 -1.6350  0.0590 -0.0960
 5246SOL     OW27199   0.387   0.217   1.393 -0.6834  0.5251  0.4242
 5246SOL    HW127200   0.426   0.203   1.306  1.8407 -0.0526  1.6236
 5246SOL    HW227201   0.400   0.133   1.436  0.5199  0.4222 -0.1244
 5247SOL     OW27202   2.351   1.030   0.951 -0.0156 -0.7927 -0.1853
 5247SOL    HW127203   2.273   0.980   0.928 -0.4406 -0.0507 -0.3401
 5247SOL    HW227204   2.327   1.121   0.934  1.3746 -0.3711  0.0798
 5248SOL     OW27205   2.509   3.201  11.475 -0.2498 -0.0319 -0.2858
 5248SOL    HW127206   2.517   3.112  11.442  3.0524  0.4365 -0.6953
 5248SOL    HW227207   2.414   3.206  11.489  0.1354 -0.9320  2.4995
 5249SOL     OW27208   0.910   4.512  12.133 -0.3408 -0.3536  0.4650
 5249SOL    HW127209   0.992   4.485  12.091 -0.9772 -1.8371  0.1830
 5249SOL    HW227210   0.902   4.453  12.208 -1.1533  0.2879  0.8755
 5250SOL     OW27211   1.975   1.803  17.192  0.7830 -0.1801 -0.0983
 5250SOL    HW127212   1.921   1.855  17.251  1.0591 -1.6799  1.4862
 5250SOL    HW227213   1.987   1.859  17.115  1.1233 -1.6381 -1.1242
 5251SOL     OW27214   3.136   2.881   2.412  0.3044  0.1529  0.2015
 5251SOL    HW127215   3.074   2.835   2.468  1.6122 -0.4687  1.1363
 5251SOL    HW227216   3.102   2.970   2.416 -1.0876 -0.4174  1.1568
 5252SOL     OW27217   1.963   2.512   8.824 -0.0759  0.2987  0.7444
 5252SOL    HW127218   1.953   2.419   8.805 -0.7704  0.4745  0.2489
 5252SOL    HW227219   2.048   2.538   8.788 -1.1569  0.9039 -1.3394
 5253SOL     OW27220   4.001   2.946  12.212  0.2645  0.2467 -0.9861
 5253SOL    HW127221   4.091   2.935  12.183  0.6480  1.3830 -0.2219
 5253SOL    HW227222   4.015   3.027  12.262 -1.1060 -0.5223  0.6812
 5254SOL     OW27223   2.179   2.350   7.622  0.4232 -0.1516 -0.2256
 5254SOL    HW127224   2.136   2.360   7.537 -0.7764 -1.5384  0.2294
 5254SOL    HW227225   2.119   2.287   7.662 -0.2635 -0.3451 -1.5306
 5255SOL     OW27226   3.011   0.265   8.199  0.1607  0.1549  0.2993
 5255SOL    HW127227   3.054   0.194   8.152 -0.6833 -0.0323 -0.2067
 5255SOL    HW227228   3.082   0.278   8.261 -0.0668  0.6070  0.4704
 5256SOL     OW27229   2.646   0.211   1.494 -0.1644 -0.3933 -0.2968
 5256SOL    HW127230   2.608   0.193   1.580 -1.0012 -1.2021 -0.8358
 5256SOL    HW227231   2.570   0.196   1.438  0.4460 -1.1264 -0.9340
 5257SOL     OW27232   3.774   2.297   4.441  0.1012  0.5114 -0.0969
 5257SOL    HW127233   3.742   2.367   4.383  0.8358  1.2875  0.4462
 5257SOL    HW227234   3.864   2.281   4.413  0.4819  1.3079  0.6593
 5258SOL     OW27235   4.638   1.964   5.240  0.0720 -0.2410 -0.4109
 5258SOL    HW127236   0.008   1.985   5.218 -0.0762  2.3043  1.4596
 5258SOL    HW227237   4.627   1.996   5.329  3.8539  1.7430 -0.6541
 5259SOL     OW27238   4.440   2.040   3.765 -1.0943  0.3368 -0.2313
 5259SOL    HW127239   4.354   2.020   3.728 -0.5052 -1.3167 -0.7278
 5259SOL    HW227240   4.429   2.016   3.857  0.5447 -1.5843 -0.5438
 5260SOL     OW27241   3.102   0.769  12.766 -0.0035 -0.0166 -0.4378
 5260SOL    HW127242   3.144   0.851  12.794 -0.3702  1.0008 -2.8915
 5260SOL    HW227243   3.025   0.817  12.737  1.3816 -0.1165 -4.2930
 5261SOL     OW27244   3.546   3.196   5.541  0.0270 -0.4887 -0.1527
 5261SOL    HW127245   3.629   3.155   5.565  0.5740  0.1408 -0.9358
 5261SOL    HW227246   3.571   3.289   5.537  0.4759 -0.5628  1.0080
 5262SOL     OW27247   0.367   4.476  12.668  0.0659  0.3503 -0.3439
 5262SOL    HW127248   0.389   4.384  12.654  1.3616  0.4003  1.3380
 5262SOL    HW227249   0.452   4.496  12.708 -0.0643  0.1247  0.0451
 5263SOL     OW27250   4.599   4.583  15.426  0.0521 -0.2710  0.3637
 5263SOL    HW127251   4.581   4.655  15.366  0.2224 -0.4459  0.1027
 5263SOL    HW227252   4.682   4.540  15.407 -0.3132 -0.3510 -1.0239
 5264SOL     OW27253   1.807   2.663  16.031  0.0313 -0.4471 -0.0317
 5264SOL    HW127254   1.784   2.719  15.957 -0.9516 -0.5052  0.2244
 5264SOL    HW227255   1.813   2.575  15.994  0.2547 -0.3243 -0.2878
 5265SOL     OW27256   3.710   2.752  16.166 -0.4407  0.5917  0.3364
 5265SOL    HW127257   3.628   2.799  16.152  0.0557  2.3347  3.2040
 5265SOL    HW227258   3.745   2.733  16.079 -0.9336  0.2673  0.2144
 5266SOL     OW27259   3.101   1.718  12.587 -0.2779 -0.5166  0.1800
 5266SOL    HW127260   3.110   1.624  12.567 -0.8497 -0.7057  0.8242
 5266SOL    HW227261   3.177   1.738  12.532 -0.7840  2.0167  0.4171
 5267SOL     OW27262   2.517   2.324  15.088 -0.0914 -0.8128  0.4106
 5267SOL    HW127263   2.600   2.331  15.040  0.2183 -0.3644  1.0118
 5267SOL    HW227264   2.496   2.417  15.096 -2.3620 -1.2597 -0.3055
 5268SOL     OW27265   0.816   2.169  15.530 -0.1713  0.0722  0.1620
 5268SOL    HW127266   0.767   2.120  15.463  2.0455  1.0623 -2.1785
 5268SOL    HW227267   0.750   2.235  15.548  0.1564  0.1749  0.9556
 5269SOL     OW27268   1.993   2.789  15.710  0.1785 -0.0700 -0.3975
 5269SOL    HW127269   1.958   2.875  15.685 -1.7747 -0.0675  2.3985
 5269SOL    HW227270   2.026   2.810  15.797 -1.0156  0.3860 -0.0525
 5270SOL     OW27271   2.031   2.245   5.759  0.6095  0.1186 -0.5382
 5270SOL    HW127272   1.964   2.179   5.740 -1.3831  2.0512 -0.3013
 5270SOL    HW227273   2.075   2.192   5.826  0.7332  0.3305 -0.4514
 5271SOL     OW27274   1.406   4.710   6.446 -0.5969 -0.2031 -0.6211
 5271SOL    HW127275   1.428   4.633   6.499  0.4979  0.3458 -0.2956
 5271SOL    HW227276   1.489   4.711   6.399 -0.9194 -0.6427 -1.2107
 5272SOL     OW27277   0.795   3.902  11.914 -0.4343  0.1766 -0.6542
 5272SOL    HW127278   0.856   3.967  11.948 -1.5291  0.6351  0.4068
 5272SOL    HW227279   0.847   3.822  11.906 -0.9977 -0.0430 -2.1133
 5273SOL     OW27280   2.829   4.100   8.423  0.0868 -0.7324 -0.6290
 5273SOL    HW127281   2.923   4.083   8.415  0.4161 -0.0985  2.0507
 5273SOL    HW227282   2.821   4.138   8.510  1.1345 -2.3150  0.1544
 5274SOL     OW27283   3.364   2.779   5.094 -0.5887  0.2217 -0.4418
 5274SOL    HW127284   3.392   2.833   5.020  0.8669  1.2138  0.8261
 5274SOL    HW227285   3.428   2.792   5.164  0.3472 -0.5481 -1.1527
 5275SOL     OW27286   2.335   2.667   3.111  0.3702  0.2249  0.5167
 5275SOL    HW127287   2.347   2.724   3.034  0.7221 -1.5735 -0.7468
 5275SOL    HW227288   2.261   2.614   3.082  1.2340 -0.4652 -0.4089
 5276SOL     OW27289   0.714   4.371  10.742 -0.1377 -0.2513  0.1322
 5276SOL    HW127290   0.790   4.396  10.689  0.8361 -0.1791  1.5571
 5276SOL    HW227291   0.658   4.448  10.740 -2.5853 -2.0230  0.5910
 5277SOL     OW27292   0.824   4.685   0.450  0.5520  0.4191 -0.1993
 5277SOL    HW127293   0.891   4.671   0.383 -0.4301 -0.7278 -0.9412
 5277SOL    HW227294   0.762   0.011   0.396  2.8956  2.1135 -1.4086
 5278SOL     OW27295   0.820   0.635   8.193  0.0622  0.6279  0.0037
 5278SOL    HW127296   0.841   0.641   8.100 -1.0191 -0.2521 -0.3063
 5278SOL    HW227297   0.726   0.654   8.190  0.2870  1.7374  0.1381
 5279SOL     OW27298   4.150   3.539   7.613 -0.0055 -0.0437 -1.5587
 5279SOL    HW127299   4.165   3.506   7.702 -0.5142  0.2773 -1.3576
 5279SOL    HW227300   4.214   3.500   7.552 -0.4226 -1.5960 -1.0157
 5280SOL     OW27301   0.973   0.167   7.452 -0.3480 -0.6539 -0.8725
 5280SOL    HW127302   0.901   0.145   7.512  0.3924 -0.5915  0.0363
 5280SOL    HW227303   1.035   0.099   7.481  0.5104  0.4402 -0.1670
 5281SOL     OW27304   2.624   2.676   3.736  0.3525 -0.1930 -0.5921
 5281SOL    HW127305   2.693   2.738   3.758 -0.0722 -0.6748  2.1374
 5281SOL    HW227306   2.642   2.674   3.642  1.1485 -0.8102 -0.4233
 5282SOL     OW27307   2.147   4.586   3.209 -0.3498  0.9250 -0.4995
 5282SOL    HW127308   2.234   4.612   3.180 -0.1481  0.7291 -0.0750
 5282SOL    HW227309   2.114   4.675   3.218 -1.0808  0.6532 -0.4760
 5283SOL     OW27310   0.651   1.211   7.645  0.2439 -0.5330 -0.0237
 5283SOL    HW127311   0.672   1.121   7.622 -1.1246 -0.8983  0.1852
 5283SOL    HW227312   0.624   1.192   7.735  3.0101  0.1374  0.9517
 5284SOL     OW27313   0.832   1.073   8.816  0.1991 -0.0293  0.0756
 5284SOL    HW127314   0.796   0.985   8.799  1.5400 -0.3727 -1.0332
 5284SOL    HW227315   0.810   1.093   8.907 -2.8362  0.5067 -0.7858
 5285SOL     OW27316   0.812   1.787   3.524  0.2282  0.0177 -0.0924
 5285SOL    HW127317   0.887   1.750   3.571 -0.9706 -1.5192  0.6132
 5285SOL    HW227318   0.789   1.701   3.489  2.4086  0.2692 -2.0845
 5286SOL     OW27319   1.425   0.616   5.829 -0.5564  0.3334  0.0617
 5286SOL    HW127320   1.486   0.565   5.883 -1.2749 -0.3933  0.2059
 5286SOL    HW227321   1.377   0.672   5.890 -3.3379 -1.8522 -0.0877
 5287SOL     OW27322   1.324   3.922   3.716 -0.7017  0.0875 -0.1446
 5287SOL    HW127323   1.351   3.862   3.647 -2.7137 -1.8483  0.7239
 5287SOL    HW227324   1.401   3.923   3.772 -0.2164 -3.0832 -0.7597
 5288SOL     OW27325   4.455   2.428   7.614  0.1281 -0.0479  0.2131
 5288SOL    HW127326   4.496   2.441   7.529 -0.5982 -3.4882 -0.6732
 5288SOL    HW227327   4.537   2.440   7.662 -0.4621  1.9020  0.7236
 5289SOL     OW27328   0.554   3.002   5.498 -0.0127  0.4557 -0.0802
 5289SOL    HW127329   0.613   3.067   5.535 -1.7133  2.1076 -0.2690
 5289SOL    HW227330   0.473   3.044   5.468  0.9249  2.5530  0.3582
 5290SOL     OW27331   4.447   2.612   8.198  0.2782 -0.4156 -0.0747
 5290SOL    HW127332   4.434   2.655   8.113 -1.7793  2.0168  1.5107
 5290SOL    HW227333   4.530   2.636   8.239  0.6185 -1.5473 -0.0770
 5291SOL     OW27334   3.143   4.410   1.439  0.0012  0.0365  0.3683
 5291SOL    HW127335   3.074   4.459   1.395 -0.3311  1.1291  2.1100
 5291SOL    HW227336   3.112   4.322   1.418 -0.7184  0.4295 -0.2372
 5292SOL     OW27337   2.609   0.587   9.209  0.1007 -0.5905 -0.6296
 5292SOL    HW127338   2.648   0.511   9.166  0.3375 -1.1250  0.5338
 5292SOL    HW227339   2.685   0.637   9.238 -1.1260  0.7192  0.3343
 5293SOL     OW27340   3.509   0.351  16.982 -0.2284 -0.5652 -0.0376
 5293SOL    HW127341   3.582   0.407  17.010 -1.3215  1.6319 -1.6346
 5293SOL    HW227342   3.480   0.390  16.900 -0.5408 -1.1239 -0.1849
 5294SOL     OW27343   4.491   2.970   4.082 -0.5555 -0.5033 -0.1017
 5294SOL    HW127344   4.486   2.916   4.161  1.3766  1.3133  1.2560
 5294SOL    HW227345   4.473   2.910   4.009 -1.8010  1.1869 -1.2115
 5295SOL     OW27346   1.716   4.153   1.941  0.1624  0.8954 -0.2324
 5295SOL    HW127347   1.669   4.205   2.007  0.1719  1.7238 -0.8823
 5295SOL    HW227348   1.801   4.175   1.980 -0.0453  0.1066  0.6595
 5296SOL     OW27349   2.616   4.561   5.971 -0.1250  0.2836 -0.7441
 5296SOL    HW127350   2.648   4.524   6.054 -0.0577  1.0083 -0.4486
 5296SOL    HW227351   2.545   4.615   6.005  0.5702 -0.2412  1.5557
 5297SOL     OW27352   3.869   0.764  11.387  0.3787  0.6531 -0.1102
 5297SOL    HW127353   3.951   0.718  11.404 -0.0558  1.3529  3.9511
 5297SOL    HW227354   3.842   0.791  11.475  1.5450 -1.2347  0.8123
 5298SOL     OW27355   1.505   4.683   5.660  0.6045 -0.7676  0.1637
 5298SOL    HW127356   1.470   4.653   5.744 -0.2658 -0.8822 -0.2399
 5298SOL    HW227357   1.537   4.597   5.631  3.3055  0.3486 -0.1721
 5299SOL     OW27358   0.573   3.775   6.330  0.1735  0.5379 -0.0787
 5299SOL    HW127359   0.613   3.861   6.342  1.1394 -0.0223  0.7073
 5299SOL    HW227360   0.593   3.738   6.416  3.0811  0.8979 -0.6279
 5300SOL     OW27361   3.150   1.232   3.221  0.4078 -0.2859  0.2865
 5300SOL    HW127362   3.100   1.209   3.299 -1.3890 -0.6063 -0.9673
 5300SOL    HW227363   3.124   1.323   3.213  1.3591  0.0868  1.4549
 5301SOL     OW27364   1.237   4.455  11.241 -0.4273  0.5030  0.0500
 5301SOL    HW127365   1.324   4.485  11.264  0.5923 -2.9985  0.8753
 5301SOL    HW227366   1.208   4.538  11.204 -0.4075 -0.5649 -2.3428
 5302SOL     OW27367   3.175   0.656   1.856 -0.0962 -0.6988 -0.0792
 5302SOL    HW127368   3.092   0.672   1.810  1.6271 -0.6981 -3.1758
 5302SOL    HW227369   3.175   0.748   1.882  2.2028 -1.0336  1.0675
 5303SOL     OW27370   3.156   1.003   8.734  0.4508  0.1696  0.3659
 5303SOL    HW127371   3.132   0.915   8.763 -0.2143  0.4513  0.6573
 5303SOL    HW227372   3.081   1.060   8.753  0.0276  0.4824 -2.1831
 5304SOL     OW27373   3.543   0.811  12.202  0.2673 -0.4627 -0.5169
 5304SOL    HW127374   3.628   0.767  12.204  0.6221  0.2329 -0.3472
 5304SOL    HW227375   3.529   0.825  12.295  3.3656  0.5335 -0.2054
 5305SOL     OW27376   1.008   3.284   6.290  0.3446  0.0475  0.3317
 5305SOL    HW127377   0.920   3.248   6.279  0.3828  0.3181 -0.8943
 5305SOL    HW227378   1.063   3.205   6.286 -0.0585 -0.2475  0.6670
 5306SOL     OW27379   4.466   0.009   3.223 -0.2494 -0.3875  0.0454
 5306SOL    HW127380   4.548   4.693   3.256 -0.3311 -0.1572  0.5074
 5306SOL    HW227381   4.435   4.658   3.167 -0.4702  1.3059 -2.0247
 5307SOL     OW27382   0.976   2.958   3.770 -0.1795  0.4875 -0.5872
 5307SOL    HW127383   0.889   2.943   3.734 -0.5768 -1.6159  1.2854
 5307SOL    HW227384   1.030   2.925   3.698 -0.3619 -0.3213 -0.3488
 5308SOL     OW27385   3.044   0.121  16.067 -0.5275 -0.2730  0.0116
 5308SOL    HW127386   2.989   0.097  15.993  0.9457 -0.8936 -0.8870
 5308SOL    HW227387   3.108   0.175  16.019 -2.0873  0.3482 -1.3548
 5309SOL     OW27388   4.338   0.702   1.765  0.7534  0.2490 -0.8284
 5309SOL    HW127389   4.398   0.674   1.696 -0.0694  1.4492 -2.0164
 5309SOL    HW227390   4.252   0.667   1.742  1.7099 -2.3266 -0.4309
 5310SOL     OW27391   0.617   0.890   4.878  0.5033 -0.1067 -0.0441
 5310SOL    HW127392   0.551   0.913   4.813  1.2331  0.8348 -0.4571
 5310SOL    HW227393   0.672   0.827   4.830  1.1071 -1.0046  1.8291
 5311SOL     OW27394   3.322   1.525   8.454 -0.2808 -0.0830 -0.2137
 5311SOL    HW127395   3.338   1.504   8.546 -3.0523  0.7041  0.4298
 5311SOL    HW227396   3.308   1.620   8.461  1.6473  0.3642 -2.3433
 5312SOL     OW27397   1.734   4.069   0.009 -0.2501  0.3550  0.2508
 5312SOL    HW127398   1.767   4.002  17.637 -0.5981 -1.2750  1.9264
 5312SOL    HW227399   1.781   4.069   0.092 -0.8237 -0.2939  0.5810
 5313SOL     OW27400   4.243   0.841   0.106  0.3274 -0.8602  0.7546
 5313SOL    HW127401   4.219   0.751   0.088 -3.0840  0.2478 -0.2970
 5313SOL    HW227402   4.291   0.836   0.189 -1.3190  0.4800  1.7894
 5314SOL     OW27403   1.689   3.764  11.543 -0.0989  0.3758  0.0073
 5314SOL    HW127404   1.719   3.812  11.466  1.4182  0.4282  0.6393
 5314SOL    HW227405   1.748   3.785  11.615  0.5392  0.1562 -0.4620
 5315SOL     OW27406   2.149   2.342   9.221 -0.1426  0.5657  0.1712
 5315SOL    HW127407   2.244   2.331   9.213 -0.3475  0.4534 -2.1435
 5315SOL    HW227408   2.143   2.321   9.314 -1.3837 -0.8264 -0.2259
 5316SOL     OW27409   1.063   0.571   3.485  0.0903 -0.4067 -0.3791
 5316SOL    HW127410   1.082   0.499   3.545 -0.7636 -0.0211  0.3572
 5316SOL    HW227411   1.147   0.618   3.484  0.5837 -1.2828 -0.2725
 5317SOL     OW27412   1.454   0.464   7.249 -0.9099 -0.2204  0.7240
 5317SOL    HW127413   1.384   0.475   7.184  0.4308  1.3206 -0.4755
 5317SOL    HW227414   1.412   0.514   7.319  1.0768  0.7901  1.2002
 5318SOL     OW27415   1.989   0.441   0.930 -0.4920 -0.5257  0.2589
 5318SOL    HW127416   1.915   0.381   0.925  0.6168 -1.8545 -0.2960
 5318SOL    HW227417   1.945   0.510   0.980 -0.0777 -0.9068  1.1457
 5319SOL     OW27418   2.748   0.190   1.822  0.0630 -0.0465  0.1155
 5319SOL    HW127419   2.775   0.280   1.842 -2.5664  0.7582  0.0375
 5319SOL    HW227420   2.658   0.194   1.790  0.1261  1.8088  0.1355
 5320SOL     OW27421   0.492   1.319  15.260  0.0466  0.0215 -0.0249
 5320SOL    HW127422   0.483   1.275  15.344 -0.6365 -0.2915 -0.2608
 5320SOL    HW227423   0.569   1.272  15.228 -0.4913 -0.4585 -0.6134
 5321SOL     OW27424   1.700   1.174   5.757 -0.1617 -0.0415 -0.0948
 5321SOL    HW127425   1.791   1.197   5.742 -0.1573  1.9525  3.1694
 5321SOL    HW227426   1.671   1.264   5.775 -2.8981 -1.0331  0.4464
 5322SOL     OW27427   2.478   0.979  10.238 -0.5551  0.5789  0.5232
 5322SOL    HW127428   2.554   1.025  10.201 -0.2103  0.9769  1.7243
 5322SOL    HW227429   2.445   1.053  10.289 -1.3047  0.2153  0.5652
 5323SOL     OW27430   3.853   2.059  12.001 -0.7029 -0.1220 -0.3021
 5323SOL    HW127431   3.915   2.126  12.027 -0.3532 -0.7581  0.5001
 5323SOL    HW227432   3.777   2.115  11.985 -0.7675  0.4866  2.2176
 5324SOL     OW27433   2.996   2.225  15.803 -0.2024 -0.0273  0.2957
 5324SOL    HW127434   2.921   2.175  15.770 -0.1194  1.1615 -1.7420
 5324SOL    HW227435   2.951   2.305  15.828 -0.5376  0.1897 -1.0007
 5325SOL     OW27436   0.578   4.645   4.372 -0.7012  0.6568  0.3562
 5325SOL    HW127437   0.612   0.001   4.416  0.6080  1.8425 -2.7573
 5325SOL    HW227438   0.610   4.575   4.428  1.1069  0.3066 -1.1449
 5326SOL     OW27439   1.515   3.899   7.314 -0.2147 -0.2666 -0.1680
 5326SOL    HW127440   1.520   3.872   7.222 -1.9831  0.3832 -0.4596
 5326SOL    HW227441   1.587   3.851   7.353  0.6159  0.5696 -0.6799
 5327SOL     OW27442   4.680   0.162  13.958 -0.1559  0.2352 -0.4918
 5327SOL    HW127443   4.630   0.122  13.886 -0.6523 -0.3093  0.1490
 5327SOL    HW227444   0.037   0.108  13.963 -1.2999 -1.5250 -1.7216
 5328SOL     OW27445   1.524   2.452   8.244  0.4525 -0.5467 -0.2979
 5328SOL    HW127446   1.518   2.517   8.173 -1.4367 -0.0153  0.3519
 5328SOL    HW227447   1.607   2.470   8.288 -0.5610  1.3280  0.8151
 5329SOL     OW27448   2.903   2.544   2.684  0.5131 -0.0923 -0.0445
 5329SOL    HW127449   2.870   2.499   2.762  1.2665 -1.1998 -0.3582
 5329SOL    HW227450   2.952   2.476   2.638 -1.1516  0.4899 -2.6745
 5330SOL     OW27451   0.353   3.662   6.198  0.1980  0.4306 -0.1941
 5330SOL    HW127452   0.416   3.696   6.263  1.1344 -2.1009  0.2223
 5330SOL    HW227453   0.281   3.633   6.254 -0.3141  0.7329 -0.6964
 5331SOL     OW27454   2.726   1.240   3.421 -0.5471 -0.2227  0.1855
 5331SOL    HW127455   2.748   1.326   3.385 -0.5210 -0.9488 -1.4959
 5331SOL    HW227456   2.633   1.237   3.398 -0.1666 -0.8248 -1.2005
 5332SOL     OW27457   1.568   4.167   4.289 -0.1602 -0.2131  0.2666
 5332SOL    HW127458   1.517   4.169   4.208 -1.0520  0.8657  0.8385
 5332SOL    HW227459   1.497   4.195   4.347 -1.4758 -1.5955 -0.6683
 5333SOL     OW27460   0.803   2.998  15.605 -0.1197 -0.2521 -0.5220
 5333SOL    HW127461   0.825   3.090  15.620 -2.6923  0.5195 -1.5362
 5333SOL    HW227462   0.803   2.981  15.511 -0.7297 -0.4304 -0.4912
 5334SOL     OW27463   0.032   0.783  13.615 -0.2084  0.1503 -0.2504
 5334SOL    HW127464   4.707   0.785  13.531 -1.0636 -0.9104  0.1956
 5334SOL    HW227465   4.704   0.713  13.656 -0.5127  0.1615 -0.5955
 5335SOL     OW27466   0.786   3.961   6.343  0.1536 -0.4076  0.3346
 5335SOL    HW127467   0.851   4.027   6.321 -2.2172  1.8078 -0.0334
 5335SOL    HW227468   0.843   3.893   6.379 -0.3297 -0.7016  0.5360
 5336SOL     OW27469   0.924   1.106  14.144 -0.1112  0.3414 -0.2861
 5336SOL    HW127470   0.949   1.183  14.094 -0.7906  1.1877  0.6982
 5336SOL    HW227471   0.900   1.139  14.230  0.1719 -0.8811  0.2645
 5337SOL     OW27472   3.959   1.682   4.567 -0.3903 -0.2646 -0.1722
 5337SOL    HW127473   3.937   1.745   4.636  0.6599 -0.1628  0.0721
 5337SOL    HW227474   4.021   1.733   4.515 -0.7358  1.9329  1.5391
 5338SOL     OW27475   1.524   1.305   8.773 -0.1997  0.1485 -0.2548
 5338SOL    HW127476   1.599   1.364   8.762  1.6222 -1.7481  2.1641
 5338SOL    HW227477   1.507   1.319   8.866 -0.4429  1.8862 -0.5504
 5339SOL     OW27478   1.538   2.103   9.918 -0.0875 -0.2327  0.1522
 5339SOL    HW127479   1.630   2.086   9.895  0.1889 -0.8248  1.7351
 5339SOL    HW227480   1.493   2.035   9.867 -1.3791  0.1683  0.7734
 5340SOL     OW27481   2.022   3.708   5.090  0.9572  0.4688  0.7674
 5340SOL    HW127482   1.941   3.669   5.060  2.0040  0.4201 -2.0328
 5340SOL    HW227483   2.036   3.664   5.174  0.4529  0.0707  0.6404
 5341SOL     OW27484   2.423   3.880   8.222  0.4646 -0.2095 -0.2529
 5341SOL    HW127485   2.327   3.879   8.220  0.4157  1.2839  1.3576
 5341SOL    HW227486   2.432   3.784   8.225 -1.3789 -0.3504  0.9856
 5342SOL     OW27487   4.687   1.466   2.014 -0.0475  0.5580  0.3211
 5342SOL    HW127488   0.046   1.414   2.011 -0.3703  0.0469  0.7213
 5342SOL    HW227489   4.622   1.398   2.000  1.1101 -1.0393  2.7680
 5343SOL     OW27490   2.649   0.553  13.804 -0.1653 -0.4977  0.0795
 5343SOL    HW127491   2.667   0.581  13.714 -0.2721  0.2413  0.2832
 5343SOL    HW227492   2.740   0.555  13.832  0.1246 -0.3347 -0.8808
 5344SOL     OW27493   1.450   3.992   0.593 -0.6620  0.1044  0.6552
 5344SOL    HW127494   1.356   3.985   0.609 -1.3654  2.8902 -2.1084
 5344SOL    HW227495   1.466   4.087   0.597 -0.6492  0.1561 -0.4427
 5345SOL     OW27496   0.346   3.409   2.359 -0.4385  0.3345 -0.1532
 5345SOL    HW127497   0.278   3.475   2.371 -1.4679 -0.5773 -0.9020
 5345SOL    HW227498   0.417   3.472   2.362 -1.0180  1.0120 -0.6247
 5346SOL     OW27499   0.381   3.211  17.025 -0.2755  0.4034  0.1673
 5346SOL    HW127500   0.433   3.250  17.095 -0.5122 -3.0752  2.2877
 5346SOL    HW227501   0.433   3.233  16.948 -0.2388 -1.8180 -0.4296
 5347SOL     OW27502   0.594   1.015  10.048 -0.6622 -0.2537  0.2059
 5347SOL    HW127503   0.579   0.920  10.051 -0.2754 -0.3877 -2.0546
 5347SOL    HW227504   0.686   1.019  10.074 -0.0434  0.4330 -2.0585
 5348SOL     OW27505   1.788   4.576   8.731  0.4054 -0.1999  0.6332
 5348SOL    HW127506   1.750   4.488   8.739  0.1040 -0.0854  0.4446
 5348SOL    HW227507   1.867   4.572   8.784  1.1719 -0.7503 -0.5526
 5349SOL     OW27508   0.509   4.673   6.990 -0.3389 -0.6977  0.6749
 5349SOL    HW127509   0.439   4.609   7.003 -1.8679  1.0150  0.7179
 5349SOL    HW227510   0.466   0.019   7.041  0.3929  0.6537 -0.4880
 5350SOL     OW27511   1.010   3.020   1.082  0.0445  0.4461  0.6814
 5350SOL    HW127512   0.959   3.089   1.124 -1.5917 -1.0806  1.2178
 5350SOL    HW227513   1.092   3.041   1.127 -0.4427  0.5651  1.5104
 5351SOL     OW27514   2.431   3.279   8.394 -0.0685 -0.0885 -0.5122
 5351SOL    HW127515   2.476   3.260   8.477  0.8810 -0.0243 -1.0100
 5351SOL    HW227516   2.488   3.349   8.362  1.0820 -0.8028 -0.0403
 5352SOL     OW27517   2.256   4.110   2.326 -0.1899 -0.3263 -0.0883
 5352SOL    HW127518   2.336   4.085   2.371 -0.8332  0.7545  1.6743
 5352SOL    HW227519   2.205   4.031   2.344 -0.4830  0.0116  0.5598
 5353SOL     OW27520   1.386   1.377   9.452  0.5996 -0.4501  1.0237
 5353SOL    HW127521   1.449   1.330   9.507  0.3119 -2.1004 -0.0512
 5353SOL    HW227522   1.383   1.311   9.382 -1.4336  4.3400 -3.3652
 5354SOL     OW27523   1.413   3.002   3.446  0.0515 -0.2761 -0.4159
 5354SOL    HW127524   1.481   3.061   3.413  0.4617 -0.7321 -0.3883
 5354SOL    HW227525   1.375   2.973   3.362  0.3436 -0.0372 -0.6302
 5355SOL     OW27526   3.725   0.394   4.974 -0.1897 -0.0077  0.2184
 5355SOL    HW127527   3.634   0.372   4.997 -0.7365  1.7639 -0.2086
 5355SOL    HW227528   3.756   0.417   5.062 -1.2288  1.9037  0.0929
 5356SOL     OW27529   3.444   3.575   5.956 -0.1652 -0.2377 -0.4089
 5356SOL    HW127530   3.391   3.574   5.876  0.4739 -0.5057 -0.8248
 5356SOL    HW227531   3.525   3.605   5.915 -0.2265  2.4327  1.3879
 5357SOL     OW27532   3.730   4.553   6.643  0.1272  0.9774 -0.8704
 5357SOL    HW127533   3.692   4.467   6.665  0.1616  1.6313  1.7364
 5357SOL    HW227534   3.651   4.584   6.599 -0.6475  0.7289  0.3269
 5358SOL     OW27535   1.316   2.706   8.525 -0.2635  0.9438 -0.6016
 5358SOL    HW127536   1.326   2.738   8.435  1.6657 -0.8743 -1.0271
 5358SOL    HW227537   1.223   2.704   8.545 -0.4772 -1.3765 -1.8351
 5359SOL     OW27538   2.617   1.195   8.993  0.3074 -0.2631 -0.0938
 5359SOL    HW127539   2.679   1.126   9.016 -0.8288 -1.1455  0.2669
 5359SOL    HW227540   2.537   1.168   9.037 -0.3319  2.1288  0.2171
 5360SOL     OW27541   2.004   0.754  10.358 -0.3797 -0.1300  0.4663
 5360SOL    HW127542   2.048   0.683  10.406  0.1757 -0.9439 -1.2426
 5360SOL    HW227543   2.082   0.796  10.321  0.1320 -1.4339  0.0647
 5361SOL     OW27544   0.080   3.924   3.278  0.5714 -0.6729 -0.1458
 5361SOL    HW127545   0.011   3.864   3.250  0.2411 -1.1463  1.6521
 5361SOL    HW227546   0.066   4.011   3.241 -2.0018 -0.4917  1.2871
 5362SOL     OW27547   4.597   3.135   8.369  0.6633 -0.3155 -0.2917
 5362SOL    HW127548   4.553   3.104   8.448  2.2364  0.4279  0.8662
 5362SOL    HW227549   4.684   3.130   8.408 -0.2982  0.2464  1.9024
 5363SOL     OW27550   4.053   3.738   6.141 -0.7098 -0.3927  0.4480
 5363SOL    HW127551   4.052   3.780   6.226 -2.0564 -0.1045  0.2909
 5363SOL    HW227552   3.963   3.705   6.142 -0.9726  0.2244 -2.5385
 5364SOL     OW27553   2.619   3.767   7.528  0.0030 -0.4694 -0.7245
 5364SOL    HW127554   2.578   3.757   7.614 -1.3520  3.0910 -0.9971
 5364SOL    HW227555   2.551   3.813   7.479 -0.0868  0.0481 -0.1066
 5365SOL     OW27556   0.752   2.693   1.313 -1.1227  0.6677  0.5804
 5365SOL    HW127557   0.764   2.615   1.366  0.4446 -0.9176 -2.1083
 5365SOL    HW227558   0.763   2.657   1.225  0.9224  1.8624  0.3498
 5366SOL     OW27559   3.889   3.163   3.395  0.0223  0.3279 -0.5327
 5366SOL    HW127560   3.898   3.253   3.427 -1.4127 -0.3040  1.6745
 5366SOL    HW227561   3.963   3.122   3.441 -0.2544 -0.6712 -0.9857
 5367SOL     OW27562   3.616   1.709   4.683 -0.6522  0.2587 -0.0873
 5367SOL    HW127563   3.689   1.712   4.744 -1.6207  0.7737  1.0623
 5367SOL    HW227564   3.605   1.802   4.662  0.4901 -0.0696 -2.0174
 5368SOL     OW27565   0.413   3.017   9.618  0.1771  0.1210 -0.1183
 5368SOL    HW127566   0.392   3.070   9.541 -0.2368  1.7465  1.1036
 5368SOL    HW227567   0.490   3.053   9.662 -0.3836 -0.0714  1.0262
 5369SOL     OW27568   3.698   3.688   4.933  0.0502 -0.2813 -0.3955
 5369SOL    HW127569   3.659   3.772   4.907 -0.3826 -0.3081  0.1787
 5369SOL    HW227570   3.618   3.643   4.960 -1.1716  1.3238 -1.3701
 5370SOL     OW27571   1.479   3.486   8.682  0.7415  0.1409 -0.6107
 5370SOL    HW127572   1.530   3.492   8.601  2.8538 -0.7361  0.6420
 5370SOL    HW227573   1.536   3.525   8.749  0.2999  1.7815 -1.1857
 5371SOL     OW27574   1.007   1.482   9.272  0.0442  0.0484 -0.0862
 5371SOL    HW127575   1.077   1.431   9.232 -2.0228 -2.4247 -0.5443
 5371SOL    HW227576   0.955   1.413   9.313 -1.0308  0.8655 -0.0731
 5372SOL     OW27577   3.945   0.532  10.892  0.6506  0.5191 -0.3267
 5372SOL    HW127578   3.878   0.586  10.850 -0.7687 -1.3036 -0.4055
 5372SOL    HW227579   3.892   0.489  10.959  0.7150  0.1211 -0.5336
 5373SOL     OW27580   3.157   1.996  13.691 -0.2441 -0.0741  0.5098
 5373SOL    HW127581   3.218   1.976  13.762  0.3500 -2.3488 -0.6235
 5373SOL    HW227582   3.208   1.964  13.616 -1.5450  2.7104 -1.5653
 5374SOL     OW27583   2.893   4.554   1.324  0.2647 -0.0356  0.5092
 5374SOL    HW127584   2.857   4.565   1.236  1.0825 -1.9511 -0.0653
 5374SOL    HW227585   2.812   4.561   1.376 -0.1566  1.3266 -0.3389
 5375SOL     OW27586   4.121   3.233   8.289  0.2811 -0.2805 -0.2285
 5375SOL    HW127587   4.144   3.161   8.347 -0.7675  0.7380  1.4318
 5375SOL    HW227588   4.026   3.232   8.285  0.2125  4.2925 -0.5522
 5376SOL     OW27589   1.778   2.268   6.801 -0.0248 -0.4122 -0.0851
 5376SOL    HW127590   1.819   2.336   6.749 -2.4373  1.9481  1.0763
 5376SOL    HW227591   1.849   2.204   6.796 -0.1396 -0.6492  1.4019
 5377SOL     OW27592   0.965   2.180  15.175 -0.1230 -0.1267  0.8156
 5377SOL    HW127593   0.950   2.273  15.158 -0.4867 -0.1184  1.1782
 5377SOL    HW227594   0.890   2.128  15.147  1.6763 -0.5607 -3.1584
 5378SOL     OW27595   0.861   0.800  11.077 -0.3271 -0.2647  0.2184
 5378SOL    HW127596   0.849   0.889  11.109  1.3036  1.1148 -3.0504
 5378SOL    HW227597   0.930   0.815  11.012 -2.0578 -2.2312 -2.0723
 5379SOL     OW27598   3.609   2.186  15.375  0.0085 -0.0329 -0.2504
 5379SOL    HW127599   3.596   2.188  15.280 -0.6312 -1.2248 -0.1852
 5379SOL    HW227600   3.573   2.270  15.402  1.0221  1.0952 -2.4095
 5380SOL     OW27601   4.619   2.195  17.448  0.5595 -0.1372 -0.2061
 5380SOL    HW127602   4.694   2.222  17.501 -0.0084 -1.2384  1.1674
 5380SOL    HW227603   4.552   2.247  17.493  0.1890 -1.1651  0.4193
 5381SOL     OW27604   3.502   3.573   0.767  0.4339 -0.2375 -1.1295
 5381SOL    HW127605   3.595   3.592   0.781  0.2651  0.2390 -0.6905
 5381SOL    HW227606   3.522   3.483   0.740  0.9527 -0.4463 -0.0791
 5382SOL     OW27607   1.779   1.598  15.325 -0.3831  0.0934  0.0196
 5382SOL    HW127608   1.713   1.538  15.360 -0.0256 -0.1666  0.2380
 5382SOL    HW227609   1.745   1.684  15.349  0.1898  0.5960 -0.9444
 5383SOL     OW27610   3.773   2.043  12.964  0.2730 -0.0581 -0.5671
 5383SOL    HW127611   3.858   2.084  12.982  0.2682  0.5362 -1.9292
 5383SOL    HW227612   3.751   2.080  12.879 -2.2080  0.1225  0.1690
 5384SOL     OW27613   3.220   3.810   3.282  0.0777 -0.0030 -0.0711
 5384SOL    HW127614   3.253   3.723   3.302 -1.3542 -0.6229 -0.4564
 5384SOL    HW227615   3.153   3.823   3.349  1.4338  0.3032  1.2395
 5385SOL     OW27616   2.403   2.400  17.291 -0.1463 -0.2138 -0.0854
 5385SOL    HW127617   2.366   2.314  17.270 -3.4868  1.2004 -0.1148
 5385SOL    HW227618   2.490   2.366  17.308 -0.4835 -0.7324  0.5967
 5386SOL     OW27619   2.613   0.718  14.664 -0.2207  0.8168  0.1773
 5386SOL    HW127620   2.589   0.735  14.573  1.3034  1.2707 -0.1514
 5386SOL    HW227621   2.548   0.653  14.691  0.6814 -0.3494 -0.4608
 5387SOL     OW27622   1.933   2.301   7.496  0.4651 -0.0975 -0.3422
 5387SOL    HW127623   1.964   2.225   7.545  0.0817  0.8853  1.4257
 5387SOL    HW227624   1.846   2.318   7.531  1.8050  0.4658  2.7107
 5388SOL     OW27625   3.956   3.941   6.363 -0.8021  0.8157 -0.4405
 5388SOL    HW127626   4.020   4.008   6.342 -1.3302  1.3736 -0.2608
 5388SOL    HW227627   3.962   3.947   6.458  2.7108  1.7961 -0.7190
 5389SOL     OW27628   0.490   2.248  11.127 -0.0182  0.0778 -0.3929
 5389SOL    HW127629   0.544   2.179  11.165  0.3612  1.5983  1.7755
 5389SOL    HW227630   0.552   2.313  11.094 -0.1309  1.1651  1.5954
 5390SOL     OW27631   1.157   0.386   7.692 -0.0616 -0.2317 -0.1196
 5390SOL    HW127632   1.126   0.402   7.604  0.5046  0.4369 -0.1954
 5390SOL    HW227633   1.099   0.446   7.738  2.6107  0.0734  2.9161
 5391SOL     OW27634   4.315   3.212   7.794 -0.3230 -0.6774  0.3793
 5391SOL    HW127635   4.296   3.185   7.884 -0.6560  2.6373  1.3158
 5391SOL    HW227636   4.279   3.300   7.793  2.2358  0.3946  1.5470
 5392SOL     OW27637   1.076   2.539  12.634  0.2233 -0.2625  0.1898
 5392SOL    HW127638   1.171   2.533  12.621  0.3405 -1.5018  1.7130
 5392SOL    HW227639   1.056   2.610  12.572 -0.6799 -0.4032  0.3293
 5393SOL     OW27640   2.414   1.298   7.823  0.3411  0.1239  0.1075
 5393SOL    HW127641   2.326   1.316   7.857  0.9763  4.1003 -0.3718
 5393SOL    HW227642   2.445   1.388   7.815  1.3432 -0.4764 -2.7829
 5394SOL     OW27643   3.299   1.417   5.899 -0.5532 -0.0622  0.2618
 5394SOL    HW127644   3.346   1.489   5.857  0.4374 -1.1008 -0.4126
 5394SOL    HW227645   3.260   1.464   5.973 -0.1979  1.7105 -0.6791
 5395SOL     OW27646   3.228   0.275  15.912 -0.0933 -0.3821  0.4887
 5395SOL    HW127647   3.238   0.352  15.856 -0.5139 -1.3382 -0.8787
 5395SOL    HW227648   3.206   0.210  15.845 -0.0061  1.5113 -1.3622
 5396SOL     OW27649   3.869   2.945   3.199  0.4675 -0.4997  0.1576
 5396SOL    HW127650   3.829   2.964   3.114  3.5901  0.7849 -1.0379
 5396SOL    HW227651   3.829   3.017   3.248  1.7613  1.8447 -2.2214
 5397SOL     OW27652   3.775   3.506   2.326  0.2484  0.3184  0.0732
 5397SOL    HW127653   3.831   3.437   2.360 -0.7943 -0.6166 -0.0857
 5397SOL    HW227654   3.804   3.489   2.237  1.5616  2.7405  0.0262
 5398SOL     OW27655   4.593   0.601   4.192 -0.5093  0.4677  0.0476
 5398SOL    HW127656   4.558   0.669   4.134 -3.3576  0.8653  2.2399
 5398SOL    HW227657   4.686   0.596   4.169 -0.6615  0.1166 -0.4988
 5399SOL     OW27658   2.211   0.651   1.711  0.4724  0.5636  0.4278
 5399SOL    HW127659   2.118   0.668   1.725  0.5914  2.8505 -1.5953
 5399SOL    HW227660   2.245   0.652   1.800 -0.9284 -0.1617  0.9634
 5400SOL     OW27661   0.479   2.100   2.450 -0.1585 -0.6263  0.1508
 5400SOL    HW127662   0.553   2.065   2.401 -0.2934 -1.1603  0.3330
 5400SOL    HW227663   0.411   2.126   2.389  0.1583  2.0257  0.9223
 5401SOL     OW27664   3.052   2.301   8.424  0.7643  0.0021  0.0199
 5401SOL    HW127665   3.016   2.235   8.483  1.1208  0.0160  0.2535
 5401SOL    HW227666   3.122   2.256   8.377  0.2598 -1.0867  0.3130
 5402SOL     OW27667   0.403   3.796   7.247 -0.0198 -0.2695  0.2577
 5402SOL    HW127668   0.371   3.800   7.337 -1.4350 -2.3215 -0.1722
 5402SOL    HW227669   0.464   3.870   7.247  1.2321 -1.3277 -1.8306
 5403SOL     OW27670   3.457   1.712   8.224  0.3885  0.0556  0.1204
 5403SOL    HW127671   3.454   1.759   8.307  0.0246  0.5315 -0.1626
 5403SOL    HW227672   3.372   1.733   8.185  1.2482  0.2793 -1.6111
 5404SOL     OW27673   3.946   1.538  14.402  0.2473 -0.0040 -0.0298
 5404SOL    HW127674   4.015   1.573  14.346 -0.5511  0.9019 -0.4533
 5404SOL    HW227675   3.900   1.617  14.429  0.8593 -0.2778  1.8380
 5405SOL     OW27676   1.904   0.042   6.487  0.2613  0.3444 -0.3867
 5405SOL    HW127677   1.899   4.700   6.558  0.3524 -1.0906 -1.6541
 5405SOL    HW227678   1.997   0.038   6.467 -0.2049 -0.1453 -2.5090
 5406SOL     OW27679   3.340   4.436   8.327  0.0578 -0.0256  0.1626
 5406SOL    HW127680   3.245   4.439   8.317  0.4006 -0.0215 -2.9374
 5406SOL    HW227681   3.338   4.392   8.412  1.0886 -2.5069 -1.0979
 5407SOL     OW27682   4.030   0.257   8.232 -0.0780  0.2513  0.1935
 5407SOL    HW127683   3.964   0.326   8.225 -1.8940 -1.1812  3.1310
 5407SOL    HW227684   4.084   0.274   8.155 -0.3042  0.4341  0.0740
 5408SOL     OW27685   2.452   3.643   0.460 -0.0690 -0.7551  0.3780
 5408SOL    HW127686   2.418   3.597   0.383  2.6892 -1.6735 -0.2871
 5408SOL    HW227687   2.471   3.724   0.413  1.5118  0.4716  3.1484
 5409SOL     OW27688   2.697   3.273   7.495  0.0073  0.4933  0.4685
 5409SOL    HW127689   2.618   3.301   7.541 -1.6494 -0.0634 -2.0407
 5409SOL    HW227690   2.762   3.341   7.510  1.0400 -0.4717  0.3684
 5410SOL     OW27691   2.610   0.052   4.890 -0.0343 -0.7287 -0.2126
 5410SOL    HW127692   2.613   0.147   4.895  2.3190 -0.9050  1.8027
 5410SOL    HW227693   2.668   0.023   4.820  1.1421  0.4759  0.2744
 5411SOL     OW27694   1.540   4.457   1.919 -0.0207  0.0033  0.1065
 5411SOL    HW127695   1.485   4.401   1.863 -0.1709 -0.6969  0.9576
 5411SOL    HW227696   1.621   4.467   1.869 -0.6194  1.1061 -0.6554
 5412SOL     OW27697   1.174   2.928   8.283 -0.0682  0.1550  0.6258
 5412SOL    HW127698   1.183   2.834   8.266  0.9588  0.7298 -1.9313
 5412SOL    HW227699   1.267   2.948   8.276  0.5557 -2.7888  0.6903
 5413SOL     OW27700   3.710   0.604   9.621 -0.7372 -0.1921  0.3192
 5413SOL    HW127701   3.744   0.587   9.709  1.2934  2.2636  0.0004
 5413SOL    HW227702   3.619   0.615   9.650  0.3979 -0.0876  3.7598
 5414SOL     OW27703   3.740   0.316   7.399  0.1844  0.3241  0.2863
 5414SOL    HW127704   3.683   0.386   7.365 -3.3511 -1.7287  1.9468
 5414SOL    HW227705   3.792   0.356   7.469 -0.3609 -0.3895  1.1032
 5415SOL     OW27706   0.464   1.311   9.066 -0.4617  0.1739 -0.1266
 5415SOL    HW127707   0.488   1.383   9.009 -0.0493  0.6378  0.6289
 5415SOL    HW227708   0.545   1.297   9.117 -0.8593  0.8436  0.6846
 5416SOL     OW27709   2.644   2.263  14.731  0.1447  0.0638 -0.0844
 5416SOL    HW127710   2.666   2.343  14.778 -0.2269 -0.5878  1.1938
 5416SOL    HW227711   2.602   2.285  14.648 -0.6878 -1.5133 -0.0858
 5417SOL     OW27712   3.408   0.652  15.540  0.5275 -0.0834 -0.3037
 5417SOL    HW127713   3.395   0.737  15.582 -0.0462  0.2994 -1.2466
 5417SOL    HW227714   3.372   0.672  15.454  0.1008  1.0516  0.1436
 5418SOL     OW27715   2.592   3.634   8.708  0.0811 -0.4392  0.2660
 5418SOL    HW127716   2.500   3.658   8.700  0.2983  0.6550  1.0485
 5418SOL    HW227717   2.627   3.714   8.668  0.1244 -0.9996 -0.8249
 5419SOL     OW27718   4.018   2.185   7.188  0.2077 -0.3301 -0.3352
 5419SOL    HW127719   3.931   2.214   7.212  0.8365  0.0382  1.4993
 5419SOL    HW227720   4.035   2.115   7.251  0.9031  0.1641  0.0376
 5420SOL     OW27721   1.464   0.911   3.463  0.3878 -0.2108 -0.1112
 5420SOL    HW127722   1.497   1.000   3.471  0.4788 -0.3182  0.6760
 5420SOL    HW227723   1.537   0.867   3.420 -0.2759 -0.9670 -0.4564
 5421SOL     OW27724   4.056   2.353   8.528  0.5578  0.7896  0.0442
 5421SOL    HW127725   4.015   2.287   8.473 -0.7940  1.8450 -0.2138
 5421SOL    HW227726   4.136   2.318   8.567  0.1283 -0.5936 -0.3147
 5422SOL     OW27727   0.608   2.335   2.612  0.0900  0.0099  0.4703
 5422SOL    HW127728   0.584   2.357   2.522 -2.4465 -1.1568  0.8823
 5422SOL    HW227729   0.526   2.293   2.637  0.1882 -0.5756 -0.1984
 5423SOL     OW27730   2.340   0.345   9.395 -0.3816  0.5032 -0.0502
 5423SOL    HW127731   2.251   0.345   9.430 -0.7150  1.5945 -0.9305
 5423SOL    HW227732   2.362   0.257   9.426 -0.3040 -0.2783 -2.3096
 5424SOL     OW27733   0.988   0.873   6.606 -0.2465 -0.6377  0.1061
 5424SOL    HW127734   1.075   0.875   6.644 -1.0365 -1.7574  1.9525
 5424SOL    HW227735   1.000   0.784   6.570 -0.0219 -0.5854  0.0537
 5425SOL     OW27736   0.814   1.083   8.072  0.5868  0.0126  0.2423
 5425SOL    HW127737   0.876   1.149   8.040 -0.0097  0.7028  0.5143
 5425SOL    HW227738   0.877   1.031   8.122  2.9387  0.9303 -1.7546
 5426SOL     OW27739   2.895   0.281  17.633  0.1261  0.2367 -0.2683
 5426SOL    HW127740   2.853   0.195  17.629  1.9545 -0.5069 -2.7776
 5426SOL    HW227741   2.988   0.262  17.637  0.3740  1.5920  0.1623
 5427SOL     OW27742   1.197   1.232   9.272  1.2061 -0.7287  0.3558
 5427SOL    HW127743   1.142   1.157   9.249 -0.1413  0.5507 -0.6028
 5427SOL    HW227744   1.229   1.269   9.190 -2.1014 -2.0977 -1.5485
 5428SOL     OW27745   0.608   1.337   1.401 -0.0749 -0.4112  0.7554
 5428SOL    HW127746   0.557   1.277   1.454 -1.0882 -0.1078  0.1195
 5428SOL    HW227747   0.556   1.346   1.321  1.6827  0.1698 -0.3234
 5429SOL     OW27748   1.604   1.983  14.464  0.2697  0.1930 -0.1962
 5429SOL    HW127749   1.659   2.059  14.481 -0.3771  0.4487  0.8029
 5429SOL    HW227750   1.536   1.989  14.532  1.1606 -0.2712  0.7374
 5430SOL     OW27751   3.074   2.055  11.600  0.2978  0.2033 -0.2296
 5430SOL    HW127752   3.120   1.995  11.659 -1.7928  0.4421  1.6508
 5430SOL    HW227753   3.042   2.123  11.660 -0.3711 -0.4566  0.1595
 5431SOL     OW27754   1.886   2.132  16.015  0.0001  0.4686  0.1145
 5431SOL    HW127755   1.921   2.084  15.940  1.0315  0.4518  0.6039
 5431SOL    HW227756   1.869   2.219  15.978 -0.2777  0.0457 -0.7524
 5432SOL     OW27757   2.589   0.328  13.107  0.1248 -0.0547  0.1315
 5432SOL    HW127758   2.533   0.289  13.040 -0.1360  1.4557 -0.5292
 5432SOL    HW227759   2.668   0.356  13.062 -0.6726  2.1886  0.1341
 5433SOL     OW27760   1.208   0.572  13.955 -0.1390 -0.1723 -0.4315
 5433SOL    HW127761   1.189   0.575  14.049 -1.1545 -0.8591 -0.6151
 5433SOL    HW227762   1.272   0.642  13.944  0.4096 -0.5980  0.0013
 5434SOL     OW27763   4.630   4.243  12.525 -0.5236  0.1586 -0.0636
 5434SOL    HW127764   4.639   4.207  12.613 -1.1030  0.0540 -0.0507
 5434SOL    HW227765   4.720   4.266  12.501 -0.1657 -0.5594  0.6145
 5435SOL     OW27766   2.477   1.774   7.174  0.1799  0.4655 -0.1176
 5435SOL    HW127767   2.416   1.816   7.235  1.4191 -0.8329  1.9765
 5435SOL    HW227768   2.560   1.765   7.221  1.3012  0.8096 -2.0074
 5436SOL     OW27769   0.740   1.992  11.523  0.3234 -0.2360 -0.5116
 5436SOL    HW127770   0.738   2.057  11.593 -2.2005 -0.9173  0.0337
 5436SOL    HW227771   0.803   2.036  11.466  1.0764  0.4176  0.8335
 5437SOL     OW27772   3.521   2.350   2.776 -0.0027  0.5130 -0.7261
 5437SOL    HW127773   3.527   2.426   2.718 -1.2880  1.6369  0.6199
 5437SOL    HW227774   3.431   2.349   2.808  0.1540 -0.3424 -0.3102
 5438SOL     OW27775   3.268   2.836   5.508 -0.2023  0.5136  0.0847
 5438SOL    HW127776   3.229   2.919   5.483 -2.8510 -0.5624  0.6933
 5438SOL    HW227777   3.208   2.767   5.480 -1.4174  0.9829  1.5266
 5439SOL     OW27778   1.098   3.882  10.756 -0.0345  0.3893  0.1150
 5439SOL    HW127779   1.043   3.879  10.834 -0.0795  1.3825  0.1230
 5439SOL    HW227780   1.179   3.837  10.779  0.2617  0.6578 -0.3891
 5440SOL     OW27781   3.561   1.890  17.062  0.7840  0.1690  0.0297
 5440SOL    HW127782   3.621   1.866  16.992  2.1141 -0.9159  1.5449
 5440SOL    HW227783   3.547   1.982  17.037 -0.0234  0.3976  1.2878
 5441SOL     OW27784   1.182   1.892   2.161 -0.0235  0.1392  0.0486
 5441SOL    HW127785   1.273   1.912   2.183  0.1038 -1.2511  0.7998
 5441SOL    HW227786   1.178   1.902   2.066 -1.3622  0.6941  0.1568
 5442SOL     OW27787   0.263   4.557   5.034  0.1960  0.3817 -0.0613
 5442SOL    HW127788   0.260   4.616   4.958 -0.4343  1.1813  0.5830
 5442SOL    HW227789   0.177   4.515   5.026 -1.2484  2.8541  2.2531
 5443SOL     OW27790   0.976   4.036  10.560  0.0241  0.4954  0.7167
 5443SOL    HW127791   1.028   3.980  10.618 -0.6834 -0.8819  0.0067
 5443SOL    HW227792   0.905   3.975  10.540  1.3225 -0.6922 -0.2295
 5444SOL     OW27793   1.513   3.182  13.251 -0.2260  0.6523  0.1086
 5444SOL    HW127794   1.474   3.111  13.200  0.0197  0.0520  0.7452
 5444SOL    HW227795   1.445   3.231  13.296  1.8618  0.8453  3.0654
 5445SOL     OW27796   3.082   1.840   6.218  0.6914 -0.6892  0.0749
 5445SOL    HW127797   3.058   1.905   6.284  0.1866 -0.9972  0.1948
 5445SOL    HW227798   3.040   1.763   6.258 -0.5673 -0.3582 -0.6038
 5446SOL     OW27799   0.100   3.981   8.452 -0.1359  0.1937  0.1189
 5446SOL    HW127800   0.051   4.031   8.517  2.6833  2.3410  0.6015
 5446SOL    HW227801   0.191   3.987   8.481  0.5697  1.0879 -2.2750
 5447SOL     OW27802   4.071   1.135   3.013  0.4077 -0.6354 -0.2242
 5447SOL    HW127803   4.124   1.167   2.940 -0.3060  0.0797 -0.4193
 5447SOL    HW227804   4.071   1.213   3.068  1.8574 -0.7254 -0.0900
 5448SOL     OW27805   1.974   1.403  16.833  0.1122 -0.0666  0.2547
 5448SOL    HW127806   2.066   1.392  16.807 -0.5832 -1.7377 -1.5642
 5448SOL    HW227807   1.947   1.471  16.772 -0.3337 -0.7859 -0.3543
 5449SOL     OW27808   2.480   0.226   1.714 -0.1135  0.2294  0.4324
 5449SOL    HW127809   2.397   0.216   1.761 -0.2449 -0.3722  0.0786
 5449SOL    HW227810   2.448   0.296   1.658  0.2294 -0.4710 -0.6377
 5450SOL     OW27811   1.008   1.189  12.367  0.0290  0.6761  0.1124
 5450SOL    HW127812   1.092   1.154  12.336 -1.2777 -1.4593 -1.0058
 5450SOL    HW227813   0.969   1.231  12.291 -0.8418  0.4667  0.4417
 5451SOL     OW27814   3.784   2.667  13.248 -0.2030  0.5475 -0.2941
 5451SOL    HW127815   3.854   2.707  13.300 -0.4667 -1.6816  1.7492
 5451SOL    HW227816   3.799   2.574  13.234  0.9224  0.4322  1.7760
 5452SOL     OW27817   1.549   2.505   5.592 -0.0665 -0.4583  0.1358
 5452SOL    HW127818   1.561   2.426   5.539 -0.3312 -1.1672  1.1325
 5452SOL    HW227819   1.505   2.560   5.528  2.0288  2.1880  0.9420
 5453SOL     OW27820   4.279   2.637   7.435  0.0870  0.1187 -0.5382
 5453SOL    HW127821   4.354   2.634   7.376  0.7194  1.1749  0.1928
 5453SOL    HW227822   4.208   2.663   7.377  0.3452  0.9285 -0.5006
 5454SOL     OW27823   2.180   2.782   2.591 -0.3178 -0.6721  0.3882
 5454SOL    HW127824   2.187   2.816   2.681  2.7903 -0.5989  0.1127
 5454SOL    HW227825   2.111   2.839   2.559  1.4924  2.2006  1.6183
 5455SOL     OW27826   4.604   1.999  16.423 -0.3151  0.1130 -0.2585
 5455SOL    HW127827   4.600   1.961  16.336  0.6470 -2.6289  0.9049
 5455SOL    HW227828   4.700   2.000  16.433 -0.4900  0.7802  1.4390
 5456SOL     OW27829   1.994   3.175   3.573  0.1016  0.3304  0.0692
 5456SOL    HW127830   2.087   3.195   3.559  0.1258 -1.0596 -1.7476
 5456SOL    HW227831   1.956   3.247   3.522 -0.2063 -0.4094 -0.7481
 5457SOL     OW27832   1.474   1.950   3.732 -0.2625 -0.1788 -0.6051
 5457SOL    HW127833   1.533   2.007   3.684  1.7735 -0.9104  0.9783
 5457SOL    HW227834   1.507   1.866   3.699  0.6799 -0.9805  2.3529
 5458SOL     OW27835   0.156   4.278   5.491 -0.0000  0.1283  0.0134
 5458SOL    HW127836   0.243   4.319   5.493  0.6289 -1.2641  1.1875
 5458SOL    HW227837   0.175   4.185   5.496  0.2265  0.1263 -0.9921
 5459SOL     OW27838   1.887   0.153   1.399  0.8163 -0.7027  0.3444
 5459SOL    HW127839   1.817   0.218   1.402  1.0134 -0.3755 -1.6675
 5459SOL    HW227840   1.939   0.173   1.477  1.6327  0.3289 -0.4584
 5460SOL     OW27841   3.283   0.479  15.725 -0.4030 -0.2078 -0.4432
 5460SOL    HW127842   3.288   0.558  15.779 -0.8061  0.6368 -1.6440
 5460SOL    HW227843   3.325   0.510  15.645 -0.2842  0.4958 -0.1103
 5461SOL     OW27844   2.665   1.760   5.840  0.2868 -0.1941  0.3712
 5461SOL    HW127845   2.702   1.672   5.828 -1.6913 -1.2210  1.8161
 5461SOL    HW227846   2.739   1.797   5.888  0.2408 -0.0423  0.3233
 5462SOL     OW27847   2.210   2.669   8.925 -0.0137 -0.1698  0.2339
 5462SOL    HW127848   2.133   2.706   8.967 -0.6057 -3.7674  2.3284
 5462SOL    HW227849   2.273   2.700   8.991  0.4595 -1.1575  0.2430
 5463SOL     OW27850   0.481   2.274   7.004  0.5739 -0.1488  0.0101
 5463SOL    HW127851   0.492   2.225   7.086  1.6962  0.4636  0.2286
 5463SOL    HW227852   0.435   2.354   7.032  1.4214 -0.3812  2.0415
 5464SOL     OW27853   3.487   2.505   3.315 -0.0276 -0.3532 -0.2473
 5464SOL    HW127854   3.531   2.578   3.360 -2.2835  1.0672 -0.3636
 5464SOL    HW227855   3.447   2.471   3.396 -1.3225 -1.8039 -1.4964
 5465SOL     OW27856   2.828   4.501  10.146  0.1772 -0.2028  0.5617
 5465SOL    HW127857   2.781   4.419  10.165  2.0197 -1.6162 -0.8942
 5465SOL    HW227858   2.755   4.558  10.166 -0.0637 -0.6325  0.9173
 5466SOL     OW27859   3.838   2.544   7.351  0.2433  0.4147  0.0018
 5466SOL    HW127860   3.894   2.502   7.416  2.3076  1.0141 -1.3976
 5466SOL    HW227861   3.864   2.636   7.354 -0.6976  0.6323  1.1615
 5467SOL     OW27862   1.709   2.510   9.949 -0.3508 -0.6728  0.3329
 5467SOL    HW127863   1.761   2.509   9.869 -0.8470 -0.0525  0.0023
 5467SOL    HW227864   1.710   2.603   9.972  0.1326 -1.1114  2.0432
 5468SOL     OW27865   1.437   2.992   8.300  0.3675  0.0756 -0.1647
 5468SOL    HW127866   1.518   2.949   8.326  1.2559  1.8255 -0.0436
 5468SOL    HW227867   1.444   3.071   8.354  0.9019 -0.5993  0.7690
 5469SOL     OW27868   1.827   0.763   4.299 -0.2689 -0.0040  1.2350
 5469SOL    HW127869   1.761   0.831   4.286  2.3573  2.2259 -0.5430
 5469SOL    HW227870   1.908   0.803   4.268 -0.8973  0.7108  0.5332
 5470SOL     OW27871   3.056   0.596   6.395  0.0096  0.1350 -0.1628
 5470SOL    HW127872   3.065   0.519   6.452 -0.2025 -0.7985 -1.3914
 5470SOL    HW227873   2.968   0.623   6.421  0.0953 -1.8596  2.1864
 5471SOL     OW27874   2.667   0.698   9.538 -0.0079  0.5568  0.2601
 5471SOL    HW127875   2.654   0.693   9.633  1.3537 -1.0387  0.3722
 5471SOL    HW227876   2.758   0.727   9.535 -0.0596  0.5611 -1.5078
 5472SOL     OW27877   0.838   3.312  17.192  0.4329  0.4939  0.2453
 5472SOL    HW127878   0.890   3.390  17.172  0.8296 -0.1120 -1.0710
 5472SOL    HW227879   0.902   3.243  17.207  0.9400  0.8304 -0.3660
 5473SOL     OW27880   0.937   2.530  15.496 -0.8156 -0.1651  0.1094
 5473SOL    HW127881   0.879   2.503  15.425 -1.3389 -0.0063  0.4845
 5473SOL    HW227882   1.002   2.581  15.448 -2.1972 -0.6662 -2.2731
 5474SOL     OW27883   2.432   4.647   2.156  0.1034 -0.1402 -0.0539
 5474SOL    HW127884   2.389   4.590   2.220 -1.3498 -0.4855 -1.3377
 5474SOL    HW227885   2.519   4.607   2.163 -1.8339 -4.1367  0.6473
 5475SOL     OW27886   1.003   2.567   4.693 -0.1272  0.0936 -0.8849
 5475SOL    HW127887   0.922   2.593   4.736 -0.2502 -1.6673 -0.0477
 5475SOL    HW227888   0.976   2.482   4.659  2.7717 -1.8845  1.7336
 5476SOL     OW27889   2.889   3.580  11.278  0.0913  0.3332 -0.2086
 5476SOL    HW127890   2.834   3.512  11.240  0.3402  0.0171 -0.0023
 5476SOL    HW227891   2.866   3.575  11.371  0.3215 -1.0683 -0.2176
 5477SOL     OW27892   0.561   1.296   8.511  0.0979 -0.2925 -0.2338
 5477SOL    HW127893   0.473   1.261   8.500 -0.3409  0.1717  1.7149
 5477SOL    HW227894   0.596   1.256   8.591 -0.5643 -1.7853 -0.6906
 5478SOL     OW27895   2.470   0.092   5.979  0.0723  0.2119 -0.1549
 5478SOL    HW127896   2.387   0.075   6.023  0.2178  2.3941  0.9911
 5478SOL    HW227897   2.438   0.083   5.890  2.0493  1.9192 -1.0450
 5479SOL     OW27898   4.072   0.671   4.859 -0.3569  0.4655  0.3817
 5479SOL    HW127899   4.079   0.662   4.954  1.3826 -1.7207  0.0393
 5479SOL    HW227900   3.984   0.705   4.845 -0.4454  1.3383  3.0764
 5480SOL     OW27901   0.794   1.419   2.806  0.6308  0.0437  0.2393
 5480SOL    HW127902   0.704   1.442   2.831  0.7238  2.0878 -1.2866
 5480SOL    HW227903   0.842   1.498   2.830  0.7441  0.1094 -0.2072
 5481SOL     OW27904   3.352   0.260   3.616 -0.6519  0.6673 -0.0212
 5481SOL    HW127905   3.408   0.329   3.652  0.5476 -0.8189  0.9273
 5481SOL    HW227906   3.388   0.266   3.528  0.8144 -1.5911  0.4133
 5482SOL     OW27907   4.204   4.684   1.507 -0.1395 -0.2853  0.3800
 5482SOL    HW127908   4.132   4.639   1.463 -0.7409 -0.8394  1.9292
 5482SOL    HW227909   4.158   0.038   1.543 -0.0463  0.0873 -0.2924
 5483SOL     OW27910   4.360   4.545   8.494  0.1047  0.5499 -0.3448
 5483SOL    HW127911   4.276   4.542   8.541  0.6846 -2.0172  0.5421
 5483SOL    HW227912   4.359   4.469   8.436  0.6267  0.1024  0.2338
 5484SOL     OW27913   1.848   4.055   4.685  0.6401 -0.0875 -0.4650
 5484SOL    HW127914   1.844   4.000   4.607  0.7366 -0.6158 -0.0953
 5484SOL    HW227915   1.904   4.009   4.747  1.8597  0.1498 -1.4055
 5485SOL     OW27916   3.215   2.786  14.120  0.1930  0.2013 -0.4377
 5485SOL    HW127917   3.120   2.770  14.127  0.7568 -2.7579  0.3156
 5485SOL    HW227918   3.222   2.872  14.079 -0.1786  0.3326 -0.2298
 5486SOL     OW27919   0.765   1.610   1.052 -0.0190 -0.0769  0.1720
 5486SOL    HW127920   0.828   1.680   1.069 -0.5615  0.3497  0.4461
 5486SOL    HW227921   0.685   1.625   1.103 -0.3075  0.8084 -0.5307
 5487SOL     OW27922   0.249   3.910  13.628 -0.1937 -0.0175 -0.1645
 5487SOL    HW127923   0.304   3.904  13.706  2.6037 -2.8667 -2.3527
 5487SOL    HW227924   0.311   3.943  13.563 -1.4849  1.4863 -0.6379
 5488SOL     OW27925   2.769   4.154  15.175  0.4171 -0.5539 -0.3166
 5488SOL    HW127926   2.858   4.151  15.140  1.1379 -0.5201  1.5156
 5488SOL    HW227927   2.725   4.105  15.106 -0.7234  0.7837 -0.5301
 5489SOL     OW27928   2.980   3.913   7.711 -0.2195  0.3458  0.4219
 5489SOL    HW127929   2.916   3.939   7.777 -1.7411  0.5082 -1.1062
 5489SOL    HW227930   2.950   3.970   7.640  2.0685 -0.3860 -1.1345
 5490SOL     OW27931   2.031   0.177   5.925 -0.6548 -0.3764  0.0710
 5490SOL    HW127932   1.966   0.155   5.991 -0.5225 -1.7353 -0.2578
 5490SOL    HW227933   1.990   0.245   5.871 -0.8537 -2.2174 -2.0822
 5491SOL     OW27934   0.182   1.016   9.333  0.4442 -0.1881  0.6224
 5491SOL    HW127935   0.226   0.933   9.352 -0.7606 -0.7189  1.0929
 5491SOL    HW227936   0.143   0.990   9.250  0.5666  1.1587  0.1445
 5492SOL     OW27937   3.648   2.337   3.034  0.4213  0.1906  0.0805
 5492SOL    HW127938   3.637   2.308   2.943  1.1837 -1.8936  0.6429
 5492SOL    HW227939   3.672   2.429   3.021  0.6342  0.2243  0.7536
 5493SOL     OW27940   2.798   0.636   6.430  0.2140  0.1320  0.2467
 5493SOL    HW127941   2.784   0.651   6.523 -0.3680 -0.7581  0.3012
 5493SOL    HW227942   2.728   0.574   6.409 -0.4701  0.5975  1.1386
 5494SOL     OW27943   0.498   2.344   7.509  0.6483 -0.0529 -0.2032
 5494SOL    HW127944   0.539   2.315   7.590  0.5088 -0.6227 -0.3321
 5494SOL    HW227945   0.538   2.431   7.511  0.8606 -0.1724  0.7249
 5495SOL     OW27946   0.092   3.371  17.149  0.8391  0.6243 -0.3806
 5495SOL    HW127947   0.152   3.344  17.218  0.3060  1.5874  0.4506
 5495SOL    HW227948   0.147   3.415  17.084 -1.4347  0.2198 -2.6098
 5496SOL     OW27949   1.787   3.025   5.660  0.2754  0.1501 -0.2728
 5496SOL    HW127950   1.783   2.986   5.747 -1.0003 -1.6971 -1.1529
 5496SOL    HW227951   1.871   2.990   5.629  0.6449  0.3192  0.5315
 5497SOL     OW27952   1.156   3.453   2.764  0.1882 -0.5803  0.3480
 5497SOL    HW127953   1.140   3.538   2.804 -1.3986 -0.8518  0.2875
 5497SOL    HW227954   1.092   3.448   2.692 -0.3731  0.9925  0.7541
 5498SOL     OW27955   4.265   1.651   7.674  0.0502  0.5497  0.5918
 5498SOL    HW127956   4.213   1.576   7.643  2.2042 -0.8589  0.3894
 5498SOL    HW227957   4.276   1.700   7.593  0.5253 -1.8768 -0.8065
 5499SOL     OW27958   0.082   1.683   7.414 -0.2685  0.4860 -0.2014
 5499SOL    HW127959   0.076   1.635   7.332 -0.8897 -2.6122  1.6470
 5499SOL    HW227960   0.177   1.693   7.424 -0.1034 -0.4156 -0.9264
 5500SOL     OW27961   1.140   3.722   3.394  0.1808 -0.0608 -0.0011
 5500SOL    HW127962   1.179   3.794   3.344  0.0663  0.5569  0.7892
 5500SOL    HW227963   1.216   3.666   3.403  1.4725  1.5038 -1.1772
 5501SOL     OW27964   1.113   0.568   1.023 -0.4561  0.0338 -0.2533
 5501SOL    HW127965   1.054   0.622   1.075 -2.0830 -1.2366 -0.7631
 5501SOL    HW227966   1.114   0.484   1.070 -0.5488  0.5835  0.7290
 5502SOL     OW27967   3.121   0.926   9.750 -0.5099  0.3706  0.3712
 5502SOL    HW127968   3.077   0.960   9.828 -1.2213  1.0616 -0.3283
 5502SOL    HW227969   3.083   0.838   9.750 -1.4716  0.7782 -1.5285
 5503SOL     OW27970   0.632   2.494   6.603  0.1765 -0.0788 -0.3996
 5503SOL    HW127971   0.723   2.476   6.577  0.2283  4.0621 -2.9671
 5503SOL    HW227972   0.642   2.500   6.698  3.2865 -0.5221 -0.6892
 5504SOL     OW27973   1.655   1.064   8.793  0.0078  0.0970 -0.2729
 5504SOL    HW127974   1.588   1.132   8.789 -0.2130 -0.2502 -2.3727
 5504SOL    HW227975   1.681   1.059   8.701 -1.4327  1.7812 -0.7634
 5505SOL     OW27976   1.012   4.437  10.655 -0.5762 -0.2683 -0.0548
 5505SOL    HW127977   1.005   4.532  10.661  0.4715 -0.2742  1.0739
 5505SOL    HW227978   0.978   4.411  10.569  1.3446 -4.1603  0.3545
 5506SOL     OW27979   0.339   3.757   6.845 -0.5952 -0.5058 -0.3660
 5506SOL    HW127980   0.371   3.709   6.921 -1.2775 -1.0727 -0.4379
 5506SOL    HW227981   0.320   3.838   6.892 -1.6835 -1.1951  0.3914
 5507SOL     OW27982   1.164   2.176   4.475  0.0989 -0.5814  0.2257
 5507SOL    HW127983   1.223   2.122   4.422  1.2728  0.4520  0.4782
 5507SOL    HW227984   1.078   2.170   4.434  0.3604 -0.9480 -0.2658
 5508SOL     OW27985   4.656   3.605  10.479 -0.3569  0.4503 -0.1343
 5508SOL    HW127986   0.000   3.644  10.421  0.4243  0.1075  0.5098
 5508SOL    HW227987   4.589   3.594  10.412 -0.4063  0.2181 -0.0466
 5509SOL     OW27988   0.251   1.434   2.878  0.2746 -0.0208  0.4198
 5509SOL    HW127989   0.251   1.339   2.890 -0.8451  0.0304  0.7647
 5509SOL    HW227990   0.278   1.445   2.786  2.5747  0.1747  1.1071
 5510SOL     OW27991   1.402   4.063   8.266  0.0369 -0.0186 -0.5526
 5510SOL    HW127992   1.439   4.085   8.181 -1.3638  0.6311 -1.0017
 5510SOL    HW227993   1.309   4.075   8.246 -0.4654 -0.0182  1.7916
 5511SOL     OW27994   3.574   0.578   5.369  0.1633  0.6007 -0.2029
 5511SOL    HW127995   3.595   0.653   5.423 -0.3918  0.3265  0.3954
 5511SOL    HW227996   3.478   0.583   5.367  0.3259  3.5625 -0.0724
 5512SOL     OW27997   2.437   4.062   1.145  0.2316  0.0656  0.0870
 5512SOL    HW127998   2.420   4.001   1.073  4.1031 -0.8485 -0.0198
 5512SOL    HW227999   2.495   4.130   1.112 -1.2695  1.2306 -0.1545
 5513SOL     OW28000   0.279   1.447  16.472  0.4322  0.0846 -0.0109
 5513SOL    HW128001   0.184   1.462  16.468  0.0094 -2.0504  2.4550
 5513SOL    HW228002   0.300   1.454  16.564 -2.4758  0.2558  0.6523
 5514SOL     OW28003   2.711   4.293   5.605  0.7014 -0.1304 -0.3870
 5514SOL    HW128004   2.733   4.344   5.683  1.9699 -0.7714 -0.3199
 5514SOL    HW228005   2.726   4.350   5.530 -1.1308  0.8726  0.0190
 5515SOL     OW28006   0.003   1.873   7.818 -0.4021  0.3032 -0.0051
 5515SOL    HW128007   0.066   1.899   7.886 -1.1254 -1.5913  1.4147
 5515SOL    HW228008   0.019   1.778   7.824 -2.1828 -0.0822 -1.4935
 5516SOL     OW28009   0.967   4.523  10.064  0.2078  0.4421  0.1438
 5516SOL    HW128010   0.905   4.591  10.088 -1.6464  0.4016 -4.6025
 5516SOL    HW228011   0.906   4.453  10.042  0.1672  0.0751  1.4488
 5517SOL     OW28012   3.842   2.508   7.790  0.0056 -0.1446  0.4850
 5517SOL    HW128013   3.922   2.561   7.793  0.5785 -1.0197  0.6329
 5517SOL    HW228014   3.793   2.565   7.730 -1.8520 -1.3823  0.8307
 5518SOL     OW28015   4.628   2.983  16.390 -0.3856 -0.4699 -0.4798
 5518SOL    HW128016   4.661   2.924  16.322  1.7594 -0.2831  0.4125
 5518SOL    HW228017   4.665   2.943  16.469 -3.3228 -0.7349  0.7690
 5519SOL     OW28018   0.052   2.233   3.202  0.6547  0.5459 -0.3265
 5519SOL    HW128019   0.145   2.216   3.183  0.9117  0.4523  1.0186
 5519SOL    HW228020   0.055   2.303   3.267  0.3825  1.4517 -1.3025
 5520SOL     OW28021   3.406   3.636   1.580  0.3445 -0.1466 -0.1155
 5520SOL    HW128022   3.446   3.704   1.635 -2.3716  1.7733 -0.5099
 5520SOL    HW228023   3.331   3.603   1.630 -0.1639  0.1416 -0.6940
 5521SOL     OW28024   3.984   1.141   7.119  0.0392  0.2047  0.3091
 5521SOL    HW128025   4.076   1.158   7.139 -0.5829  2.2444  1.3844
 5521SOL    HW228026   3.964   1.060   7.166  0.9421  0.2435  0.7553
 5522SOL     OW28027   0.379   0.059   8.002 -0.0067  0.2566 -0.2772
 5522SOL    HW128028   0.291   0.050   8.037  0.3549 -2.7901 -0.1775
 5522SOL    HW228029   0.378   0.029   7.911  0.4846 -1.1620  0.1920
 5523SOL     OW28030   0.667   2.024  11.195 -0.2792 -0.3914 -0.1111
 5523SOL    HW128031   0.695   1.940  11.233 -1.6205 -1.7433 -2.1219
 5523SOL    HW228032   0.710   2.028  11.110  2.0603 -2.2323  0.9799
 5524SOL     OW28033   4.433   0.013   0.196 -0.2288 -0.3239  0.2187
 5524SOL    HW128034   4.403   4.680   0.123  0.7235  1.6350 -1.6263
 5524SOL    HW228035   4.364   4.707   0.257  0.6852 -0.9164  0.9920
 5525SOL     OW28036   0.534   1.865  11.425 -0.2978  0.1507 -0.1282
 5525SOL    HW128037   0.515   1.948  11.382  0.6360 -0.3186 -1.4684
 5525SOL    HW228038   0.603   1.890  11.486 -1.0715  2.1636 -0.0765
 5526SOL     OW28039   4.263   1.221   2.796  0.5594  0.3195  0.8636
 5526SOL    HW128040   4.201   1.159   2.757 -0.4357  0.3767  2.3680
 5526SOL    HW228041   4.336   1.191   2.742 -0.5731 -0.9582  0.0595
 5527SOL     OW28042   4.172   0.670  13.929 -0.2894 -0.0527 -0.2431
 5527SOL    HW128043   4.141   0.658  13.839 -1.9016  1.8937  0.0498
 5527SOL    HW228044   4.107   0.728  13.968 -1.0805 -0.0140 -1.6125
 5528SOL     OW28045   3.067   1.411   8.779  0.1903 -0.1143 -0.0054
 5528SOL    HW128046   3.083   1.381   8.868 -0.6642 -3.0498 -0.8594
 5528SOL    HW228047   2.977   1.442   8.791 -1.2066 -4.1854  0.0757
 5529SOL     OW28048   0.264   4.028  16.944 -0.5327  0.1478  0.1878
 5529SOL    HW128049   0.350   4.048  16.908  0.0475 -0.2028  1.3721
 5529SOL    HW228050   0.232   3.956  16.890  1.9371 -0.9942  0.2843
 5530SOL     OW28051   0.629   1.989  15.363 -0.1785  0.2254 -0.2482
 5530SOL    HW128052   0.560   2.018  15.304  0.5619 -0.0230 -1.2416
 5530SOL    HW228053   0.666   1.925  15.302  2.0445  0.8425  0.4592
 5531SOL     OW28054   2.260   1.160   9.461  0.4764 -0.0229  0.4271
 5531SOL    HW128055   2.306   1.236   9.426 -1.8859  1.8745  1.4830
 5531SOL    HW228056   2.174   1.184   9.425 -1.0722 -1.6628  2.9983
 5532SOL     OW28057   3.777   0.433   5.716  0.3667  0.7498  0.4340
 5532SOL    HW128058   3.763   0.486   5.795 -0.9493  0.3785  0.4441
 5532SOL    HW228059   3.703   0.373   5.723  0.8535  0.1065  0.0312
 5533SOL     OW28060   4.598   4.128   7.359  0.1528  0.0433 -0.3449
 5533SOL    HW128061   4.552   4.208   7.331 -2.1299 -0.8450  0.9597
 5533SOL    HW228062   4.654   4.170   7.425  0.2656 -0.0900 -0.3558
 5534SOL     OW28063   0.605   3.582   9.255 -0.0606 -0.2009 -0.5092
 5534SOL    HW128064   0.629   3.602   9.345 -0.5713  0.9751 -0.6313
 5534SOL    HW228065   0.665   3.511   9.231 -0.0794 -1.0632  2.0642
 5535SOL     OW28066   2.398   2.267   9.148  0.8778 -0.1714 -0.0491
 5535SOL    HW128067   2.365   2.230   9.066 -0.7432 -1.1591  1.0687
 5535SOL    HW228068   2.420   2.188   9.198  0.8296 -0.2304 -0.1208
 5536SOL     OW28069   2.845   2.491  12.541 -0.4872  0.2747 -0.0085
 5536SOL    HW128070   2.821   2.560  12.603 -0.3293 -1.8025  2.3714
 5536SOL    HW228071   2.813   2.527  12.458  0.7229 -0.5120 -0.8131
 5537SOL     OW28072   4.508   1.865   6.229 -0.6298  0.5560  0.0668
 5537SOL    HW128073   4.520   1.771   6.238  0.7480  0.6786 -0.5519
 5537SOL    HW228074   4.598   1.888   6.249 -0.9793  1.8015  0.1905
 5538SOL     OW28075   2.770   0.725  12.789 -0.9576  0.0373  0.1089
 5538SOL    HW128076   2.759   0.707  12.883  0.3653  0.4295  0.3365
 5538SOL    HW228077   2.751   0.637  12.755  2.1278 -0.7990  0.5592
 5539SOL     OW28078   0.136   2.065  17.214  0.0563 -0.4810 -0.5553
 5539SOL    HW128079   0.079   2.112  17.152 -0.1854 -0.4780 -0.3306
 5539SOL    HW228080   0.218   2.078  17.166 -0.4103  1.0495 -0.9661
 5540SOL     OW28081   3.937   2.598   6.029 -0.8150 -0.4889  0.3450
 5540SOL    HW128082   3.971   2.592   5.939  1.0217  0.6050  0.9808
 5540SOL    HW228083   3.860   2.652   6.011 -0.2517  1.1789  2.8713
 5541SOL     OW28084   2.513   1.979   1.570 -0.0576  0.2097 -0.0072
 5541SOL    HW128085   2.453   1.956   1.641 -0.7802 -0.4291 -0.8230
 5541SOL    HW228086   2.459   1.994   1.492 -0.6550 -2.9583 -0.2325
 5542SOL     OW28087   3.790   3.148   7.498 -0.3799  0.4922  0.4746
 5542SOL    HW128088   3.775   3.240   7.521 -2.0483  0.6000 -1.0542
 5542SOL    HW228089   3.780   3.097   7.578  0.3244  0.3083  0.4421
 5543SOL     OW28090   0.737   4.239  10.963 -0.5742  0.6517  0.1300
 5543SOL    HW128091   0.678   4.249  11.038  1.1717 -1.6246  1.7893
 5543SOL    HW228092   0.713   4.296  10.890 -0.5698 -0.6139 -0.8739
 5544SOL     OW28093   0.816   0.482   2.665 -0.3882 -0.5289  0.9788
 5544SOL    HW128094   0.788   0.393   2.645  2.1487 -0.9543 -0.7176
 5544SOL    HW228095   0.733   0.526   2.645  1.6306  2.5250 -0.7331
 5545SOL     OW28096   3.668   2.470   4.068 -0.0352  0.0521 -0.1170
 5545SOL    HW128097   3.638   2.533   4.002 -2.6325 -0.2763  0.7656
 5545SOL    HW228098   3.672   2.386   4.022 -0.8990 -1.0342  1.7928
 5546SOL     OW28099   1.042   2.722   9.946  0.1178 -0.0454 -0.0156
 5546SOL    HW128100   1.017   2.775  10.022 -0.4565  0.0858 -0.2943
 5546SOL    HW228101   0.957   2.692   9.914 -0.3594 -1.0868  2.2164
 5547SOL     OW28102   1.446   3.728   0.575  0.3849 -0.0724 -0.0349
 5547SOL    HW128103   1.440   3.822   0.592  2.0371 -0.0222  0.2330
 5547SOL    HW228104   1.408   3.693   0.656  1.0572 -0.0036  0.3126
 5548SOL     OW28105   2.009   3.074   3.009  0.1545 -0.2795  0.0758
 5548SOL    HW128106   1.925   3.107   2.976  0.8171  1.8034  0.5438
 5548SOL    HW228107   2.064   3.118   2.945 -0.4869  1.5868  0.8235
 5549SOL     OW28108   2.451   1.279  16.418 -0.4054  0.5945 -0.3968
 5549SOL    HW128109   2.363   1.254  16.447 -0.5394  0.1991 -1.1638
 5549SOL    HW228110   2.464   1.349  16.483  0.0802  2.2134 -2.2109
 5550SOL     OW28111   3.570   2.035   7.824  0.0725 -0.1791  0.3852
 5550SOL    HW128112   3.528   2.114   7.790 -1.0290 -0.2836  1.5153
 5550SOL    HW228113   3.659   2.053   7.792  0.7406 -3.9572  0.1514
 5551SOL     OW28114   3.737   1.727   0.545  0.5983  0.1972  0.5915
 5551SOL    HW128115   3.824   1.713   0.581  1.0942 -0.0389 -0.6980
 5551SOL    HW228116   3.754   1.689   0.459  0.5284 -0.6066  0.9352
 5552SOL     OW28117   4.459   0.253  14.516  0.7975  0.4245 -0.1210
 5552SOL    HW128118   4.508   0.183  14.473 -2.9341 -2.2173  0.0412
 5552SOL    HW228119   4.441   0.309  14.440  1.9107 -0.8466 -1.3232
 5553SOL     OW28120   2.857   4.006  15.827  0.1991 -0.3003 -0.2750
 5553SOL    HW128121   2.827   3.982  15.739 -1.2192  1.2981 -0.2025
 5553SOL    HW228122   2.892   4.093  15.809  0.6821  0.1845  3.0624
 5554SOL     OW28123   4.138   2.511   5.492  0.0774  0.2127 -0.2577
 5554SOL    HW128124   4.063   2.513   5.433 -0.1117 -1.2400 -0.0690
 5554SOL    HW228125   4.147   2.600   5.526 -1.4573  0.3817 -0.3189
 5555SOL     OW28126   1.997   3.822   4.576 -0.0091 -0.1149  0.3598
 5555SOL    HW128127   2.053   3.751   4.546  0.0692  0.0967  0.0089
 5555SOL    HW228128   2.018   3.847   4.666 -1.7078  0.6798  0.5439
 5556SOL     OW28129   3.715   4.196   0.046 -0.3740  0.2554 -0.1438
 5556SOL    HW128130   3.646   4.250   0.085  0.3123  0.6283  0.5588
 5556SOL    HW228131   3.731   4.146   0.126  1.1757  1.5233  0.3508
 5557SOL     OW28132   4.476   1.801   8.795 -0.0409  0.1690  0.1918
 5557SOL    HW128133   4.411   1.871   8.800  0.4569  0.5413  1.3310
 5557SOL    HW228134   4.406   1.736   8.809 -1.0096  1.2905  0.5412
 5558SOL     OW28135   2.584   1.255  10.726  0.5587  0.1514 -0.2155
 5558SOL    HW128136   2.560   1.239  10.817 -1.8982 -3.5293 -1.5183
 5558SOL    HW228137   2.666   1.208  10.708  0.8186  0.0865  1.1551
 5559SOL     OW28138   2.405   2.754  13.916  0.1303 -0.0505  0.2762
 5559SOL    HW128139   2.463   2.737  13.841  0.4836 -0.1221  0.5652
 5559SOL    HW228140   2.472   2.738  13.983 -0.9181  1.0051  1.5655
 5560SOL     OW28141   4.214   3.916   4.967 -0.3434  0.9775  0.2497
 5560SOL    HW128142   4.131   3.960   4.983 -0.7910  0.8308 -1.7585
 5560SOL    HW228143   4.211   3.910   4.872 -2.5208  3.3793  0.1745
 5561SOL     OW28144   3.731   0.878   2.796 -0.1704 -0.4655  0.6996
 5561SOL    HW128145   3.679   0.957   2.812 -0.3847 -1.1205  3.1190
 5561SOL    HW228146   3.808   0.890   2.851 -0.1355  2.7623 -0.0606
 5562SOL     OW28147   4.111   2.124   6.209  0.1216  0.2816 -0.1549
 5562SOL    HW128148   4.118   2.127   6.305 -1.7819  1.8018 -0.0642
 5562SOL    HW228149   4.110   2.217   6.185 -0.7574  0.1683 -0.5494
 5563SOL     OW28150   0.767   3.862   7.000 -0.3597 -0.1554 -0.5548
 5563SOL    HW128151   0.754   3.891   6.910 -0.3674  3.3781  0.6146
 5563SOL    HW228152   0.823   3.784   6.993 -0.8750 -0.4866 -0.9669
 5564SOL     OW28153   2.341   0.778   1.224  0.1525 -0.0817  0.4174
 5564SOL    HW128154   2.314   0.706   1.281  0.7532  1.6552  2.9324
 5564SOL    HW228155   2.423   0.753   1.181  0.7186  0.9386  0.8866
 5565SOL     OW28156   0.636   0.226   2.970 -0.0145 -0.1089 -0.0929
 5565SOL    HW128157   0.692   0.298   2.998 -1.3024  1.7159 -2.2796
 5565SOL    HW228158   0.553   0.248   3.012  0.7608  1.0100  0.8473
 5566SOL     OW28159   3.507   1.060   3.420  0.2533 -0.3253  0.0594
 5566SOL    HW128160   3.568   0.987   3.419  0.1090 -0.4982  2.6938
 5566SOL    HW228161   3.440   1.042   3.487 -1.1449  0.3422 -1.1487
 5567SOL     OW28162   2.419   4.667   7.702  0.1983  0.2781  0.1202
 5567SOL    HW128163   2.465   4.692   7.782  1.1588  0.8965 -0.6270
 5567SOL    HW228164   2.479   4.611   7.653  1.1241 -0.3061  1.9014
 5568SOL     OW28165   2.152   4.075   6.664 -0.7466 -0.6013  0.0741
 5568SOL    HW128166   2.163   4.028   6.746 -3.0608  2.5606  2.1797
 5568SOL    HW228167   2.117   4.160   6.691 -0.0001 -0.3077  0.1182
 5569SOL     OW28168   3.954   1.329   1.832 -0.1234  0.3023 -0.0112
 5569SOL    HW128169   3.990   1.355   1.917 -0.4014  0.6191  0.0082
 5569SOL    HW228170   4.035   1.303   1.788  0.1235  2.0054 -0.5727
 5570SOL     OW28171   1.016   2.368  14.825  1.0214 -0.1075 -0.1314
 5570SOL    HW128172   1.049   2.279  14.816 -0.5278 -0.4419 -2.2689
 5570SOL    HW228173   1.065   2.414  14.757  0.7306 -0.0851 -0.3217
 5571SOL     OW28174   1.415   4.477   0.838 -0.1409  0.1537 -0.0391
 5571SOL    HW128175   1.414   4.572   0.821  1.3862  0.0233 -0.8982
 5571SOL    HW228176   1.321   4.463   0.832 -0.1485  0.2293 -0.1088
 5572SOL     OW28177   1.187   1.100   6.659 -0.6303 -0.0676 -0.4342
 5572SOL    HW128178   1.282   1.108   6.651 -0.7239  0.1923 -1.3213
 5572SOL    HW228179   1.165   1.170   6.598  1.0359  1.3843  0.6323
 5573SOL     OW28180   1.108   2.859   7.734 -0.0455  0.1787  0.3075
 5573SOL    HW128181   1.071   2.827   7.816 -0.8349  1.8164  0.5752
 5573SOL    HW228182   1.142   2.943   7.765 -0.5626  0.6468 -0.3925
 5574SOL     OW28183   0.714   0.519  11.443  0.4185  0.6046  0.2528
 5574SOL    HW128184   0.770   0.595  11.458 -0.2828  1.4271 -1.1785
 5574SOL    HW228185   0.779   0.450  11.432 -1.7113 -1.7146  2.4467
 5575SOL     OW28186   0.015   1.483  16.477 -0.5968 -0.1228  0.0469
 5575SOL    HW128187   4.673   1.549  16.448  1.3615  0.8725 -1.9914
 5575SOL    HW228188   4.686   1.403  16.460 -1.5653  0.3284  0.8136
 5576SOL     OW28189   0.444   3.666   5.616 -0.1627  0.3947  0.0767
 5576SOL    HW128190   0.438   3.687   5.522  0.8185  0.6177  0.0657
 5576SOL    HW228191   0.492   3.584   5.623  0.0759  0.3572 -2.0032
 5577SOL     OW28192   1.532   3.116   8.780  0.3994 -0.6089 -0.4309
 5577SOL    HW128193   1.519   3.204   8.745  0.3167 -1.1346 -1.6986
 5577SOL    HW228194   1.472   3.114   8.854 -1.0559  1.2825 -1.5805
 5578SOL     OW28195   3.288   3.341   4.713 -0.2333  0.1091  0.1267
 5578SOL    HW128196   3.215   3.401   4.730  1.0252  1.1711  1.8144
 5578SOL    HW228197   3.353   3.397   4.671  0.1985  0.2171  0.9315
 5579SOL     OW28198   2.650   3.444   0.797  0.5101 -0.1417  0.1179
 5579SOL    HW128199   2.692   3.529   0.806  0.6013 -0.1491 -0.2453
 5579SOL    HW228200   2.600   3.433   0.878 -0.6335  1.7350 -0.3579
 5580SOL     OW28201   4.100   3.172   7.188 -0.4235 -0.0540  0.5438
 5580SOL    HW128202   4.049   3.159   7.109  0.5052  0.2529 -0.1008
 5580SOL    HW228203   4.032   3.216   7.240 -1.5418  0.8860 -1.7401
 5581SOL     OW28204   3.716   0.978   7.672  0.5099  0.1470 -0.0277
 5581SOL    HW128205   3.669   1.062   7.679  0.8708  0.4234 -0.9643
 5581SOL    HW228206   3.704   0.970   7.577  0.2484 -2.1092  0.2029
 5582SOL     OW28207   0.693   1.956  13.291 -0.0228 -0.3863 -0.1099
 5582SOL    HW128208   0.752   1.887  13.321  2.2821  2.4945  1.9481
 5582SOL    HW228209   0.663   1.983  13.378 -0.2358 -1.2081  0.0736
 5583SOL     OW28210   1.897   1.704   7.143  0.1849  0.0745 -0.1602
 5583SOL    HW128211   1.962   1.681   7.209 -0.4171  0.9433  0.7342
 5583SOL    HW228212   1.952   1.671   7.072  2.3555  0.5304  1.2860
 5584SOL     OW28213   3.986   2.776   7.623  0.0777 -0.5569  0.0936
 5584SOL    HW128214   4.011   2.774   7.531 -1.2712  2.9209 -0.3723
 5584SOL    HW228215   4.056   2.720   7.655  0.2275 -2.4996 -3.7105
 5585SOL     OW28216   0.323   0.468   9.652  0.2080  0.3525  0.0621
 5585SOL    HW128217   0.389   0.527   9.689 -0.6189  1.8535 -0.8410
 5585SOL    HW228218   0.251   0.506   9.702 -0.8741  1.6043 -2.4246
 5586SOL     OW28219   1.962   3.906   2.167  0.5594  0.3143  0.1214
 5586SOL    HW128220   1.975   3.922   2.261  0.5650 -0.4643  0.2530
 5586SOL    HW228221   1.919   3.984   2.130  3.2622  1.8034  0.0991
 5587SOL     OW28222   0.730   2.128   4.782  0.2621 -0.1389  0.2969
 5587SOL    HW128223   0.738   2.180   4.702 -0.7582  1.3434  1.1653
 5587SOL    HW228224   0.814   2.082   4.782  1.1497  1.4872 -1.1412
 5588SOL     OW28225   2.569   2.090  17.189  0.9545 -0.1470  0.0599
 5588SOL    HW128226   2.590   2.153  17.258  1.5463 -1.5050  1.1196
 5588SOL    HW228227   2.480   2.065  17.213  1.0313 -1.5920 -1.1498
 5589SOL     OW28228   2.001   2.350   3.295 -0.0627  0.2667  0.0626
 5589SOL    HW128229   1.935   2.358   3.226  0.0380 -1.9457 -0.2849
 5589SOL    HW228230   1.974   2.428   3.343  2.6494  0.1798  1.7682
 5590SOL     OW28231   3.392   0.171   5.238  0.2396 -0.7944 -0.1084
 5590SOL    HW128232   3.453   0.207   5.302  1.5185 -0.7597 -1.3449
 5590SOL    HW228233   3.311   0.142   5.280  0.2943  2.3401  2.1504
 5591SOL     OW28234   1.639   0.959   4.302 -0.1125 -0.8361 -1.0801
 5591SOL    HW128235   1.604   1.008   4.377  1.1111  0.4125 -1.3410
 5591SOL    HW228236   1.599   1.016   4.237 -0.3586  0.9119  0.6116
 5592SOL     OW28237   1.411   0.373   6.553 -0.3800 -0.2384 -0.3214
 5592SOL    HW128238   1.506   0.384   6.555 -0.6780  1.9194  1.7901
 5592SOL    HW228239   1.398   0.278   6.560  2.3868 -0.6381 -0.5687
 5593SOL     OW28240   1.532   0.417  13.024 -0.0134  0.1625 -0.3516
 5593SOL    HW128241   1.556   0.509  13.011 -2.5514  1.0057  0.8874
 5593SOL    HW228242   1.608   0.376  13.066 -1.6169 -2.5614 -0.1248
 5594SOL     OW28243   1.894   2.818   8.189 -0.2750 -0.3910 -0.0517
 5594SOL    HW128244   1.916   2.869   8.267 -1.9887  0.4514 -0.1214
 5594SOL    HW228245   1.943   2.866   8.123 -2.1833 -0.5400 -1.5815
 5595SOL     OW28246   1.748   3.682   9.489  0.6034 -0.2083 -0.1071
 5595SOL    HW128247   1.771   3.774   9.496  0.9525 -0.2528 -0.7346
 5595SOL    HW228248   1.772   3.653   9.401 -1.4282  0.2786 -0.8261
 5596SOL     OW28249   2.302   0.565   8.502 -1.0879 -0.0132 -0.3233
 5596SOL    HW128250   2.241   0.617   8.555  1.0516  2.0978  0.0468
 5596SOL    HW228251   2.240   0.515   8.449 -0.8704  0.7454 -1.2825
 5597SOL     OW28252   1.066   2.110   3.523 -0.1764 -0.1128 -0.1100
 5597SOL    HW128253   1.122   2.184   3.546 -2.0520  1.0077  0.8390
 5597SOL    HW228254   1.008   2.108   3.598  0.2325 -0.8512  0.1873
 5598SOL     OW28255   1.074   3.559  14.293 -0.1581 -0.3473  0.4567
 5598SOL    HW128256   1.077   3.643  14.248 -0.0739 -1.1392 -1.0097
 5598SOL    HW228257   0.986   3.533  14.263 -0.6831  1.6513  0.2800
 5599SOL     OW28258   2.850   1.392  14.167  0.0988 -0.3601 -0.3460
 5599SOL    HW128259   2.779   1.379  14.105  1.9318 -2.0534 -2.1000
 5599SOL    HW228260   2.808   1.411  14.251  3.1480 -0.5267  1.2424
 5600SOL     OW28261   1.551   0.092  11.961  0.4085 -0.6966  0.0133
 5600SOL    HW128262   1.515   0.030  12.024  1.8587  0.0850  1.5780
 5600SOL    HW228263   1.483   0.084  11.893  0.1464 -2.3985  0.4652
 5601SOL     OW28264   1.816   0.825   5.625  0.4497 -0.3882  0.2789
 5601SOL    HW128265   1.832   0.867   5.710  1.7230  1.5268 -0.9030
 5601SOL    HW228266   1.745   0.765   5.648  0.6796 -0.3927  0.9822
 5602SOL     OW28267   0.481   4.300   1.751  0.4650  0.3412  0.0429
 5602SOL    HW128268   0.389   4.327   1.756 -0.0434 -1.3737  0.2179
 5602SOL    HW228269   0.502   4.284   1.843  0.5299 -0.3647 -0.0917
 5603SOL     OW28270   4.410   2.981  12.320 -0.3903  0.5204 -0.1957
 5603SOL    HW128271   4.483   2.995  12.380 -0.5668  0.8342 -0.0527
 5603SOL    HW228272   4.364   2.903  12.350 -1.6218  0.2276 -2.9195
 5604SOL     OW28273   4.049   0.559   0.935  0.4369  0.0291 -0.1109
 5604SOL    HW128274   4.064   0.646   0.899 -1.4028  0.5700  0.4421
 5604SOL    HW228275   4.040   0.583   1.027 -2.4197 -0.3962 -0.2850
 5605SOL     OW28276   4.081   3.522   3.630 -0.3008  0.0693  0.4357
 5605SOL    HW128277   4.091   3.598   3.573 -0.9568 -0.2177 -0.0599
 5605SOL    HW228278   4.014   3.462   3.597  0.2422  0.4870 -1.4181
 5606SOL     OW28279   3.896   0.371   7.090 -0.6134 -0.0255 -0.3244
 5606SOL    HW128280   3.971   0.425   7.114 -1.5247  1.6828 -1.2609
 5606SOL    HW228281   3.845   0.362   7.170  2.7185  0.1198  1.8011
 5607SOL     OW28282   1.371   0.055  11.753 -0.0378 -0.0799 -0.6592
 5607SOL    HW128283   1.302   4.713  11.768 -1.0729  1.4368  0.9375
 5607SOL    HW228284   1.386   0.021  11.664  0.9015  2.6473 -1.5660
 5608SOL     OW28285   1.860   2.395  11.871  0.5560 -0.0661 -0.1098
 5608SOL    HW128286   1.882   2.365  11.960 -0.8973 -2.0584 -0.4229
 5608SOL    HW228287   1.770   2.426  11.884  1.4904  3.3575 -1.8965
 5609SOL     OW28288   2.490   3.876   0.317 -0.6890  0.4455  0.7690
 5609SOL    HW128289   2.442   3.847   0.240 -0.4980 -0.1827  0.8847
 5609SOL    HW228290   2.563   3.928   0.284 -2.7394  1.3422 -2.3025
 5610SOL     OW28291   4.603   3.278   5.868 -0.0710 -0.2173 -0.2165
 5610SOL    HW128292   4.688   3.261   5.909 -0.3281  1.3428  0.9446
 5610SOL    HW228293   4.641   3.326   5.795 -0.1388 -1.5211 -1.1161
 5611SOL     OW28294   4.206   3.259   0.103 -0.5467  0.1251  0.0802
 5611SOL    HW128295   4.260   3.180   0.107 -0.9507  0.0042  3.3026
 5611SOL    HW228296   4.167   3.244   0.189  2.3110 -0.7736  1.2388
 5612SOL     OW28297   0.345   2.089   7.810 -0.0252  0.6384 -0.1183
 5612SOL    HW128298   0.400   2.010   7.814  0.6751  1.2200  1.7350
 5612SOL    HW228299   0.312   2.081   7.720 -1.2434 -0.5553  0.4274
 5613SOL     OW28300   1.726   3.465   9.903 -0.0113 -0.1151 -0.2975
 5613SOL    HW128301   1.817   3.447   9.925 -0.5321 -0.6120  1.4749
 5613SOL    HW228302   1.688   3.501   9.983  1.6161  1.8445 -0.4062
 5614SOL     OW28303   1.764   0.307   0.825 -0.2749  0.3745  0.2114
 5614SOL    HW128304   1.753   0.242   0.756 -1.0947  1.8747 -1.0604
 5614SOL    HW228305   1.751   0.250   0.901 -0.2026  1.9510  1.3984
 5615SOL     OW28306   1.862   3.887  17.531  0.3458  0.3707  0.5419
 5615SOL    HW128307   1.939   3.922  17.486  1.4936 -0.5781  1.7481
 5615SOL    HW228308   1.858   3.798  17.495 -0.9859  0.9549 -0.7611
 5616SOL     OW28309   1.215   1.782   5.506 -0.3614 -0.1036  0.0294
 5616SOL    HW128310   1.163   1.801   5.428  0.4074 -0.8286 -0.6549
 5616SOL    HW228311   1.304   1.796   5.473 -0.0135  1.2999  1.5640
 5617SOL     OW28312   3.948   1.648  11.337 -0.0024  0.2541 -0.2291
 5617SOL    HW128313   3.934   1.741  11.317  1.4428  0.4578 -0.2580
 5617SOL    HW228314   4.017   1.630  11.274  0.4098  2.2635 -0.3545
 5618SOL     OW28315   1.251   3.634   7.643  0.4835 -0.3168  0.0669
 5618SOL    HW128316   1.273   3.606   7.732 -1.7125 -1.2300  0.3167
 5618SOL    HW228317   1.293   3.720   7.642  1.3930 -0.7485  0.8528
 5619SOL     OW28318   2.698   0.828   4.788 -1.2583  0.9239  0.2410
 5619SOL    HW128319   2.784   0.834   4.829 -0.6940  1.2150 -0.9851
 5619SOL    HW228320   2.687   0.735   4.765 -1.3983  1.1661 -0.6647
 5620SOL     OW28321   0.633   0.197   7.919 -0.0836 -0.1364  0.2639
 5620SOL    HW128322   0.566   0.142   7.959 -0.6734  1.1210  0.9881
 5620SOL    HW228323   0.595   0.283   7.934  0.1390 -0.6668  3.7393
 5621SOL     OW28324   2.203   3.389   5.518 -0.1732 -0.1224  0.1580
 5621SOL    HW128325   2.140   3.327   5.555  1.0159 -0.4629  1.6009
 5621SOL    HW228326   2.263   3.384   5.592  0.0902 -0.9785 -0.1215
 5622SOL     OW28327   2.362   1.548   7.410  0.1795  0.0287 -0.0903
 5622SOL    HW128328   2.303   1.482   7.445 -1.6239  2.4853  1.5087
 5622SOL    HW228329   2.447   1.504   7.422 -0.3486 -0.0987  3.1916
 5623SOL     OW28330   1.593   4.215  10.836 -0.0835 -0.4649  0.4217
 5623SOL    HW128331   1.673   4.167  10.858 -1.2962 -2.1381  1.1444
 5623SOL    HW228332   1.601   4.222  10.741 -0.8462  0.5156  0.4304
 5624SOL     OW28333   2.744   1.452  14.437  0.1564 -0.5063 -0.0503
 5624SOL    HW128334   2.663   1.421  14.478  1.1087 -0.8993  1.5294
 5624SOL    HW228335   2.730   1.546  14.434  1.1343 -0.3429  0.5445
 5625SOL     OW28336   3.857   3.190   5.447  0.0162  0.2074  0.0911
 5625SOL    HW128337   3.847   3.124   5.515 -0.9829 -1.6676 -1.9224
 5625SOL    HW228338   3.892   3.139   5.374  0.5442  1.1198 -0.3014
 5626SOL     OW28339   4.581   4.553   5.133  0.4166 -0.0474  0.2440
 5626SOL    HW128340   4.595   4.471   5.180 -0.4696 -0.5956 -0.4536
 5626SOL    HW228341   4.550   4.523   5.047  0.4177  1.3748 -0.2475
 5627SOL     OW28342   1.777   3.215  14.651  0.0866  0.4488 -0.2217
 5627SOL    HW128343   1.811   3.294  14.694  1.3329  0.3141 -0.9448
 5627SOL    HW228344   1.828   3.221  14.570  0.4006  0.4942 -0.0200
 5628SOL     OW28345   1.689   3.751  14.060 -0.2180 -0.2590  0.0318
 5628SOL    HW128346   1.610   3.720  14.015 -1.1231  0.9324  0.8256
 5628SOL    HW228347   1.743   3.672  14.063 -0.6841 -0.5944 -0.2913
 5629SOL     OW28348   0.350   4.213   7.796 -0.1894  0.0176  0.4427
 5629SOL    HW128349   0.286   4.258   7.851 -0.5145  0.9475 -0.6802
 5629SOL    HW228350   0.329   4.127   7.831  0.8420 -1.1824 -1.9177
 5630SOL     OW28351   3.728   2.774   5.698  0.2124 -0.1627 -0.2882
 5630SOL    HW128352   3.717   2.738   5.786 -0.6595 -0.7826 -0.6450
 5630SOL    HW228353   3.639   2.761   5.664  0.5195 -0.1572 -1.1040
 5631SOL     OW28354   0.081   1.274   6.057 -0.5748 -0.4484 -0.7574
 5631SOL    HW128355   0.134   1.295   5.980  1.8172  1.1372  1.2968
 5631SOL    HW228356   0.134   1.202   6.091 -1.7776 -1.6747 -1.4988
 5632SOL     OW28357   2.513   2.239   8.294  0.2276 -0.0841  0.1036
 5632SOL    HW128358   2.604   2.260   8.315 -0.4417  2.2092  0.7145
 5632SOL    HW228359   2.472   2.275   8.373 -0.9068 -0.1982 -0.4345
 5633SOL     OW28360   2.781   1.213   9.274 -0.1040 -0.5350 -0.0058
 5633SOL    HW128361   2.745   1.157   9.343  0.1563  0.1893  0.7185
 5633SOL    HW228362   2.838   1.151   9.227  0.5158  0.1396 -0.1476
 5634SOL     OW28363   3.285   2.574  15.721 -0.4507  0.4227  0.3200
 5634SOL    HW128364   3.325   2.516  15.786 -1.5020 -0.5162  0.1345
 5634SOL    HW228365   3.326   2.653  15.755  0.3226  0.1110  0.1232
 5635SOL     OW28366   0.094   0.345   3.998  0.2733  0.4005 -0.0267
 5635SOL    HW128367   0.159   0.301   3.942 -1.1700 -2.0356  0.2260
 5635SOL    HW228368   0.023   0.297   3.956 -0.9350  1.9952  0.2169
 5636SOL     OW28369   0.986   3.507   8.757  0.2806 -0.2382 -0.3115
 5636SOL    HW128370   1.013   3.598   8.762  0.6083 -0.3028 -0.9771
 5636SOL    HW228371   0.898   3.519   8.722 -0.3662  1.3519  1.8137
 5637SOL     OW28372   0.927   2.577  10.843 -0.5876  0.4592 -0.0496
 5637SOL    HW128373   0.855   2.625  10.884 -4.7028 -2.2130 -4.2373
 5637SOL    HW228374   0.940   2.494  10.889  0.2572 -0.6330 -2.2538
 5638SOL     OW28375   0.712   3.572   5.735  0.5163 -0.2974  0.4736
 5638SOL    HW128376   0.777   3.599   5.670  0.1183  0.5765  0.4455
 5638SOL    HW228377   0.725   3.628   5.811 -0.5039  1.2805 -0.5259
 5639SOL     OW28378   0.878   3.640   4.792  0.0116 -0.1901 -0.4005
 5639SOL    HW128379   0.969   3.615   4.805 -0.9455 -2.3559  2.2126
 5639SOL    HW228380   0.830   3.557   4.804  0.7579 -0.6567 -0.6552
 5640SOL     OW28381   3.141   0.185  17.379 -0.6073  0.1936 -0.3100
 5640SOL    HW128382   3.180   0.227  17.456 -0.8392  0.7020 -0.4675
 5640SOL    HW228383   3.182   0.243  17.314  3.0178 -1.7950  0.1919
 5641SOL     OW28384   3.039   2.292   4.707  0.0969 -0.6309  0.5995
 5641SOL    HW128385   2.986   2.359   4.664 -0.9925 -0.7202  1.8017
 5641SOL    HW228386   3.100   2.264   4.638 -1.6273 -1.5534 -0.5604
 5642SOL     OW28387   1.657   0.221  10.669 -0.4224 -0.4115  0.2457
 5642SOL    HW128388   1.751   0.203  10.670 -0.4293 -0.5337 -0.9696
 5642SOL    HW228389   1.658   0.307  10.710 -0.7641 -0.9207  1.3047
 5643SOL     OW28390   2.913   0.773  16.887 -0.3699  0.2714 -0.3432
 5643SOL    HW128391   2.918   0.836  16.959  0.5469  1.5963 -1.5555
 5643SOL    HW228392   2.859   0.817  16.821 -1.9466 -1.1353  0.0335
 5644SOL     OW28393   1.937   0.991  11.048  0.2053 -0.0230 -0.1987
 5644SOL    HW128394   1.932   1.045  11.126  0.5595 -0.2264 -0.0386
 5644SOL    HW228395   1.844   0.968  11.041  0.1729  0.7282 -2.2478
 5645SOL     OW28396   2.110   0.084   1.569 -0.9354 -0.2854 -0.0237
 5645SOL    HW128397   2.131   0.129   1.487  0.4785 -0.6639  0.1279
 5645SOL    HW228398   2.147   0.137   1.639  1.7264 -1.7874 -0.2797
 5646SOL     OW28399   1.681   2.188   9.319  0.3488  0.3184  0.3634
 5646SOL    HW128400   1.773   2.166   9.329  0.5623  1.1592  0.2349
 5646SOL    HW228401   1.643   2.176   9.406 -1.8920  3.3671 -0.1705
 5647SOL     OW28402   3.295   3.510   0.136 -0.3344  0.1727 -0.1046
 5647SOL    HW128403   3.301   3.493   0.230 -3.4646 -0.8008 -0.0847
 5647SOL    HW228404   3.243   3.591   0.136  0.5000  0.7096 -1.1858
 5648SOL     OW28405   0.618   4.593   4.118 -0.0703  0.0461  0.7718
 5648SOL    HW128406   0.588   4.620   4.205  2.5562  1.6627  1.1694
 5648SOL    HW228407   0.640   4.501   4.136  0.8247  0.2187  0.5692
 5649SOL     OW28408   1.257   3.714   6.536  0.2274  0.5311 -0.3525
 5649SOL    HW128409   1.175   3.725   6.489  0.2713  0.1984 -0.5050
 5649SOL    HW228410   1.296   3.798   6.513 -0.2766 -0.4205 -4.6938
 5650SOL     OW28411   1.044   0.157   8.345 -0.1085  0.0439  0.5589
 5650SOL    HW128412   1.016   0.084   8.401  1.5927 -1.3968 -0.4781
 5650SOL    HW228413   0.974   0.176   8.282 -0.3487 -1.2839  0.4077
 5651SOL     OW28414   4.212   0.323   5.627  0.0142 -0.1735 -0.0662
 5651SOL    HW128415   4.123   0.352   5.608  0.8433  1.7942 -1.0213
 5651SOL    HW228416   4.264   0.377   5.567  0.7470 -1.8790 -0.9622
 5652SOL     OW28417   4.453   0.197  14.193 -0.2537 -0.4684 -0.3396
 5652SOL    HW128418   4.411   0.113  14.211  0.2629 -0.0697  2.7244
 5652SOL    HW228419   4.397   0.221  14.120 -0.1264 -0.4249 -0.4228
 5653SOL     OW28420   2.028   1.542  17.096  0.3760 -0.2707 -0.2055
 5653SOL    HW128421   2.008   1.630  17.128  2.9777  0.1257  0.3478
 5653SOL    HW228422   2.011   1.554  17.002  2.0552  1.1024 -0.3461
 5654SOL     OW28423   2.408   1.392   3.100 -0.1499  0.2500  0.2628
 5654SOL    HW128424   2.360   1.380   3.018 -0.5902  0.6871  0.4516
 5654SOL    HW228425   2.371   1.476   3.128  0.7676  1.1602 -1.2240
 5655SOL     OW28426   3.149   0.793   2.269 -0.4900  0.4435 -0.6658
 5655SOL    HW128427   3.070   0.738   2.274  1.1407 -2.1022 -2.3650
 5655SOL    HW228428   3.123   0.885   2.274  2.3304  1.2033 -0.2515
 5656SOL     OW28429   2.774   4.384   3.225  0.0387  0.1192  0.2368
 5656SOL    HW128430   2.703   4.341   3.274  0.1198 -0.3722 -0.0723
 5656SOL    HW228431   2.722   4.446   3.175  0.0499 -1.6934 -2.0464
 5657SOL     OW28432   2.128   0.963   6.035  0.6349  0.0580 -0.5001
 5657SOL    HW128433   2.185   1.031   6.073 -2.2371  2.1873 -0.0086
 5657SOL    HW228434   2.204   0.914   6.004  1.3165  0.4173  0.5891
 5658SOL     OW28435   0.519   1.723   2.610  0.1120  0.0799  0.1369
 5658SOL    HW128436   0.476   1.735   2.525 -0.5100  0.7224  0.5464
 5658SOL    HW228437   0.459   1.659   2.648  0.1082  0.8515  1.4202
 5659SOL     OW28438   2.759   3.058  10.806  0.2606 -0.2319 -0.0489
 5659SOL    HW128439   2.729   3.149  10.806 -1.3906 -0.7782  0.9892
 5659SOL    HW228440   2.799   3.062  10.719 -0.4117 -0.6349 -0.3752
 5660SOL     OW28441   3.743   0.491  17.011  0.1908 -0.2966  0.5646
 5660SOL    HW128442   3.800   0.545  16.956 -0.8055 -0.2534 -0.4375
 5660SOL    HW228443   3.758   0.406  16.971 -1.9474 -0.2166 -0.4047
 5661SOL     OW28444   3.461   2.049  12.121  0.2526 -0.7733 -0.2487
 5661SOL    HW128445   3.419   2.072  12.204 -1.6330 -0.2908 -1.3526
 5661SOL    HW228446   3.409   1.981  12.080  1.7251 -2.1538  0.1802
 5662SOL     OW28447   1.450   3.728   3.595  0.6699 -0.3841 -0.0514
 5662SOL    HW128448   1.461   3.703   3.504  0.3699 -1.3941  0.1936
 5662SOL    HW228449   1.532   3.720   3.644  1.5080 -1.0211 -1.5765
 5663SOL     OW28450   2.249   4.034   1.348 -0.0476 -0.3028  0.1432
 5663SOL    HW128451   2.295   3.996   1.422  1.7113  2.2353  0.3749
 5663SOL    HW228452   2.319   4.029   1.284 -1.0735 -2.8779 -0.7789
 5664SOL     OW28453   1.134   1.304   9.542 -0.4540  0.6874 -0.3812
 5664SOL    HW128454   1.118   1.269   9.454 -0.8193  2.3328 -0.9636
 5664SOL    HW228455   1.206   1.362   9.520  0.3320  0.6788  2.2414
 5665SOL     OW28456   0.124   4.195   3.243  0.2392  0.7810  0.8828
 5665SOL    HW128457   0.213   4.199   3.278  0.3769  2.4663  0.3546
 5665SOL    HW228458   0.125   4.200   3.147  2.9331  0.8801  0.9196
 5666SOL     OW28459   1.079   3.284  12.709  0.2304  0.3718  0.4927
 5666SOL    HW128460   1.114   3.314  12.793 -0.2197  1.7420  0.2010
 5666SOL    HW228461   1.145   3.219  12.687  0.3696  0.2002  1.4336
 5667SOL     OW28462   3.398   4.190   4.705  0.1296 -0.5995 -0.3379
 5667SOL    HW128463   3.461   4.172   4.635  0.6437 -1.2550  0.2849
 5667SOL    HW228464   3.326   4.140   4.669  1.1393 -2.1300 -0.2225
 5668SOL     OW28465   2.062   4.242   9.202  0.2424  0.5572 -0.1551
 5668SOL    HW128466   2.109   4.241   9.119 -1.8219 -0.1975 -1.3201
 5668SOL    HW228467   1.974   4.211   9.182  0.5023 -1.3773  1.6465
 5669SOL     OW28468   3.253   2.203   7.173 -0.0209 -0.3431 -0.0169
 5669SOL    HW128469   3.324   2.157   7.217  0.2985  0.2619  0.1097
 5669SOL    HW228470   3.253   2.283   7.227 -0.9747 -1.2455  1.3218
 5670SOL     OW28471   2.817   4.697   5.674 -0.1306  0.2036  0.5067
 5670SOL    HW128472   2.835   0.062   5.711 -0.2465 -0.3592  1.8693
 5670SOL    HW228473   2.837   4.717   5.582  0.0238 -2.2786 -0.0289
 5671SOL     OW28474   1.773   0.521   0.651  0.1343  0.0453  0.1426
 5671SOL    HW128475   1.679   0.537   0.659  0.7998  2.4120  2.8126
 5671SOL    HW228476   1.780   0.443   0.706 -0.9155 -0.6727 -0.7281
 5672SOL     OW28477   1.098   0.647   7.253  0.0639 -0.3773  0.4800
 5672SOL    HW128478   1.089   0.742   7.263  0.3746 -0.1936 -0.9298
 5672SOL    HW228479   1.105   0.613   7.342  1.4795  1.4582  1.0718
 5673SOL     OW28480   4.155   1.966   2.473  0.0239  0.6501  0.3904
 5673SOL    HW128481   4.198   1.973   2.558  1.8573  2.0496 -0.6300
 5673SOL    HW228482   4.212   1.904   2.427 -2.8241 -1.3311 -0.4374
 5674SOL     OW28483   2.664   4.474   2.150  0.3199 -0.0361  0.5096
 5674SOL    HW128484   2.651   4.457   2.244  1.4349 -1.4875  0.3989
 5674SOL    HW228485   2.758   4.460   2.142  0.4011  1.1989 -0.6831
 5675SOL     OW28486   1.731   3.320  14.885 -0.0973  0.9039  0.0549
 5675SOL    HW128487   1.658   3.343  14.942 -0.0019  1.3424 -0.0013
 5675SOL    HW228488   1.680   3.263  14.827 -0.8134  0.5928  1.0024
 5676SOL     OW28489   1.748   1.683   8.323  0.4011 -0.1127  0.0193
 5676SOL    HW128490   1.723   1.768   8.360 -1.9828 -0.6910 -0.2716
 5676SOL    HW228491   1.668   1.663   8.274  0.9309 -1.6192 -0.1992
 5677SOL     OW28492   1.850   0.910  16.788 -0.7691  0.0035  0.0596
 5677SOL    HW128493   1.761   0.930  16.819 -1.0170 -0.1483 -0.5604
 5677SOL    HW228494   1.845   0.814  16.791  0.5892 -0.1062 -1.3929
 5678SOL     OW28495   1.843   3.649   8.239  0.5494  0.5594 -0.0738
 5678SOL    HW128496   1.748   3.650   8.227  0.4132  0.0008  1.0161
 5678SOL    HW228497   1.854   3.640   8.333 -0.6394 -0.3522 -0.0251
 5679SOL     OW28498   3.664   2.558  10.775  0.1573 -0.0426 -0.1898
 5679SOL    HW128499   3.671   2.482  10.717  1.0917 -0.4969  0.5367
 5679SOL    HW228500   3.697   2.533  10.860  3.2616  1.7095 -0.9019
 5680SOL     OW28501   2.381   2.512  14.715  0.0662 -0.0217  0.0583
 5680SOL    HW128502   2.440   2.437  14.705  0.8535  0.6885 -0.6858
 5680SOL    HW228503   2.433   2.560  14.779 -1.2827 -0.4127  1.4377
 5681SOL     OW28504   2.700   1.421   6.274 -0.1379  0.3664  0.6598
 5681SOL    HW128505   2.664   1.340   6.310 -0.3912  0.2044  0.0472
 5681SOL    HW228506   2.619   1.472   6.265 -0.6574 -0.3136  1.4749
 5682SOL     OW28507   1.476   1.575   5.603 -0.3722  0.0709 -0.0890
 5682SOL    HW128508   1.459   1.642   5.669  0.8945 -1.3491  1.6905
 5682SOL    HW228509   1.471   1.628   5.524 -1.1298  0.1549  0.0151
 5683SOL     OW28510   4.687   1.242   6.858 -0.7322  0.2087 -0.0196
 5683SOL    HW128511   4.640   1.192   6.792 -0.4267 -0.8784  0.5957
 5683SOL    HW228512   4.636   1.205   6.929  0.3840 -0.8586  0.2103
 5684SOL     OW28513   0.460   3.862   5.790  0.1450 -0.2347  0.1032
 5684SOL    HW128514   0.454   3.793   5.725 -0.7280  0.5619 -0.6655
 5684SOL    HW228515   0.474   3.823   5.877 -1.0158 -0.8677  0.0048
 5685SOL     OW28516   2.471   2.944   4.616  0.2572 -0.4998 -0.1752
 5685SOL    HW128517   2.418   2.866   4.600  0.2926 -0.6406  0.4261
 5685SOL    HW228518   2.426   2.969   4.696  1.6970 -0.6068  0.6794
 5686SOL     OW28519   1.338   0.198  13.951 -0.1885  0.2576 -0.3199
 5686SOL    HW128520   1.253   0.212  13.993  0.3781  2.5069  0.0232
 5686SOL    HW228521   1.383   0.282  13.960  0.6492 -0.1165 -0.9582
 5687SOL     OW28522   3.249   0.174   5.663 -0.0350  0.7341  0.2377
 5687SOL    HW128523   3.218   0.157   5.573  0.5054  0.1451  0.1657
 5687SOL    HW228524   3.169   0.201   5.709  1.5838  0.1954  3.3403
 5688SOL     OW28525   1.570   1.450  16.327  0.0632 -0.1953 -0.1567
 5688SOL    HW128526   1.643   1.390  16.344 -0.0198 -0.1329  0.4315
 5688SOL    HW228527   1.505   1.440  16.396  0.5419  1.6617  0.5531
 5689SOL     OW28528   1.131   2.133  10.172  0.3298  0.6488  0.2563
 5689SOL    HW128529   1.177   2.050  10.181 -0.9051  0.2054  2.6943
 5689SOL    HW228530   1.042   2.100  10.189  0.3128  0.0194 -1.0833
 5690SOL     OW28531   1.460   4.484   6.887 -0.0957  0.3740 -0.1148
 5690SOL    HW128532   1.444   4.556   6.826 -0.3482  0.1407 -0.3219
 5690SOL    HW228533   1.404   4.509   6.960 -1.6645 -0.8845 -0.9029
 5691SOL     OW28534   4.585   0.367   1.995 -0.0621 -0.1811  0.0418
 5691SOL    HW128535   4.526   0.440   1.979  0.7107 -0.1510 -2.5857
 5691SOL    HW228536   4.649   0.382   1.926 -2.4263  3.9200 -1.2467
 5692SOL     OW28537   3.202   3.478   1.685  0.4896  0.0430  0.7343
 5692SOL    HW128538   3.138   3.458   1.753 -0.4875 -1.6372 -0.6962
 5692SOL    HW228539   3.262   3.404   1.693 -0.5328 -0.8046  0.5862
 5693SOL     OW28540   3.010   1.766   7.567  0.2166 -0.3148 -0.0557
 5693SOL    HW128541   2.970   1.687   7.530  1.7910 -1.6821  1.2016
 5693SOL    HW228542   3.001   1.748   7.661  1.9051  3.6657  0.8796
 5694SOL     OW28543   4.159   2.296   7.946  0.0302 -0.0276  0.0493
 5694SOL    HW128544   4.220   2.223   7.955  0.6181  0.3585 -0.8526
 5694SOL    HW228545   4.131   2.305   8.037 -1.7533  1.4782 -0.6547
 5695SOL     OW28546   2.543   4.510   5.028  0.4555 -0.2943 -0.1746
 5695SOL    HW128547   2.588   4.588   4.996 -0.4846  0.6049  0.7179
 5695SOL    HW228548   2.452   4.538   5.031 -0.4279 -3.0087 -1.5632
 5696SOL     OW28549   2.848   3.030   2.233 -0.2910 -0.2220 -0.7675
 5696SOL    HW128550   2.937   3.063   2.230 -0.5404  0.8209  2.6158
 5696SOL    HW228551   2.853   2.938   2.206  1.9881 -0.4695  0.5807
 5697SOL     OW28552   4.358   4.155   2.084 -0.0984 -0.0343  0.2175
 5697SOL    HW128553   4.340   4.119   2.171  2.3871  0.5762  0.9791
 5697SOL    HW228554   4.329   4.246   2.084  2.9361  0.9337 -2.4459
 5698SOL     OW28555   0.923   1.451   4.393 -0.3216 -0.4146 -0.7143
 5698SOL    HW128556   0.924   1.394   4.316  0.7822  0.5003 -1.3959
 5698SOL    HW228557   0.850   1.422   4.447  0.7391 -2.0082 -0.1727
 5699SOL     OW28558   0.448   1.076  13.927 -0.5254  0.1164  0.2469
 5699SOL    HW128559   0.448   1.101  13.835  1.3167  1.7478  0.6797
 5699SOL    HW228560   0.534   1.112  13.948 -1.1649  1.2683  0.8933
 5700SOL     OW28561   2.249   2.858   6.936  0.0862  0.5636  0.9997
 5700SOL    HW128562   2.250   2.889   7.027  1.4891 -1.7567  1.7523
 5700SOL    HW228563   2.319   2.905   6.891 -0.3160  0.6628  0.4774
 5701SOL     OW28564   3.155   2.623   6.191  0.1150 -0.2833 -0.0863
 5701SOL    HW128565   3.200   2.549   6.231  1.1470 -0.3390 -1.3291
 5701SOL    HW228566   3.156   2.674   6.272 -1.6394  1.0690 -0.9179
 5702SOL     OW28567   0.285   2.201   1.819 -0.0286 -0.2304  0.2065
 5702SOL    HW128568   0.239   2.121   1.844 -0.0198 -0.0347  0.8385
 5702SOL    HW228569   0.271   2.200   1.724 -0.3977 -0.2880  0.2604
 5703SOL     OW28570   2.511   0.116   6.626  0.2193 -0.5798 -0.0867
 5703SOL    HW128571   2.568   0.146   6.697 -0.0698 -2.0954  0.7968
 5703SOL    HW228572   2.430   0.137   6.672  1.0758  0.1609  1.0822
 5704SOL     OW28573   3.783   0.823  11.119  0.3960  0.5481 -0.3034
 5704SOL    HW128574   3.824   0.781  11.044 -0.8924 -0.8705 -0.2063
 5704SOL    HW228575   3.837   0.794  11.192  0.9849  1.8242 -0.2392
 5705SOL     OW28576   0.360   1.334   0.345 -0.1448 -0.2339  0.1262
 5705SOL    HW128577   0.271   1.328   0.381  0.6829  0.3239  2.2437
 5705SOL    HW228578   0.416   1.376   0.411  0.9520  0.5648 -1.3238
 5706SOL     OW28579   0.450   2.548   4.272  0.3148 -0.5492 -0.3378
 5706SOL    HW128580   0.382   2.539   4.205 -1.4873  2.0004  1.1369
 5706SOL    HW228581   0.410   2.519   4.354  1.0622  1.7416  0.8300
 5707SOL     OW28582   0.924   1.040   8.441 -0.0780  0.0920  0.4312
 5707SOL    HW128583   0.832   1.012   8.432  0.6315 -2.5127  1.2436
 5707SOL    HW228584   0.914   1.135   8.444  1.5085  0.2907 -0.8715
 5708SOL     OW28585   4.525   0.637   7.958 -0.2532 -0.1329 -0.1950
 5708SOL    HW128586   4.549   0.604   7.871 -0.3151 -2.1255  0.5437
 5708SOL    HW228587   4.455   0.574   7.974  2.2784 -2.9450 -0.3224
 5709SOL     OW28588   1.321   0.738   7.918  0.2957 -0.0300 -0.1927
 5709SOL    HW128589   1.366   0.702   7.994 -0.3039  2.5944  1.4202
 5709SOL    HW228590   1.255   0.793   7.960 -0.2140 -0.5583 -0.2941
 5710SOL     OW28591   0.237   1.980   6.615 -0.3325 -0.1132 -0.1602
 5710SOL    HW128592   0.222   1.990   6.709  2.5718 -1.1332  0.4151
 5710SOL    HW228593   0.166   2.030   6.575 -0.0568 -0.3799 -0.9675
 5711SOL     OW28594   2.811   3.601   8.949 -0.0506 -0.0757  0.1867
 5711SOL    HW128595   2.865   3.591   8.871  0.3811 -2.7997  0.8206
 5711SOL    HW228596   2.720   3.616   8.923  0.3291  1.8397 -0.0765
 5712SOL     OW28597   1.520   0.714   3.953 -0.3334 -0.3878 -0.6980
 5712SOL    HW128598   1.472   0.635   3.931 -1.2942 -0.6413  2.3456
 5712SOL    HW228599   1.449   0.771   3.984 -1.3435 -1.6611 -0.6757
 5713SOL     OW28600   1.649   0.296  11.265 -0.2352  0.2988  0.2061
 5713SOL    HW128601   1.682   0.359  11.330  1.2668 -0.1424 -0.1375
 5713SOL    HW228602   1.604   0.355  11.204 -1.8513  0.2826  1.3668
 5714SOL     OW28603   3.573   2.749   3.953 -0.0024 -0.0131  0.1687
 5714SOL    HW128604   3.605   2.774   3.866 -0.8027  0.7559  0.1048
 5714SOL    HW228605   3.597   2.831   3.995  0.4846  0.7389 -1.5675
 5715SOL     OW28606   2.481   2.214   9.477 -0.1911  0.0006  0.6989
 5715SOL    HW128607   2.492   2.128   9.436 -1.6140  0.1471 -0.0037
 5715SOL    HW228608   2.386   2.225   9.468 -0.4044 -0.8401  1.8954
 5716SOL     OW28609   1.587   4.196   3.348  0.0820  0.0446 -0.1282
 5716SOL    HW128610   1.633   4.113   3.337  1.2554  1.1552 -3.8163
 5716SOL    HW228611   1.511   4.165   3.396  1.1053 -0.8242  0.9157
 5717SOL     OW28612   2.073   0.301   8.852 -0.4955 -0.1126  0.0936
 5717SOL    HW128613   2.074   0.385   8.899 -1.4806 -0.0455 -0.0011
 5717SOL    HW228614   2.168   0.297   8.838 -0.1012  2.9166  1.9442
 5718SOL     OW28615   0.080   2.255  17.636  0.0978  0.6706  0.3211
 5718SOL    HW128616   0.009   2.296  17.685  0.9071  2.4750  0.0269
 5718SOL    HW228617   0.150   2.313  17.667  1.4447 -1.1933  0.7416
 5719SOL     OW28618   4.474   2.437   2.909  0.1777  0.2946  0.5964
 5719SOL    HW128619   4.448   2.375   2.977  1.8731 -2.5884 -1.4057
 5719SOL    HW228620   4.449   2.519   2.953  2.1333  0.2817  1.7838
 5720SOL     OW28621   2.633   3.760  12.258  0.2505  0.2293  0.1324
 5720SOL    HW128622   2.659   3.793  12.344  2.9900 -1.5827  0.0104
 5720SOL    HW228623   2.673   3.674  12.267 -0.2279  0.2664  2.7792
 5721SOL     OW28624   1.598   4.545  14.798 -0.2986  0.1647 -0.2446
 5721SOL    HW128625   1.595   4.512  14.709 -0.5329  0.6139 -0.3994
 5721SOL    HW228626   1.683   4.589  14.801  0.0667 -0.4211 -2.7869
 5722SOL     OW28627   1.455   3.866   7.603 -0.1436 -0.3289 -0.5665
 5722SOL    HW128628   1.459   3.893   7.511 -1.0657  0.2895 -0.4259
 5722SOL    HW228629   1.417   3.948   7.636 -0.8778 -0.5530 -0.8397
 5723SOL     OW28630   2.593   2.245  10.436 -0.2896 -0.0428 -0.3933
 5723SOL    HW128631   2.664   2.232  10.372  1.0931  1.5488  0.8187
 5723SOL    HW228632   2.608   2.164  10.484  0.0078  0.3338  0.1454
 5724SOL     OW28633   4.096   1.662  11.062  0.0063  0.5477  0.0148
 5724SOL    HW128634   4.133   1.586  11.106 -0.3494  0.8421  0.8093
 5724SOL    HW228635   4.062   1.623  10.982 -0.0155 -0.2087  0.4000
 5725SOL     OW28636   1.433   0.196  13.261  0.3897 -0.1047 -0.2391
 5725SOL    HW128637   1.430   0.115  13.209 -1.0991 -1.4801  2.0305
 5725SOL    HW228638   1.401   0.261  13.199  1.1967 -0.3869 -0.9596
 5726SOL     OW28639   3.351   0.609   4.044  0.0340 -0.9923 -0.3867
 5726SOL    HW128640   3.285   0.545   4.015 -0.6443 -1.4698  2.2685
 5726SOL    HW228641   3.434   0.562   4.053  0.8102  0.9058  2.1873
 5727SOL     OW28642   1.513   3.486   2.329  0.6486  0.1619  0.0448
 5727SOL    HW128643   1.485   3.395   2.341 -0.7266  0.3177 -2.0394
 5727SOL    HW228644   1.535   3.498   2.237 -0.1734 -1.0937 -0.3085
 5728SOL     OW28645   2.361   0.245   8.928  0.4360  0.5358  0.3448
 5728SOL    HW128646   2.410   0.273   8.851  0.9887 -0.1112  0.4601
 5728SOL    HW228647   2.366   0.322   8.984 -2.6172  0.3258  0.9264
 5729SOL     OW28648   1.918   4.614   1.537 -0.3050  0.5941 -0.2361
 5729SOL    HW128649   1.834   4.656   1.517 -2.1274 -2.5650  0.6470
 5729SOL    HW228650   1.970   4.694   1.531  1.2066 -0.5052 -1.5979
 5730SOL     OW28651   4.536   2.160   5.662 -0.1911  0.1279  0.1725
 5730SOL    HW128652   4.476   2.166   5.736 -0.7184 -2.0005 -0.0837
 5730SOL    HW228653   4.520   2.078   5.616 -1.4853  2.4435 -3.4638
 5731SOL     OW28654   0.183   2.946   3.638  0.4896 -0.4016 -0.7589
 5731SOL    HW128655   0.174   2.850   3.638  3.0616 -0.6467 -1.8114
 5731SOL    HW228656   0.209   2.966   3.548  0.2921 -0.1798 -0.7664
 5732SOL     OW28657   0.495   2.771   7.022  0.1895  0.1452  0.2676
 5732SOL    HW128658   0.553   2.806   6.954 -1.0861 -0.1544 -0.9902
 5732SOL    HW228659   0.472   2.683   6.992  1.8060 -0.5602  1.1405
 5733SOL     OW28660   4.420   3.449   8.035 -0.7469  0.1777 -0.4448
 5733SOL    HW128661   4.436   3.360   8.067  0.5438  0.7317  0.4400
 5733SOL    HW228662   4.504   3.464   7.992  0.4082 -1.3232  1.2738
 5734SOL     OW28663   0.949   3.250  10.792  0.2950  0.3381 -0.3379
 5734SOL    HW128664   0.895   3.322  10.760  1.7466  0.9702 -1.3568
 5734SOL    HW228665   0.929   3.188  10.721 -0.8549  1.0367 -0.6217
 5735SOL     OW28666   2.424   4.666   6.890 -0.3690 -0.6536  0.7540
 5735SOL    HW128667   2.469   4.626   6.815 -0.3173  0.4962  0.1691
 5735SOL    HW228668   2.392   4.586   6.930 -1.0013 -1.3299 -1.1209
 5736SOL     OW28669   0.754   2.846   8.807  0.1964 -0.0842  0.0758
 5736SOL    HW128670   0.816   2.820   8.739  0.3803 -0.9896  0.5816
 5736SOL    HW228671   0.795   2.923   8.847 -1.7187 -0.0885  2.0637
 5737SOL     OW28672   2.034   1.266   8.853  0.2084  0.2184 -0.6194
 5737SOL    HW128673   1.982   1.280   8.775  2.8990  2.0501 -2.0706
 5737SOL    HW228674   2.123   1.282   8.823  1.1595 -0.0260  2.0092
 5738SOL     OW28675   0.618   2.400   7.996  0.3386 -0.3398 -0.3039
 5738SOL    HW128676   0.585   2.489   7.992  1.8874  0.3937  3.2757
 5738SOL    HW228677   0.536   2.351   8.006  0.3779 -0.5219 -0.8496
 5739SOL     OW28678   1.121   2.563   2.179  0.4631  0.2184  0.8463
 5739SOL    HW128679   1.151   2.608   2.259 -1.5323 -0.3374  1.9202
 5739SOL    HW228680   1.094   2.475   2.205  1.1377 -0.3748 -0.5215
 5740SOL     OW28681   0.165   4.086   6.663  0.2214  0.0713 -0.4677
 5740SOL    HW128682   0.163   4.162   6.721  0.7394 -0.5780  0.4081
 5740SOL    HW228683   0.195   4.133   6.585 -0.0604  0.2662 -0.4546
 5741SOL     OW28684   2.149   2.789  11.690 -0.4051 -0.1340  0.2777
 5741SOL    HW128685   2.110   2.859  11.742 -2.2955 -1.5078  0.6680
 5741SOL    HW228686   2.078   2.784  11.627 -1.9130  0.3297  1.9504
 5742SOL     OW28687   4.324   1.440   2.943  0.1222  0.3152 -0.0728
 5742SOL    HW128688   4.290   1.361   2.902  1.8511  0.5228 -1.9211
 5742SOL    HW228689   4.248   1.491   2.971  0.1603  0.7946 -0.8369
 5743SOL     OW28690   0.611   2.140  12.013  0.1108 -0.1935  0.1714
 5743SOL    HW128691   0.686   2.156  12.070  0.6683  0.4963 -0.7690
 5743SOL    HW228692   0.654   2.133  11.928  3.0395  2.2003  1.4945
 5744SOL     OW28693   2.340   0.513   5.208 -0.2845 -0.9190 -0.1286
 5744SOL    HW128694   2.303   0.589   5.253 -4.1131 -0.6987 -3.6762
 5744SOL    HW228695   2.407   0.567   5.168  0.6578 -0.9678  1.3914
 5745SOL     OW28696   3.051   3.024   9.680  0.4460  0.1877  0.0212
 5745SOL    HW128697   3.048   3.118   9.693  0.3895  0.0802  0.8057
 5745SOL    HW228698   3.122   3.022   9.615 -1.0776  0.3734 -1.6329
 5746SOL     OW28699   3.090   0.139   4.332  0.6620 -0.0375 -0.5018
 5746SOL    HW128700   3.140   0.126   4.251 -0.2226  0.4811 -1.1259
 5746SOL    HW228701   3.082   0.047   4.355  2.0243  0.2521  1.1990
 5747SOL     OW28702   0.852   0.889   5.435  0.2084  0.4106  0.4520
 5747SOL    HW128703   0.840   0.885   5.530  0.9323  0.6847  0.5524
 5747SOL    HW228704   0.762   0.895   5.403  0.2636  1.7814  0.5748
 5748SOL     OW28705   4.057   1.165   0.366  0.4353 -0.8890 -0.7471
 5748SOL    HW128706   4.065   1.248   0.413 -1.3089 -2.3770  2.2026
 5748SOL    HW228707   4.117   1.181   0.294  1.9132  0.6507  0.8089
 5749SOL     OW28708   1.402   1.214   6.871 -0.0754 -0.3195  0.2554
 5749SOL    HW128709   1.344   1.262   6.931 -0.9333  1.5033 -1.9967
 5749SOL    HW228710   1.377   1.126   6.898 -1.5807  0.3229  0.9611
 5750SOL     OW28711   3.988   0.901   7.256 -0.2004  0.3676  0.2746
 5750SOL    HW128712   4.079   0.885   7.282  0.1739  1.1290 -0.5630
 5750SOL    HW228713   3.941   0.855   7.325 -1.2195  2.0990  0.7398
 5751SOL     OW28714   1.121   2.926   2.722 -0.2235 -0.2281  0.0507
 5751SOL    HW128715   1.190   2.991   2.704 -1.4443  0.7290 -1.1646
 5751SOL    HW228716   1.076   2.982   2.786  1.6057  0.7568  0.4901
 5752SOL     OW28717   3.366   1.684  13.481  0.3613 -0.2778 -0.9242
 5752SOL    HW128718   3.398   1.594  13.470  3.3023  0.6315  0.0635
 5752SOL    HW228719   3.372   1.688  13.577 -2.1352  1.6082 -0.8741
 5753SOL     OW28720   3.023   1.578   4.688 -0.2535  0.0093 -0.1546
 5753SOL    HW128721   2.991   1.542   4.771  0.4111 -2.3195 -0.9118
 5753SOL    HW228722   2.957   1.644   4.668  1.3525  1.5044 -0.5123
 5754SOL     OW28723   4.230   0.820  12.981  0.1007  0.2554 -0.3414
 5754SOL    HW128724   4.285   0.844  12.906  0.8129 -2.0368 -0.5633
 5754SOL    HW228725   4.200   0.902  13.020 -2.4100 -0.5089 -0.6908
 5755SOL     OW28726   1.053   0.160  11.187 -0.3951  0.1438  0.3269
 5755SOL    HW128727   1.066   0.158  11.092 -0.9322  0.9083  0.2395
 5755SOL    HW228728   1.130   0.204  11.223 -1.5316  1.5776  0.9815
 5756SOL     OW28729   1.464   0.179   2.125 -0.2939  0.0137 -0.2213
 5756SOL    HW128730   1.447   0.139   2.039  1.8687 -1.5573  0.0722
 5756SOL    HW228731   1.444   0.104   2.181  0.0797 -0.0036 -0.1090
 5757SOL     OW28732   2.726   3.703   4.473  0.1868 -0.3104 -0.2527
 5757SOL    HW128733   2.649   3.760   4.468  0.5966  0.4361  1.9126
 5757SOL    HW228734   2.797   3.746   4.425 -0.2064  0.5055 -0.1030
 5758SOL     OW28735   1.693   1.386   6.028 -0.1551 -0.4278  0.0365
 5758SOL    HW128736   1.780   1.346   6.016  0.2920  0.9196 -1.1887
 5758SOL    HW228737   1.675   1.413   5.938  1.4159  0.6488  0.0354
 5759SOL     OW28738   1.791   2.180   8.480  0.2493 -0.0847 -0.1882
 5759SOL    HW128739   1.847   2.243   8.526  1.1565 -0.5258 -0.6983
 5759SOL    HW228740   1.707   2.226   8.477  1.6521  2.3263 -3.0644
 5760SOL     OW28741   0.952   1.952   7.210  0.1004 -0.2236 -0.3545
 5760SOL    HW128742   0.976   1.962   7.118 -0.2280  0.3278 -0.3807
 5760SOL    HW228743   0.881   2.015   7.222  0.8652  0.4022  0.9600
 5761SOL     OW28744   4.359   0.857  12.749 -0.1794  0.0602 -0.3079
 5761SOL    HW128745   4.320   0.927  12.696 -0.2992 -0.2584 -0.6439
 5761SOL    HW228746   4.449   0.863  12.718 -0.2092  2.2837 -0.0253
 5762SOL     OW28747   4.500   0.955   2.143 -0.1102 -0.2738  0.0456
 5762SOL    HW128748   4.497   1.006   2.224  0.7667  0.9558 -0.7057
 5762SOL    HW228749   4.422   0.899   2.145 -0.1186 -0.1548  2.8048
 5763SOL     OW28750   3.975   1.944   3.903  0.0042  0.1307 -0.6686
 5763SOL    HW128751   4.024   1.864   3.886 -0.5094  0.2048 -2.5151
 5763SOL    HW228752   4.045   1.996   3.864  0.5025 -1.4875 -1.9124
 5764SOL     OW28753   3.694   2.814  15.686 -0.3550  0.1278  0.5958
 5764SOL    HW128754   3.634   2.828  15.612  1.8961  1.0269 -1.0448
 5764SOL    HW228755   3.669   2.891  15.738 -0.8312  1.1662 -1.1503
 5765SOL     OW28756   0.765   0.853   1.351  0.1511 -0.0456 -0.4047
 5765SOL    HW128757   0.841   0.907   1.368  0.4733 -0.8811  0.8027
 5765SOL    HW228758   0.726   0.860   1.438 -1.5422  0.9589 -1.2448
 5766SOL     OW28759   0.524   1.659   1.181  0.2958 -0.0942 -0.4876
 5766SOL    HW128760   0.437   1.696   1.197 -0.4101 -3.2502  3.0654
 5766SOL    HW228761   0.574   1.693   1.255  0.2056  2.1984 -1.4818
 5767SOL     OW28762   1.867   1.275   7.708  0.4194  0.3262 -0.4929
 5767SOL    HW128763   1.791   1.291   7.652  0.1674 -1.3666 -0.6393
 5767SOL    HW228764   1.811   1.280   7.785  1.2719  0.0875  0.1360
 5768SOL     OW28765   2.191   1.834   0.783 -0.4178 -0.0598  0.6783
 5768SOL    HW128766   2.173   1.741   0.769 -0.0963  0.0370 -0.3687
 5768SOL    HW228767   2.200   1.841   0.878  0.8513  1.6949  0.4239
 5769SOL     OW28768   4.651   3.808   2.777  0.0940  0.3394  0.6546
 5769SOL    HW128769   4.569   3.806   2.728  0.2211 -1.8228  0.5626
 5769SOL    HW228770   4.709   3.756   2.721 -1.3342 -0.5344 -0.0055
 5770SOL     OW28771   0.619   3.124   0.642  0.0542 -0.0850  0.0753
 5770SOL    HW128772   0.615   3.125   0.547  0.9413 -0.7475  0.0329
 5770SOL    HW228773   0.527   3.122   0.668 -0.4299  3.0933 -1.3706
 5771SOL     OW28774   0.926   1.805   2.153 -0.2009  0.1896 -0.0379
 5771SOL    HW128775   0.924   1.723   2.104 -0.9899  0.5094 -0.5422
 5771SOL    HW228776   1.020   1.822   2.165 -0.1733 -0.6099  0.8969
 5772SOL     OW28777   3.503   2.127   5.285  0.4643  0.1857 -0.2043
 5772SOL    HW128778   3.457   2.206   5.313  2.4486  1.1127  0.4183
 5772SOL    HW228779   3.456   2.109   5.204  1.4798  0.1307 -0.7777
 5773SOL     OW28780   2.918   0.765  16.472 -0.2400  0.1045 -0.0846
 5773SOL    HW128781   3.012   0.752  16.480  0.0504  1.0293 -2.1506
 5773SOL    HW228782   2.895   0.675  16.448  0.8429 -0.4146  0.8106
 5774SOL     OW28783   3.908   1.779  12.981 -0.2782  0.0183  1.1048
 5774SOL    HW128784   3.995   1.811  12.956 -0.9803 -1.0901 -2.7223
 5774SOL    HW228785   3.861   1.861  12.996 -0.7298 -0.1722  0.7318
 5775SOL     OW28786   2.520   0.935   0.095  0.2469 -0.1944 -0.0540
 5775SOL    HW128787   2.463   0.891   0.158  0.3923 -0.8259 -0.3664
 5775SOL    HW228788   2.450   0.939   0.030 -1.5262  0.4056  1.8696
 5776SOL     OW28789   0.312   0.935   7.086  0.1911  0.2047 -0.4462
 5776SOL    HW128790   0.381   0.905   7.146  0.7948  0.6505 -0.9111
 5776SOL    HW228791   0.326   1.029   7.096 -0.5012  0.3728 -1.0951
 5777SOL     OW28792   0.014   2.314   9.222 -0.3588 -0.4931 -0.0367
 5777SOL    HW128793   0.079   2.376   9.255  3.0311 -3.3622 -1.2356
 5777SOL    HW228794   4.652   2.352   9.249 -1.3389 -2.7194  0.0464
 5778SOL     OW28795   0.224   2.585   3.888  0.0920 -0.3091  0.0653
 5778SOL    HW128796   0.215   2.525   3.813  1.0354 -3.8803  2.8177
 5778SOL    HW228797   0.292   2.645   3.859 -0.8966  2.1016  2.7806
 5779SOL     OW28798   1.183   1.296   7.036  0.4157  0.0093  0.5362
 5779SOL    HW128799   1.215   1.386   7.025  1.4844 -0.4925 -0.4946
 5779SOL    HW228800   1.093   1.319   7.057 -0.4954 -0.5902 -2.6457
 5780SOL     OW28801   4.176   4.713  17.651 -0.2547 -0.2967 -0.3373
 5780SOL    HW128802   4.254   4.656  17.648  0.0812 -0.0684  4.3429
 5780SOL    HW228803   4.115   4.668  17.593  0.4355 -0.7813 -0.6864
 5781SOL     OW28804   1.208   1.690  11.341 -0.7303  0.6702 -0.4589
 5781SOL    HW128805   1.300   1.707  11.363 -1.1817  1.9559  0.4118
 5781SOL    HW228806   1.199   1.750  11.267 -0.3043  1.1645 -0.1108
 5782SOL     OW28807   3.106   1.129   5.254 -0.5786  0.3044  0.3497
 5782SOL    HW128808   3.168   1.201   5.252 -0.5085  0.2069 -1.1589
 5782SOL    HW228809   3.077   1.120   5.163  1.9470 -0.5475 -0.3586
 5783SOL     OW28810   2.533   0.778   5.995 -0.2951  0.1459 -0.4663
 5783SOL    HW128811   2.445   0.816   5.987 -0.3966  0.2835  1.2535
 5783SOL    HW228812   2.502   0.706   6.050  0.3836 -0.7637 -1.2649
 5784SOL     OW28813   3.683   4.369  11.062 -0.1941  0.2752 -0.1359
 5784SOL    HW128814   3.601   4.381  11.015 -0.8118  1.9214  1.3746
 5784SOL    HW228815   3.737   4.443  11.033 -1.4388  1.5955  0.9280
 5785SOL     OW28816   4.042   0.561   6.382  0.4509  0.3161 -0.7904
 5785SOL    HW128817   4.070   0.636   6.329 -0.1115  0.5362 -0.7715
 5785SOL    HW228818   4.103   0.576   6.455  0.4620  0.3171 -0.7999
 5786SOL     OW28819   1.711   0.072   8.293 -0.7926  0.3990  0.1324
 5786SOL    HW128820   1.637   0.129   8.273 -0.2180  1.2805  0.5432
 5786SOL    HW228821   1.666   4.709   8.283  1.7156 -0.8633 -0.5684
 5787SOL     OW28822   2.961   3.683   6.346 -0.1883  0.3226  0.8238
 5787SOL    HW128823   2.953   3.669   6.252  1.6697  1.0762  0.5441
 5787SOL    HW228824   2.978   3.599   6.389  3.3051  0.6788  0.1992
 5788SOL     OW28825   4.066   2.519   9.761  0.5703  0.4263 -0.2205
 5788SOL    HW128826   4.008   2.446   9.741  1.3813 -0.4210  0.5011
 5788SOL    HW228827   4.136   2.486   9.704  1.9126  0.4049  1.4359
 5789SOL     OW28828   4.370   0.784   3.477  0.5246  0.6678 -0.3651
 5789SOL    HW128829   4.405   0.781   3.388 -2.4614  1.3867 -1.5634
 5789SOL    HW228830   4.306   0.854   3.467 -1.2544 -1.3879 -3.3748
 5790SOL     OW28831   3.707   0.063   0.316 -0.5317 -0.0150 -0.2052
 5790SOL    HW128832   3.617   0.029   0.309 -1.0306  1.5050 -1.2498
 5790SOL    HW228833   3.696   0.145   0.268 -1.2324  0.2254  0.3660
 5791SOL     OW28834   4.450   3.932   5.110 -0.0020  0.0879  0.1625
 5791SOL    HW128835   4.361   3.916   5.078 -0.4420  0.3162  1.2563
 5791SOL    HW228836   4.435   4.005   5.170  3.1980  2.0156 -1.3770
 5792SOL     OW28837   1.313   1.382   5.985 -0.0641 -0.1780  0.1194
 5792SOL    HW128838   1.337   1.474   5.993 -1.4078 -0.1522  3.6657
 5792SOL    HW228839   1.373   1.344   6.049 -0.9156  1.3098  1.7914
 5793SOL     OW28840   0.781   0.992   2.643 -0.0453  0.6612  0.3963
 5793SOL    HW128841   0.801   1.080   2.611 -0.8775 -0.0634 -2.0725
 5793SOL    HW228842   0.804   1.000   2.736  0.4747 -1.1519  0.4253
 5794SOL     OW28843   2.926   1.557  16.943 -0.0972  0.0683  0.4766
 5794SOL    HW128844   2.997   1.612  16.976 -0.0808  1.0618 -1.2162
 5794SOL    HW228845   2.950   1.513  16.862 -2.2876  1.3482 -0.8940
 5795SOL     OW28846   3.217   2.105  15.325  0.4631 -0.1678  0.2328
 5795SOL    HW128847   3.227   2.200  15.314  1.8322 -0.1845  1.2749
 5795SOL    HW228848   3.299   2.063  15.296 -0.4415 -1.2629 -0.7437
 5796SOL     OW28849   2.235   0.296   7.307 -0.1251  0.8731  0.0078
 5796SOL    HW128850   2.164   0.346   7.348 -2.0474 -0.3661 -1.7528
 5796SOL    HW228851   2.298   0.288   7.378  0.7631  1.3670 -0.7254
 5797SOL     OW28852   0.467   3.567  10.046  0.2554 -0.2865 -0.1900
 5797SOL    HW128853   0.530   3.499  10.070  1.4554  0.1841 -1.9729
 5797SOL    HW228854   0.439   3.602  10.130  0.7422  1.0301 -0.5745
 5798SOL     OW28855   0.860   3.719   5.543  0.3219 -0.3346 -0.0532
 5798SOL    HW128856   0.842   3.767   5.462  3.0535 -1.8292 -1.5369
 5798SOL    HW228857   0.935   3.766   5.579  0.5308 -0.8858  0.2215
 5799SOL     OW28858   0.832   4.195  16.362 -0.5167 -0.6237  0.2314
 5799SOL    HW128859   0.797   4.108  16.382 -0.4033 -0.9430 -0.9613
 5799SOL    HW228860   0.751   4.240  16.337  0.2564  1.2610  1.0950
 5800SOL     OW28861   4.074   0.366  13.142  0.4215 -0.4870 -0.2192
 5800SOL    HW128862   4.084   0.363  13.046 -0.7953  1.0972 -0.3910
 5800SOL    HW228863   4.166   0.364  13.168  0.0876  1.3545  1.0767
 5801SOL     OW28864   4.550   1.045   7.601 -0.2827  0.0927  0.0420
 5801SOL    HW128865   4.588   1.109   7.662  2.1206 -2.4305  1.1718
 5801SOL    HW228866   4.481   1.097   7.559  0.4891 -0.6047 -2.0367
 5802SOL     OW28867   3.281   0.897   7.138 -0.4740 -0.5070 -0.3104
 5802SOL    HW128868   3.201   0.934   7.176 -1.0465 -2.3419  0.2890
 5802SOL    HW228869   3.286   0.923   7.046  0.8705  0.1191 -0.0576
 5803SOL     OW28870   3.157   2.585   4.180  0.2983  0.0810  0.2635
 5803SOL    HW128871   3.224   2.532   4.138 -1.9871 -1.2023 -1.8076
 5803SOL    HW228872   3.208   2.665   4.182 -2.4467  1.8501 -0.8665
 5804SOL     OW28873   1.441   3.189   3.915  0.1417  0.3964 -0.0694
 5804SOL    HW128874   1.346   3.174   3.911  0.3431 -1.0817  0.6640
 5804SOL    HW228875   1.440   3.284   3.908  2.0019  0.4686  0.7123
 5805SOL     OW28876   0.275   2.296   6.152 -0.1060 -0.2903  0.2127
 5805SOL    HW128877   0.325   2.377   6.143  1.0532 -1.0997 -0.5584
 5805SOL    HW228878   0.190   2.319   6.114  0.0178 -3.2599 -1.8159
 5806SOL     OW28879   1.129   2.148   5.574  0.3697  0.1800 -0.2679
 5806SOL    HW128880   1.224   2.151   5.588  0.1619  0.0016  1.1970
 5806SOL    HW228881   1.126   2.154   5.479  0.7701  3.3284 -0.0887
 5807SOL     OW28882   0.033   2.677   5.505 -0.3583 -0.1826 -0.2426
 5807SOL    HW128883   4.670   2.680   5.551  0.8736 -0.6061  2.0646
 5807SOL    HW228884   0.038   2.589   5.467  1.1736  0.5748 -1.7336
 5808SOL     OW28885   3.949   3.044  11.503 -0.6236  0.1869 -0.3201
 5808SOL    HW128886   4.000   3.042  11.423 -0.6362 -3.9466 -0.2527
 5808SOL    HW228887   3.965   2.957  11.541 -2.3658 -0.3109 -0.7177
 5809SOL     OW28888   1.842   3.174   9.449 -0.5144 -0.3675 -0.1892
 5809SOL    HW128889   1.820   3.157   9.357  0.8513 -0.5654 -0.4783
 5809SOL    HW228890   1.875   3.088   9.474  2.5129  1.0040  0.4702
 5810SOL     OW28891   2.001   1.604   7.814  1.1859  0.0438 -0.0242
 5810SOL    HW128892   1.932   1.632   7.754 -0.4711  0.7122  2.1967
 5810SOL    HW228893   2.069   1.647   7.761  0.9193 -1.9573 -2.0214
 5811SOL     OW28894   1.075   1.271  10.623  0.4335  0.4471  0.0990
 5811SOL    HW128895   1.111   1.313  10.701  2.9295 -0.5547 -0.5021
 5811SOL    HW228896   0.993   1.319  10.615 -0.7132 -1.7758 -1.2752
 5812SOL     OW28897   4.252   1.169   7.160  0.2723 -0.0421 -0.5403
 5812SOL    HW128898   4.305   1.238   7.200 -1.4027  0.0696  1.5286
 5812SOL    HW228899   4.310   1.136   7.092 -0.3412 -1.7156 -0.2711
 5813SOL     OW28900   3.763   2.012   0.292  0.1132  0.5410 -0.0609
 5813SOL    HW128901   3.790   1.920   0.292 -0.2888  0.4203 -0.7710
 5813SOL    HW228902   3.694   2.015   0.225  0.9323 -1.1237 -0.9760
 5814SOL     OW28903   3.800   4.259  12.145  0.4268  0.0734  0.2182
 5814SOL    HW128904   3.864   4.290  12.209  0.4558 -1.2487  0.8342
 5814SOL    HW228905   3.765   4.343  12.113 -1.9796 -0.8289  0.4492
 5815SOL     OW28906   2.976   0.021  15.490  0.2250 -0.5659 -0.0198
 5815SOL    HW128907   2.937   0.075  15.421 -3.7461 -0.8722  1.9861
 5815SOL    HW228908   3.049   4.710  15.438 -0.9661 -0.6853 -1.6071
 5816SOL     OW28909   3.682   2.002   9.071 -0.2877  0.1150  0.7152
 5816SOL    HW128910   3.756   1.969   9.021 -1.9504 -0.6003 -1.2849
 5816SOL    HW228911   3.729   2.025   9.151 -0.2154  1.3973  0.3069
 5817SOL     OW28912   0.437   0.402  17.157 -0.8352  0.3615  0.2592
 5817SOL    HW128913   0.426   0.489  17.119 -1.0271  0.6902  1.0441
 5817SOL    HW228914   0.425   0.417  17.251  1.7760  0.5231  0.5542
 5818SOL     OW28915   1.209   3.923  13.326 -0.3638  0.9409  0.2811
 5818SOL    HW128916   1.244   4.007  13.295  0.7946  0.5637  0.5779
 5818SOL    HW228917   1.286   3.869  13.307 -1.5437 -0.8855  0.6944
 5819SOL     OW28918   3.032   0.138   4.622 -0.0247 -0.5276 -0.2516
 5819SOL    HW128919   3.007   0.231   4.618 -0.7908 -0.7364 -0.2739
 5819SOL    HW228920   3.019   0.113   4.531 -0.5049 -1.1860  0.0033
 5820SOL     OW28921   3.975   3.007   7.773  0.3782 -0.2989  0.1423
 5820SOL    HW128922   3.884   3.024   7.797  0.5991 -1.0141  1.4932
 5820SOL    HW228923   3.975   2.918   7.739  0.4072 -0.3794  0.3522
 5821SOL     OW28924   2.544   4.608   0.451  0.1571 -0.1070  0.3669
 5821SOL    HW128925   2.584   4.675   0.396  0.4226 -0.6635 -0.1240
 5821SOL    HW228926   2.623   4.558   0.473 -0.6643 -1.2163  0.8282
 5822SOL     OW28927   4.567   4.544  15.700 -0.4082 -0.2738  0.2928
 5822SOL    HW128928   4.653   4.542  15.659  0.1893 -1.3314  1.6050
 5822SOL    HW228929   4.512   4.565  15.624  0.1124  1.2111  0.3434
 5823SOL     OW28930   3.452   4.381   2.069  0.0984  0.3569 -0.1174
 5823SOL    HW128931   3.543   4.390   2.099  0.4754 -0.1618 -1.1203
 5823SOL    HW228932   3.461   4.433   1.989  1.3673 -1.8559 -1.3891
 5824SOL     OW28933   1.049   3.248   4.600  0.6783  0.5072 -0.1288
 5824SOL    HW128934   0.962   3.270   4.632  1.0046 -0.3109  1.2993
 5824SOL    HW228935   1.028   3.206   4.516  0.2377  0.3454  0.0670
 5825SOL     OW28936   2.948   0.030   4.995 -0.3822 -0.4913  0.3551
 5825SOL    HW128937   3.026   4.700   4.976 -0.6889 -1.4567  1.6910
 5825SOL    HW228938   2.889   0.020   4.920  1.5794 -2.5096 -0.9170
 5826SOL     OW28939   4.667   4.656  11.769  0.1062  0.1150  0.0381
 5826SOL    HW128940   4.642   4.630  11.680  2.4235  0.3320 -0.6766
 5826SOL    HW228941   0.002   0.009  11.747  0.4309 -0.0669  0.2446
 5827SOL     OW28942   3.529   4.093   4.484  0.1557  0.3176 -1.0031
 5827SOL    HW128943   3.611   4.057   4.453  1.5590 -0.2557  3.4026
 5827SOL    HW228944   3.462   4.031   4.453 -0.3388  1.2758 -1.8721
 5828SOL     OW28945   2.245   2.295   8.733  0.2184 -0.0418 -0.2830
 5828SOL    HW128946   2.178   2.298   8.802 -0.0802  3.4545 -0.7559
 5828SOL    HW228947   2.323   2.323   8.781  0.4933  0.6768 -1.1575
 5829SOL     OW28948   4.143   2.553   7.779 -0.1783  0.5246 -0.9017
 5829SOL    HW128949   4.155   2.499   7.857  0.0861  4.1557  1.5603
 5829SOL    HW228950   4.217   2.613   7.786  0.7554 -1.0094  2.3112
 5830SOL     OW28951   3.928   3.240   1.250  0.1544 -0.5453 -0.2459
 5830SOL    HW128952   3.871   3.309   1.282 -1.5161 -2.0432  0.0072
 5830SOL    HW228953   3.970   3.277   1.172  0.7156 -0.9305 -0.1313
 5831SOL     OW28954   4.084   3.474   3.212  0.2350 -0.1851 -0.8278
 5831SOL    HW128955   4.135   3.502   3.136  2.0976 -1.7376 -0.1469
 5831SOL    HW228956   4.090   3.380   3.195  1.0467 -0.5908  1.6568
 5832SOL     OW28957   3.245   1.735   6.473  0.6860 -0.2240 -0.3471
 5832SOL    HW128958   3.256   1.746   6.379 -0.1868 -0.4142 -0.4711
 5832SOL    HW228959   3.332   1.720   6.508  0.2995 -0.0189  0.7113
 5833SOL     OW28960   1.391   1.319   6.633 -0.1510 -0.3164 -0.0324
 5833SOL    HW128961   1.402   1.297   6.726  1.4282  2.4157  0.4253
 5833SOL    HW228962   1.477   1.298   6.597 -0.2244  1.4103 -1.2112
 5834SOL     OW28963   2.321   4.211  14.564 -0.1209 -0.1089 -0.3500
 5834SOL    HW128964   2.341   4.136  14.509  0.3185  2.1397 -3.2783
 5834SOL    HW228965   2.398   4.209  14.620  0.4151 -2.9418 -1.2389
 5835SOL     OW28966   3.416   2.600  17.369 -0.3195  0.9321 -0.0024
 5835SOL    HW128967   3.471   2.574  17.443  1.3599  3.5331 -0.3192
 5835SOL    HW228968   3.475   2.672  17.349  2.1249 -1.1192 -0.0928
 5836SOL     OW28969   1.843   3.090  15.249 -0.1406  0.5200  0.2636
 5836SOL    HW128970   1.876   3.159  15.307  1.5666 -0.4793  0.4913
 5836SOL    HW228971   1.918   3.079  15.190 -1.9602  0.8651 -2.1343
 5837SOL     OW28972   3.491   1.991   5.040 -0.3724 -0.4359  0.3145
 5837SOL    HW128973   3.442   2.003   4.959 -0.1667 -0.1812  0.2290
 5837SOL    HW228974   3.567   1.942   5.007 -0.4810 -0.7989  0.6071
 5838SOL     OW28975   0.674   4.231   7.221 -0.1169 -0.2780  0.2182
 5838SOL    HW128976   0.695   4.254   7.130  2.5146 -0.6855  0.7300
 5838SOL    HW228977   0.666   4.318   7.262  4.3658 -0.3846  1.2522
 5839SOL     OW28978   3.340   1.063   4.785  0.2564 -0.1221  0.8932
 5839SOL    HW128979   3.428   1.027   4.798  0.4031 -0.5012 -1.2993
 5839SOL    HW228980   3.310   1.035   4.699  0.1918  1.4801  0.3839
 5840SOL     OW28981   3.155   3.261   7.932 -0.5176  0.3549 -0.0818
 5840SOL    HW128982   3.168   3.205   7.856  0.9956  1.0328 -0.3301
 5840SOL    HW228983   3.108   3.334   7.892 -0.8106  0.0874 -0.2241
 5841SOL     OW28984   2.666   2.400   6.573 -0.4577  0.0569  0.6313
 5841SOL    HW128985   2.580   2.437   6.592 -0.6678  0.2557 -0.7129
 5841SOL    HW228986   2.724   2.475   6.585  0.0264 -0.2132  0.0086
 5842SOL     OW28987   2.775   3.532  12.580  0.1353 -0.0076  0.1533
 5842SOL    HW128988   2.861   3.499  12.554  0.8300  0.5070  1.8314
 5842SOL    HW228989   2.800   3.624  12.583  0.8837 -0.1831 -0.6023
 5843SOL     OW28990   2.976   0.716  15.588 -0.2551 -0.1533  0.9168
 5843SOL    HW128991   3.041   0.739  15.654 -0.8740 -1.1982  1.8946
 5843SOL    HW228992   3.004   0.631  15.553 -0.6495  0.9142 -2.0157
 5844SOL     OW28993   1.384   4.381   4.481 -0.5609 -0.7176  0.2018
 5844SOL    HW128994   1.360   4.457   4.428 -0.0768 -1.7575 -1.5100
 5844SOL    HW228995   1.428   4.422   4.555 -0.5291  0.3494 -0.4086
 5845SOL     OW28996   1.724   1.277   9.230 -0.3468  0.1441  0.4931
 5845SOL    HW128997   1.779   1.329   9.172 -0.9284 -1.6348 -1.6491
 5845SOL    HW228998   1.753   1.321   9.310  2.8313  0.5061 -0.8748
 5846SOL     OW28999   3.330   4.425   5.794 -0.1456  0.5949  0.1309
 5846SOL    HW129000   3.319   4.491   5.725 -0.6227  0.3244 -0.0559
 5846SOL    HW229001   3.354   4.357   5.731 -0.4504 -0.1108  0.7908
 5847SOL     OW29002   4.004   3.255  16.871 -0.1474  0.1188 -0.2612
 5847SOL    HW129003   4.001   3.350  16.862  1.4909  0.1818 -0.0952
 5847SOL    HW229004   3.947   3.225  16.800 -2.2390 -0.2466  1.5765
 5848SOL     OW29005   3.585   4.696   2.863 -0.5195  0.4090  0.3610
 5848SOL    HW129006   3.652   4.701   2.795 -2.4761  1.5583 -1.4958
 5848SOL    HW229007   3.567   4.602   2.869 -0.6565  0.4161  0.0623
 5849SOL     OW29008   2.879   0.229   8.437  1.0118  0.2159 -0.1772
 5849SOL    HW129009   2.901   0.232   8.344  0.0582 -1.2205 -0.4541
 5849SOL    HW229010   2.966   0.251   8.469  1.8658 -2.0999 -0.9140
 5850SOL     OW29011   3.733   0.685   8.862 -0.0704 -0.2193  0.0318
 5850SOL    HW129012   3.675   0.730   8.924  0.9661  1.6687 -0.3872
 5850SOL    HW229013   3.745   0.755   8.798 -1.3118  0.5847  0.6713
 5851SOL     OW29014   2.515   0.107   3.908  0.1384  0.4441  0.7119
 5851SOL    HW129015   2.480   0.081   3.823 -1.5549  0.1534  1.4933
 5851SOL    HW229016   2.529   0.202   3.900 -1.8812  0.7844  1.1531
 5852SOL     OW29017   2.115   2.277  12.632  0.1446 -0.1488  0.1654
 5852SOL    HW129018   2.036   2.297  12.581  0.7074  3.8982  0.8721
 5852SOL    HW229019   2.163   2.360  12.625  1.8847 -0.9606  2.4839
 5853SOL     OW29020   2.229   2.676  15.756  0.7400  0.1395 -0.1960
 5853SOL    HW129021   2.283   2.695  15.679 -0.0059  3.4741  0.0848
 5853SOL    HW229022   2.145   2.709  15.724  0.9012  2.9079  2.2079
 5854SOL     OW29023   1.243   2.978   9.212 -0.5840 -0.3371  0.1076
 5854SOL    HW129024   1.156   2.941   9.205 -1.6898  2.1382  0.6875
 5854SOL    HW229025   1.299   2.901   9.219  1.8163  1.2639 -1.3696
 5855SOL     OW29026   3.166   2.935   5.744 -0.1129 -0.2596 -0.1055
 5855SOL    HW129027   3.147   2.864   5.804  2.0103  0.2897  1.2111
 5855SOL    HW229028   3.223   2.896   5.677  2.0783 -0.5843  1.9566
 5856SOL     OW29029   2.278   3.367  15.240 -0.3677 -0.1556 -0.2283
 5856SOL    HW129030   2.316   3.295  15.188 -0.3226 -0.8318  0.7364
 5856SOL    HW229031   2.192   3.354  15.201  0.5019 -0.4730 -2.0400
 5857SOL     OW29032   0.814   2.234  10.818 -0.4391  0.6422 -0.2528
 5857SOL    HW129033   0.891   2.270  10.861 -0.1678 -0.7199  0.4165
 5857SOL    HW229034   0.738   2.279  10.853 -0.7814  0.4271 -0.7149
 5858SOL     OW29035   0.145   2.002   6.872 -0.1233 -0.2466  0.5946
 5858SOL    HW129036   0.061   1.967   6.843  0.7918 -1.6207 -0.4286
 5858SOL    HW229037   0.126   2.072   6.935  0.8992  1.1015 -0.5842
 5859SOL     OW29038   2.801   4.214   6.401  0.4434  0.3151 -0.4969
 5859SOL    HW129039   2.804   4.144   6.336 -3.6096  1.3148 -1.7653
 5859SOL    HW229040   2.784   4.161   6.478 -0.6489  1.6185  0.1765
 5860SOL     OW29041   2.662   3.345  14.955  0.1132 -0.4459 -0.1951
 5860SOL    HW129042   2.696   3.410  15.016 -1.0236 -0.0534  0.0208
 5860SOL    HW229043   2.653   3.388  14.870 -0.6996  1.2665  0.7502
 5861SOL     OW29044   2.680   4.607   3.094 -0.2229 -0.2758 -0.1799
 5861SOL    HW129045   2.676   4.693   3.135  4.1122 -0.1066 -0.1562
 5861SOL    HW229046   2.702   4.635   3.005  0.8010 -1.0287 -0.1672
 5862SOL     OW29047   3.664   2.299  14.225  0.0711  0.1773 -0.2923
 5862SOL    HW129048   3.709   2.261  14.150  0.0681  0.6016 -0.5092
 5862SOL    HW229049   3.732   2.267  14.286 -0.2878  1.4054  0.7444
 5863SOL     OW29050   0.555   0.409   8.497  0.2265 -0.4023  0.8821
 5863SOL    HW129051   0.559   0.359   8.415  1.8901  2.5408 -0.8124
 5863SOL    HW229052   0.644   0.389   8.525  0.5660  0.6235  0.5195
 5864SOL     OW29053   2.779   2.829  10.041 -0.1490 -0.0043 -0.7634
 5864SOL    HW129054   2.762   2.758   9.979  0.4008 -0.9885  0.1989
 5864SOL    HW229055   2.815   2.780  10.115 -1.4538  1.1511  0.6234
 5865SOL     OW29056   3.984   2.601   4.394 -0.1489  0.1124 -0.3931
 5865SOL    HW129057   3.899   2.602   4.349  0.1223 -0.3807 -0.9104
 5865SOL    HW229058   4.038   2.544   4.340 -1.5220  0.7554 -2.4934
 5866SOL     OW29059   0.727   0.444   6.124  0.3549  0.4292  0.0020
 5866SOL    HW129060   0.676   0.396   6.058  1.7551 -1.9827  0.6795
 5866SOL    HW229061   0.672   0.521   6.141 -2.8148 -1.6105 -1.0193
 5867SOL     OW29062   4.163   3.128  14.168  0.4830  0.5597 -0.0007
 5867SOL    HW129063   4.253   3.160  14.178  0.7748 -0.2989  0.1058
 5867SOL    HW229064   4.127   3.102  14.253  0.6087 -1.7671 -0.6569
 5868SOL     OW29065   0.380   1.568   0.919 -0.8606 -0.0905 -0.3128
 5868SOL    HW129066   0.371   1.645   0.975  0.8571 -1.1395  1.4098
 5868SOL    HW229067   0.451   1.578   0.855 -0.5174  0.9352  0.2304
 5869SOL     OW29068   1.333   0.988   5.019 -0.1982  0.8193 -0.6892
 5869SOL    HW129069   1.356   0.905   4.976  0.2597  0.1171  0.9162
 5869SOL    HW229070   1.276   0.955   5.089  1.2574 -0.0214  0.1010
 5870SOL     OW29071   1.421   2.197   3.939 -0.3826 -0.4819 -0.1946
 5870SOL    HW129072   1.393   2.259   4.007  0.0033 -3.6105  2.7867
 5870SOL    HW229073   1.469   2.256   3.881  0.2399 -0.4286  0.3768
 5871SOL     OW29074   0.954   4.599   8.319 -0.2642  0.0062  0.0524
 5871SOL    HW129075   1.015   4.598   8.392 -1.7322 -0.7299  1.2613
 5871SOL    HW229076   0.997   4.550   8.249  0.6639  2.1869 -0.9200
 5872SOL     OW29077   4.076   1.714   7.967  1.0327  0.1014 -0.2963
 5872SOL    HW129078   4.062   1.801   7.929 -0.6341 -0.1213 -0.2168
 5872SOL    HW229079   4.157   1.731   8.014 -0.0656 -0.3825  1.7751
 5873SOL     OW29080   2.509   2.539   5.982  0.2478 -0.0784  0.3320
 5873SOL    HW129081   2.524   2.506   6.071  0.0506  1.6733  1.0190
 5873SOL    HW229082   2.516   2.457   5.933  0.1549 -0.1835  0.4951
 5874SOL     OW29083   3.262   3.449  14.302  0.1275 -0.9987  0.3896
 5874SOL    HW129084   3.317   3.400  14.241 -0.2165 -0.1882 -0.5759
 5874SOL    HW229085   3.310   3.532  14.309 -2.8138  0.4953  3.1716
 5875SOL     OW29086   3.674   0.030  12.160 -0.2640  0.0327 -0.0406
 5875SOL    HW129087   3.664   0.092  12.233  0.3004 -0.3223  0.3416
 5875SOL    HW229088   3.704   0.084  12.087 -0.7091  1.3151  0.7107
 5876SOL     OW29089   0.140   4.122  11.828  0.2313  0.5049  0.0709
 5876SOL    HW129090   0.073   4.090  11.767  0.0364  4.0838 -1.5941
 5876SOL    HW229091   0.141   4.217  11.819 -1.2474  0.6700  1.5756
 5877SOL     OW29092   2.928   1.362  12.873 -0.2818  0.3589  0.0905
 5877SOL    HW129093   2.862   1.318  12.927 -0.9723 -0.2896 -1.2917
 5877SOL    HW229094   3.001   1.301  12.867  0.9760  1.7134  1.3926
 5878SOL     OW29095   2.739   1.758   7.247  0.0216  0.0711 -0.3412
 5878SOL    HW129096   2.793   1.715   7.181 -0.1210 -0.1346 -0.3263
 5878SOL    HW229097   2.811   1.794   7.299 -0.7902  2.2219 -0.7220
 5879SOL     OW29098   4.188   3.229   6.861 -0.2904  0.0621 -0.3871
 5879SOL    HW129099   4.099   3.252   6.888  0.3280  1.6834  0.2815
 5879SOL    HW229100   4.194   3.139   6.894  1.1534  1.3588  2.9583
 5880SOL     OW29101   0.780   0.820   8.778 -0.3024 -0.7473  0.1429
 5880SOL    HW129102   0.748   0.733   8.803  2.1388 -1.3427  1.1715
 5880SOL    HW229103   0.804   0.799   8.688  1.7563  0.6993  0.3739
 5881SOL     OW29104   2.037   1.335  11.397 -0.1885  0.3062  0.0650
 5881SOL    HW129105   2.072   1.423  11.410 -0.4911  0.5247 -0.6267
 5881SOL    HW229106   1.955   1.343  11.447  0.3020  1.3987  0.6830
 5882SOL     OW29107   0.207   4.054   7.617  0.0775  0.2666 -0.1900
 5882SOL    HW129108   0.236   4.110   7.544  0.6308  1.4734  0.9419
 5882SOL    HW229109   0.283   4.061   7.674 -0.2909  0.3633  0.2849
 5883SOL     OW29110   0.594   2.602   2.441 -0.1235 -0.1171  0.0590
 5883SOL    HW129111   0.540   2.556   2.376 -0.3857  0.0587  0.1540
 5883SOL    HW229112   0.663   2.641   2.388 -0.3534 -0.1492 -0.2696
 5884SOL     OW29113   0.110   4.361   7.360  0.2087  0.0028  0.1058
 5884SOL    HW129114   0.160   4.280   7.352 -2.3440 -1.4647 -0.8655
 5884SOL    HW229115   0.068   4.332   7.441 -0.2658 -0.2498 -0.2312
 5885SOL     OW29116   4.665   4.404   0.735  0.5189 -0.0766  0.1785
 5885SOL    HW129117   0.009   4.339   0.711 -0.6738 -1.6710  1.2095
 5885SOL    HW229118   4.583   4.358   0.720 -0.8374  1.4803  2.6955
 5886SOL     OW29119   4.233   3.515  12.058  0.1268  0.0878 -0.0267
 5886SOL    HW129120   4.229   3.603  12.097  0.0346 -0.0505  0.2780
 5886SOL    HW229121   4.314   3.483  12.098 -1.2909  0.6830  3.4088
 5887SOL     OW29122   3.486   3.166   6.244  0.0828 -0.5583  0.3100
 5887SOL    HW129123   3.404   3.119   6.226 -0.0859 -0.2731  0.3443
 5887SOL    HW229124   3.550   3.098   6.221  1.2090 -0.3354  2.7491
 5888SOL     OW29125   0.923   0.494   7.779 -0.1287 -0.5606  0.3336
 5888SOL    HW129126   0.909   0.441   7.857  0.6705 -0.2949  0.6618
 5888SOL    HW229127   0.834   0.518   7.752  0.5345  0.6604 -0.7952
 5889SOL     OW29128   2.445   2.964   6.788 -0.1204  0.1734  0.2964
 5889SOL    HW129129   2.501   2.963   6.710 -1.0444 -0.4788 -0.3622
 5889SOL    HW229130   2.468   2.873   6.810 -0.5691  0.6783  2.8053
 5890SOL     OW29131   2.922   0.905   0.348 -0.3195 -0.6145  0.5580
 5890SOL    HW129132   2.851   0.933   0.291  1.6490  1.1728 -1.0277
 5890SOL    HW229133   2.998   0.913   0.290 -1.0679  0.0618 -0.3293
 5891SOL     OW29134   0.281   2.960   4.447  0.2986  0.2205  0.3001
 5891SOL    HW129135   0.271   2.866   4.455  2.3805 -0.1088 -1.1854
 5891SOL    HW229136   0.253   2.961   4.355  2.6600  0.6989 -0.4090
 5892SOL     OW29137   4.485   3.097  16.942 -0.5611  0.3832 -0.0321
 5892SOL    HW129138   4.507   3.190  16.951  1.4558 -0.2604  1.7508
 5892SOL    HW229139   4.397   3.108  16.907 -1.0741 -0.1541  1.1085
 5893SOL     OW29140   3.448   3.862  15.625  0.1065  0.0483  0.1502
 5893SOL    HW129141   3.390   3.938  15.628  0.5505  0.5115 -2.8562
 5893SOL    HW229142   3.482   3.868  15.535 -1.9765  1.9860 -0.4908
 5894SOL     OW29143   2.369   1.680  13.069 -0.0476  0.1168 -0.5999
 5894SOL    HW129144   2.391   1.673  12.976 -3.5801 -1.5452 -1.3253
 5894SOL    HW229145   2.276   1.659  13.061 -0.2557  1.0812 -0.7468
 5895SOL     OW29146   1.137   4.505   2.048 -1.1731  0.2948 -0.1965
 5895SOL    HW129147   1.205   4.476   1.988 -0.6238  0.1395  0.4986
 5895SOL    HW229148   1.164   4.466   2.131  1.6413 -0.0665 -1.2920
 5896SOL     OW29149   1.244   0.796   0.728  0.1632  0.6716 -0.0008
 5896SOL    HW129150   1.326   0.762   0.765  0.9461  0.2397 -2.1288
 5896SOL    HW229151   1.278   0.837   0.648  0.9332  0.7482  0.3675
 5897SOL     OW29152   2.807   2.037   8.115  0.4942 -0.8889  0.5770
 5897SOL    HW129153   2.827   1.967   8.053 -1.7590 -0.8672 -0.1906
 5897SOL    HW229154   2.814   2.115   8.060 -0.1527  0.5972  2.6057
 5898SOL     OW29155   4.331   3.426   1.387  0.2413 -0.0809  0.0366
 5898SOL    HW129156   4.247   3.465   1.362  1.1276  1.0000 -1.2275
 5898SOL    HW229157   4.312   3.437   1.480  0.6002 -0.1700  0.1207
 5899SOL     OW29158   0.470   2.949   7.770  0.3580  0.1040  0.2610
 5899SOL    HW129159   0.451   2.858   7.747  3.0826 -0.3870 -0.0015
 5899SOL    HW229160   0.510   2.988   7.692  1.8686  2.6637  2.2794
 5900SOL     OW29161   3.691   1.993   7.451 -0.2212 -0.4330  0.1570
 5900SOL    HW129162   3.647   1.922   7.498  0.8655 -0.3728  1.2667
 5900SOL    HW229163   3.730   2.046   7.521 -1.5036 -0.2520  0.7444
 5901SOL     OW29164   1.556   2.172  17.073 -0.0924  0.4613  0.3949
 5901SOL    HW129165   1.618   2.232  17.031 -0.8791  1.3434  0.4744
 5901SOL    HW229166   1.503   2.232  17.126 -0.5633  0.1046  0.3267
 5902SOL     OW29167   3.798   4.589   8.608 -0.5208  0.1352 -0.0650
 5902SOL    HW129168   3.831   4.652   8.544 -3.5911  0.1173 -1.6800
 5902SOL    HW229169   3.833   4.507   8.572 -0.5990 -0.2943  0.8428
 5903SOL     OW29170   0.650   0.738   4.143  0.1544  0.0454  0.0799
 5903SOL    HW129171   0.673   0.708   4.055 -0.7910 -0.2938 -0.0529
 5903SOL    HW229172   0.645   0.652   4.184  2.3015 -0.4014 -0.5638
 5904SOL     OW29173   3.047   2.612   9.686  0.3454  0.0735 -0.1367
 5904SOL    HW129174   3.087   2.615   9.599 -1.4233  0.9601 -0.9436
 5904SOL    HW229175   2.961   2.576   9.663 -0.2335  1.4961 -0.2646
 5905SOL     OW29176   4.033   2.582   3.154 -0.5192  0.3145 -0.3939
 5905SOL    HW129177   3.947   2.605   3.118 -1.5583 -3.2376 -0.1532
 5905SOL    HW229178   4.057   2.659   3.206 -2.1680 -0.0098  0.8452
 5906SOL     OW29179   2.430   2.521   1.607  0.1374  0.1377  0.4028
 5906SOL    HW129180   2.369   2.567   1.666  0.2785  1.6164 -0.6050
 5906SOL    HW229181   2.414   2.432   1.639  1.6601 -0.4144 -0.4165
 5907SOL     OW29182   0.047   1.969   5.740 -0.9915 -0.5033  0.1096
 5907SOL    HW129183   0.140   1.945   5.744 -0.8581  0.2046  1.2919
 5907SOL    HW229184   0.024   1.998   5.652  0.1563  1.6804  0.5104
 5908SOL     OW29185   0.102   1.182   8.705  0.1729  0.4073 -0.5180
 5908SOL    HW129186   0.130   1.203   8.794 -0.8532 -0.2151 -0.0450
 5908SOL    HW229187   0.009   1.189   8.724  0.7113  1.7702  1.6636
 5909SOL     OW29188   0.968   2.641   8.778 -0.3238 -0.3458 -0.4162
 5909SOL    HW129189   1.008   2.639   8.691 -0.9241  0.7354 -0.7202
 5909SOL    HW229190   0.919   2.560   8.766 -1.4150  0.4167 -1.1167
 5910SOL     OW29191   1.685   4.115   7.171 -0.1486 -1.4094  0.2952
 5910SOL    HW129192   1.627   4.188   7.195  0.2807 -0.8462 -0.3698
 5910SOL    HW229193   1.722   4.093   7.256  0.6421 -0.6099  0.1529
 5911SOL     OW29194   4.353   4.315   0.773 -0.1415  0.1768  0.4167
 5911SOL    HW129195   4.351   4.310   0.868 -1.4381 -1.0328  0.3203
 5911SOL    HW229196   4.295   4.391   0.763  0.2203  0.3991 -0.0011
 5912SOL     OW29197   4.444   3.173   7.009 -0.2553 -0.3176  0.7947
 5912SOL    HW129198   4.365   3.215   6.974 -0.7487 -0.7839  1.3428
 5912SOL    HW229199   4.482   3.129   6.933 -1.3290  2.3467 -1.2612
 5913SOL     OW29200   1.790   0.308   5.042  0.2194  0.6933 -0.3322
 5913SOL    HW129201   1.819   0.388   5.087  4.1584 -0.7041 -0.3904
 5913SOL    HW229202   1.759   0.250   5.111 -0.7869  0.5595 -0.9070
 5914SOL     OW29203   1.336   0.790  10.778 -0.5654  0.4259  0.2225
 5914SOL    HW129204   1.414   0.739  10.757  0.0457 -0.3070  4.2458
 5914SOL    HW229205   1.269   0.762  10.716 -0.0075  0.2422 -0.2912
 5915SOL     OW29206   0.907   1.927   0.814  0.3013 -0.0121  0.3223
 5915SOL    HW129207   0.850   2.000   0.792 -0.7249 -0.7684  0.4787
 5915SOL    HW229208   0.858   1.906   0.893  0.4281 -1.5986 -0.0182
 5916SOL     OW29209   0.963   4.138   6.906  0.3524 -0.3925  0.2686
 5916SOL    HW129210   1.008   4.089   6.837  0.3761 -0.7231  0.5188
 5916SOL    HW229211   1.026   4.211   6.904 -0.7996  0.6276  1.4585
 5917SOL     OW29212   1.618   3.330  14.386 -0.5234 -0.1449  0.8967
 5917SOL    HW129213   1.694   3.333  14.445  0.4026  2.2754 -0.4310
 5917SOL    HW229214   1.547   3.359  14.444 -0.4576  0.6257  0.5839
 5918SOL     OW29215   3.615   4.508  15.311 -0.4943  0.2838  0.0544
 5918SOL    HW129216   3.539   4.471  15.355 -1.4873  2.1724 -0.0636
 5918SOL    HW229217   3.676   4.537  15.379 -0.2773  0.6837 -0.3109
 5919SOL     OW29218   2.433   4.230  12.527  0.1872 -0.8916  0.1767
 5919SOL    HW129219   2.426   4.284  12.448 -0.9232 -0.9181  0.2595
 5919SOL    HW229220   2.421   4.294  12.597  1.3798  1.3668 -1.6686
 5920SOL     OW29221   2.275   0.745   6.282 -0.2912 -0.2481  0.7789
 5920SOL    HW129222   2.329   0.796   6.343 -2.3494 -0.8270  3.1091
 5920SOL    HW229223   2.195   0.740   6.334  0.5925  1.5754  2.3061
 5921SOL     OW29224   2.559   4.321   3.382  0.0959 -0.1236  0.7347
 5921SOL    HW129225   2.476   4.313   3.334  1.8575 -0.9536 -2.1368
 5921SOL    HW229226   2.571   4.228   3.400  0.9348 -0.2201 -0.3279
 5922SOL     OW29227   0.805   2.178   7.121  0.2030 -0.3361  0.2232
 5922SOL    HW129228   0.754   2.106   7.083  1.3503 -0.1055 -1.7054
 5922SOL    HW229229   0.741   2.232   7.168 -0.2691  2.3579 -3.5490
 5923SOL     OW29230   3.177   4.229  12.654 -0.3061 -0.2463  0.1704
 5923SOL    HW129231   3.124   4.309  12.649 -0.7256 -0.5789 -0.6917
 5923SOL    HW229232   3.252   4.260  12.705  0.3898 -1.6347 -0.0149
 5924SOL     OW29233   3.906   4.111  14.605 -0.0943 -0.1694  0.2181
 5924SOL    HW129234   3.938   4.134  14.692  1.5136 -0.9530 -0.1786
 5924SOL    HW229235   3.841   4.043  14.624  2.2123 -2.1144  1.1989
 5925SOL     OW29236   0.058   2.253   7.750  0.6362  0.1051 -0.0249
 5925SOL    HW129237   0.023   2.166   7.733  0.1994  0.0772  1.0591
 5925SOL    HW229238   0.012   2.290   7.825  0.2382 -0.3369 -0.0536
 5926SOL     OW29239   3.108   0.071   2.379 -0.0413 -0.2122  0.1538
 5926SOL    HW129240   3.047   0.144   2.370  1.4317  0.8936 -0.7330
 5926SOL    HW229241   3.185   0.096   2.328 -1.2647 -1.5469 -2.3548
 5927SOL     OW29242   3.017   1.282   1.801  0.2138 -0.2682  0.0895
 5927SOL    HW129243   3.045   1.219   1.735 -1.5626 -0.0000 -0.9545
 5927SOL    HW229244   2.980   1.341   1.735  0.3932  0.8007  0.9530
 5928SOL     OW29245   2.828   3.051   8.596 -0.1162 -0.4101 -0.2205
 5928SOL    HW129246   2.805   2.958   8.603  1.2021 -0.7420 -0.4205
 5928SOL    HW229247   2.905   3.050   8.540 -0.1370  1.6285 -0.2834
 5929SOL     OW29248   2.984   2.467  11.741  0.0777  0.3678 -0.0421
 5929SOL    HW129249   2.964   2.450  11.649  0.9725 -1.3049  0.0675
 5929SOL    HW229250   3.005   2.559  11.754  0.6945  0.1445  0.5221
 5930SOL     OW29251   4.369   1.979   6.048 -0.4063 -0.3305  0.3649
 5930SOL    HW129252   4.403   1.924   6.119  0.8758  1.8724  1.4601
 5930SOL    HW229253   4.276   1.985   6.072 -0.4808 -0.7901  0.1905
 5931SOL     OW29254   0.837   3.525  14.164  0.0171  0.3149  0.4384
 5931SOL    HW129255   0.758   3.520  14.219 -0.0376  1.1785  0.4473
 5931SOL    HW229256   0.795   3.496  14.083  1.6821 -0.5965 -0.1008
 5932SOL     OW29257   1.576   1.996   4.053 -0.3518 -0.5356 -0.0933
 5932SOL    HW129258   1.597   1.913   4.009 -1.4317 -1.5543  1.2991
 5932SOL    HW229259   1.512   2.024   3.987 -2.9765 -0.9323  2.2605
 5933SOL     OW29260   1.692   3.793  15.788 -0.4005 -0.4288 -0.2943
 5933SOL    HW129261   1.626   3.843  15.836  1.4567  2.9871 -1.2858
 5933SOL    HW229262   1.734   3.871  15.752  1.2054 -1.4929 -0.7469
 5934SOL     OW29263   4.708   3.884   2.314  0.5325  0.5578 -0.2112
 5934SOL    HW129264   4.693   3.798   2.352 -2.0300  0.8807 -0.4269
 5934SOL    HW229265   4.668   3.861   2.229  0.9338 -1.9964  0.3195
 5935SOL     OW29266   1.485   2.699   9.403 -0.1033  0.5290  0.8289
 5935SOL    HW129267   1.517   2.611   9.381 -1.1494  0.2117  0.5885
 5935SOL    HW229268   1.395   2.698   9.369  0.0355 -2.4347  0.5025
 5936SOL     OW29269   2.678   0.409   8.490 -0.2117 -0.4297 -0.2518
 5936SOL    HW129270   2.687   0.430   8.397 -1.6849  0.1041 -0.2630
 5936SOL    HW229271   2.721   0.323   8.489 -1.9936 -1.3052 -1.9549
 5937SOL     OW29272   2.743   2.071  11.719  0.3024 -0.0023  0.7011
 5937SOL    HW129273   2.823   2.075  11.667 -1.0133 -0.0612 -1.2943
 5937SOL    HW229274   2.712   2.161  11.710 -0.0849 -0.1259  0.8070
 5938SOL     OW29275   2.236   1.134  17.076  0.0470 -0.0007 -0.1588
 5938SOL    HW129276   2.157   1.184  17.095 -0.2399  0.7865 -3.3716
 5938SOL    HW229277   2.232   1.056  17.131 -1.0856 -0.8844 -1.4746
 5939SOL     OW29278   4.556   0.085   5.558 -0.1803 -0.3112 -0.7281
 5939SOL    HW129279   4.583   0.174   5.539  1.5527 -0.7555 -0.3228
 5939SOL    HW229280   4.616   0.041   5.499  0.0380 -0.6069 -0.2899
 5940SOL     OW29281   2.338   2.128  15.017  0.4126  0.2696  0.1517
 5940SOL    HW129282   2.405   2.189  15.045  0.9966 -0.1226 -0.3935
 5940SOL    HW229283   2.263   2.187  15.022  0.2507  0.0773  0.0323
 5941SOL     OW29284   2.156   3.560   8.315 -0.2088 -0.2086  0.1673
 5941SOL    HW129285   2.125   3.571   8.405 -1.2743 -1.0293 -0.1091
 5941SOL    HW229286   2.086   3.525   8.260 -0.8230  1.1365  0.0717
 5942SOL     OW29287   3.313   3.938   1.610 -0.3503  0.3759  0.9095
 5942SOL    HW129288   3.229   3.924   1.567  0.1398  0.6099 -0.1106
 5942SOL    HW229289   3.353   3.984   1.537  0.8091  0.1715  1.4160
 5943SOL     OW29290   2.068   2.863   8.697 -0.7662  0.4924 -0.5183
 5943SOL    HW129291   2.089   2.955   8.681  2.5694 -0.2963 -0.7937
 5943SOL    HW229292   1.992   2.860   8.754 -0.5014 -0.8060 -0.2295
 5944SOL     OW29293   1.783   3.254   2.945  0.8769  0.4586  0.4019
 5944SOL    HW129294   1.774   3.315   2.872 -2.5684 -1.1660 -0.5317
 5944SOL    HW229295   1.692   3.264   2.974  0.8890 -1.3208  1.0420
 5945SOL     OW29296   0.368   2.486   6.570  0.1694  0.1040 -0.6891
 5945SOL    HW129297   0.352   2.394   6.549 -2.0192  0.9149 -2.5819
 5945SOL    HW229298   0.449   2.493   6.621 -0.5298 -4.1549  1.0679
 5946SOL     OW29299   2.559   1.508   9.818 -0.0448 -0.2186 -0.5726
 5946SOL    HW129300   2.476   1.555   9.821  1.1535  1.8250  1.4517
 5946SOL    HW229301   2.568   1.461   9.901 -1.6101 -1.2465 -0.9909
 5947SOL     OW29302   1.870   2.122   3.433  0.6312  0.4697  0.3714
 5947SOL    HW129303   1.938   2.185   3.408  1.4024 -1.2961 -1.9825
 5947SOL    HW229304   1.806   2.125   3.362  0.2672 -2.0065  0.6134
 5948SOL     OW29305   1.315   2.665   2.925  0.2161 -0.6522  0.3753
 5948SOL    HW129306   1.330   2.733   2.859 -0.5823 -0.4460  0.4082
 5948SOL    HW229307   1.402   2.626   2.935 -0.0216 -1.7577 -1.9311
 5949SOL     OW29308   2.117   4.608   3.588 -0.2795  0.2079  0.0154
 5949SOL    HW129309   2.088   4.542   3.525  0.3011  0.8058 -0.8863
 5949SOL    HW229310   2.048   4.599   3.654 -1.0633 -1.3296 -1.0254
 5950SOL     OW29311   1.206   3.525   3.713 -0.4914 -0.3037  0.4646
 5950SOL    HW129312   1.237   3.595   3.655  0.2948  0.1529  1.4435
 5950SOL    HW229313   1.286   3.497   3.757  0.7392  1.7663 -0.4642
 5951SOL     OW29314   3.853   0.568   0.371  0.2069  0.6373 -0.1189
 5951SOL    HW129315   3.815   0.612   0.448 -1.9697  2.0619 -1.9930
 5951SOL    HW229316   3.779   0.511   0.348 -0.8569  1.7653  0.4573
 5952SOL     OW29317   3.066   2.460   8.694  0.1619 -0.7283 -0.4308
 5952SOL    HW129318   3.083   2.539   8.746 -1.9237 -0.8084  0.4041
 5952SOL    HW229319   2.974   2.465   8.668  0.6087  0.3013 -1.8148
 5953SOL     OW29320   2.223   1.003   3.636 -0.1210 -0.2813 -0.6422
 5953SOL    HW129321   2.221   1.063   3.562 -1.9930  2.5102  1.6812
 5953SOL    HW229322   2.214   0.925   3.582 -1.4821 -1.0614  0.7001
 5954SOL     OW29323   4.678   4.604  11.093  0.3020 -0.1009 -0.1096
 5954SOL    HW129324   4.708   4.529  11.144  0.8173  0.3398  0.2402
 5954SOL    HW229325   0.024   4.609  11.026 -1.6605  1.1877 -1.9553
 5955SOL     OW29326   4.564   1.799  10.631 -0.2349 -0.2610 -0.6824
 5955SOL    HW129327   4.564   1.792  10.726  1.2891 -1.3869 -0.7560
 5955SOL    HW229328   4.474   1.826  10.613  0.1545  1.4986  0.0547
 5956SOL     OW29329   2.038   0.538   9.007  0.0968  0.2768  0.1725
 5956SOL    HW129330   2.068   0.534   9.098 -3.2582 -1.5666  1.1896
 5956SOL    HW229331   2.015   0.631   9.004  0.0071  0.2383 -0.3708
 5957SOL     OW29332   4.259   0.886   7.884  0.1025  0.4050  0.4752
 5957SOL    HW129333   4.238   0.796   7.908 -0.5874  0.3238 -0.4498
 5957SOL    HW229334   4.239   0.944   7.957  1.2122  1.5510 -0.1275
 5958SOL     OW29335   2.241   0.046  16.675  0.6150  0.1136 -0.2204
 5958SOL    HW129336   2.204   0.072  16.590 -0.3197  0.3004  0.2381
 5958SOL    HW229337   2.156   0.031  16.717  0.1801 -0.7604 -1.4161
 5959SOL     OW29338   3.111   0.641  10.454  0.0601  0.4890 -0.2777
 5959SOL    HW129339   3.169   0.662  10.527  0.3528 -1.1710 -0.0273
 5959SOL    HW229340   3.092   0.551  10.482  0.6648  0.7452  0.9618
 5960SOL     OW29341   3.706   0.932   8.162 -0.4870 -0.1033  0.3292
 5960SOL    HW129342   3.676   0.885   8.084  1.0021 -0.3127 -0.1208
 5960SOL    HW229343   3.626   0.914   8.213 -0.6558  0.4753  0.2712
 5961SOL     OW29344   2.538   1.324   4.421  0.5307 -0.7094  0.0699
 5961SOL    HW129345   2.468   1.373   4.465 -0.3126 -1.0595 -0.8883
 5961SOL    HW229346   2.608   1.313   4.486 -0.4275 -0.5632  1.1181
 5962SOL     OW29347   2.154   0.729   0.426  0.1405  0.2173  0.1965
 5962SOL    HW129348   2.171   0.782   0.349  1.9380 -2.2282 -1.0795
 5962SOL    HW229349   2.230   0.671   0.433 -0.9728 -1.1387  1.1694
 5963SOL     OW29350   3.129   2.437   4.922  0.0193 -0.0541  0.2409
 5963SOL    HW129351   3.195   2.458   4.856  1.1403  1.5838  1.8753
 5963SOL    HW229352   3.077   2.386   4.860 -0.0737 -0.1073  0.3615
 5964SOL     OW29353   2.492   1.067  12.851  0.3808 -0.4060  0.0819
 5964SOL    HW129354   2.413   1.079  12.798  1.9243 -0.3640 -2.2274
 5964SOL    HW229355   2.511   0.973  12.852 -1.3649 -0.7280  2.7844
 5965SOL     OW29356   2.547   2.332   2.222  0.3419  0.1704 -0.3115
 5965SOL    HW129357   2.506   2.273   2.284  1.6526 -2.5541 -2.0290
 5965SOL    HW229358   2.639   2.329   2.248  0.1017  1.2047  0.6759
 5966SOL     OW29359   1.366   3.531   6.270  0.2491 -0.0844 -0.6691
 5966SOL    HW129360   1.380   3.580   6.189 -2.0438 -0.4649 -1.3101
 5966SOL    HW229361   1.417   3.450   6.264  2.6198  1.3427  0.5808
 5967SOL     OW29362   3.034   2.342   1.190 -0.5250 -0.1169  0.0906
 5967SOL    HW129363   3.038   2.303   1.278  0.1267  0.9372  0.5193
 5967SOL    HW229364   3.114   2.301   1.157 -0.2590  0.5666 -0.1041
 5968SOL     OW29365   3.750   0.494   2.495 -0.3268 -0.0238  0.4190
 5968SOL    HW129366   3.686   0.560   2.524  0.5718  0.1901  1.9358
 5968SOL    HW229367   3.806   0.477   2.570 -1.2161 -3.2965  0.3524
 5969SOL     OW29368   2.507   3.456   1.861  0.3076 -0.3030  0.5463
 5969SOL    HW129369   2.554   3.525   1.815 -0.7665 -1.1876 -1.8536
 5969SOL    HW229370   2.579   3.417   1.912 -0.2378  1.3982  2.6360
 5970SOL     OW29371   3.063   2.405  14.711  0.3553 -0.2762  0.2831
 5970SOL    HW129372   3.118   2.482  14.729  0.1107 -0.2697  0.9831
 5970SOL    HW229373   3.126   2.345  14.670  0.0756 -1.4821  1.6372
 5971SOL     OW29374   0.511   1.565   4.273  0.2138  0.1198  0.2065
 5971SOL    HW129375   0.436   1.622   4.255 -0.7078 -1.2157 -0.1984
 5971SOL    HW229376   0.462   1.534   4.350 -0.0232 -0.2912 -0.1132
 5972SOL     OW29377   3.806   3.803   8.033  0.3255  0.1141 -0.1681
 5972SOL    HW129378   3.720   3.763   8.021 -0.3679  1.6650 -0.3460
 5972SOL    HW229379   3.841   3.816   7.945 -0.1277  1.3481 -0.1648
 5973SOL     OW29380   4.482   3.905   7.016  0.1259 -0.3004 -0.2400
 5973SOL    HW129381   4.451   3.916   7.106  0.0865 -0.3467 -0.2481
 5973SOL    HW229382   4.451   3.989   6.984  0.3365  0.1427  0.7051
 5974SOL     OW29383   2.137   3.368   0.429  0.1739  0.2853 -0.1124
 5974SOL    HW129384   2.110   3.276   0.421 -1.2797  0.6818  0.1568
 5974SOL    HW229385   2.213   3.362   0.486 -0.1659 -0.5651  0.2623
 5975SOL     OW29386   3.806   0.788  12.581 -0.2480  0.3700  0.0810
 5975SOL    HW129387   3.835   0.708  12.538 -0.2254 -0.3401  1.4284
 5975SOL    HW229388   3.879   0.816  12.636 -0.8833 -0.1069  1.1655
 5976SOL     OW29389   1.770   3.565   3.128  0.1722  0.5181 -0.5014
 5976SOL    HW129390   1.707   3.638   3.136  0.2403  0.0875  3.9423
 5976SOL    HW229391   1.847   3.610   3.095 -1.1372  1.9620 -1.6209
 5977SOL     OW29392   3.917   4.589   4.997 -0.1538 -0.1785  0.6258
 5977SOL    HW129393   3.923   4.522   4.928 -0.9059  0.2606  0.1405
 5977SOL    HW229394   3.871   4.663   4.958  0.2351 -0.8477 -1.1121
 5978SOL     OW29395   3.243   1.776   4.618 -0.0966 -0.5952  0.3287
 5978SOL    HW129396   3.219   1.693   4.658 -0.9920 -0.9430 -0.9289
 5978SOL    HW229397   3.267   1.745   4.530  1.7736  1.7313  0.0033
 5979SOL     OW29398   2.956   1.698  13.547 -0.1822  0.0481 -0.1630
 5979SOL    HW129399   2.980   1.695  13.455 -1.1410 -0.5838 -0.3997
 5979SOL    HW229400   3.040   1.677  13.588  0.8076  0.3990 -2.0124
 5980SOL     OW29401   4.351   0.179   4.545 -0.2061  0.3640  0.1493
 5980SOL    HW129402   4.332   0.268   4.575 -1.7419 -0.2686  1.0672
 5980SOL    HW229403   4.406   0.195   4.469 -2.4638 -0.1650 -1.5903
 5981SOL     OW29404   1.393   3.068   8.021 -0.1860  0.0906 -0.1918
 5981SOL    HW129405   1.481   3.064   7.983 -0.8697  0.8986 -1.8782
 5981SOL    HW229406   1.408   3.034   8.109 -0.4304 -1.2278 -0.6565
 5982SOL     OW29407   2.966   4.065   7.065  0.0355 -0.1223  1.1790
 5982SOL    HW129408   2.934   4.049   6.976  3.9212 -2.1733  0.1456
 5982SOL    HW229409   3.049   4.016   7.067 -0.3981 -0.8621  1.1053
 5983SOL     OW29410   0.418   3.880  13.845 -0.2250 -0.4801  0.5720
 5983SOL    HW129411   0.508   3.857  13.867  0.3150 -0.8853 -2.1080
 5983SOL    HW229412   0.417   3.958  13.900  0.1628  0.8312 -1.2828
 5984SOL     OW29413   0.776   3.150   6.219  0.1397 -0.6311  0.2908
 5984SOL    HW129414   0.696   3.104   6.244 -0.1439 -0.5708 -0.5051
 5984SOL    HW229415   0.802   3.118   6.133 -1.4060  0.0729 -0.4415
 5985SOL     OW29416   3.797   1.081   0.520 -0.4617  0.3319  0.1370
 5985SOL    HW129417   3.882   1.085   0.475  0.0962 -0.1543  1.1285
 5985SOL    HW229418   3.793   1.165   0.565  0.0913  0.3004  0.2533
 5986SOL     OW29419   3.194   2.433  17.226  0.1576 -0.1442  0.6870
 5986SOL    HW129420   3.278   2.478  17.211  0.4512 -0.8760  0.1082
 5986SOL    HW229421   3.138   2.495  17.180  0.1797 -2.0084 -1.8100
 5987SOL     OW29422   2.460   0.874   4.932  0.1432 -0.2300 -0.4383
 5987SOL    HW129423   2.543   0.860   4.887  0.7269  2.8561 -0.3040
 5987SOL    HW229424   2.461   0.968   4.951  0.3599 -0.0804 -1.2213
 5988SOL     OW29425   3.535   2.765   1.169 -0.3242  0.2270 -0.3070
 5988SOL    HW129426   3.551   2.730   1.257  1.0593 -1.2286 -1.1286
 5988SOL    HW229427   3.597   2.836   1.155  0.7043 -0.9446 -1.6821
 5989SOL     OW29428   3.689   2.764   3.282  0.5035 -0.1906  0.3264
 5989SOL    HW129429   3.638   2.819   3.223 -0.7775 -0.0879  1.5584
 5989SOL    HW229430   3.772   2.812   3.276  0.9153 -0.7091  1.8264
 5990SOL     OW29431   4.161   0.955   1.088  0.6018  0.0853 -0.4181
 5990SOL    HW129432   4.146   0.913   1.004 -0.0173 -0.4568 -0.0410
 5990SOL    HW229433   4.088   1.016   1.081  0.0560 -0.4903  0.2823
 5991SOL     OW29434   0.877   1.387   0.907 -0.4202 -0.2911  0.3205
 5991SOL    HW129435   0.816   1.314   0.896 -0.5170 -0.5871  2.7768
 5991SOL    HW229436   0.826   1.457   0.947 -1.8863 -1.4008  0.3595
 5992SOL     OW29437   2.305   2.691  11.992  0.0610  0.2127  0.5279
 5992SOL    HW129438   2.289   2.779  12.025 -1.1049 -0.4648  1.7695
 5992SOL    HW229439   2.264   2.633  12.057  0.6666 -0.8695 -0.0612
 5993SOL     OW29440   3.452   1.542   4.823 -0.0444 -0.9363  0.1060
 5993SOL    HW129441   3.512   1.599   4.775 -1.3662  1.2889  1.0300
 5993SOL    HW229442   3.462   1.465   4.768  0.3757 -0.5610 -0.3382
 5994SOL     OW29443   3.798   4.448   8.848 -0.2353 -0.3148  0.1980
 5994SOL    HW129444   3.712   4.406   8.853 -0.2339 -0.4380 -0.8542
 5994SOL    HW229445   3.806   4.474   8.756  0.3745 -0.5986  0.1744
 5995SOL     OW29446   0.752   4.459   1.634  0.4305 -0.0446 -0.4621
 5995SOL    HW129447   0.847   4.460   1.640  0.4621  0.2690 -0.9395
 5995SOL    HW229448   0.745   4.547   1.596  2.5200  0.8277  1.2214
 5996SOL     OW29449   0.581   3.222   7.928 -0.1722 -0.3391 -0.2245
 5996SOL    HW129450   0.504   3.253   7.974 -0.4026 -2.9036  1.1432
 5996SOL    HW229451   0.638   3.220   8.005 -2.8300  1.5664  1.8077
 5997SOL     OW29452   1.086   4.065   4.649 -0.7211  0.1440 -0.0906
 5997SOL    HW129453   1.126   4.003   4.710 -0.0508  1.0939  0.4377
 5997SOL    HW229454   1.126   4.032   4.569  0.2183 -2.7304  1.5770
 5998SOL     OW29455   4.310   1.038   1.768 -0.3514 -0.0178  0.2751
 5998SOL    HW129456   4.282   0.985   1.694 -1.2646  1.8356 -0.7055
 5998SOL    HW229457   4.398   1.001   1.780 -0.8294 -1.0915  0.4592
 5999SOL     OW29458   2.832   0.213   7.698  0.2192  0.2466 -0.3853
 5999SOL    HW129459   2.866   0.157   7.628  0.2177  3.1699 -2.7057
 5999SOL    HW229460   2.872   0.163   7.769  0.9229 -0.3140 -1.1655
 6000SOL     OW29461   4.691   0.529   8.561 -0.0875  0.0270 -0.1797
 6000SOL    HW129462   4.649   0.480   8.491 -1.4361 -0.8047  1.2151
 6000SOL    HW229463   4.670   0.618   8.532  0.0518 -0.2093 -1.0100
 6001SOL     OW29464   4.637   4.433   8.461 -0.1540 -0.1543  0.1568
 6001SOL    HW129465   4.564   4.454   8.519  0.1646 -2.0999  1.2282
 6001SOL    HW229466   4.716   4.476   8.495  0.0080 -1.1940  1.0583
 6002SOL     OW29467   3.717   1.942   7.115  0.3243  0.1279 -0.2650
 6002SOL    HW129468   3.776   1.905   7.050  0.9803  0.4613  0.1421
 6002SOL    HW229469   3.659   1.866   7.124 -1.1601  1.2189 -0.6586
 6003SOL     OW29470   0.411   2.205   5.264 -0.0018  0.0365  0.1030
 6003SOL    HW129471   0.392   2.115   5.292  1.0547 -0.1997  0.0401
 6003SOL    HW229472   0.403   2.247   5.350  0.9327  0.5345 -0.0580
 6004SOL     OW29473   3.027   4.520   4.651  0.0877 -0.1116 -0.1123
 6004SOL    HW129474   3.057   4.564   4.572  1.9534 -0.5931  0.3235
 6004SOL    HW229475   3.026   4.434   4.609 -4.3922  0.6244 -1.4823
 6005SOL     OW29476   2.799   1.493  16.010  0.4483 -0.1807 -0.4043
 6005SOL    HW129477   2.818   1.438  16.086 -0.0880  3.3076  2.2003
 6005SOL    HW229478   2.750   1.561  16.055  3.1220  1.6901 -0.3561
 6006SOL     OW29479   1.306   1.143   2.611 -0.4539  0.5330 -0.2526
 6006SOL    HW129480   1.393   1.183   2.611 -1.1445  2.0567  2.6379
 6006SOL    HW229481   1.324   1.062   2.563  0.7747  0.1087  0.9187
 6007SOL     OW29482   0.623   0.802   4.476 -0.8039 -0.6797  0.0097
 6007SOL    HW129483   0.654   0.878   4.428  0.5128 -0.3144  1.4422
 6007SOL    HW229484   0.704   0.752   4.474 -0.9697 -1.0219  1.8013
 6008SOL     OW29485   2.420   3.603   8.208  0.2290 -0.3463 -0.1975
 6008SOL    HW129486   2.330   3.578   8.229  0.0199 -0.5585 -1.3911
 6008SOL    HW229487   2.463   3.573   8.288  0.0171  1.3856  0.5635
 6009SOL     OW29488   4.203   0.706   4.615  0.0869 -0.1551  0.5984
 6009SOL    HW129489   4.148   0.769   4.569 -0.9105 -1.2858  0.2530
 6009SOL    HW229490   4.166   0.702   4.703 -1.8842  1.0827 -0.1751
 6010SOL     OW29491   1.496   2.113   8.102  0.3757 -0.3867  0.0616
 6010SOL    HW129492   1.582   2.081   8.073 -0.2670 -2.9790  0.9888
 6010SOL    HW229493   1.441   2.036   8.090 -0.7257  0.9670 -3.4392
 6011SOL     OW29494   4.366   0.523   9.995  0.0134  0.9973 -0.1168
 6011SOL    HW129495   4.450   0.546   9.957  0.8055 -0.3574  0.8297
 6011SOL    HW229496   4.367   0.590  10.064 -1.3878 -0.4687  1.3166
 6012SOL     OW29497   3.045   1.652  16.268 -0.1233  0.0867 -0.0327
 6012SOL    HW129498   2.994   1.572  16.284  0.2763 -0.2265 -0.2980
 6012SOL    HW229499   3.125   1.619  16.226  0.0571 -1.3399  1.4101
 6013SOL     OW29500   2.346   1.848  16.218  0.2033  0.1253  0.0589
 6013SOL    HW129501   2.251   1.861  16.226  0.2121  1.2072 -1.5493
 6013SOL    HW229502   2.346   1.768  16.165  0.7369  0.7495 -0.8886
 6014SOL     OW29503   1.578   1.300   7.984  0.0645 -0.3343  0.0394
 6014SOL    HW129504   1.507   1.343   8.032  0.5657 -0.3025  0.7522
 6014SOL    HW229505   1.643   1.271   8.048  1.8564  1.9744 -0.7384
 6015SOL     OW29506   3.219   4.477   7.103  0.5286 -0.2270 -0.6046
 6015SOL    HW129507   3.287   4.520   7.052  2.8521 -3.1768  0.0472
 6015SOL    HW229508   3.246   4.388   7.083  0.7936 -0.2662 -0.0939
 6016SOL     OW29509   3.334   4.373   6.766 -0.3329 -0.4987  0.7642
 6016SOL    HW129510   3.333   4.459   6.807 -0.8106 -0.9198  1.6354
 6016SOL    HW229511   3.425   4.368   6.737 -0.6584 -0.3990 -0.2696
 6017SOL     OW29512   3.406   2.751   8.867 -0.3282  0.4522 -0.6787
 6017SOL    HW129513   3.376   2.747   8.957 -1.1348 -1.8622 -1.0618
 6017SOL    HW229514   3.488   2.800   8.882  0.4243 -1.4892  1.4938
 6018SOL     OW29515   1.973   3.294  14.434  0.9579 -0.0510  0.8300
 6018SOL    HW129516   1.976   3.388  14.416 -1.3185 -0.1814 -0.3202
 6018SOL    HW229517   2.063   3.265  14.422  1.3526  0.8060  1.7641
 6019SOL     OW29518   3.075   3.313   5.654 -0.5443 -0.1196  0.0251
 6019SOL    HW129519   3.170   3.298   5.654 -0.1848  2.1883 -0.3889
 6019SOL    HW229520   3.049   3.298   5.563 -1.1062 -2.7209  0.5970
 6020SOL     OW29521   2.695   0.697   3.729 -0.6653 -0.1144  0.5999
 6020SOL    HW129522   2.699   0.773   3.670  0.7616 -1.2350 -0.7349
 6020SOL    HW229523   2.605   0.668   3.720 -0.7197  0.0144  0.7310
 6021SOL     OW29524   2.634   4.304   1.827  0.2602 -0.1574  0.2047
 6021SOL    HW129525   2.598   4.234   1.774  0.7063 -1.5853  1.8025
 6021SOL    HW229526   2.713   4.317   1.773 -0.0623  0.1417 -0.1910
 6022SOL     OW29527   4.177   3.357  11.346  0.3115  0.6202  0.2859
 6022SOL    HW129528   4.148   3.408  11.421  1.2616 -0.1206  1.1567
 6022SOL    HW229529   4.254   3.322  11.392 -0.2379 -0.7268  0.1698
 6023SOL     OW29530   3.765   1.746   5.521 -0.1796  0.0780 -0.0452
 6023SOL    HW129531   3.687   1.791   5.489 -0.1713 -0.0276 -0.2158
 6023SOL    HW229532   3.829   1.815   5.510  1.1314 -1.2118 -0.4178
 6024SOL     OW29533   2.890   1.150  16.752 -0.1697  0.8390 -0.3996
 6024SOL    HW129534   2.925   1.213  16.816 -0.1244 -0.3041  0.7071
 6024SOL    HW229535   2.798   1.155  16.775 -0.1025 -0.5479  0.1992
 6025SOL     OW29536   3.823   1.779  13.884  0.1916 -0.8700 -0.1369
 6025SOL    HW129537   3.794   1.869  13.869 -0.7217 -0.9063  1.3415
 6025SOL    HW229538   3.748   1.744  13.835 -1.5533  1.2020  1.0140
 6026SOL     OW29539   3.415   4.202  10.435 -0.0612  0.1383 -0.2316
 6026SOL    HW129540   3.509   4.188  10.420 -0.0426  0.0728 -0.0574
 6026SOL    HW229541   3.396   4.287  10.395 -0.5853  0.5057  0.8224
 6027SOL     OW29542   4.596   1.049  12.166  0.2328  0.0712 -0.3819
 6027SOL    HW129543   4.564   1.061  12.255 -0.9719  0.4000 -0.8555
 6027SOL    HW229544   4.683   1.016  12.189  0.1710 -0.3102 -0.6897
 6028SOL     OW29545   2.695   3.006   9.080  0.3654 -0.4639  0.2397
 6028SOL    HW129546   2.645   3.011   9.161  1.1720 -0.1879  0.7209
 6028SOL    HW229547   2.695   3.095   9.047 -0.8353 -0.5537  0.0114
 6029SOL     OW29548   0.232   2.434   3.659  0.4937 -0.3568  0.2344
 6029SOL    HW129549   0.323   2.412   3.639  0.4472  0.7305 -1.1407
 6029SOL    HW229550   0.200   2.344   3.654  0.6747 -0.4824  1.4413
 6030SOL     OW29551   4.251   1.460   6.628  0.4644  0.2606  0.0344
 6030SOL    HW129552   4.211   1.477   6.714 -2.5082  1.5731 -1.6064
 6030SOL    HW229553   4.184   1.403   6.591  0.9989 -1.7596  2.1707
 6031SOL     OW29554   3.947   0.944   7.786 -0.6431 -0.0304 -0.1183
 6031SOL    HW129555   3.863   0.964   7.743 -0.8855  0.3441  0.5392
 6031SOL    HW229556   3.927   0.968   7.876  1.4859  2.3534 -0.2833
 6032SOL     OW29557   0.122   2.859   5.893 -0.1463  0.3951  0.2781
 6032SOL    HW129558   0.170   2.926   5.941  1.0554 -0.3710  0.1498
 6032SOL    HW229559   0.149   2.874   5.802  0.6129  0.7347  0.5592
 6033SOL     OW29560   1.183   3.222   1.393  0.2415 -0.0369  0.0895
 6033SOL    HW129561   1.270   3.223   1.432  1.6272  0.1518 -2.9988
 6033SOL    HW229562   1.209   3.159   1.326 -1.3625  0.5820 -1.1365
 6034SOL     OW29563   3.878   4.270  16.684  0.2189 -0.3226 -0.2623
 6034SOL    HW129564   3.958   4.220  16.699 -1.6039 -2.2745  2.7196
 6034SOL    HW229565   3.909   4.327  16.613 -0.5797 -2.8830 -2.6576
 6035SOL     OW29566   0.383   0.112   1.722  0.0203 -0.3702 -0.4462
 6035SOL    HW129567   0.352   0.058   1.649 -1.2786 -0.1293 -0.0637
 6035SOL    HW229568   0.320   0.086   1.789 -1.2419  0.4282 -1.3301
 6036SOL     OW29569   0.216   0.342  14.200 -0.4512  0.1596 -0.6959
 6036SOL    HW129570   0.260   0.420  14.234 -0.5935 -0.6806  1.4654
 6036SOL    HW229571   0.277   0.312  14.132  0.4171 -0.2145  0.2339
 6037SOL     OW29572   4.259   3.104  11.082  0.2479 -0.9142  0.3595
 6037SOL    HW129573   4.350   3.098  11.053  0.4960  0.1596  0.9250
 6037SOL    HW229574   4.204   3.054  11.022 -0.1605 -0.4209  0.3158
 6038SOL     OW29575   4.652   1.977  14.993 -0.4829  0.4734 -0.0440
 6038SOL    HW129576   4.631   1.955  14.902 -0.5501  1.8702 -0.3736
 6038SOL    HW229577   4.566   2.003  15.026 -0.5314 -0.0309  0.2228
 6039SOL     OW29578   2.414   0.746  16.410  0.1740  0.5862 -0.1504
 6039SOL    HW129579   2.499   0.703  16.421  0.7205  1.8788  0.6792
 6039SOL    HW229580   2.444   0.837  16.415 -1.1763  1.1396 -1.8105
 6040SOL     OW29581   0.499   2.028   4.937 -0.2551 -0.2191  0.6033
 6040SOL    HW129582   0.469   2.104   4.987 -1.8696 -0.2242 -0.3666
 6040SOL    HW229583   0.578   2.065   4.899 -2.4699  3.2734 -0.5162
 6041SOL     OW29584   3.879   4.380  11.305 -0.1239  0.5069 -0.2271
 6041SOL    HW129585   3.959   4.432  11.311 -0.8148  1.7292 -1.7442
 6041SOL    HW229586   3.868   4.339  11.391  1.5269  1.4033  0.4022
 6042SOL     OW29587   3.893   4.211   5.870 -0.1750  0.2296 -0.1585
 6042SOL    HW129588   3.903   4.271   5.796 -2.4949 -1.3164 -1.7295
 6042SOL    HW229589   3.949   4.255   5.934  0.2422  0.7864 -0.9120
 6043SOL     OW29590   2.256   1.770   6.888 -0.4691  0.2021 -0.1008
 6043SOL    HW129591   2.302   1.813   6.817 -1.1401 -0.0481 -0.6863
 6043SOL    HW229592   2.220   1.848   6.931 -0.1804 -1.2210  2.7249
 6044SOL     OW29593   3.703   0.978   6.946 -0.9389 -0.3231  0.5435
 6044SOL    HW129594   3.664   0.919   7.011  0.4823 -2.3433 -0.4150
 6044SOL    HW229595   3.752   0.909   6.900 -0.4179 -0.6958  1.6555
 6045SOL     OW29596   4.208   1.748   8.456  0.3428 -0.3853  0.1999
 6045SOL    HW129597   4.176   1.733   8.367  0.0528  0.0625  0.2271
 6045SOL    HW229598   4.282   1.688   8.465  0.7179  0.1611  0.7797
 6046SOL     OW29599   0.992   1.799   7.688  0.3531  0.4137  0.2565
 6046SOL    HW129600   1.039   1.802   7.605 -1.5216  0.9274 -0.7691
 6046SOL    HW229601   0.987   1.706   7.711  2.8018  0.3085  0.4367
 6047SOL     OW29602   0.585   2.999  14.907  0.1399  0.1370 -0.4433
 6047SOL    HW129603   0.535   3.064  14.857 -0.4730  0.0715  0.0844
 6047SOL    HW229604   0.530   2.971  14.980  1.6389  2.0727  1.4114
 6048SOL     OW29605   4.588   4.652   6.243 -0.2968 -0.7830  0.4349
 6048SOL    HW129606   4.612   4.646   6.151  0.6111  1.8632  0.5162
 6048SOL    HW229607   4.580   0.025   6.252  0.2218 -0.7108  0.1274
 6049SOL     OW29608   4.292   3.092  11.361 -0.3754  0.2439 -0.1603
 6049SOL    HW129609   4.386   3.105  11.365 -0.2499 -0.5783 -0.4259
 6049SOL    HW229610   4.268   3.089  11.268 -4.4376 -1.1977  0.9408
 6050SOL     OW29611   0.445   4.105   3.586 -0.1764  0.7365  0.3760
 6050SOL    HW129612   0.391   4.041   3.633  2.1600 -1.5339 -0.0108
 6050SOL    HW229613   0.528   4.057   3.588 -0.5178  0.1272 -0.3847
 6051SOL     OW29614   3.769   4.429  13.265 -0.3091 -0.5699 -0.4456
 6051SOL    HW129615   3.727   4.361  13.212 -0.1832 -2.1843  1.5268
 6051SOL    HW229616   3.861   4.404  13.261  0.6956  2.8084  1.7183
 6052SOL     OW29617   2.536   2.984  16.584  0.5108  0.1939  0.0945
 6052SOL    HW129618   2.581   3.062  16.551 -1.0361  1.5450  1.2074
 6052SOL    HW229619   2.584   2.967  16.665  1.3373 -0.2395 -0.4806
 6053SOL     OW29620   0.642   2.117   8.212 -0.5553 -0.6681 -0.1952
 6053SOL    HW129621   0.599   2.172   8.278 -0.6770 -2.3953  1.1752
 6053SOL    HW229622   0.671   2.171   8.139 -1.6395 -1.6683 -1.3542
 6054SOL     OW29623   0.485   1.977   3.405  0.0717 -0.2315 -0.0566
 6054SOL    HW129624   0.513   1.945   3.490  0.6172  1.7798  0.5197
 6054SOL    HW229625   0.564   2.029   3.389 -0.7231  1.0420  0.1067
 6055SOL     OW29626   1.359   0.806  13.959  0.1236 -0.4691 -0.4840
 6055SOL    HW129627   1.306   0.828  14.036  1.4075 -0.0396  0.2808
 6055SOL    HW229628   1.379   0.890  13.917  0.0422 -1.0911 -1.7333
 6056SOL     OW29629   3.338   3.623  15.064 -0.2795 -0.0064 -0.0294
 6056SOL    HW129630   3.396   3.554  15.032 -1.0523 -1.3238  1.4261
 6056SOL    HW229631   3.260   3.616  15.008 -0.6876  2.2583  0.2549
 6057SOL     OW29632   2.927   2.604   7.657 -0.4778  1.2440 -0.1873
 6057SOL    HW129633   3.002   2.615   7.716 -0.1343  2.5306 -0.8555
 6057SOL    HW229634   2.854   2.613   7.719 -0.6421  1.1997 -0.3734
 6058SOL     OW29635   4.219   4.072  15.036  0.2945  0.0501 -0.5044
 6058SOL    HW129636   4.147   4.133  15.020 -0.4810 -0.7741 -0.1284
 6058SOL    HW229637   4.254   4.110  15.117  0.9849 -2.1822  0.2448
 6059SOL     OW29638   0.776   3.633   2.090 -0.1505  0.5775 -0.3745
 6059SOL    HW129639   0.842   3.702   2.079 -0.0571  0.6436  0.6644
 6059SOL    HW229640   0.731   3.666   2.167 -2.6780 -1.5104 -0.9361
 6060SOL     OW29641   3.998   1.527   3.386  0.8261 -0.4969 -0.1331
 6060SOL    HW129642   3.929   1.471   3.421 -0.3470  2.3297  1.9860
 6060SOL    HW229643   3.944   1.603   3.364  0.5858 -0.8393 -0.7263
 6061SOL     OW29644   2.156   4.158   5.895 -0.2915  0.1400 -0.7879
 6061SOL    HW129645   2.219   4.135   5.828  1.4488  0.0777  0.8625
 6061SOL    HW229646   2.200   4.126   5.974  2.7848  0.9824 -2.1824
 6062SOL     OW29647   1.153   1.169   4.360 -0.0767  0.2281 -0.3664
 6062SOL    HW129648   1.153   1.081   4.395 -0.7524  0.8524  1.2041
 6062SOL    HW229649   1.196   1.219   4.429 -0.0592 -0.5864  0.2134
 6063SOL     OW29650   2.540   4.296   6.783  0.0636  0.0408  0.5206
 6063SOL    HW129651   2.551   4.367   6.846 -0.4718  2.1413 -1.7416
 6063SOL    HW229652   2.527   4.346   6.703  0.3752 -1.8665 -0.7159
 6064SOL     OW29653   1.440   3.460  14.583 -0.4374  0.1638  0.0735
 6064SOL    HW129654   1.436   3.416  14.668  4.3211  0.2141  0.3005
 6064SOL    HW229655   1.349   3.486  14.569 -0.8217  0.0576  2.4807
 6065SOL     OW29656   3.972   4.439  16.465 -0.1420  0.2543  0.2726
 6065SOL    HW129657   4.065   4.449  16.445 -0.3935  1.7096 -0.1538
 6065SOL    HW229658   3.935   4.525  16.485  1.8574  0.7302  1.8989
 6066SOL     OW29659   1.529   0.051   4.698 -0.2185 -0.0202 -0.3707
 6066SOL    HW129660   1.465   0.013   4.639 -0.2617 -0.0994 -0.2716
 6066SOL    HW229661   1.600   0.048   4.634 -0.1594  1.1293 -0.3703
 6067SOL     OW29662   0.038   0.087  14.540 -0.7371 -0.1483  0.5184
 6067SOL    HW129663   0.030   0.152  14.470  0.4241  0.2870  0.7920
 6067SOL    HW229664   0.126   0.107  14.570 -0.6935 -0.2375  0.4517
 6068SOL     OW29665   1.593   2.951   1.816 -0.1184  0.0800  0.7691
 6068SOL    HW129666   1.656   2.954   1.744 -1.8677 -1.4670 -0.8432
 6068SOL    HW229667   1.532   2.881   1.794 -0.8383  0.5301  1.3310
 6069SOL     OW29668   2.033   4.309   4.204 -0.0829  0.4544  0.1565
 6069SOL    HW129669   2.076   4.386   4.239  0.6529  0.6802 -1.2565
 6069SOL    HW229670   1.974   4.293   4.278 -2.2475 -0.9180 -1.8502
 6070SOL     OW29671   0.982   0.934   8.202  0.5398  0.1217 -0.5794
 6070SOL    HW129672   0.989   0.990   8.279 -0.8293  0.9643 -1.0744
 6070SOL    HW229673   1.001   0.850   8.244 -0.1231  0.0455 -0.4285
 6071SOL     OW29674   1.073   4.021   0.124 -0.1341  0.4172 -0.2122
 6071SOL    HW129675   1.160   4.017   0.163 -2.0204 -1.1771  3.7648
 6071SOL    HW229676   1.091   4.032   0.030 -1.2662  0.2855 -0.4559
 6072SOL     OW29677   3.464   1.404  14.928 -0.2586  0.1938 -0.2478
 6072SOL    HW129678   3.465   1.435  14.837  1.7141  0.4829 -0.1307
 6072SOL    HW229679   3.528   1.333  14.925  0.0713  0.4085  1.8949
 6073SOL     OW29680   0.426   2.769   6.424  0.0080 -0.2624  0.0476
 6073SOL    HW129681   0.331   2.756   6.426 -0.0966  0.5219 -0.0838
 6073SOL    HW229682   0.461   2.700   6.481 -0.7303  1.2314  2.2911
 6074SOL     OW29683   1.358   4.321   5.044  0.0426 -0.1331 -0.1396
 6074SOL    HW129684   1.326   4.377   4.973  2.6140  0.6301 -0.7037
 6074SOL    HW229685   1.371   4.236   5.004  2.8935 -0.1307  0.8091
 6075SOL     OW29686   1.982   0.607  14.801  0.0262  0.3096 -0.3660
 6075SOL    HW129687   1.919   0.640  14.865 -0.3356 -1.8273  0.3906
 6075SOL    HW229688   1.931   0.534  14.764  0.7366  0.1894 -1.1041
 6076SOL     OW29689   0.617   4.485   5.028 -0.1822  0.2733  0.3247
 6076SOL    HW129690   0.607   4.567   4.980  1.7879  0.2779 -0.0583
 6076SOL    HW229691   0.610   4.415   4.963 -1.3363  1.9264 -1.3627
 6077SOL     OW29692   3.480   3.438   9.340  0.0278 -0.0290  0.3300
 6077SOL    HW129693   3.516   3.370   9.284  2.0112  0.6147  0.8342
 6077SOL    HW229694   3.424   3.486   9.279 -0.9122 -1.1041  0.3548
 6078SOL     OW29695   2.626   1.357   1.714 -0.1918  0.1996 -0.1917
 6078SOL    HW129696   2.643   1.317   1.629 -0.4863 -1.1593  0.3878
 6078SOL    HW229697   2.537   1.330   1.737 -0.0561  0.7812  1.0524
 6079SOL     OW29698   3.673   4.396  10.676  0.3940 -0.1832 -0.2192
 6079SOL    HW129699   3.644   4.389  10.767 -0.9589 -0.3371 -0.6528
 6079SOL    HW229700   3.623   4.468  10.637 -0.4252 -0.6762 -0.0935
 6080SOL     OW29701   2.848   3.807   6.553  0.6029 -0.3824 -0.1022
 6080SOL    HW129702   2.805   3.736   6.600  3.2534 -0.9557  1.4610
 6080SOL    HW229703   2.902   3.759   6.490 -0.4084 -0.4419 -0.9313
 6081SOL     OW29704   4.369   2.412  15.602  0.0693 -0.1020  0.0322
 6081SOL    HW129705   4.438   2.427  15.537 -2.8858  1.8520 -2.6606
 6081SOL    HW229706   4.348   2.321  15.578  1.3245 -1.1853  3.0585
 6082SOL     OW29707   3.219   0.723  12.311  0.0265  0.3861  0.4775
 6082SOL    HW129708   3.193   0.799  12.362  0.5475  1.3274 -0.6626
 6082SOL    HW229709   3.136   0.682  12.287  0.3424  0.2745 -0.4290
 6083SOL     OW29710   2.697   1.914   4.840  0.1225 -0.1905  0.1853
 6083SOL    HW129711   2.760   1.980   4.868 -0.2912  0.7284 -1.0909
 6083SOL    HW229712   2.615   1.938   4.882 -1.0876 -3.7234 -0.1115
 6084SOL     OW29713   2.634   2.337  11.731 -0.4968  0.4644  0.0764
 6084SOL    HW129714   2.546   2.353  11.766 -1.2546  2.4817 -2.7804
 6084SOL    HW229715   2.633   2.393  11.654  1.5395 -0.6181 -0.7149
 6085SOL     OW29716   0.133   2.439   5.358  0.1357 -0.3746  0.3063
 6085SOL    HW129717   0.106   2.391   5.436 -1.0211 -1.5996 -0.8351
 6085SOL    HW229718   0.228   2.444   5.370  0.3156 -1.5781 -0.5362
 6086SOL     OW29719   3.239   1.801  15.238 -1.0124 -0.4637  0.0584
 6086SOL    HW129720   3.188   1.776  15.161  0.3536  0.5192 -1.1587
 6086SOL    HW229721   3.171   1.800  15.305  0.1016  2.8551  1.2385
 6087SOL     OW29722   1.772   2.557   8.370  0.4266  0.0921 -0.0830
 6087SOL    HW129723   1.794   2.643   8.336  1.0617 -0.4768 -1.1381
 6087SOL    HW229724   1.784   2.568   8.464  0.7929  0.8682 -0.2284
 6088SOL     OW29725   0.216   1.708   2.150  0.3919 -0.5713 -0.6998
 6088SOL    HW129726   0.189   1.795   2.180  1.2925 -0.4832 -0.1372
 6088SOL    HW229727   0.139   1.657   2.176 -0.7859  1.3844 -0.3184
 6089SOL     OW29728   3.563   0.389   6.773 -0.1246  0.1730  0.4885
 6089SOL    HW129729   3.646   0.342   6.777  0.0537  0.3974 -0.5196
 6089SOL    HW229730   3.544   0.405   6.680  2.4714  1.0378  0.0882
 6090SOL     OW29731   0.052   0.489   1.736  0.3439 -0.3598  0.7084
 6090SOL    HW129732   0.048   0.500   1.641  0.9520  1.6258  0.9207
 6090SOL    HW229733   0.072   0.396   1.752  1.5929 -0.4660 -1.4629
 6091SOL     OW29734   1.523   2.081   6.192 -0.0084  0.7708 -0.0166
 6091SOL    HW129735   1.506   2.085   6.097 -1.8223 -0.4250  0.2545
 6091SOL    HW229736   1.616   2.060   6.183  0.0608  0.0596  2.4435
 6092SOL     OW29737   3.308   3.137   6.619 -0.2436 -0.1735 -0.5307
 6092SOL    HW129738   3.277   3.210   6.566 -1.5618 -1.6817 -1.8535
 6092SOL    HW229739   3.385   3.114   6.567 -0.8841 -1.1252 -1.0634
 6093SOL     OW29740   2.497   4.142   1.658  0.6137  0.3209 -0.5101
 6093SOL    HW129741   2.480   4.049   1.647 -0.0881  0.3343  0.4769
 6093SOL    HW229742   2.417   4.181   1.622  0.2242  0.8523  0.9113
 6094SOL     OW29743   4.336   2.614   5.985  0.5220  0.3258  0.0095
 6094SOL    HW129744   4.317   2.565   5.905 -0.0415  1.7129 -0.6989
 6094SOL    HW229745   4.360   2.700   5.951  1.9486  0.1111  0.4656
 6095SOL     OW29746   2.408   2.118  14.754 -0.1248  0.6608  0.2780
 6095SOL    HW129747   2.419   2.110  14.849 -1.3244 -0.0980  0.3552
 6095SOL    HW229748   2.500   2.136  14.737 -0.4763  1.7586 -0.4179
 6096SOL     OW29749   1.038   3.068   7.471  0.2342  0.0685 -0.3758
 6096SOL    HW129750   0.982   3.146   7.466 -1.8616 -1.3839  0.1242
 6096SOL    HW229751   1.121   3.103   7.439  1.6988 -0.0702  3.3204
 6097SOL     OW29752   0.886   0.780   9.057 -0.2556 -0.5238  0.4274
 6097SOL    HW129753   0.889   0.874   9.071 -0.5628 -0.3712 -0.5400
 6097SOL    HW229754   0.836   0.758   8.978 -0.8338  1.2533  0.3130
 6098SOL     OW29755   2.913   1.621   7.075 -0.3217  0.1375  0.1106
 6098SOL    HW129756   2.878   1.558   7.012 -1.5628  0.0112  0.9197
 6098SOL    HW229757   2.967   1.568   7.132  1.7560  1.9943 -0.1337
 6099SOL     OW29758   3.871   3.763   3.033  0.7250 -0.4345 -0.1172
 6099SOL    HW129759   3.889   3.765   3.127 -0.2003 -0.9798  0.0804
 6099SOL    HW229760   3.948   3.801   2.992  0.9729 -0.0561  0.7026
 6100SOL     OW29761   3.511   0.878   6.706 -0.0479 -0.5830 -0.0889
 6100SOL    HW129762   3.603   0.874   6.730  0.1447  0.7463 -0.6211
 6100SOL    HW229763   3.513   0.805   6.643  1.3377 -0.5433 -0.0899
 6101SOL     OW29764   1.965   1.298   6.238 -0.4758 -0.6827 -0.0266
 6101SOL    HW129765   1.949   1.221   6.292 -1.7823 -1.2076 -1.1668
 6101SOL    HW229766   1.957   1.263   6.149 -1.4597  0.4488 -0.3833
 6102SOL     OW29767   2.768   2.310   8.351  0.6417  0.3538 -0.4074
 6102SOL    HW129768   2.751   2.404   8.349  0.5426  0.3655  0.9083
 6102SOL    HW229769   2.864   2.309   8.347  0.6308 -1.8008  0.1867
 6103SOL     OW29770   0.534   0.486   9.222 -0.2894 -0.0129  0.3039
 6103SOL    HW129771   0.523   0.545   9.296 -0.2982  0.2626  0.0833
 6103SOL    HW229772   0.628   0.491   9.202 -0.9445  0.5132 -2.7100
 6104SOL     OW29773   2.707   2.573   8.363 -0.5384 -0.5776  0.7675
 6104SOL    HW129774   2.792   2.603   8.330 -0.2205  0.2713  2.3693
 6104SOL    HW229775   2.653   2.643   8.326  0.3653 -1.3697 -2.0835
 6105SOL     OW29776   0.106   0.467   8.022  0.9422  0.7371 -0.0839
 6105SOL    HW129777   0.111   0.424   8.107  0.4240 -2.0974 -1.4867
 6105SOL    HW229778   0.123   0.551   8.064  0.4255 -0.0833  1.7498
 6106SOL     OW29779   0.829   2.153  12.186  0.1383  0.0505  0.0959
 6106SOL    HW129780   0.862   2.236  12.219  0.7507 -1.5905  3.5472
 6106SOL    HW229781   0.890   2.125  12.118 -0.8084 -1.3293 -0.1883
 6107SOL     OW29782   3.484   1.637  15.555 -0.5065  0.1607  0.3073
 6107SOL    HW129783   3.539   1.627  15.478 -1.4946 -0.2443 -0.3459
 6107SOL    HW229784   3.402   1.596  15.529 -0.6597 -0.4203  1.6790
 6108SOL     OW29785   3.773   0.949   3.452 -0.4659 -0.0453 -0.2858
 6108SOL    HW129786   3.779   0.957   3.356 -0.6126 -1.7670 -0.4323
 6108SOL    HW229787   3.850   0.998   3.481  0.5138 -0.0468 -2.8731
 6109SOL     OW29788   3.433   2.902   2.394  0.0277  0.3669  0.1525
 6109SOL    HW129789   3.421   2.997   2.388 -1.5707  0.2207  1.1962
 6109SOL    HW229790   3.366   2.889   2.461  0.4631 -0.1402  0.4808
 6110SOL     OW29791   2.787   0.387   7.114  0.6493  0.1373  0.2094
 6110SOL    HW129792   2.739   0.413   7.193  0.3252 -1.0690  0.4119
 6110SOL    HW229793   2.771   0.292   7.113  2.4473 -0.1654 -0.0062
 6111SOL     OW29794   3.896   2.499   4.637  0.0041  0.0887  0.4506
 6111SOL    HW129795   3.927   2.562   4.571 -2.2893 -0.8489 -1.5235
 6111SOL    HW229796   3.928   2.421   4.590 -2.4603 -0.6569  0.0298
 6112SOL     OW29797   2.297   0.080  10.464 -0.2910 -0.1248 -0.2086
 6112SOL    HW129798   2.252   0.136  10.527  0.4889  0.1496  0.1024
 6112SOL    HW229799   2.269   4.717  10.499 -1.3280 -0.3071 -1.4493
 6113SOL     OW29800   0.615   1.754   0.846  0.2033 -0.2382  0.4229
 6113SOL    HW129801   0.642   1.751   0.938 -0.3921  0.4642  0.6234
 6113SOL    HW229802   0.573   1.840   0.843 -0.1009 -0.3749  0.7218
 6114SOL     OW29803   2.670   3.063   2.588  0.5052  0.0310 -0.3744
 6114SOL    HW129804   2.663   2.992   2.523  1.0299  1.8493 -2.4278
 6114SOL    HW229805   2.608   3.118   2.540 -0.3228 -0.2134  0.4088
 6115SOL     OW29806   0.838   1.173   1.851 -0.5587 -0.1199 -0.0168
 6115SOL    HW129807   0.854   1.204   1.940  2.0264 -0.0375 -0.5255
 6115SOL    HW229808   0.793   1.091   1.873 -1.7415  0.3589 -0.6201
 6116SOL     OW29809   3.635   4.521  12.324 -0.1396  0.4060  0.5277
 6116SOL    HW129810   3.643   4.601  12.273  1.4061 -0.4741 -0.6288
 6116SOL    HW229811   3.545   4.529  12.356 -0.0113  0.2470  0.9327
 6117SOL     OW29812   3.981   4.072   4.536  0.4732 -0.3939 -0.2134
 6117SOL    HW129813   4.072   4.044   4.526  0.4729 -0.7142  0.7268
 6117SOL    HW229814   3.986   4.124   4.616 -1.0347 -1.0998  0.3435
 6118SOL     OW29815   1.124   1.529  16.114  0.0749 -0.1004  0.5011
 6118SOL    HW129816   1.178   1.450  16.111 -1.1046 -0.9113  0.5668
 6118SOL    HW229817   1.192   1.594  16.134  0.7839 -0.5662 -0.3613
 6119SOL     OW29818   2.788   1.417   2.601 -0.1870 -0.1196 -0.3672
 6119SOL    HW129819   2.786   1.449   2.511 -0.0780  0.1658 -0.2682
 6119SOL    HW229820   2.714   1.466   2.636  0.7080  1.5635 -0.7895
 6120SOL     OW29821   0.652   4.618  15.203 -0.1274  0.2533 -0.1753
 6120SOL    HW129822   0.713   4.691  15.214 -1.3532  1.0789  1.0826
 6120SOL    HW229823   0.659   4.603  15.109 -1.6148 -0.2495 -0.2012
 6121SOL     OW29824   1.896   2.317  16.402 -0.1151 -0.4263  0.1202
 6121SOL    HW129825   1.851   2.360  16.329 -0.0482 -1.3849 -0.4880
 6121SOL    HW229826   1.904   2.378  16.476 -2.3375  0.7871 -0.6345
 6122SOL     OW29827   0.645   4.407   3.382  0.1106 -0.1039 -0.1755
 6122SOL    HW129828   0.696   4.338   3.424 -0.1787 -0.2826 -0.1160
 6122SOL    HW229829   0.608   4.443   3.463 -0.6276 -0.3304 -0.4144
 6123SOL     OW29830   1.681   1.500  11.241 -0.2080 -0.0789  0.4450
 6123SOL    HW129831   1.744   1.483  11.311 -2.3394  1.1198  2.6512
 6123SOL    HW229832   1.696   1.589  11.209  1.8142 -1.7737 -3.3587
 6124SOL     OW29833   0.664   1.594   9.544 -0.2976  0.0883 -0.1191
 6124SOL    HW129834   0.691   1.509   9.579  0.0572  0.1271 -0.2942
 6124SOL    HW229835   0.672   1.576   9.450 -1.2838 -0.6585 -0.0673
 6125SOL     OW29836   1.302   1.135   8.271  0.0404 -0.2698  0.2158
 6125SOL    HW129837   1.318   1.190   8.348 -0.0519  0.4103 -0.2507
 6125SOL    HW229838   1.267   1.050   8.297 -0.8422 -0.8289 -2.8093
 6126SOL     OW29839   1.335   1.084   6.286 -0.6835  0.8666  0.1189
 6126SOL    HW129840   1.381   1.067   6.369  1.6611  1.7997 -0.9811
 6126SOL    HW229841   1.390   1.153   6.247  1.3174 -1.6969 -1.5762
 6127SOL     OW29842   4.049   2.458   1.238 -0.1151  0.2316  0.1928
 6127SOL    HW129843   4.010   2.478   1.153 -1.8762 -2.6920  0.2935
 6127SOL    HW229844   4.011   2.527   1.293 -0.1144  1.6080 -1.5373
 6128SOL     OW29845   2.812   1.652  12.434 -0.5150 -0.2413 -0.5146
 6128SOL    HW129846   2.767   1.587  12.381 -1.5275  0.6931 -0.8066
 6128SOL    HW229847   2.842   1.599  12.508 -0.0814 -0.1808 -0.6440
 6129SOL     OW29848   1.013   0.678  12.009  0.0974  0.5476 -0.4005
 6129SOL    HW129849   1.029   0.655  12.101  0.6129 -1.1063 -0.9066
 6129SOL    HW229850   1.083   0.632  11.964 -0.8039  0.4535 -1.6967
 6130SOL     OW29851   3.470   2.288   0.536 -0.2840 -0.3587 -0.5755
 6130SOL    HW129852   3.417   2.367   0.549  1.2794  0.3931  1.1975
 6130SOL    HW229853   3.465   2.248   0.623 -0.2666 -0.7860 -0.7730
 6131SOL     OW29854   2.991   1.142  16.495 -0.2347 -0.2488 -0.0124
 6131SOL    HW129855   2.951   1.181  16.572  2.6019 -0.8727  1.7646
 6131SOL    HW229856   2.961   1.059  16.532 -0.3945 -0.4559 -0.5983
 6132SOL     OW29857   4.534   1.756   6.594  0.5799  0.1567  0.3444
 6132SOL    HW129858   4.603   1.690   6.588 -0.6358 -1.2491  1.8228
 6132SOL    HW229859   4.516   1.769   6.501  1.3756 -1.3995 -0.0160
 6133SOL     OW29860   1.224   3.173   7.302 -0.3458  0.5800 -0.1161
 6133SOL    HW129861   1.271   3.134   7.230  1.2721  1.2875  0.5635
 6133SOL    HW229862   1.166   3.232   7.254 -0.2198  1.2593  0.5579
 6134SOL     OW29863   0.989   3.114   2.940 -0.2457 -1.1116 -0.1508
 6134SOL    HW129864   0.953   3.190   2.986  2.0361  1.1848 -2.1840
 6134SOL    HW229865   0.938   3.046   2.984  0.0365 -1.4058 -0.2824
 6135SOL     OW29866   2.143   2.137   7.220  0.1854 -0.1933 -0.2361
 6135SOL    HW129867   2.110   2.078   7.288  1.5954  1.1857  1.6498
 6135SOL    HW229868   2.159   2.212   7.277  1.1447 -2.7166  2.8327
 6136SOL     OW29869   3.007   4.601   8.192 -0.3753 -0.2870 -0.4654
 6136SOL    HW129870   2.918   4.630   8.213 -0.3730  0.8668 -2.0328
 6136SOL    HW229871   3.030   4.556   8.273  0.3816  0.0768 -0.4816
 6137SOL     OW29872   3.335   0.257  17.172 -0.6580  0.7533  0.0440
 6137SOL    HW129873   3.373   0.295  17.093 -2.1877 -1.7425 -1.8998
 6137SOL    HW229874   3.391   0.286  17.244 -0.4240  0.1278  0.1113
 6138SOL     OW29875   2.089   0.388   7.786 -0.0550 -0.0449  0.2739
 6138SOL    HW129876   2.171   0.420   7.824  1.0820 -3.3140  0.6052
 6138SOL    HW229877   2.035   0.463   7.809 -1.8487 -1.0853 -0.5109
 6139SOL     OW29878   0.658   0.032   1.855  0.2618 -0.1676 -0.4846
 6139SOL    HW129879   0.723   0.057   1.790  0.6466 -0.8642 -0.3738
 6139SOL    HW229880   0.580   0.058   1.807  0.4052  2.0306  0.4821
 6140SOL     OW29881   1.772   2.957   4.197 -0.3998 -0.3243 -0.8347
 6140SOL    HW129882   1.814   2.984   4.116 -1.4916  1.3012 -0.8619
 6140SOL    HW229883   1.687   3.000   4.186  0.6369  1.7938 -0.4156
 6141SOL     OW29884   1.499   3.590   4.811  0.1052 -0.4812 -0.1787
 6141SOL    HW129885   1.559   3.556   4.878 -0.1048  1.8257  1.1669
 6141SOL    HW229886   1.416   3.554   4.841 -0.0531  0.3799  0.4132
 6142SOL     OW29887   2.122   4.611   1.816  0.2964 -0.1472 -0.1666
 6142SOL    HW129888   2.129   4.580   1.726  1.7850 -0.3418  0.0174
 6142SOL    HW229889   2.104   4.699   1.784 -0.2060 -0.2305 -0.1209
 6143SOL     OW29890   2.070   2.516   9.544  0.3165 -0.0800  0.0896
 6143SOL    HW129891   2.007   2.490   9.611 -0.6918 -0.2350 -0.9165
 6143SOL    HW229892   2.003   2.550   9.484 -0.8171 -0.9348  0.8597
 6144SOL     OW29893   3.564   2.846   2.179 -0.1835  0.2419 -0.1810
 6144SOL    HW129894   3.622   2.779   2.214 -0.1352  1.0519  1.2874
 6144SOL    HW229895   3.512   2.885   2.249 -2.0953 -1.6761 -0.5544
 6145SOL     OW29896   1.616   2.440   5.899  0.0078  0.2151  0.6299
 6145SOL    HW129897   1.673   2.493   5.844  1.2100  0.3780  2.0243
 6145SOL    HW229898   1.526   2.462   5.874 -0.0054  0.1861  0.6519
 6146SOL     OW29899   3.308   2.922   8.586 -0.4117 -0.3985  0.2659
 6146SOL    HW129900   3.316   3.017   8.585  1.0210 -0.5289 -0.9398
 6146SOL    HW229901   3.341   2.904   8.674  0.8275 -3.6748 -0.8712
 6147SOL     OW29902   0.764   1.671   4.330  0.5185 -0.5499  0.1432
 6147SOL    HW129903   0.679   1.629   4.317 -1.5448  2.1174  4.5689
 6147SOL    HW229904   0.817   1.591   4.326 -0.9377 -1.3909 -2.1383
 6148SOL     OW29905   0.342   4.241  14.444 -0.4288 -0.3106  0.0083
 6148SOL    HW129906   0.435   4.241  14.463 -1.1553 -0.9063  3.5262
 6148SOL    HW229907   0.346   4.267  14.352  1.3251 -0.0581  0.1527
 6149SOL     OW29908   1.605   4.586  16.080 -0.2708  0.8421  0.7578
 6149SOL    HW129909   1.582   4.677  16.061  0.0567  0.4955 -1.3037
 6149SOL    HW229910   1.533   4.570  16.141  0.4279 -1.5315  0.9646
 6150SOL     OW29911   3.539   1.062   4.490  1.0316  0.0864 -0.0027
 6150SOL    HW129912   3.487   1.142   4.498 -1.7525 -1.7880  0.6400
 6150SOL    HW229913   3.553   1.052   4.396 -1.0586 -2.8784  0.0169
 6151SOL     OW29914   0.581   1.942   3.673  0.4665  0.2907 -0.5995
 6151SOL    HW129915   0.676   1.926   3.672  0.2659 -0.9591 -0.0438
 6151SOL    HW229916   0.557   2.022   3.719  4.8483  2.4639 -1.9923
 6152SOL     OW29917   1.568   1.819   7.141 -0.0480 -0.5352 -0.1484
 6152SOL    HW129918   1.485   1.837   7.097 -0.4767 -0.6831  0.5962
 6152SOL    HW229919   1.618   1.889   7.100  0.2854 -2.1712 -2.5148
 6153SOL     OW29920   2.479   3.393   7.615 -0.2792 -0.4887  0.5564
 6153SOL    HW129921   2.439   3.466   7.568 -0.2393 -1.3456 -0.8301
 6153SOL    HW229922   2.415   3.393   7.686 -0.8757 -0.5403  0.0188
 6154SOL     OW29923   1.518   2.150   8.373  0.2449  0.2191 -0.3773
 6154SOL    HW129924   1.424   2.145   8.393  0.4559 -0.5206  0.4352
 6154SOL    HW229925   1.529   2.151   8.278 -2.7103  1.1069 -0.7301
 6155SOL     OW29926   0.032   1.913   8.757 -0.3535 -0.8553  0.3821
 6155SOL    HW129927   4.658   1.922   8.764 -0.2049  1.0602 -0.0060
 6155SOL    HW229928   0.057   2.004   8.773 -1.3477 -0.7915  1.5598
 6156SOL     OW29929   3.424   2.927   9.285 -0.2807 -0.8378 -0.4363
 6156SOL    HW129930   3.431   3.009   9.235  1.0562 -0.4725  0.3484
 6156SOL    HW229931   3.514   2.897   9.274 -0.1652 -0.1373 -1.4783
 6157SOL     OW29932   0.261   1.104   4.916 -0.2631  0.1978  0.4460
 6157SOL    HW129933   0.243   1.174   4.853  0.2667 -0.8074 -0.8236
 6157SOL    HW229934   0.354   1.113   4.937 -0.2780 -0.8901  1.0074
 6158SOL     OW29935   0.350   0.001  16.379 -0.1207 -0.3198  0.0306
 6158SOL    HW129936   0.429   4.694  16.333 -0.0159  0.3834 -0.2331
 6158SOL    HW229937   0.295   4.644  16.375  0.8273 -0.8981 -1.6192
 6159SOL     OW29938   3.360   2.090   8.531 -0.5359 -0.1324  0.7362
 6159SOL    HW129939   3.324   2.102   8.443  0.9975 -0.4604  0.0573
 6159SOL    HW229940   3.362   2.177   8.571  2.7943  0.1558 -0.0502
 6160SOL     OW29941   2.571   0.606   1.829  0.2002  0.4947  0.0045
 6160SOL    HW129942   2.527   0.534   1.873  0.1746 -1.0502 -2.6142
 6160SOL    HW229943   2.534   0.674   1.886 -2.7285 -1.1323 -0.0148
 6161SOL     OW29944   0.242   3.403  15.840 -0.3940  0.1967  0.0502
 6161SOL    HW129945   0.162   3.453  15.827  1.2189  2.6508 -0.3894
 6161SOL    HW229946   0.254   3.395  15.934  0.9913  0.6387 -0.0867
 6162SOL     OW29947   3.837   3.984   3.904 -0.6148  0.3783 -0.2173
 6162SOL    HW129948   3.873   4.072   3.908 -1.2501  0.6078  0.2973
 6162SOL    HW229949   3.803   3.986   3.815 -1.0794 -1.4073 -0.0818
 6163SOL     OW29950   3.102   0.664   7.947  0.1584 -0.0553  0.0356
 6163SOL    HW129951   3.110   0.729   7.877 -0.4747 -0.9598 -0.8780
 6163SOL    HW229952   3.012   0.636   7.929  0.3622 -0.7918  0.1782
 6164SOL     OW29953   0.623   3.383   6.302  0.3272  0.1136  0.4669
 6164SOL    HW129954   0.547   3.349   6.349 -0.1104 -0.7787 -0.8854
 6164SOL    HW229955   0.673   3.303   6.286 -0.7526 -0.2808 -0.9497
 6165SOL     OW29956   3.180   0.750   9.364 -0.0669 -0.6711 -0.0319
 6165SOL    HW129957   3.251   0.689   9.346  0.4297 -0.0398 -0.2124
 6165SOL    HW229958   3.222   0.835   9.376 -0.2081 -0.2466 -2.6253
 6166SOL     OW29959   2.536   0.578   4.538 -0.0750 -0.6067  0.0513
 6166SOL    HW129960   2.460   0.569   4.481  0.5138  0.9052 -0.9518
 6166SOL    HW229961   2.498   0.600   4.623 -0.2124 -0.7821  0.0362
 6167SOL     OW29962   0.692   3.334  11.188  0.2836  0.4939 -0.3621
 6167SOL    HW129963   0.705   3.363  11.097 -1.0342  2.1415 -0.0257
 6167SOL    HW229964   0.781   3.309  11.214  0.7617  0.5183 -1.9143
 6168SOL     OW29965   3.560   1.407   9.496  0.2532 -0.5482  0.1218
 6168SOL    HW129966   3.632   1.456   9.458  0.6134  0.2095  1.7915
 6168SOL    HW229967   3.603   1.355   9.564 -2.1179 -0.3668  1.7464
 6169SOL     OW29968   1.615   3.346   5.288 -0.1810  0.1614 -0.0084
 6169SOL    HW129969   1.704   3.323   5.263  0.7429  2.2417  1.3117
 6169SOL    HW229970   1.570   3.283   5.231 -3.2172  1.8950  0.4419
 6170SOL     OW29971   0.410   3.561   6.675 -0.2870 -0.2295  0.8147
 6170SOL    HW129972   0.340   3.496   6.663  1.0470 -1.2513 -1.4731
 6170SOL    HW229973   0.366   3.638   6.711  1.2112  0.8341  0.3874
 6171SOL     OW29974   1.986   1.767   9.635 -0.5254  0.6885 -0.4661
 6171SOL    HW129975   1.896   1.736   9.641  0.2205 -1.4204 -0.4098
 6171SOL    HW229976   2.039   1.716   9.696 -0.5622 -0.8474 -1.7392
 6172SOL     OW29977   0.884   0.266  10.134  0.2411  0.1697 -0.5711
 6172SOL    HW129978   0.841   0.245  10.051 -0.3535 -1.8599  0.2479
 6172SOL    HW229979   0.961   0.315  10.105 -0.7838  2.2435  0.2889
 6173SOL     OW29980   1.321   2.550   7.009  0.0199  0.0372 -0.0437
 6173SOL    HW129981   1.364   2.535   6.925 -1.6134 -1.2776 -0.6537
 6173SOL    HW229982   1.385   2.521   7.075 -2.2184  0.3675  2.2957
 6174SOL     OW29983   3.722   3.370  14.800 -0.1157  0.1983  0.3420
 6174SOL    HW129984   3.744   3.326  14.718  0.9667  0.2841  0.5909
 6174SOL    HW229985   3.790   3.436  14.811  0.5585 -0.5298  0.5771
 6175SOL     OW29986   3.279   3.311  14.953  0.2285 -0.6356  0.3948
 6175SOL    HW129987   3.363   3.337  14.990 -0.3076  0.0019  1.1743
 6175SOL    HW229988   3.272   3.220  14.983 -2.8458 -0.7860 -0.7055
 6176SOL     OW29989   4.133   1.255   2.420  0.0053 -0.1548 -0.0146
 6176SOL    HW129990   4.194   1.320   2.456  0.7590 -0.3360 -0.9785
 6176SOL    HW229991   4.140   1.264   2.325  1.4748  2.6933  0.3647
 6177SOL     OW29992   2.791   1.721   5.520  0.0321  0.2145 -0.2951
 6177SOL    HW129993   2.875   1.756   5.547  0.8502 -1.4977 -0.6038
 6177SOL    HW229994   2.769   1.676   5.602  0.2290  1.4962  0.4592
 6178SOL     OW29995   2.898   3.771   8.340 -0.8348  0.8244 -0.1231
 6178SOL    HW129996   2.845   3.813   8.407 -2.2291  1.3611 -1.5794
 6178SOL    HW229997   2.902   3.830   8.265  2.3114  1.1350  0.2853
 6179SOL     OW29998   2.417   0.055   2.703 -0.1234  0.7720  0.4036
 6179SOL    HW129999   2.510   0.052   2.727  0.2240 -0.3587 -1.0851
 6179SOL    HW230000   2.384   0.143   2.721  0.4731  0.8594  1.0659
 6180SOL     OW30001   3.755   3.311  16.658 -0.0029 -0.0113  0.5064
 6180SOL    HW130002   3.833   3.260  16.636 -1.7936 -3.0488  1.1607
 6180SOL    HW230003   3.758   3.361  16.576 -0.9897  1.4223  1.3445
 6181SOL     OW30004   2.028   4.040   7.869 -0.6035  0.2310  0.1133
 6181SOL    HW130005   2.005   4.067   7.958  0.1034 -2.0351  0.9718
 6181SOL    HW230006   1.970   4.098   7.820  0.4877  1.5940  0.4333
 6182SOL     OW30007   3.019   2.744  15.743  0.1718  0.1671 -0.2129
 6182SOL    HW130008   3.026   2.778  15.832 -1.6798 -2.2008  0.8424
 6182SOL    HW230009   3.068   2.662  15.752  2.1033  1.4218  0.6841
 6183SOL     OW30010   2.970   1.510   5.201  0.0851  0.2253 -0.1308
 6183SOL    HW130011   2.981   1.465   5.285  0.9192  1.5458  0.4801
 6183SOL    HW230012   2.891   1.561   5.217 -0.4235 -0.6317  0.0952
 6184SOL     OW30013   1.529   3.519   5.963  0.5563 -0.0700 -0.1099
 6184SOL    HW130014   1.505   3.602   6.005 -2.0520 -0.9977  0.2556
 6184SOL    HW230015   1.495   3.534   5.875  2.0994  1.1602 -0.4906
 6185SOL     OW30016   1.182   2.048  13.250  0.0893 -0.0608 -0.3975
 6185SOL    HW130017   1.164   1.963  13.289 -0.8900  0.1866 -0.3036
 6185SOL    HW230018   1.239   2.091  13.315 -0.7528  0.4863 -0.0187
 6186SOL     OW30019   1.179   0.512   8.467  0.2092 -0.3792  0.1643
 6186SOL    HW130020   1.245   0.568   8.509 -0.0660 -1.0721  1.5285
 6186SOL    HW230021   1.203   0.425   8.497 -1.2529 -0.7578  0.2528
 6187SOL     OW30022   0.028   1.534   5.269 -0.3335  0.4720 -0.2145
 6187SOL    HW130023   4.720   1.564   5.183  0.1132 -1.0035 -0.8654
 6187SOL    HW230024   4.671   1.486   5.295  0.8455 -0.5024  1.5348
 6188SOL     OW30025   1.547   1.133   2.802  0.2309  0.6182  0.3193
 6188SOL    HW130026   1.522   1.221   2.776  1.1686  0.4072 -1.3270
 6188SOL    HW230027   1.607   1.159   2.872  1.0822  0.5524 -0.3916
 6189SOL     OW30028   3.083   0.550   3.845 -0.0293  0.3735  0.0377
 6189SOL    HW130029   3.085   0.484   3.915 -2.3367 -0.8060 -1.0173
 6189SOL    HW230030   3.020   0.504   3.790 -1.6303 -0.2288  2.3837
 6190SOL     OW30031   2.543   3.513   9.635 -0.4938 -0.0156 -0.8612
 6190SOL    HW130032   2.555   3.471   9.549  0.3626  3.1483 -2.2855
 6190SOL    HW230033   2.613   3.463   9.675  1.5254  4.2041  0.8668
 6191SOL     OW30034   0.736   2.685   4.752  0.5755 -0.2090  0.8601
 6191SOL    HW130035   0.742   2.747   4.679  0.1665 -1.5857 -0.3476
 6191SOL    HW230036   0.641   2.673   4.758  0.6360 -1.4414 -0.4022
 6192SOL     OW30037   0.055   2.628   2.534 -0.0747  0.5223  0.2892
 6192SOL    HW130038   4.703   2.672   2.577 -0.0415 -0.1782  1.0643
 6192SOL    HW230039   0.048   2.540   2.570  1.7216  0.8408  1.4180
 6193SOL     OW30040   3.569   1.824  10.435 -0.1487  0.0329 -0.9382
 6193SOL    HW130041   3.476   1.840  10.452 -0.0464  0.5837 -0.9033
 6193SOL    HW230042   3.577   1.731  10.458  0.2964  0.0078 -1.1894
 6194SOL     OW30043   0.616   4.339  12.039 -0.2279 -0.2364  0.6743
 6194SOL    HW130044   0.620   4.406  11.971 -0.6824 -0.7142  0.1715
 6194SOL    HW230045   0.614   4.389  12.120  3.3912  0.8640  0.0832
 6195SOL     OW30046   4.099   1.502   6.942  0.1794  0.2184  0.8241
 6195SOL    HW130047   4.024   1.476   6.995 -2.0341 -0.0183 -2.3704
 6195SOL    HW230048   4.133   1.576   6.991  1.5024 -1.5332  2.5766
 6196SOL     OW30049   3.274   1.077   3.981 -0.0174 -0.3566  0.1598
 6196SOL    HW130050   3.341   1.124   4.031  1.1416  1.1512 -2.8118
 6196SOL    HW230051   3.320   1.013   3.927 -2.5182  0.1971 -2.6130
 6197SOL     OW30052   0.603   2.474   6.224  0.1943 -0.0882  0.7161
 6197SOL    HW130053   0.581   2.445   6.312  1.3484 -0.4529  0.8829
 6197SOL    HW230054   0.512   2.487   6.197  1.1929  2.5160 -1.4452
 6198SOL     OW30055   1.976   0.370   1.576 -0.3428 -0.1407  0.3934
 6198SOL    HW130056   1.958   0.462   1.554 -2.7107 -0.5294  0.7215
 6198SOL    HW230057   1.978   0.368   1.671 -0.8063 -4.2475  0.2939
 6199SOL     OW30058   1.761   2.967   1.616 -0.4727 -0.4645 -0.0403
 6199SOL    HW130059   1.854   2.947   1.601 -0.0741 -0.7501  2.8540
 6199SOL    HW230060   1.738   2.941   1.527  0.4878 -0.7037 -0.2285
 6200SOL     OW30061   3.996   3.352   4.588  0.2663 -0.4657  0.3940
 6200SOL    HW130062   4.005   3.319   4.499 -1.6996  0.4648 -0.1462
 6200SOL    HW230063   3.909   3.385   4.568  0.5775 -0.2296 -0.5835
 6201SOL     OW30064   1.779   2.775   2.475 -0.1604  0.2148  0.4383
 6201SOL    HW130065   1.849   2.834   2.502 -1.2148  2.6084 -1.9722
 6201SOL    HW230066   1.765   2.732   2.559  1.8610 -1.6086 -0.1635
 6202SOL     OW30067   3.764   3.191  12.516 -0.3325 -0.0848 -0.3459
 6202SOL    HW130068   3.756   3.128  12.587  1.5540 -0.3448 -0.3438
 6202SOL    HW230069   3.816   3.258  12.561  3.2010 -2.6091 -0.6316
 6203SOL     OW30070   3.943   4.340  17.285  0.3217  0.4819 -0.2066
 6203SOL    HW130071   3.888   4.271  17.322 -1.5899  1.2327 -1.6285
 6203SOL    HW230072   3.988   4.289  17.217  1.0180  0.0525  0.5764
 6204SOL     OW30073   2.241   4.659   1.291  0.5549 -0.2296  0.0351
 6204SOL    HW130074   2.284   4.608   1.223  0.9967 -1.0400  0.9113
 6204SOL    HW230075   2.193   4.717   1.232  2.5913  1.6142  0.2032
 6205SOL     OW30076   2.404   3.933  14.533  0.2545  0.0325  0.0698
 6205SOL    HW130077   2.454   3.861  14.493 -0.7564 -0.5964 -0.0549
 6205SOL    HW230078   2.416   3.908  14.624  0.8852 -0.0668 -0.0415
 6206SOL     OW30079   2.317   0.511   6.515 -0.3494  0.6814  0.4513
 6206SOL    HW130080   2.256   0.585   6.509 -0.6418  0.5397  1.7511
 6206SOL    HW230081   2.287   0.443   6.576 -3.2381 -1.3554 -3.2563
 6207SOL     OW30082   2.320   3.402   5.243 -0.3208  0.2173 -0.0724
 6207SOL    HW130083   2.256   3.332   5.238 -0.3028  0.2976 -1.4970
 6207SOL    HW230084   2.323   3.435   5.333  0.6751  0.1141 -0.0638
 6208SOL     OW30085   1.841   3.787  14.431 -0.1175  0.5726 -0.0193
 6208SOL    HW130086   1.779   3.851  14.466 -3.1062 -1.6317 -1.1962
 6208SOL    HW230087   1.910   3.814  14.491  0.6142 -1.6814  0.1632
 6209SOL     OW30088   0.570   2.074   6.766 -0.0496 -0.0408  0.3250
 6209SOL    HW130089   0.634   2.124   6.715 -1.0411  0.8175 -0.0998
 6209SOL    HW230090   0.551   2.016   6.692  1.9177 -1.2239  0.7753
 6210SOL     OW30091   1.508   2.300  15.183  0.3428 -0.2187 -0.7515
 6210SOL    HW130092   1.485   2.247  15.259  1.0675  1.0297  0.3196
 6210SOL    HW230093   1.428   2.290  15.130 -0.1783  1.0844 -0.2167
 6211SOL     OW30094   2.517   2.574  15.154 -0.1289 -0.1777  0.3932
 6211SOL    HW130095   2.567   2.541  15.229  1.3749  0.2455 -0.4231
 6211SOL    HW230096   2.442   2.616  15.194 -0.3303  0.2669 -0.4583
 6212SOL     OW30097   4.527   2.820  15.339  0.1890 -0.6467 -0.1297
 6212SOL    HW130098   4.488   2.806  15.425  0.4534 -0.7980 -0.0353
 6212SOL    HW230099   4.621   2.814  15.351 -0.0617 -3.2029  0.4453
 6213SOL     OW30100   1.211   1.884   1.863 -0.4738  0.2782 -0.2426
 6213SOL    HW130101   1.269   1.906   1.791  0.7886  0.8400  0.9480
 6213SOL    HW230102   1.244   1.797   1.888  2.7514  0.8478 -2.5446
 6214SOL     OW30103   3.920   3.323  14.212  0.4118 -0.7931  0.2542
 6214SOL    HW130104   4.001   3.374  14.212 -0.2469  0.2707 -0.8353
 6214SOL    HW230105   3.941   3.242  14.257  3.1730  0.0529  0.4508
 6215SOL     OW30106   0.442   4.078   5.606 -0.5065  0.3205 -0.3545
 6215SOL    HW130107   0.357   4.050   5.573 -0.1707 -1.9161  0.6490
 6215SOL    HW230108   0.471   3.998   5.651 -3.4688 -0.1053  0.7805
 6216SOL     OW30109   1.345   0.304   2.946  0.0948 -0.0163 -0.6434
 6216SOL    HW130110   1.282   0.337   3.010 -0.5829 -1.7424 -0.4228
 6216SOL    HW230111   1.299   0.328   2.866 -0.1649 -0.0215 -0.4936
 6217SOL     OW30112   3.031   3.658   0.561 -0.1302 -0.2941  0.3294
 6217SOL    HW130113   3.123   3.648   0.585 -0.3970  1.5227  2.0411
 6217SOL    HW230114   3.047   3.650   0.467 -1.5613 -2.4686  0.2532
 6218SOL     OW30115   3.006   1.266  17.329  0.0451 -0.1086 -0.5776
 6218SOL    HW130116   3.041   1.337  17.383 -0.3795 -1.3237  1.3003
 6218SOL    HW230117   3.076   1.202  17.342  0.0218  0.2073  1.1126
 6219SOL     OW30118   3.947   3.435  10.440 -0.3708  0.6923 -0.2355
 6219SOL    HW130119   3.853   3.434  10.457  0.1604 -2.0542  2.4520
 6219SOL    HW230120   3.942   3.485  10.358 -0.8194  1.0207 -0.0086
 6220SOL     OW30121   1.142   2.443   6.677 -0.5810 -0.2300  0.2530
 6220SOL    HW130122   1.180   2.522   6.638 -1.0849  0.0122  0.2525
 6220SOL    HW230123   1.220   2.411   6.723 -0.0584 -0.0732 -0.5095
 6221SOL     OW30124   3.463   3.115   7.655  0.7736 -0.1072  0.1114
 6221SOL    HW130125   3.409   3.179   7.608  2.6705  0.3412 -1.4368
 6221SOL    HW230126   3.399   3.068   7.708  0.0372 -0.3602 -0.9963
 6222SOL     OW30127   1.445   0.938   8.903 -0.1619  0.3377  0.2432
 6222SOL    HW130128   1.430   0.894   8.819 -0.3797  0.4609  0.2177
 6222SOL    HW230129   1.530   0.982   8.894  0.2181 -0.6764 -1.3018
 6223SOL     OW30130   1.067   4.694   4.733  0.0040  0.8060 -0.0370
 6223SOL    HW130131   1.041   0.035   4.801  0.0911 -1.3171  1.9384
 6223SOL    HW230132   0.991   4.636   4.737  0.3537  0.3516 -0.0011
 6224SOL     OW30133   1.050   0.981   7.154 -0.8435 -0.1499 -0.1622
 6224SOL    HW130134   1.083   1.059   7.110 -1.0952  0.5566  0.9171
 6224SOL    HW230135   1.061   0.911   7.089 -3.0409 -2.0837  1.5054
 6225SOL     OW30136   0.253   1.919  16.905  0.0275 -0.5465 -0.3858
 6225SOL    HW130137   0.190   1.983  16.870  0.3117 -0.0941 -0.0746
 6225SOL    HW230138   0.298   1.974  16.969  1.0262  0.2099 -1.7219
 6226SOL     OW30139   0.709   0.987   3.969  0.1658 -0.4519  0.4622
 6226SOL    HW130140   0.783   0.943   3.927 -0.3391 -0.4159 -0.4559
 6226SOL    HW230141   0.667   0.909   4.006  1.4849 -2.5341 -2.4223
 6227SOL     OW30142   0.795   0.070   8.530 -0.0090  0.7263  0.3462
 6227SOL    HW130143   0.728   0.090   8.464  1.0148  1.6333 -0.4071
 6227SOL    HW230144   0.790   4.696   8.531 -2.0233  0.8258  0.1033
 6228SOL     OW30145   2.686   3.407  12.012  0.0081  0.5073 -0.1150
 6228SOL    HW130146   2.694   3.317  11.980  1.2224  0.3305  0.6854
 6228SOL    HW230147   2.591   3.402  12.028  0.3008 -0.8693  1.1850
 6229SOL     OW30148   3.994   2.315   2.766  0.2641 -0.1499 -0.1492
 6229SOL    HW130149   3.994   2.254   2.692 -0.5615  1.9534 -1.8866
 6229SOL    HW230150   3.949   2.387   2.721 -0.1774 -0.9839 -1.0543
 6230SOL     OW30151   0.229   0.151   2.027 -0.1138  0.3205 -0.0668
 6230SOL    HW130152   0.267   0.069   1.995 -0.9028 -0.7842  1.8350
 6230SOL    HW230153   0.180   0.119   2.102 -1.9214  0.7962 -1.0496
 6231SOL     OW30154   4.291   0.596   7.491 -0.3981 -0.3577 -0.1353
 6231SOL    HW130155   4.321   0.658   7.558 -0.3205  0.7863 -1.2409
 6231SOL    HW230156   4.199   0.584   7.515  0.2679  1.1671  3.1975
 6232SOL     OW30157   4.567   2.276  15.008 -0.4318  0.3580 -0.5562
 6232SOL    HW130158   4.558   2.252  14.916  1.2031 -0.9936 -0.3683
 6232SOL    HW230159   4.484   2.319  15.029 -1.6631 -0.8924 -2.8753
 6233SOL     OW30160   4.281   0.842   6.660  0.6880  0.4291  0.4996
 6233SOL    HW130161   4.308   0.931   6.682 -0.1203  0.4398  1.4599
 6233SOL    HW230162   4.337   0.814   6.588 -0.1578 -1.7757  0.6823
 6234SOL     OW30163   2.777   0.559   1.289 -0.2589  1.0638 -0.2542
 6234SOL    HW130164   2.866   0.522   1.295 -0.2086  0.7893 -2.6968
 6234SOL    HW230165   2.758   0.568   1.196 -0.7045 -0.9091 -0.3671
 6235SOL     OW30166   0.301   4.473   6.751  0.6957  0.4734  0.0367
 6235SOL    HW130167   0.230   4.409   6.763 -0.5774  1.4112 -2.4527
 6235SOL    HW230168   0.337   4.478   6.839 -0.1838  2.5661  0.2758
 6236SOL     OW30169   1.695   1.560   6.549  0.1311  0.0079 -0.6270
 6236SOL    HW130170   1.778   1.522   6.577 -1.1411 -0.5430  2.4234
 6236SOL    HW230171   1.696   1.532   6.458  0.3461 -0.8930 -0.3513
 6237SOL     OW30172   1.295   4.407  10.726  0.1991  0.0045  0.2866
 6237SOL    HW130173   1.224   4.400  10.661  0.1275  2.1411  0.1380
 6237SOL    HW230174   1.277   4.330  10.780 -0.9000 -0.6184 -0.9607
 6238SOL     OW30175   2.296   2.743   0.072 -0.1726 -0.1972 -0.2158
 6238SOL    HW130176   2.307   2.703   0.158 -1.4051 -0.7128 -0.2903
 6238SOL    HW230177   2.340   2.674   0.022 -0.0248 -0.5137  0.3598
 6239SOL     OW30178   1.629   2.689  17.608 -0.1304  0.3986  0.4773
 6239SOL    HW130179   1.581   2.664  17.528  1.3754 -2.1836  0.3846
 6239SOL    HW230180   1.688   2.754  17.572 -1.1350  1.3055  0.4667
 6240SOL     OW30181   2.017   1.303  14.029 -0.2712  0.2293 -0.3695
 6240SOL    HW130182   2.101   1.285  14.070 -1.0497 -1.4993  0.4950
 6240SOL    HW230183   1.958   1.264  14.095  2.0355 -0.1544  1.4659
 6241SOL     OW30184   0.699   0.660   5.637 -0.3386  0.0472 -0.1200
 6241SOL    HW130185   0.637   0.637   5.568  0.2921 -3.3874  0.5052
 6241SOL    HW230186   0.782   0.635   5.595  1.1648  0.7062  2.4859
 6242SOL     OW30187   2.768   0.386  14.906 -0.0160  0.4539 -0.0013
 6242SOL    HW130188   2.810   0.315  14.858  0.3093  0.5063  0.2015
 6242SOL    HW230189   2.777   0.456  14.842  1.3792  1.3634  1.1986
 6243SOL     OW30190   1.874   3.067   5.043  0.5256  0.2230 -0.2374
 6243SOL    HW130191   1.799   3.010   5.026 -0.0184  0.9628 -0.3269
 6243SOL    HW230192   1.938   3.001   5.070  1.0698 -0.4999 -3.2305
 6244SOL     OW30193   2.004   2.273   4.675 -0.2593 -0.2480  0.3844
 6244SOL    HW130194   1.962   2.248   4.593 -0.8653  0.9720  0.3233
 6244SOL    HW230195   1.968   2.359   4.695  0.8155  0.2265  0.2912
 6245SOL     OW30196   1.620   2.818   8.716 -0.2171  0.1286  0.2609
 6245SOL    HW130197   1.575   2.903   8.714  0.0249  0.2192 -1.0934
 6245SOL    HW230198   1.572   2.769   8.783 -1.1168 -2.2330 -2.1544
 6246SOL     OW30199   0.972   4.031   8.480 -0.7378 -0.5412  0.0197
 6246SOL    HW130200   0.952   3.982   8.560 -0.0692 -0.8381  0.0046
 6246SOL    HW230201   1.068   4.031   8.487 -0.8444 -1.7907  1.4797
 6247SOL     OW30202   1.906   2.411   6.589  0.2378  0.0039 -0.2584
 6247SOL    HW130203   1.823   2.429   6.545 -1.6560  0.0993  3.3131
 6247SOL    HW230204   1.958   2.374   6.518 -1.8717  2.1614 -2.9312
 6248SOL     OW30205   0.887   4.216   8.742 -0.0360 -0.8971 -0.5091
 6248SOL    HW130206   0.969   4.224   8.693 -0.1179 -1.7448 -0.7822
 6248SOL    HW230207   0.863   4.126   8.718 -0.5349 -0.6944 -0.7708
 6249SOL     OW30208   4.139   1.117   1.990 -0.2068 -0.3045 -0.2087
 6249SOL    HW130209   4.172   1.122   1.901 -1.3852  2.0102 -0.5188
 6249SOL    HW230210   4.170   1.029   2.012  0.2872 -0.8503 -3.1898
 6250SOL     OW30211   1.561   1.403   1.751  0.2910 -0.2784  0.1243
 6250SOL    HW130212   1.644   1.369   1.786 -0.6954 -0.9383  1.8390
 6250SOL    HW230213   1.502   1.330   1.770  0.5970 -0.4397  0.4641
 6251SOL     OW30214   2.052   4.419   3.399 -0.6074 -0.1459 -0.2708
 6251SOL    HW130215   1.970   4.382   3.366  0.5880 -2.7569 -0.3452
 6251SOL    HW230216   2.089   4.462   3.322 -1.1351  1.1331  0.2037
 6252SOL     OW30217   3.843   3.287   7.910 -0.1788 -0.1420 -0.2586
 6252SOL    HW130218   3.909   3.230   7.950  0.6586  0.6864 -0.4415
 6252SOL    HW230219   3.767   3.245   7.951 -1.7593  0.8433 -2.2152
 6253SOL     OW30220   0.351   2.175   5.669  0.2121  0.3452  0.1201
 6253SOL    HW130221   0.272   2.194   5.720  2.1067  1.4804  2.5944
 6253SOL    HW230222   0.385   2.113   5.733 -1.5959  0.0191  0.7712
 6254SOL     OW30223   0.075   4.672   8.402 -0.2500 -0.3268  0.5166
 6254SOL    HW130224   0.165   4.671   8.434 -0.4715  0.9288  1.2095
 6254SOL    HW230225   0.028   4.692   8.483 -0.8598 -2.1559  0.6052
 6255SOL     OW30226   3.943   4.681  17.246  0.0235  0.3569  0.4805
 6255SOL    HW130227   3.902   4.655  17.328 -0.3486  0.3697  0.2987
 6255SOL    HW230228   3.867   4.677  17.188 -0.5507  2.7840  1.0888
 6256SOL     OW30229   3.414   0.798   5.759 -0.5230  0.0635 -0.4021
 6256SOL    HW130230   3.361   0.775   5.835  3.6150  1.6403  2.9164
 6256SOL    HW230231   3.353   0.804   5.686 -0.6362 -4.5229 -0.7099
 6257SOL     OW30232   0.648   4.387  16.281  0.0639  0.0758 -0.1498
 6257SOL    HW130233   0.616   4.474  16.259  1.0414  0.7320  1.0313
 6257SOL    HW230234   0.692   4.351  16.204  0.2958  0.6277 -0.2696
 6258SOL     OW30235   3.278   2.392   6.340 -0.3834  0.5923 -0.4749
 6258SOL    HW130236   3.307   2.328   6.275  0.7713  0.8714 -0.2380
 6258SOL    HW230237   3.355   2.386   6.396 -1.1150 -2.7115  0.1654
 6259SOL     OW30238   2.463   0.328  10.046 -0.2999  0.5905  0.4078
 6259SOL    HW130239   2.428   0.400  10.098  0.0451  0.0147  1.4396
 6259SOL    HW230240   2.451   0.260  10.112 -1.2356 -0.2020 -0.5806
 6260SOL     OW30241   2.900   1.089   8.761  0.3460  0.1387  0.1753
 6260SOL    HW130242   2.857   1.071   8.678 -2.5551  0.5177  1.6052
 6260SOL    HW230243   2.854   1.036   8.826 -0.3760 -1.9434 -2.0433
 6261SOL     OW30244   2.566   3.783  10.199  0.5932 -0.9547  0.2486
 6261SOL    HW130245   2.619   3.789  10.279  0.3699 -1.9907  0.4686
 6261SOL    HW230246   2.540   3.874  10.189  0.1774 -0.9494  1.3261
 6262SOL     OW30247   2.845   0.594  14.723  0.0510  0.0934  0.9451
 6262SOL    HW130248   2.763   0.643  14.709  0.3468  0.7495  1.5520
 6262SOL    HW230249   2.855   0.559  14.634 -1.7413  2.7635 -0.3240
 6263SOL     OW30250   2.627   2.933   6.562 -0.4023  0.3500  0.2811
 6263SOL    HW130251   2.576   2.876   6.504  2.8031 -1.2564 -0.9807
 6263SOL    HW230252   2.701   2.873   6.572 -1.0462 -0.8647 -2.3191
 6264SOL     OW30253   1.378   1.265   9.791  0.2068 -0.1382 -0.1181
 6264SOL    HW130254   1.389   1.231   9.702  3.0837 -1.1639  0.6174
 6264SOL    HW230255   1.357   1.187   9.843  1.5212 -0.8963 -0.7220
 6265SOL     OW30256   1.174   1.690   6.993  0.0543  0.1819 -0.0696
 6265SOL    HW130257   1.137   1.626   6.934 -0.8737  0.0860  0.6136
 6265SOL    HW230258   1.117   1.671   7.068  1.2859 -4.2515 -0.2552
 6266SOL     OW30259   1.337   0.166   7.754 -0.4027  0.0355  0.0047
 6266SOL    HW130260   1.250   0.202   7.774 -0.2821 -1.0920  2.5831
 6266SOL    HW230261   1.383   0.227   7.811 -0.4793 -0.1394  0.2532
 6267SOL     OW30262   2.303   3.749  13.722 -0.7571 -0.1158 -0.1389
 6267SOL    HW130263   2.381   3.801  13.739 -0.0109 -0.6031 -2.0789
 6267SOL    HW230264   2.344   3.675  13.677 -0.7228  0.3389 -0.8592
 6268SOL     OW30265   0.213   0.587   2.692 -0.4006  0.5987  0.2365
 6268SOL    HW130266   0.122   0.616   2.702 -1.1633 -1.2815 -1.3302
 6268SOL    HW230267   0.261   0.662   2.726 -1.2277  0.9380  0.6630
 6269SOL     OW30268   1.723   3.712   3.430  0.9335 -0.0247  0.1478
 6269SOL    HW130269   1.754   3.670   3.509 -2.7849  1.0263  2.1790
 6269SOL    HW230270   1.756   3.651   3.364  0.3419  0.8459 -0.9681
 6270SOL     OW30271   3.411   1.739   4.377 -0.0400  0.3381 -0.1317
 6270SOL    HW130272   3.472   1.768   4.310 -0.5968  1.8952  0.0376
 6270SOL    HW230273   3.322   1.738   4.342  0.2699  0.8167 -0.9379
 6271SOL     OW30274   1.594   3.485  11.556 -0.3687  0.0992  0.0137
 6271SOL    HW130275   1.624   3.573  11.581 -0.0082  0.5469 -1.9629
 6271SOL    HW230276   1.608   3.490  11.461  2.5177  1.2470  0.4806
 6272SOL     OW30277   4.199   1.932  12.111 -0.1861 -0.3315 -0.0914
 6272SOL    HW130278   4.208   1.997  12.041 -1.3619 -1.2363 -1.0657
 6272SOL    HW230279   4.172   1.992  12.180  0.0808 -0.0008 -0.2740
 6273SOL     OW30280   1.055   2.087   1.521  0.5383 -0.2285 -0.0059
 6273SOL    HW130281   1.145   2.065   1.496  0.5744  0.4298 -0.4452
 6273SOL    HW230282   1.072   2.150   1.591  1.7153 -0.5717  0.0044
 6274SOL     OW30283   2.550   0.660   6.970 -0.0832 -0.4000  0.1437
 6274SOL    HW130284   2.518   0.624   6.887 -2.0387  1.1382  0.2207
 6274SOL    HW230285   2.505   0.602   7.033  1.5201 -1.8350 -0.0174
 6275SOL     OW30286   3.190   0.072   5.374  0.7965 -0.2540 -0.1407
 6275SOL    HW130287   3.116   0.122   5.338  0.8968  0.5257  0.7365
 6275SOL    HW230288   3.155   4.706   5.357  2.3383 -0.8326 -0.3043
 6276SOL     OW30289   0.188   4.376   1.784 -0.0085 -0.0405  0.3529
 6276SOL    HW130290   0.174   4.347   1.694 -3.3665  1.6106  0.3359
 6276SOL    HW230291   0.102   4.358   1.822 -0.2827 -1.5549 -0.9589
 6277SOL     OW30292   1.804   0.312   8.026  0.7213 -0.0439 -0.1457
 6277SOL    HW130293   1.715   0.290   7.998  0.9130 -1.2346  0.1651
 6277SOL    HW230294   1.851   0.250   7.970  0.2872 -0.5850  0.0845
 6278SOL     OW30295   4.610   0.615   6.345  0.0982  0.0787  0.8196
 6278SOL    HW130296   4.560   0.539   6.372  0.1736  0.6308  2.5151
 6278SOL    HW230297   4.698   0.576   6.347 -0.6740 -1.7397 -1.5326
 6279SOL     OW30298   1.707   0.551   7.638  0.1468 -0.4551 -0.4118
 6279SOL    HW130299   1.622   0.569   7.679 -0.1606 -0.1097 -1.1844
 6279SOL    HW230300   1.678   0.486   7.573  1.7574 -2.1643  0.5999
 6280SOL     OW30301   3.199   3.039   6.009 -0.2042  0.0483  0.3674
 6280SOL    HW130302   3.277   3.013   5.961 -1.7018 -0.0453 -1.9649
 6280SOL    HW230303   3.206   3.133   5.992 -0.6695  0.0870  0.3963
 6281SOL     OW30304   0.429   0.671  10.957  0.5981  0.4918  0.6865
 6281SOL    HW130305   0.374   0.614  11.011  0.2056  0.7254  0.5328
 6281SOL    HW230306   0.505   0.675  11.015 -0.5384  1.2701  2.1338
 6282SOL     OW30307   2.239   4.692   2.463  0.3939  0.1830 -0.1061
 6282SOL    HW130308   2.250   4.697   2.558  0.6495  0.5831 -0.1537
 6282SOL    HW230309   2.278   0.055   2.436 -0.0031  0.1559 -0.7626
 6283SOL     OW30310   2.290   1.019  17.645  0.3206  0.5084 -0.5383
 6283SOL    HW130311   2.347   1.052  17.576  0.3462 -1.1852 -1.3409
 6283SOL    HW230312   2.209   1.065  17.628  0.8614  1.1693 -1.3275
 6284SOL     OW30313   2.374   4.384   2.833  0.1654  0.1967 -0.3732
 6284SOL    HW130314   2.352   4.337   2.752  0.7801  2.2962 -1.7500
 6284SOL    HW230315   2.377   4.309   2.892  0.8802  1.5186  1.2466
 6285SOL     OW30316   4.216   1.510  10.167 -0.4104 -0.3813  0.1403
 6285SOL    HW130317   4.278   1.576  10.199 -0.4413 -0.4836  0.4086
 6285SOL    HW230318   4.177   1.496  10.253 -0.3474  1.0336  0.4006
 6286SOL     OW30319   3.211   3.787   4.961  0.8330  0.6954 -0.4326
 6286SOL    HW130320   3.137   3.795   4.902  1.1251 -1.5733 -1.1252
 6286SOL    HW230321   3.182   3.857   5.020  0.7826  0.4584 -0.1723
 6287SOL     OW30322   0.733   2.199  12.449  0.5058  0.2253  0.1661
 6287SOL    HW130323   0.743   2.157  12.363  0.2156 -2.0348  1.2307
 6287SOL    HW230324   0.796   2.147  12.499  1.0261  1.1310  0.4393
 6288SOL     OW30325   4.014   0.890   4.521  0.3975 -0.6607 -0.6745
 6288SOL    HW130326   3.989   0.829   4.451  0.5883  0.0138 -1.3245
 6288SOL    HW230327   3.942   0.951   4.541  0.1851 -1.3513  0.6747
 6289SOL     OW30328   1.125   3.564  12.167 -0.3764 -0.4588  0.1706
 6289SOL    HW130329   1.097   3.575  12.076  0.2039 -1.3055 -0.1082
 6289SOL    HW230330   1.214   3.531  12.160 -0.3925 -0.8342  1.6143
 6290SOL     OW30331   0.810   2.024   9.778 -0.0797 -0.4136 -0.1274
 6290SOL    HW130332   0.884   1.994   9.832  0.8964  2.0249 -0.1262
 6290SOL    HW230333   0.815   1.970   9.699 -1.2269 -2.3912  1.1356
 6291SOL     OW30334   4.573   3.421  11.034 -0.6752  0.4735 -0.0909
 6291SOL    HW130335   4.570   3.457  11.123  0.3579  0.8510 -0.2151
 6291SOL    HW230336   4.547   3.495  10.980 -1.2482  0.1886 -0.2055
 6292SOL     OW30337   1.255   0.991   9.911  0.4330 -0.4017  0.1842
 6292SOL    HW130338   1.194   1.022   9.844  1.2017  0.0389 -0.3159
 6292SOL    HW230339   1.302   0.932   9.852 -0.9287  1.1906 -2.5128
 6293SOL     OW30340   2.544   0.183   1.002  0.5792 -0.0752  0.1352
 6293SOL    HW130341   2.481   0.233   0.951  0.4122  0.7059  1.1142
 6293SOL    HW230342   2.507   0.192   1.090  0.1989 -2.8220  0.2670
 6294SOL     OW30343   0.586   3.358   4.067 -0.5407  0.4537 -0.3911
 6294SOL    HW130344   0.583   3.414   3.989  1.0278  0.4799 -0.4355
 6294SOL    HW230345   0.612   3.277   4.022 -0.8507 -0.6727  1.4808
 6295SOL     OW30346   4.465   0.174   6.188 -0.4806  0.0418  0.2146
 6295SOL    HW130347   4.383   0.148   6.145  0.5790 -0.6952 -1.3515
 6295SOL    HW230348   4.506   0.194   6.104  0.7926 -1.2310  0.5395
 6296SOL     OW30349   1.049   2.916  12.899 -0.2765  0.4062 -0.0030
 6296SOL    HW130350   0.981   2.947  12.838 -1.0902 -0.0133  0.6903
 6296SOL    HW230351   1.119   2.960  12.850  0.7504 -0.3849  0.7594
 6297SOL     OW30352   2.310   1.038   5.352 -0.2905  0.3539 -0.0497
 6297SOL    HW130353   2.264   0.987   5.286 -0.4161  2.4885 -1.6178
 6297SOL    HW230354   2.346   1.114   5.305 -1.2279  1.3690  0.8923
 6298SOL     OW30355   2.772   2.302   7.492 -0.3680  0.5898 -0.0843
 6298SOL    HW130356   2.739   2.215   7.470  1.3866 -0.5136  1.6418
 6298SOL    HW230357   2.757   2.349   7.410 -2.0636  1.3391  0.6526
 6299SOL     OW30358   3.111   0.000   6.640 -0.1242  0.9633  0.1769
 6299SOL    HW130359   3.106   0.016   6.734  2.2885 -2.0942  0.8426
 6299SOL    HW230360   3.034   0.048   6.610 -0.3563  0.5358  0.0914
 6300SOL     OW30361   3.316   3.641  11.453 -0.0991 -0.0444  0.1692
 6300SOL    HW130362   3.288   3.673  11.367 -0.6679  3.4073  1.6466
 6300SOL    HW230363   3.399   3.607  11.420 -1.3835 -0.6183 -2.5754
 6301SOL     OW30364   0.877   3.391   3.016  0.1423 -0.3962  0.3458
 6301SOL    HW130365   0.878   3.450   2.940  0.8497  0.6802  1.2008
 6301SOL    HW230366   0.946   3.433   3.067  1.9616 -1.0937 -1.5360
 6302SOL     OW30367   2.703   0.707  15.611 -0.5857 -0.0081  0.3105
 6302SOL    HW130368   2.797   0.726  15.608 -0.3870 -1.2788 -1.4222
 6302SOL    HW230369   2.667   0.744  15.531  0.2671 -4.1715 -2.0272
 6303SOL     OW30370   4.180   1.437  11.189 -0.5519  0.4065  0.4923
 6303SOL    HW130371   4.200   1.422  11.281 -2.6371  0.4289  0.9499
 6303SOL    HW230372   4.237   1.383  11.135 -0.3716 -0.2955  1.3930
 6304SOL     OW30373   2.429   3.054  15.500 -0.2416 -0.6358 -0.1364
 6304SOL    HW130374   2.460   3.096  15.420 -1.1141  0.2986  0.0102
 6304SOL    HW230375   2.336   3.076  15.498  0.0735  0.8360  1.2176
 6305SOL     OW30376   2.475   3.737   6.434  0.6715  0.0552  0.0904
 6305SOL    HW130377   2.517   3.661   6.394  3.0933  1.9226 -0.9118
 6305SOL    HW230378   2.389   3.743   6.393  2.3214  1.3131 -3.2094
 6306SOL     OW30379   2.362   2.643  10.681 -0.2031  0.3488 -0.6490
 6306SOL    HW130380   2.285   2.642  10.738 -1.0072 -0.3208 -1.7451
 6306SOL    HW230381   2.345   2.724  10.633 -1.7130  0.4880  0.1176
 6307SOL     OW30382   1.783   1.073  12.605  0.4700  0.2346 -0.3248
 6307SOL    HW130383   1.756   1.015  12.533  0.6371  1.4312 -1.3393
 6307SOL    HW230384   1.859   1.022  12.633 -1.1790 -2.0389  0.0710
 6308SOL     OW30385   1.113   0.756   3.723 -0.0463 -0.0143  0.0428
 6308SOL    HW130386   1.057   0.718   3.655 -1.0773 -0.4892  1.1562
 6308SOL    HW230387   1.198   0.745   3.681  1.4827  0.6161  2.9757
 6309SOL     OW30388   3.861   0.552   2.265  0.0907  0.5861  0.0881
 6309SOL    HW130389   3.827   0.513   2.345  1.9699 -1.9064 -0.3390
 6309SOL    HW230390   3.784   0.603   2.238 -0.5788 -0.0444  0.8239
 6310SOL     OW30391   2.793   2.652   7.330  0.5186 -0.3489  0.0377
 6310SOL    HW130392   2.709   2.647   7.377  0.6586  2.5686  0.5505
 6310SOL    HW230393   2.857   2.686   7.392  0.9683  0.2196 -0.7497
 6311SOL     OW30394   3.965   0.444   7.812 -0.0756 -0.2709  0.4303
 6311SOL    HW130395   3.884   0.393   7.803 -1.0541  0.9559  2.2886
 6311SOL    HW230396   4.000   0.423   7.726 -1.8001  1.1160 -0.6032
 6312SOL     OW30397   1.415   1.135  13.881 -0.1179  0.2685  0.1349
 6312SOL    HW130398   1.474   1.136  13.805 -1.4495 -2.3979 -0.9671
 6312SOL    HW230399   1.473   1.131  13.957 -0.1490 -2.9625  0.0109
 6313SOL     OW30400   1.992   1.833   5.675 -0.0925  0.2795  0.2390
 6313SOL    HW130401   2.038   1.834   5.759 -0.7845  0.3150  0.6262
 6313SOL    HW230402   2.064   1.846   5.614  1.2212  2.4464  2.2504
 6314SOL     OW30403   1.693   2.197   5.206  0.0656 -0.1371 -0.1906
 6314SOL    HW130404   1.750   2.120   5.214  1.1237  0.8898  1.9350
 6314SOL    HW230405   1.613   2.147   5.189  0.4378 -1.0945  0.9286
 6315SOL     OW30406   2.882   1.211   6.543  0.2865  0.3166  0.1721
 6315SOL    HW130407   2.810   1.268   6.518 -0.5029 -0.6206  0.3130
 6315SOL    HW230408   2.959   1.257   6.508  0.8246 -0.8380 -0.1798
 6316SOL     OW30409   2.717   1.822   1.629 -0.2163  0.2652  0.3886
 6316SOL    HW130410   2.652   1.878   1.587  0.5645  1.9294  1.3828
 6316SOL    HW230411   2.777   1.892   1.654  0.8050  0.2589 -2.1083
 6317SOL     OW30412   2.886   3.954   9.121 -0.1721  0.1772 -0.2274
 6317SOL    HW130413   2.970   3.922   9.090 -0.1153 -1.3591  1.5037
 6317SOL    HW230414   2.877   3.902   9.201 -0.9132  0.4986 -0.0991
 6318SOL     OW30415   2.211   0.754   3.879 -0.3088  0.3258  0.3949
 6318SOL    HW130416   2.154   0.797   3.943 -4.0222 -0.9338 -2.0608
 6318SOL    HW230417   2.143   0.736   3.813 -1.7564 -0.6487  2.1470
 6319SOL     OW30418   2.705   3.747  11.472  0.5556 -0.3017 -0.1253
 6319SOL    HW130419   2.746   3.663  11.489  0.6395 -0.5733 -1.6792
 6319SOL    HW230420   2.614   3.721  11.488  0.4162  1.3825  1.9080
 6320SOL     OW30421   2.014   1.769  16.153  0.4261 -0.3055 -0.0911
 6320SOL    HW130422   2.051   1.729  16.074  0.9533  1.4958 -0.7408
 6320SOL    HW230423   1.927   1.779  16.116  1.1724 -2.3822 -2.3959
 6321SOL     OW30424   1.791   2.807   1.384 -0.0523 -0.3431 -0.0269
 6321SOL    HW130425   1.735   2.787   1.309  0.0878 -1.0089  0.0486
 6321SOL    HW230426   1.858   2.740   1.372 -0.1656 -0.5154  0.3020
 6322SOL     OW30427   0.638   0.013  15.995 -0.1679  0.0467  0.0988
 6322SOL    HW130428   0.693   4.683  15.937 -0.3826  1.6286 -1.5000
 6322SOL    HW230429   0.623   0.087  15.936  0.7088 -1.2072 -1.7056
 6323SOL     OW30430   1.927   3.875   0.562 -0.2395  0.2280 -0.2726
 6323SOL    HW130431   1.859   3.909   0.504  0.3330  1.8872  0.0387
 6323SOL    HW230432   2.004   3.912   0.520 -0.3706 -0.8443 -1.4751
 6324SOL     OW30433   1.124   1.793   0.736  0.0344 -0.4739 -0.3328
 6324SOL    HW130434   1.048   1.845   0.764  1.0728  0.6935  0.3240
 6324SOL    HW230435   1.196   1.832   0.787 -2.5786  0.0379  2.9993
 6325SOL     OW30436   2.673   2.106   5.328  0.4386 -0.3800  0.6993
 6325SOL    HW130437   2.633   2.160   5.259  0.8035  0.1290  0.8895
 6325SOL    HW230438   2.735   2.076   5.261  2.1963  2.9514  0.8384
 6326SOL     OW30439   2.272   1.643  15.537  0.2285  0.0517 -0.0607
 6326SOL    HW130440   2.293   1.678  15.451 -2.9510  0.5226 -0.6298
 6326SOL    HW230441   2.296   1.550  15.532  2.8669  0.6838  0.5338
 6327SOL     OW30442   2.956   3.073  15.406  0.0922 -0.2891  0.5658
 6327SOL    HW130443   2.939   3.139  15.474  1.2193  1.9686 -1.3540
 6327SOL    HW230444   3.025   3.013  15.434 -1.7191 -1.9716  1.4524
 6328SOL     OW30445   1.771   4.155   2.718 -0.0087 -0.1750  0.1796
 6328SOL    HW130446   1.747   4.247   2.709 -2.0103 -0.7640 -0.4924
 6328SOL    HW230447   1.768   4.120   2.629  2.1907  3.0134 -1.1661
 6329SOL     OW30448   1.343   4.184  13.776  0.5046 -0.2565 -0.6263
 6329SOL    HW130449   1.399   4.136  13.837  0.1487 -0.6860 -0.6347
 6329SOL    HW230450   1.391   4.184  13.694  0.9295  0.0747 -0.3774
 6330SOL     OW30451   1.081   0.427   0.784 -0.1199  0.1142 -0.3384
 6330SOL    HW130452   1.005   0.470   0.745 -0.7908 -0.0787  0.7534
 6330SOL    HW230453   1.090   0.467   0.870 -0.6512 -2.9587  1.1465
 6331SOL     OW30454   2.392   4.075  13.609  0.0091  0.1773  0.0832
 6331SOL    HW130455   2.394   4.101  13.702 -3.0255 -0.2850  0.2810
 6331SOL    HW230456   2.441   3.993  13.606 -1.3286 -0.5510 -1.6246
 6332SOL     OW30457   2.211   2.374   4.409  0.1402 -0.3748 -0.0831
 6332SOL    HW130458   2.233   2.459   4.372 -0.8315  0.1376  0.5412
 6332SOL    HW230459   2.295   2.333   4.387 -0.2338 -0.2431 -1.7708
 6333SOL     OW30460   3.445   2.254   7.715 -0.0383  0.0361  0.0626
 6333SOL    HW130461   3.458   2.327   7.655 -1.1046  0.0182 -0.1853
 6333SOL    HW230462   3.397   2.302   7.783 -0.5606 -1.3792  0.6990
 6334SOL     OW30463   0.296   0.332   9.136 -0.0074  0.2260  0.4397
 6334SOL    HW130464   0.214   0.346   9.088  0.8390 -1.8871 -1.6750
 6334SOL    HW230465   0.358   0.375   9.077  1.5533 -0.9600  1.1968
 6335SOL     OW30466   4.156   1.850   5.118  0.0938  0.2511  0.5053
 6335SOL    HW130467   4.108   1.924   5.156 -1.5209 -0.7407  0.3994
 6335SOL    HW230468   4.236   1.897   5.097  0.1000  0.4329  0.9364
 6336SOL     OW30469   3.337   3.289   5.963  0.2085 -0.8061  0.4891
 6336SOL    HW130470   3.414   3.347   5.959 -0.7816  0.3795 -1.4564
 6336SOL    HW230471   3.315   3.259   5.875 -0.1355 -1.3827  0.7747
 6337SOL     OW30472   2.558   3.147   4.123 -0.5868  0.3471  0.1191
 6337SOL    HW130473   2.493   3.208   4.157 -2.9215 -1.3585 -1.3705
 6337SOL    HW230474   2.570   3.083   4.193 -0.3483  1.1131  0.7810
 6338SOL     OW30475   0.260   0.708   5.599  0.1551  0.2397 -0.8101
 6338SOL    HW130476   0.336   0.749   5.557  1.1580  0.5688  1.3543
 6338SOL    HW230477   0.260   0.745   5.687 -0.3133  0.0630 -0.7391
 6339SOL     OW30478   0.306   1.501   2.615 -0.6109  0.0145 -0.6220
 6339SOL    HW130479   0.230   1.548   2.580 -1.0697  1.2867  2.0546
 6339SOL    HW230480   0.289   1.418   2.571 -1.6954  1.3298 -2.6894
 6340SOL     OW30481   2.276   2.191   6.823 -0.4129  0.4096  0.1314
 6340SOL    HW130482   2.263   2.176   6.729  1.6181 -1.2087  0.1159
 6340SOL    HW230483   2.252   2.284   6.829 -0.6028  0.3082  0.9119
 6341SOL     OW30484   0.815   1.230   2.124 -0.1165  0.3524  0.1471
 6341SOL    HW130485   0.776   1.290   2.189 -0.3049 -2.3456  2.5109
 6341SOL    HW230486   0.860   1.171   2.184  1.0706  0.4741 -0.6181
 6342SOL     OW30487   1.146   0.920   4.491  0.1253 -0.3033 -0.4056
 6342SOL    HW130488   1.240   0.907   4.507 -0.0453 -0.9761  0.0698
 6342SOL    HW230489   1.105   0.932   4.577  0.2428  0.3577 -0.4429
 6343SOL     OW30490   2.780   0.594   6.686  0.4818 -0.1036  0.1880
 6343SOL    HW130491   2.790   0.499   6.677 -2.6122 -0.6261  2.3351
 6343SOL    HW230492   2.824   0.599   6.771 -0.5569 -0.6446  0.7567
 6344SOL     OW30493   2.267   1.960   0.260 -0.0522 -0.1263  0.3391
 6344SOL    HW130494   2.239   1.882   0.213  1.0379 -0.1078 -0.3443
 6344SOL    HW230495   2.265   1.933   0.352  0.0460 -2.9382 -0.4903
 6345SOL     OW30496   0.104   4.492   3.607 -0.6529  0.0251  0.2346
 6345SOL    HW130497   0.140   4.408   3.636 -0.3134  1.1114  3.0049
 6345SOL    HW230498   0.018   4.468   3.574 -0.0763 -1.6114 -0.0681
 6346SOL     OW30499   3.600   0.545   7.393  0.3848 -0.2060 -0.0192
 6346SOL    HW130500   3.558   0.563   7.477  0.6910 -1.4718  0.4058
 6346SOL    HW230501   3.540   0.589   7.332  0.0299 -1.0466 -0.2832
 6347SOL     OW30502   3.801   4.139   9.493 -0.3089  0.1145  0.0177
 6347SOL    HW130503   3.763   4.224   9.472 -0.1257 -0.2455 -1.8094
 6347SOL    HW230504   3.793   4.153   9.587 -1.1130  1.2893 -0.2291
 6348SOL     OW30505   1.385   2.816   7.140  0.3285  0.1080 -0.0322
 6348SOL    HW130506   1.418   2.738   7.095 -2.0446 -1.1094  0.3376
 6348SOL    HW230507   1.398   2.885   7.074 -1.3374 -1.7502 -2.2965
 6349SOL     OW30508   3.420   3.693   4.347 -0.3915  0.3957 -0.1425
 6349SOL    HW130509   3.463   3.709   4.431  0.9058 -0.3042 -0.6695
 6349SOL    HW230510   3.409   3.782   4.314  0.2517  0.2335 -0.7942
 6350SOL     OW30511   1.400   0.939  14.330  0.7538  0.1998  0.0919
 6350SOL    HW130512   1.321   0.917  14.280  1.0302 -0.6911  0.0593
 6350SOL    HW230513   1.371   0.993  14.404  1.5552  1.1771 -0.3053
 6351SOL     OW30514   2.666   2.644   9.851  0.8226 -0.0494 -0.5663
 6351SOL    HW130515   2.729   2.632   9.780 -0.5657 -0.5967 -1.6850
 6351SOL    HW230516   2.599   2.584   9.819 -1.4327  1.6999  0.9356
 6352SOL     OW30517   2.600   2.475   2.563  0.0299  0.3299  0.1656
 6352SOL    HW130518   2.582   2.386   2.534 -0.3447  0.2518  0.6331
 6352SOL    HW230519   2.573   2.465   2.655 -1.7903  0.4199 -0.3655
 6353SOL     OW30520   4.654   4.179   7.041 -0.2656 -0.6651 -0.3031
 6353SOL    HW130521   4.664   4.140   6.954  2.0718 -1.3482  0.2673
 6353SOL    HW230522   4.718   4.126   7.089 -0.2381 -0.1701  0.2004
 6354SOL     OW30523   1.033   2.948   4.034  0.8480  1.0271 -0.1565
 6354SOL    HW130524   0.979   2.875   4.066  1.1588  0.5006 -0.8276
 6354SOL    HW230525   0.994   2.956   3.947 -2.6232  0.8224  1.3795
 6355SOL     OW30526   3.525   4.705  13.437  0.1831 -0.3360  0.3189
 6355SOL    HW130527   3.507   4.646  13.363  1.0665  1.9001 -1.6814
 6355SOL    HW230528   3.621   4.703  13.446  0.3323 -0.8587 -1.2528
 6356SOL     OW30529   1.145   3.575   1.494  0.0560  0.2455  0.3191
 6356SOL    HW130530   1.165   3.575   1.587  0.5963  0.8784  0.2093
 6356SOL    HW230531   1.227   3.603   1.454 -0.0703  0.6718  0.3602
 6357SOL     OW30532   0.801   2.152   6.586 -0.2012  0.6840  0.1140
 6357SOL    HW130533   0.860   2.208   6.637 -1.1958  0.6735  1.2925
 6357SOL    HW230534   0.848   2.069   6.591 -2.0742 -0.2220  2.9583
 6358SOL     OW30535   2.629   0.198  12.512  0.2029 -0.1651 -0.2763
 6358SOL    HW130536   2.565   0.133  12.483  0.8814 -0.6772 -0.6106
 6358SOL    HW230537   2.702   0.172  12.457  1.3982 -0.9223  1.6669
 6359SOL     OW30538   3.229   0.243   8.358 -0.3450  0.1155  0.5837
 6359SOL    HW130539   3.311   0.224   8.312 -1.6517 -2.7738 -0.5429
 6359SOL    HW230540   3.271   0.263   8.442  0.5462  1.2909 -0.1469
 6360SOL     OW30541   1.389   2.232   7.631 -0.3503 -0.3013  1.4534
 6360SOL    HW130542   1.466   2.180   7.608 -1.2765 -1.5724  1.1452
 6360SOL    HW230543   1.337   2.217   7.551  1.2348  0.7695  0.2157
 6361SOL     OW30544   3.558   4.170  16.080  0.5367 -0.0558 -0.9850
 6361SOL    HW130545   3.545   4.263  16.100 -0.3466 -0.6101  1.0143
 6361SOL    HW230546   3.630   4.145  16.138 -1.6522  0.2107  1.8652
 6362SOL     OW30547   4.210   4.603   8.077 -0.1595 -0.0373 -0.0516
 6362SOL    HW130548   4.159   4.549   8.017 -0.0573 -0.6349  0.3947
 6362SOL    HW230549   4.163   4.600   8.161  0.5176 -0.4205  0.3227
 6363SOL     OW30550   2.736   4.258   4.665 -0.1241  0.1782  0.7694
 6363SOL    HW130551   2.731   4.324   4.596  0.0302  1.9966  2.5077
 6363SOL    HW230552   2.745   4.181   4.608  3.7946 -0.7247  2.5631
 6364SOL     OW30553   0.785   2.891   7.545 -0.0219 -0.2173  0.0949
 6364SOL    HW130554   0.759   2.965   7.491 -0.5705 -2.2202 -2.3582
 6364SOL    HW230555   0.787   2.936   7.630  2.3349 -1.4095  0.6780
 6365SOL     OW30556   3.116   4.690   3.859 -0.2967 -0.1905  0.3221
 6365SOL    HW130557   3.113   4.717   3.767 -0.9744 -2.6161 -0.3890
 6365SOL    HW230558   3.114   4.595   3.843 -2.7889 -0.0072 -0.5936
 6366SOL     OW30559   0.697   4.669   8.289  0.7025 -0.6387 -0.1832
 6366SOL    HW130560   0.634   4.600   8.269  0.6609 -0.6292 -0.0881
 6366SOL    HW230561   0.778   4.621   8.309 -0.2202 -2.0978  0.0535
 6367SOL     OW30562   3.855   3.973   5.727 -0.0640  0.1486  0.3937
 6367SOL    HW130563   3.901   3.903   5.773 -1.5187 -2.4072 -2.0691
 6367SOL    HW230564   3.883   4.049   5.779  0.9865  1.0711 -1.5414
 6368SOL     OW30565   3.078   0.721   3.456  0.4644 -0.4236 -0.3416
 6368SOL    HW130566   3.021   0.653   3.491  1.0157 -0.2516  0.8888
 6368SOL    HW230567   3.046   0.796   3.506 -0.8288 -0.6980 -0.7610
 6369SOL     OW30568   2.076   1.652  15.910  0.1298  0.4658  0.3340
 6369SOL    HW130569   2.033   1.632  15.826  2.0713  0.1631 -0.5860
 6369SOL    HW230570   2.145   1.586  15.915  0.0598  0.4331  0.8692
 6370SOL     OW30571   1.333   3.219   9.262  0.3936 -0.2028  0.6372
 6370SOL    HW130572   1.295   3.134   9.241 -0.5042  0.0258  1.3006
 6370SOL    HW230573   1.258   3.278   9.253 -0.7891 -1.6291  1.2000
 6371SOL     OW30574   1.949   0.066   8.932  0.1988 -0.3360  0.0123
 6371SOL    HW130575   1.979   0.133   8.870  0.1202  0.8367  1.2424
 6371SOL    HW230576   2.030   0.018   8.950  1.3506  1.4964 -0.2389
 6372SOL     OW30577   2.706   2.367  15.612 -0.3616  0.0864 -0.0085
 6372SOL    HW130578   2.660   2.437  15.566 -0.9963  0.0424  0.5523
 6372SOL    HW230579   2.633   2.346  15.671 -0.3740 -2.0794 -0.7848
 6373SOL     OW30580   4.047   4.524  16.075 -0.1808 -0.1972  0.2661
 6373SOL    HW130581   4.136   4.494  16.092  0.5302  1.7997  0.0837
 6373SOL    HW230582   4.055   4.619  16.075  0.3465 -0.2410  1.5403
 6374SOL     OW30583   1.551   2.783   9.955 -0.0832 -0.1649  0.3774
 6374SOL    HW130584   1.530   2.876   9.962 -0.2966 -0.0509 -1.6258
 6374SOL    HW230585   1.577   2.781   9.863 -0.7095 -0.6602  0.2109
 6375SOL     OW30586   3.019   4.331   5.558 -0.4323 -0.5717 -0.0586
 6375SOL    HW130587   3.007   4.394   5.487 -1.9334  0.0972  0.7732
 6375SOL    HW230588   3.026   4.386   5.637  0.3611 -0.9717  0.1448
 6376SOL     OW30589   2.983   1.542  11.255  0.0925  0.1636 -0.4843
 6376SOL    HW130590   2.911   1.600  11.229  1.0427  1.4035 -0.3809
 6376SOL    HW230591   2.947   1.522  11.341  1.3388  0.7463  0.1839
 6377SOL     OW30592   1.285   2.514  14.962  0.3360  0.2026 -0.2627
 6377SOL    HW130593   1.362   2.569  14.976  0.2760 -0.2544  1.9168
 6377SOL    HW230594   1.238   2.533  15.043  2.3637  3.6577  0.0850
 6378SOL     OW30595   1.339   0.094   6.030  0.0430  0.2445  0.0581
 6378SOL    HW130596   1.261   0.053   5.991 -0.1361  1.5893 -1.0032
 6378SOL    HW230597   1.303   0.166   6.083 -0.8309  1.0328 -1.5770
 6379SOL     OW30598   1.693   2.646   6.335  0.4388  0.3847  0.1902
 6379SOL    HW130599   1.666   2.566   6.290 -0.8298  1.6220 -1.2473
 6379SOL    HW230600   1.673   2.610   6.422  1.9334 -2.2813 -0.5696
 6380SOL     OW30601   3.827   4.531   7.984 -0.0751  0.1962  0.0005
 6380SOL    HW130602   3.733   4.529   7.999  0.8814  0.2645  5.9137
 6380SOL    HW230603   3.854   4.545   8.075  0.7274  2.3859 -0.5760
 6381SOL     OW30604   3.880   2.136   9.842  0.1508  0.0248 -0.7980
 6381SOL    HW130605   3.883   2.211   9.783  1.6738 -0.9347 -1.9587
 6381SOL    HW230606   3.975   2.129   9.857 -0.2825 -2.5519  0.6819
 6382SOL     OW30607   4.617   2.677   3.704  0.6258 -0.4700  0.1798
 6382SOL    HW130608   4.573   2.710   3.626  2.4822  0.1102 -0.6207
 6382SOL    HW230609   4.707   2.660   3.675  1.1943 -0.0605  1.7269
 6383SOL     OW30610   0.958   4.496   3.071  0.2779 -0.6601 -0.3443
 6383SOL    HW130611   0.869   4.527   3.086  0.2797  0.2794 -2.4015
 6383SOL    HW230612   0.935   4.406   3.048 -0.2695 -1.2902  2.6950
 6384SOL     OW30613   1.811   4.632  11.567 -0.4162 -0.7947 -0.7410
 6384SOL    HW130614   1.780   4.701  11.625  0.2930 -2.1560  1.2867
 6384SOL    HW230615   1.777   4.674  11.488  1.4967  0.4410 -0.9050
 6385SOL     OW30616   0.699   0.270   4.067 -0.3167 -0.3435 -0.7734
 6385SOL    HW130617   0.670   0.318   3.990 -1.5024 -1.5451 -1.0649
 6385SOL    HW230618   0.761   0.202   4.042  0.3786  0.8803 -2.3551
 6386SOL     OW30619   3.813   1.488   9.361  0.2709 -0.0258 -0.0385
 6386SOL    HW130620   3.860   1.541   9.296  0.0203  2.1571  1.5500
 6386SOL    HW230621   3.886   1.454   9.414 -0.5235 -0.4263  0.8138
 6387SOL     OW30622   1.375   4.492   9.913 -0.2450 -0.0617  0.1106
 6387SOL    HW130623   1.429   4.426   9.956  2.2159  1.8874  0.0798
 6387SOL    HW230624   1.373   4.465   9.821 -2.2626 -1.9177  0.7199
 6388SOL     OW30625   0.257   2.767   7.446 -0.1444 -0.5633 -0.5044
 6388SOL    HW130626   0.340   2.772   7.400  0.5740  2.7429  1.0888
 6388SOL    HW230627   0.226   2.685   7.409 -2.4245  0.0314  0.0376
 6389SOL     OW30628   3.192   0.711   8.232  0.4063 -0.1124 -0.3394
 6389SOL    HW130629   3.155   0.710   8.144 -1.6003  1.8373  0.4768
 6389SOL    HW230630   3.116   0.686   8.285 -0.0998 -1.9060 -1.9243
 6390SOL     OW30631   3.433   1.657   3.718 -0.6613 -0.0057  0.4436
 6390SOL    HW130632   3.410   1.663   3.811 -2.7726 -1.0826  0.0146
 6390SOL    HW230633   3.375   1.725   3.683 -1.6808 -0.9313  0.3106
 6391SOL     OW30634   2.829   3.457  17.613 -0.0327 -0.2992 -0.3632
 6391SOL    HW130635   2.755   3.403  17.586 -0.3593 -0.6195  1.2166
 6391SOL    HW230636   2.841   3.492  17.524 -0.5238  1.5322  0.3056
 6392SOL     OW30637   1.660   3.407  17.315 -1.0960  0.2978 -0.2488
 6392SOL    HW130638   1.577   3.416  17.268 -0.0360  0.5686 -2.0920
 6392SOL    HW230639   1.662   3.311  17.315 -2.6422  0.2621 -0.4762
 6393SOL     OW30640   1.666   4.714   6.384  0.5924  0.5715 -0.4649
 6393SOL    HW130641   1.677   4.711   6.289 -0.7552 -0.0722 -0.5890
 6393SOL    HW230642   1.756   0.006   6.415  0.5227  0.9368 -0.4169
 6394SOL     OW30643   1.035   2.486   2.900  0.3054 -0.0699 -0.0395
 6394SOL    HW130644   1.101   2.552   2.878  2.3991 -2.0943  0.2722
 6394SOL    HW230645   0.978   2.514   2.828 -0.5053 -0.4888  0.4355
 6395SOL     OW30646   2.412   1.098   2.488 -0.4190  0.0386  0.0160
 6395SOL    HW130647   2.405   1.149   2.569  1.3178  0.4361 -0.0848
 6395SOL    HW230648   2.324   1.075   2.460 -0.9731  1.1142  0.8502
 6396SOL     OW30649   1.328   0.885   9.638  0.2966  0.8445 -0.4498
 6396SOL    HW130650   1.299   0.852   9.553 -2.8108 -0.8958  1.2844
 6396SOL    HW230651   1.417   0.899   9.605  1.3425 -2.4499  0.9550
 6397SOL     OW30652   4.149   0.858   5.167 -0.3502 -0.0717 -0.1712
 6397SOL    HW130653   4.061   0.889   5.190 -0.0808  1.4208 -1.1726
 6397SOL    HW230654   4.190   0.942   5.184  0.3305 -0.2893 -0.7571
 6398SOL     OW30655   4.215   3.841  15.190  0.5147 -0.1483  0.3922
 6398SOL    HW130656   4.246   3.898  15.120 -1.0457 -0.5896 -0.6548
 6398SOL    HW230657   4.203   3.907  15.258  1.7201  1.0623 -0.5862
 6399SOL     OW30658   2.701   4.126  12.500 -0.9305 -0.4260  0.8714
 6399SOL    HW130659   2.622   4.163  12.537 -2.4149 -0.6975 -2.0208
 6399SOL    HW230660   2.752   4.198  12.463 -1.0758 -1.3391 -1.1239
 6400SOL     OW30661   1.548   1.776   8.676  0.1451 -0.2473 -0.1349
 6400SOL    HW130662   1.593   1.851   8.714  0.8970 -0.0540 -1.3969
 6400SOL    HW230663   1.560   1.794   8.583 -2.4453 -2.0003 -0.8118
 6401SOL     OW30664   4.524   1.386  15.970  0.0892  0.1756 -0.4727
 6401SOL    HW130665   4.474   1.332  15.909  0.4412 -0.3801 -0.2678
 6401SOL    HW230666   4.567   1.443  15.906 -1.0125  0.0115 -1.3592
 6402SOL     OW30667   3.234   2.089  15.610 -0.5237  0.1953  0.1973
 6402SOL    HW130668   3.271   2.008  15.575 -1.9557 -1.1768  1.8974
 6402SOL    HW230669   3.225   2.141  15.530  0.1590 -0.2899 -0.1983
 6403SOL     OW30670   0.614   1.391   5.651 -0.1205  0.8125  0.5199
 6403SOL    HW130671   0.699   1.371   5.612 -1.4163  0.5210 -2.1490
 6403SOL    HW230672   0.555   1.364   5.581  0.5961  0.2422  0.1332
 6404SOL     OW30673   1.355   2.461   2.698  0.0080 -0.4211 -0.0248
 6404SOL    HW130674   1.399   2.450   2.782  1.2396 -0.6571 -0.7078
 6404SOL    HW230675   1.301   2.540   2.708  3.6903  1.9430  0.8743
 6405SOL     OW30676   3.903   2.058  10.765 -0.1134  0.2453  0.0753
 6405SOL    HW130677   3.944   2.077  10.850 -0.5653 -0.1942  0.3866
 6405SOL    HW230678   3.943   2.119  10.702 -2.5236 -0.0992 -1.7628
 6406SOL     OW30679   1.529   4.261   9.994 -0.0359 -0.3655  0.3970
 6406SOL    HW130680   1.589   4.228  10.060  2.8013  1.7752 -1.1423
 6406SOL    HW230681   1.455   4.203  10.014 -0.4331 -0.3231 -0.9138
 6407SOL     OW30682   2.399   2.720   3.976  0.5005 -0.3850 -0.1684
 6407SOL    HW130683   2.428   2.726   3.885 -1.7624 -2.4768 -1.0316
 6407SOL    HW230684   2.354   2.803   3.987  0.0736 -0.6095 -0.2215
 6408SOL     OW30685   1.282   0.521  10.982  0.5443 -0.1560  0.4609
 6408SOL    HW130686   1.288   0.534  10.888  0.1572  2.5446  0.8180
 6408SOL    HW230687   1.257   0.607  11.016  1.1875 -0.8421  2.7172
 6409SOL     OW30688   2.109   3.885   6.031  0.2442  0.3890 -0.1669
 6409SOL    HW130689   2.179   3.948   6.047  0.1747  0.1126  1.2640
 6409SOL    HW230690   2.051   3.910   6.103 -0.2208  0.8173 -0.6972
 6410SOL     OW30691   0.778   4.202   1.407 -0.2920 -0.8394 -0.2527
 6410SOL    HW130692   0.869   4.217   1.383 -0.5037 -0.4361 -0.8081
 6410SOL    HW230693   0.734   4.173   1.327 -0.0412 -0.8575 -0.3852
 6411SOL     OW30694   3.880   1.826   4.232 -0.3566 -0.4573  0.0339
 6411SOL    HW130695   3.923   1.766   4.171  1.1912 -0.0003  0.6665
 6411SOL    HW230696   3.827   1.771   4.289 -0.2584  0.0556  0.6159
 6412SOL     OW30697   2.007   4.351   3.082 -0.2421  0.3675 -0.0945
 6412SOL    HW130698   2.054   4.434   3.072 -1.0791  1.1401  2.4245
 6412SOL    HW230699   1.915   4.378   3.089 -0.2492  0.6391 -1.1244
 6413SOL     OW30700   2.069   3.883  13.800 -0.4932 -0.0391  0.3716
 6413SOL    HW130701   2.153   3.845  13.775 -0.7696  0.9530 -2.0885
 6413SOL    HW230702   2.107   3.957  13.847 -1.2298 -0.2930  1.3602
 6414SOL     OW30703   1.265   2.367   8.221 -0.4152  0.3705 -0.6958
 6414SOL    HW130704   1.270   2.300   8.289  1.5288  0.0709 -1.1181
 6414SOL    HW230705   1.356   2.395   8.212  0.0631 -1.2058 -0.6992
 6415SOL     OW30706   4.167   3.164  11.738  0.3768  0.2578  0.0636
 6415SOL    HW130707   4.217   3.166  11.819 -1.5190 -0.7789  1.2655
 6415SOL    HW230708   4.177   3.073  11.709  0.6577  1.0657 -2.3378
 6416SOL     OW30709   1.245   3.966   6.017  0.2743  0.6279 -0.1804
 6416SOL    HW130710   1.176   4.032   6.018 -1.5896 -1.2939 -0.2951
 6416SOL    HW230711   1.324   4.019   6.029 -0.2960  0.6477  3.7000
 6417SOL     OW30712   3.683   0.902   9.688  0.1851  0.0106 -0.8619
 6417SOL    HW130713   3.607   0.862   9.646 -1.4174  1.1626  0.9348
 6417SOL    HW230714   3.669   0.888   9.782 -1.4580 -2.2869 -1.4594
 6418SOL     OW30715   4.073   2.789   7.327  0.2452 -0.7662 -0.4642
 6418SOL    HW130716   4.150   2.846   7.336  0.6703 -1.6865  1.5628
 6418SOL    HW230717   4.008   2.859   7.331  1.7512  0.6739 -0.8328
 6419SOL     OW30718   2.815   4.000   5.875  0.0359 -0.1993 -0.5702
 6419SOL    HW130719   2.879   3.933   5.851 -2.5013 -2.8742  0.2415
 6419SOL    HW230720   2.781   4.017   5.788 -2.4398  1.3704  0.7226
 6420SOL     OW30721   4.674   2.224   7.992 -0.3505  0.8338 -0.2629
 6420SOL    HW130722   0.038   2.181   7.991  0.0478  1.6349 -0.6970
 6420SOL    HW230723   4.612   2.151   7.998 -0.5581  0.9597 -0.8671
 6421SOL     OW30724   3.154   3.501   3.213  0.1040 -0.0829 -0.1073
 6421SOL    HW130725   3.079   3.557   3.196 -0.2017  0.3433  2.6064
 6421SOL    HW230726   3.155   3.490   3.308 -2.2543 -1.9879 -0.2906
 6422SOL     OW30727   1.450   3.361  17.092  0.0509  1.1080  0.9206
 6422SOL    HW130728   1.483   3.440  17.048  0.7903  1.1235  1.4873
 6422SOL    HW230729   1.414   3.305  17.024  2.2580 -1.4364  1.8765
 6423SOL     OW30730   0.607   3.123   3.404 -0.0811 -0.5941 -0.1743
 6423SOL    HW130731   0.667   3.049   3.399  0.8836 -0.0314  3.3255
 6423SOL    HW230732   0.538   3.102   3.341  0.3043 -2.8816  0.1914
 6424SOL     OW30733   2.880   2.360  10.721 -0.1027 -0.2742  0.2825
 6424SOL    HW130734   2.821   2.415  10.669  3.4934  0.2391 -3.2112
 6424SOL    HW230735   2.834   2.359  10.805 -1.9946 -0.4729 -0.7529
 6425SOL     OW30736   1.503   2.459   2.943  0.2135 -0.6152 -0.2640
 6425SOL    HW130737   1.589   2.486   2.909 -0.6126  0.0487 -1.8345
 6425SOL    HW230738   1.528   2.373   2.977 -3.2523 -2.1620 -1.6771
 6426SOL     OW30739   4.237   0.522  17.668 -1.1815  0.0160 -0.5032
 6426SOL    HW130740   4.257   0.485  17.582  3.7738 -0.4451  0.8849
 6426SOL    HW230741   4.144   0.518   0.005 -1.4632 -1.0305 -1.7241
 6427SOL     OW30742   1.995   0.735   4.990  0.2254 -0.2916 -0.5563
 6427SOL    HW130743   1.985   0.757   4.898 -0.6360 -0.4555 -0.5027
 6427SOL    HW230744   2.020   0.815   5.037  1.4926  0.7293 -2.9683
 6428SOL     OW30745   0.776   0.987   7.556  0.3287 -0.5078 -0.0094
 6428SOL    HW130746   0.812   0.923   7.495  0.1518 -1.7281  1.1892
 6428SOL    HW230747   0.855   0.998   7.609 -1.3464  1.5287  2.1136
 6429SOL     OW30748   3.826   0.813   4.751  0.1337 -0.1642 -0.1966
 6429SOL    HW130749   3.819   0.804   4.656 -1.5488  1.5112 -0.2225
 6429SOL    HW230750   3.775   0.738   4.782 -2.0369  1.0326 -0.9132
 6430SOL     OW30751   3.371   2.341  14.148  0.2591 -0.4694  0.3704
 6430SOL    HW130752   3.448   2.332  14.092  0.8034  1.4374  0.8242
 6430SOL    HW230753   3.308   2.291  14.096  1.0097 -0.3176 -0.6847
 6431SOL     OW30754   3.295   1.899  13.365  0.5335  0.3677 -0.3436
 6431SOL    HW130755   3.320   1.827  13.423 -0.0947 -1.2509 -2.1308
 6431SOL    HW230756   3.248   1.859  13.293  2.1829 -0.8517 -0.7387
 6432SOL     OW30757   0.946   3.681   6.954 -0.5202  0.6019  0.1189
 6432SOL    HW130758   0.946   3.606   7.014 -0.8834 -2.4484 -3.7166
 6432SOL    HW230759   1.034   3.685   6.918 -0.1783 -1.0040  0.7724
 6433SOL     OW30760   3.784   2.524   3.741  0.0487  0.3743 -0.1988
 6433SOL    HW130761   3.754   2.479   3.662  1.2975  0.8395 -0.9366
 6433SOL    HW230762   3.778   2.457   3.809  0.5135  1.6136  1.0780
 6434SOL     OW30763   3.544   1.373  16.984  0.6928 -0.2928  0.4173
 6434SOL    HW130764   3.535   1.405  17.073  0.2572 -1.2788  0.7265
 6434SOL    HW230765   3.532   1.279  16.992  0.8275 -0.3295  0.1793
 6435SOL     OW30766   3.340   1.078   8.298  0.1391  0.1584  0.1523
 6435SOL    HW130767   3.266   1.077   8.358 -1.9442 -1.5122 -2.4628
 6435SOL    HW230768   3.320   1.152   8.240 -0.3896  0.4039  0.6490
 6436SOL     OW30769   0.665   2.432  11.972 -0.3858  0.0791 -0.0654
 6436SOL    HW130770   0.639   2.367  11.907  1.5280 -0.3330 -0.4018
 6436SOL    HW230771   0.741   2.473  11.932 -0.1484 -0.3878 -0.0823
 6437SOL     OW30772   0.554   1.851   4.012  0.4475 -0.6968 -0.4282
 6437SOL    HW130773   0.489   1.782   3.997 -0.7370  0.3396 -0.0088
 6437SOL    HW230774   0.616   1.792   4.055  0.4256 -0.7464 -0.4637
 6438SOL     OW30775   3.025   0.454  15.533  0.4921 -0.4104 -0.2238
 6438SOL    HW130776   3.103   0.460  15.589  1.3740 -2.4683 -1.2055
 6438SOL    HW230777   3.030   0.360  15.513  1.2915 -0.4083 -0.0203
 6439SOL     OW30778   0.555   0.106   3.715  0.6541 -0.3572 -0.0687
 6439SOL    HW130779   0.479   0.078   3.664 -0.0228  0.1307  0.6805
 6439SOL    HW230780   0.551   0.048   3.791 -0.3663 -0.4478 -0.1975
 6440SOL     OW30781   3.465   4.232   9.212  0.0346  0.5072 -0.0898
 6440SOL    HW130782   3.382   4.257   9.172 -1.1910 -0.1149  2.0266
 6440SOL    HW230783   3.442   4.144   9.244  2.3178 -0.0334  0.0946
 6441SOL     OW30784   2.942   3.810  13.214 -0.4095  0.2729 -0.3661
 6441SOL    HW130785   2.986   3.733  13.250  1.5020  0.8322 -1.5168
 6441SOL    HW230786   3.008   3.865  13.171  0.4905  0.8971  1.7934
 6442SOL     OW30787   1.954   4.282   8.375  0.1688  0.3006  0.1384
 6442SOL    HW130788   1.951   4.246   8.463 -0.2138  0.0971  0.0427
 6442SOL    HW230789   1.863   4.287   8.345  0.2843  1.1783 -0.0668
 6443SOL     OW30790   0.517   1.526   2.940  0.5388 -0.1453 -0.0492
 6443SOL    HW130791   0.422   1.520   2.939  0.4645  0.6981  1.8314
 6443SOL    HW230792   0.547   1.514   3.030  1.9437  2.0029 -0.2399
 6444SOL     OW30793   1.926   4.554  10.141 -1.3329 -0.0839  0.1580
 6444SOL    HW130794   1.988   4.486  10.117 -0.6394  0.1380  1.3347
 6444SOL    HW230795   1.990   4.623  10.162 -1.0780 -0.5338  0.8481
 6445SOL     OW30796   2.235   0.130   3.131  0.1047 -0.3807 -0.3098
 6445SOL    HW130797   2.306   0.191   3.151 -1.2831 -0.1637  3.8323
 6445SOL    HW230798   2.260   0.100   3.043 -0.1642 -0.0457 -0.5005
 6446SOL     OW30799   2.853   1.028   4.459 -0.0879 -0.6147  0.2644
 6446SOL    HW130800   2.794   1.072   4.521 -1.1548 -2.2724  0.4437
 6446SOL    HW230801   2.836   0.936   4.479  0.3186 -0.8837 -0.6287
 6447SOL     OW30802   3.719   3.875   0.033 -0.0529 -0.1245 -0.0250
 6447SOL    HW130803   3.678   3.961   0.024  1.8468  0.5323 -2.2492
 6447SOL    HW230804   3.645   3.830   0.075 -1.4844  2.4446  0.2081
 6448SOL     OW30805   1.290   1.314   8.039 -0.3121 -0.4075  0.7473
 6448SOL    HW130806   1.315   1.284   8.127  0.7860 -2.1793 -0.1666
 6448SOL    HW230807   1.196   1.309   8.058 -0.3706 -0.9567  0.3120
 6449SOL     OW30808   2.081   3.324   4.383  0.3004 -0.9257  0.7879
 6449SOL    HW130809   2.110   3.249   4.332 -0.2839 -0.2163 -0.5703
 6449SOL    HW230810   2.131   3.309   4.463  1.3128 -1.5663  0.0264
 6450SOL     OW30811   2.436   3.739   2.386 -0.9843 -0.1706  0.3301
 6450SOL    HW130812   2.499   3.671   2.360 -0.4150  0.7453 -0.6496
 6450SOL    HW230813   2.373   3.753   2.316  2.3773 -0.0989 -2.6829
 6451SOL     OW30814   3.397   0.405   4.480 -0.1579  0.8051 -0.0618
 6451SOL    HW130815   3.382   0.341   4.550  0.0554 -0.3328 -1.0592
 6451SOL    HW230816   3.374   0.488   4.520 -1.5843  0.6993 -0.6812
 6452SOL     OW30817   4.612   0.635   7.658 -0.1191 -0.4274 -0.6057
 6452SOL    HW130818   4.566   0.551   7.652 -1.0993  0.0832 -0.0507
 6452SOL    HW230819   4.544   0.698   7.677  1.5994  1.3387 -0.3391
 6453SOL     OW30820   4.699   0.489   5.275 -0.0604 -0.1663  0.4203
 6453SOL    HW130821   0.033   0.561   5.306  0.0575  0.3712 -1.0033
 6453SOL    HW230822   4.699   0.500   5.180 -1.4896  1.9266  0.6572
 6454SOL     OW30823   1.476   0.297   4.794 -0.5458 -0.4644  0.0970
 6454SOL    HW130824   1.426   0.296   4.713 -0.0120  0.6761 -0.2529
 6454SOL    HW230825   1.496   0.203   4.795 -1.5591 -0.6767 -0.3551
 6455SOL     OW30826   1.072   3.869   5.634 -0.6300  0.0322 -0.2615
 6455SOL    HW130827   1.154   3.876   5.584 -0.5464 -0.8505 -0.2465
 6455SOL    HW230828   1.106   3.866   5.723 -0.5396  0.3206 -0.2878
 6456SOL     OW30829   4.389   3.351   8.403 -0.3022 -0.7836 -0.4309
 6456SOL    HW130830   4.397   3.271   8.455  0.3942  0.5506  1.5101
 6456SOL    HW230831   4.301   3.337   8.367 -0.3839  0.0800 -0.5556
 6457SOL     OW30832   1.085   1.905   4.006  0.2397  0.1329 -0.4623
 6457SOL    HW130833   1.137   1.941   3.934  0.2590  2.3530  0.6257
 6457SOL    HW230834   0.999   1.895   3.966  0.2834 -0.0255 -0.5156
 6458SOL     OW30835   2.505   1.411  14.194  0.1201  0.6136 -0.2427
 6458SOL    HW130836   2.580   1.457  14.157  1.2811  0.0606  1.3844
 6458SOL    HW230837   2.448   1.485  14.212 -0.5389 -0.0354  0.3772
 6459SOL     OW30838   0.805   2.138   2.593  0.4530  0.5877 -0.2900
 6459SOL    HW130839   0.873   2.198   2.562  0.3494  0.6102 -0.4712
 6459SOL    HW230840   0.728   2.194   2.593 -0.5533 -0.8122 -3.2746
 6460SOL     OW30841   1.823   2.692   0.797  0.2570 -0.2514  0.1031
 6460SOL    HW130842   1.871   2.768   0.831 -1.0594  0.5368  0.1950
 6460SOL    HW230843   1.735   2.729   0.798 -0.3776 -1.7761  1.3607
 6461SOL     OW30844   0.857   2.575   7.871 -0.2135  0.0301 -0.0745
 6461SOL    HW130845   0.904   2.575   7.787  0.1210  1.8046  0.1146
 6461SOL    HW230846   0.914   2.625   7.930 -1.8199 -0.0269  1.5192
 6462SOL     OW30847   3.960   4.705   2.863 -0.1536 -0.0372 -0.4032
 6462SOL    HW130848   3.898   0.010   2.795 -0.2782  0.7390  0.0027
 6462SOL    HW230849   4.007   4.638   2.815 -0.8430 -1.9524  1.5855
 6463SOL     OW30850   1.592   0.675  16.580 -0.3793  0.2338  0.1603
 6463SOL    HW130851   1.510   0.703  16.539 -0.0470 -0.4083 -0.9350
 6463SOL    HW230852   1.588   0.722  16.663  0.8490  1.9559 -0.7724
 6464SOL     OW30853   0.880   2.726   4.115  0.3129  0.5854 -0.1562
 6464SOL    HW130854   0.815   2.751   4.181  2.2099 -1.2352  2.4277
 6464SOL    HW230855   0.889   2.634   4.139 -0.4304 -0.2831 -3.2627
 6465SOL     OW30856   3.069   3.600   9.523 -0.5884  0.0040 -0.2529
 6465SOL    HW130857   3.132   3.528   9.533 -0.8785 -0.3226 -0.7772
 6465SOL    HW230858   3.058   3.623   9.616 -1.4472  0.2333 -0.4169
 6466SOL     OW30859   1.107   2.035  15.427  0.3666  0.3924 -1.1072
 6466SOL    HW130860   1.110   2.112  15.484 -0.9503  0.7329 -1.5149
 6466SOL    HW230861   1.048   2.067  15.360 -0.5964 -0.6686 -0.7672
 6467SOL     OW30862   0.406   3.511   8.058  0.2213  0.0595 -0.5330
 6467SOL    HW130863   0.380   3.545   8.144 -2.0150 -1.1243 -0.7246
 6467SOL    HW230864   0.384   3.418   8.070  1.2460 -0.2958 -1.3560
 6468SOL     OW30865   0.580   4.539  13.209  0.1647  0.6943 -0.5730
 6468SOL    HW130866   0.649   4.479  13.240  0.5336  2.2245  1.5763
 6468SOL    HW230867   0.534   4.478  13.151 -0.1272 -0.3346  0.7221
 6469SOL     OW30868   2.725   1.112   6.749  0.3116 -0.4609 -0.1939
 6469SOL    HW130869   2.753   1.146   6.664  1.6254  0.3366  0.5582
 6469SOL    HW230870   2.703   1.192   6.795 -0.8711 -1.8438  1.6570
 6470SOL     OW30871   3.622   1.294   5.070 -0.1285  0.0916 -0.2121
 6470SOL    HW130872   3.607   1.200   5.078  2.1145 -0.1628  1.1431
 6470SOL    HW230873   3.672   1.304   5.151  1.5791  1.4643 -1.4383
 6471SOL     OW30874   0.968   1.949   1.874  0.2905  0.6298  0.2388
 6471SOL    HW130875   0.975   2.002   1.953 -0.5521  1.8554 -0.5083
 6471SOL    HW230876   1.049   1.898   1.870 -0.0221  0.2876 -2.0122
 6472SOL     OW30877   3.227   3.365   6.422  0.5304  0.2693  0.5430
 6472SOL    HW130878   3.144   3.368   6.468  0.2839  0.6467  0.0781
 6472SOL    HW230879   3.200   3.326   6.339  0.1725  3.1752 -0.7316
 6473SOL     OW30880   4.271   4.477   2.186  0.3746  0.8016  0.1851
 6473SOL    HW130881   4.230   4.404   2.232  1.8485  0.5692  1.1218
 6473SOL    HW230882   4.338   4.499   2.251  1.7356  1.2314 -1.3693
 6474SOL     OW30883   3.127   4.537   4.174 -0.7188 -0.3955 -0.7995
 6474SOL    HW130884   3.145   4.474   4.104 -0.0904 -2.2812  1.0673
 6474SOL    HW230885   3.155   4.621   4.137  0.8451 -0.2088  0.7860
 6475SOL     OW30886   4.672   4.376   9.126 -0.1268 -0.0714  0.1915
 6475SOL    HW130887   4.610   4.397   9.057 -1.5866 -2.1962  0.8689
 6475SOL    HW230888   0.014   4.337   9.065 -0.9505 -0.6002 -0.3194
 6476SOL     OW30889   3.862   3.322   5.076  0.0346  0.0468 -0.5489
 6476SOL    HW130890   3.901   3.235   5.067 -0.0469  0.0494 -0.9533
 6476SOL    HW230891   3.925   3.363   5.016 -0.1286  0.5372 -0.3835
 6477SOL     OW30892   1.716   1.702   9.755 -0.1393  0.5671 -0.4777
 6477SOL    HW130893   1.738   1.639   9.823 -1.3448 -0.9034 -1.4618
 6477SOL    HW230894   1.742   1.651   9.679 -0.2708 -3.0584  1.9396
 6478SOL     OW30895   3.255   1.684   9.005  0.1100 -0.1732 -0.4738
 6478SOL    HW130896   3.186   1.742   9.036  1.0649  0.1036  1.1878
 6478SOL    HW230897   3.326   1.742   9.033  0.0209 -0.6688  0.8035
 6479SOL     OW30898   3.923   1.030   4.915  0.5293 -0.2876  0.1467
 6479SOL    HW130899   4.002   1.075   4.884  1.4828 -3.4652 -2.0734
 6479SOL    HW230900   3.900   0.974   4.841 -2.7957  1.0493  0.1892
 6480SOL     OW30901   3.135   3.458  14.010 -0.3207 -0.1110 -0.3839
 6480SOL    HW130902   3.142   3.469  14.105 -0.1806 -1.9717 -0.1820
 6480SOL    HW230903   3.078   3.382  14.009 -0.2168 -0.1718 -1.7572
 6481SOL     OW30904   0.957   3.758   7.510  0.1406 -0.2991  0.3398
 6481SOL    HW130905   1.008   3.835   7.484 -0.5842 -0.1536 -0.6634
 6481SOL    HW230906   0.875   3.764   7.460  1.8625  1.7227 -2.2710
 6482SOL     OW30907   3.015   4.485   0.718  0.4548 -0.0169  0.0487
 6482SOL    HW130908   2.981   4.423   0.783  0.6007  0.6972  0.8134
 6482SOL    HW230909   2.944   4.549   0.723  0.2423 -0.2507  0.0182
 6483SOL     OW30910   3.018   0.210   6.259  0.8251  0.2516 -0.1194
 6483SOL    HW130911   3.060   0.141   6.208  0.0932 -0.1217 -0.2264
 6483SOL    HW230912   2.923   0.198   6.248  0.9079  0.4391 -1.0763
 6484SOL     OW30913   3.543   4.471   8.029  0.2090 -0.2660 -0.0683
 6484SOL    HW130914   3.519   4.378   8.036 -2.6391  0.4704 -0.0579
 6484SOL    HW230915   3.530   4.486   7.935  1.4794 -1.6933 -0.4666
 6485SOL     OW30916   4.690   1.534   6.102  0.2058  0.2101  0.3832
 6485SOL    HW130917   0.005   1.579   6.025  0.1092 -0.9592 -0.3345
 6485SOL    HW230918   4.707   1.444   6.075 -0.0628  0.6079 -1.1270
 6486SOL     OW30919   1.255   3.019   6.637 -0.0346 -0.3330 -0.0540
 6486SOL    HW130920   1.199   3.090   6.605 -0.8193 -1.0698 -0.3254
 6486SOL    HW230921   1.244   2.951   6.571 -0.2795  1.3236 -1.7063
 6487SOL     OW30922   4.475   0.947   9.203 -0.2493  0.3577 -0.4135
 6487SOL    HW130923   4.562   0.913   9.183  0.8489  3.0903 -0.3391
 6487SOL    HW230924   4.500   0.992   9.284  0.0830  1.6804 -1.2392
 6488SOL     OW30925   3.038   0.513  12.850 -0.1129  0.1729  0.2570
 6488SOL    HW130926   3.085   0.492  12.770 -1.6650 -3.6826  0.3766
 6488SOL    HW230927   3.032   0.609  12.845 -0.0875  0.1550 -0.1185
 6489SOL     OW30928   1.750   1.953   2.284 -0.2231  0.1377 -0.0849
 6489SOL    HW130929   1.821   1.936   2.346  0.4028  0.7657 -0.6232
 6489SOL    HW230930   1.706   2.030   2.320  0.0137 -0.8594  2.3440
 6490SOL     OW30931   3.239   3.259   1.524 -0.1871 -0.2226 -0.2551
 6490SOL    HW130932   3.204   3.251   1.435 -0.3884  0.0125 -0.1959
 6490SOL    HW230933   3.306   3.190   1.532 -0.7293 -0.3801  2.8277
 6491SOL     OW30934   2.702   0.817   7.118 -0.4139 -0.1638 -0.2614
 6491SOL    HW130935   2.660   0.747   7.068  1.3223  0.8542 -3.1220
 6491SOL    HW230936   2.745   0.868   7.050 -2.4412 -0.9591 -2.1272
 6492SOL     OW30937   2.146   2.001   6.987  0.5723 -0.3227 -0.4213
 6492SOL    HW130938   2.128   2.055   7.065 -0.7790  0.2357 -1.1275
 6492SOL    HW230939   2.227   2.051   6.976  0.8586 -0.1549  2.2858
 6493SOL     OW30940   2.926   3.217   6.215 -0.4683  0.1072  0.3029
 6493SOL    HW130941   2.993   3.277   6.181 -0.7486  0.5350  0.5103
 6493SOL    HW230942   2.843   3.246   6.178 -0.1541  1.3355  0.5522
 6494SOL     OW30943   3.299   3.657   6.765  0.5463 -0.1099  0.4119
 6494SOL    HW130944   3.297   3.564   6.743  0.7042 -0.5056  2.0719
 6494SOL    HW230945   3.330   3.658   6.855 -0.5927  1.8219  0.7851
 6495SOL     OW30946   3.021   2.801   3.939 -0.2670 -0.4271  0.8393
 6495SOL    HW130947   2.989   2.836   4.021  1.5335  1.2362  0.8401
 6495SOL    HW230948   2.984   2.715   3.958 -2.2746  0.2024 -0.2571
 6496SOL     OW30949   1.286   0.974   6.890  0.1049  0.3725 -0.1539
 6496SOL    HW130950   1.233   1.000   6.815 -0.9907 -0.7618  0.2326
 6496SOL    HW230951   1.232   0.906   6.930  0.1876  0.3172 -0.1352
 6497SOL     OW30952   2.658   0.104   3.268 -0.5273 -0.3391 -0.1539
 6497SOL    HW130953   2.584   0.110   3.328 -1.5698 -2.3461 -1.1858
 6497SOL    HW230954   2.686   0.195   3.257  0.3802 -0.4756  1.1521
 6498SOL     OW30955   0.346   4.108   4.291  0.1893 -0.8410  0.2299
 6498SOL    HW130956   0.377   4.098   4.381 -2.5054  0.0254  1.2519
 6498SOL    HW230957   0.325   4.199   4.274 -0.5058 -1.0550 -0.0652
 6499SOL     OW30958   2.556   1.203   3.807 -0.0893  0.0480  0.9025
 6499SOL    HW130959   2.528   1.216   3.717  1.4910 -1.4918  0.1847
 6499SOL    HW230960   2.491   1.136   3.828 -1.8372  1.4896  0.0789
 6500SOL     OW30961   4.314   3.576  15.144 -0.2113 -0.4104  0.6420
 6500SOL    HW130962   4.284   3.630  15.218 -1.5976 -3.4366  2.2656
 6500SOL    HW230963   4.287   3.625  15.066  1.2169 -2.2980 -1.0370
 6501SOL     OW30964   3.850   1.104  17.101  0.0627 -0.6019 -0.4474
 6501SOL    HW130965   3.795   1.109  17.022  1.9050  2.3378 -1.5506
 6501SOL    HW230966   3.938   1.103  17.064 -0.9201  1.3253 -2.9233
 6502SOL     OW30967   4.160   1.532   5.553 -0.1716  0.9814  0.1652
 6502SOL    HW130968   4.070   1.520   5.522  0.1815 -1.8311  0.2860
 6502SOL    HW230969   4.177   1.603   5.491 -4.1166  1.4992 -0.3731
 6503SOL     OW30970   3.981   0.371  12.623 -0.2420  0.1234 -0.0831
 6503SOL    HW130971   4.023   0.439  12.571  1.0747 -0.8632 -0.2932
 6503SOL    HW230972   3.907   0.354  12.564 -0.6375  2.1257 -0.1666
 6504SOL     OW30973   2.589   2.976   4.372  0.0826  0.4892  0.7028
 6504SOL    HW130974   2.543   2.925   4.305 -1.5382  0.9320  1.4730
 6504SOL    HW230975   2.544   2.959   4.455  0.8198 -0.5756  0.8887
 6505SOL     OW30976   3.331   1.887  13.878 -0.3499 -0.0010  0.2132
 6505SOL    HW130977   3.271   1.840  13.936  0.2381 -1.1456 -0.1156
 6505SOL    HW230978   3.376   1.811  13.842 -1.0676 -1.1375  1.7499
 6506SOL     OW30979   0.501   1.389   5.275  0.6313 -0.1223  0.1468
 6506SOL    HW130980   0.554   1.453   5.322 -3.4380  2.6378  0.8952
 6506SOL    HW230981   0.418   1.384   5.322 -0.6665 -2.7506 -2.4453
 6507SOL     OW30982   3.863   0.996   1.758  0.1789 -0.5078 -1.0342
 6507SOL    HW130983   3.802   1.041   1.817  0.7986 -1.3773  0.2705
 6507SOL    HW230984   3.903   0.932   1.817  0.4240  0.8600  0.2955
 6508SOL     OW30985   2.082   1.540   3.561  0.0464 -0.3915 -0.1867
 6508SOL    HW130986   2.140   1.480   3.513  1.0635  1.4924 -1.3150
 6508SOL    HW230987   2.142   1.601   3.605  0.3124  0.2696 -1.4544
 6509SOL     OW30988   0.107   3.541   2.264  0.1156  0.0161  0.1287
 6509SOL    HW130989   0.052   3.463   2.269  1.6460 -1.2529 -3.3460
 6509SOL    HW230990   0.036   3.604   2.276  1.0306  1.2569 -0.9792
 6510SOL     OW30991   3.060   2.185  10.589 -0.2762  0.1014 -0.0499
 6510SOL    HW130992   2.973   2.222  10.603 -0.0512  0.5111  0.2829
 6510SOL    HW230993   3.112   2.255  10.628 -2.4342  2.4991 -1.4791
 6511SOL     OW30994   1.279   2.039   9.217  0.6854  0.0027  0.4393
 6511SOL    HW130995   1.223   1.980   9.267  0.4166 -0.2591 -0.1575
 6511SOL    HW230996   1.344   2.064   9.282  0.0754  1.6546  0.4075
 6512SOL     OW30997   1.619   0.037   6.112 -0.1610 -0.0113  0.0725
 6512SOL    HW130998   1.632   0.079   6.027  0.4097  0.8424  0.5785
 6512SOL    HW230999   1.524   0.046   6.107 -0.3672 -0.7219  2.7648
 6513SOL     OW31000   1.582   0.927   5.785  0.3743 -0.3800  0.1264
 6513SOL    HW131001   1.548   0.950   5.699 -0.3686  2.6762  1.2389
 6513SOL    HW231002   1.632   1.005   5.811  0.8156 -0.6434  0.0677
 6514SOL     OW31003   4.569   0.326   8.397  0.1218  0.0569  0.1932
 6514SOL    HW131004   4.609   0.271   8.465 -0.6714 -1.1909 -0.3484
 6514SOL    HW231005   4.476   0.308   8.412  0.1456 -0.3268 -0.1317
 6515SOL     OW31006   3.004   2.962  13.541  0.3941 -0.3026 -0.1769
 6515SOL    HW131007   2.943   2.997  13.476 -2.0379 -2.6795  0.8461
 6515SOL    HW231008   3.026   2.889  13.483 -1.5758 -1.8639  1.0231
 6516SOL     OW31009   1.057   4.192  16.063 -0.3560  0.1332  0.2991
 6516SOL    HW131010   1.051   4.277  16.020  0.7793  0.5481  0.9652
 6516SOL    HW231011   0.964   4.177  16.082 -0.2998 -2.5538 -1.5036
 6517SOL     OW31012   1.818   2.596   5.637  0.4155  0.1338 -0.4805
 6517SOL    HW131013   1.742   2.538   5.632  0.8091 -0.4757  0.7142
 6517SOL    HW231014   1.768   2.673   5.662  0.4550  0.4046 -1.2283
 6518SOL     OW31015   0.985   0.964   7.716  0.0251 -0.6007  0.4934
 6518SOL    HW131016   1.062   1.000   7.759 -0.2181  3.6427 -2.6975
 6518SOL    HW231017   0.995   0.874   7.747  1.1888 -0.0345  1.7346
 6519SOL     OW31018   2.552   3.272  13.850  0.2883 -0.2324  0.7295
 6519SOL    HW131019   2.513   3.340  13.905  0.7110  0.9741 -0.4923
 6519SOL    HW231020   2.605   3.225  13.915  0.4188  0.4779  1.1400
 6520SOL     OW31021   4.244   0.342   1.342  0.8216 -0.0989 -0.2545
 6520SOL    HW131022   4.215   0.432   1.356  1.7059  0.1122  0.2200
 6520SOL    HW231023   4.155   0.308   1.334  0.6510  0.1757  0.4611
 6521SOL     OW31024   4.699   2.694   6.855 -0.3609  0.2633  0.0909
 6521SOL    HW131025   4.720   2.604   6.830 -1.7973 -0.6737  2.2779
 6521SOL    HW231026   4.615   2.685   6.901 -0.5246 -0.8615 -0.4203
 6522SOL     OW31027   0.057   1.893  14.677 -0.2249 -0.9712  0.1736
 6522SOL    HW131028   4.695   1.919  14.716 -0.0972 -0.4279  0.0855
 6522SOL    HW231029   0.095   1.860  14.759 -0.9778 -1.1758  0.4365
 6523SOL     OW31030   4.228   1.082   8.150  0.6169 -0.4821  0.0017
 6523SOL    HW131031   4.165   1.147   8.121  1.3038 -0.6971 -1.9637
 6523SOL    HW231032   4.171   1.010   8.178  0.0423  0.4032  1.0969
 6524SOL     OW31033   3.651   0.011  13.859  0.0101 -0.2705 -0.2788
 6524SOL    HW131034   3.703   4.656  13.833 -0.7588 -0.3615 -1.5405
 6524SOL    HW231035   3.706   0.060  13.920  0.3617  1.6602 -2.1408
 6525SOL     OW31036   2.251   1.705   5.003  0.2853 -0.5327  0.3032
 6525SOL    HW131037   2.202   1.651   5.065 -0.5840 -1.2761 -1.0346
 6525SOL    HW231038   2.336   1.663   5.014 -0.5833 -2.5786 -0.8513
 6526SOL     OW31039   4.064   2.371  10.108  0.3091  0.1198 -0.0445
 6526SOL    HW131040   4.072   2.276  10.104  3.3638  0.3885  0.0932
 6526SOL    HW231041   3.976   2.394  10.079  0.5032  0.6280 -0.2287
 6527SOL     OW31042   2.844   1.365   6.032 -0.4290  0.3574  0.4055
 6527SOL    HW131043   2.798   1.399   6.108  1.5355  1.0996  1.2744
 6527SOL    HW231044   2.919   1.321   6.072 -0.2842 -1.2087 -1.5419
 6528SOL     OW31045   3.689   3.316  17.161 -0.0144 -0.2090 -0.7153
 6528SOL    HW131046   3.645   3.400  17.151  0.7661  0.4610  1.3366
 6528SOL    HW231047   3.775   3.353  17.184  1.0101 -2.0285 -1.6325
 6529SOL     OW31048   0.961   0.703   0.670  0.2072 -0.7454  0.4568
 6529SOL    HW131049   1.048   0.742   0.657 -0.7001  0.9216 -0.5883
 6529SOL    HW231050   0.935   0.728   0.759  1.2695 -1.4693  0.9745
 6530SOL     OW31051   2.719   2.637   7.827 -0.0844 -0.4209 -0.0093
 6530SOL    HW131052   2.643   2.579   7.827 -0.3028 -0.1364 -0.3424
 6530SOL    HW231053   2.686   2.713   7.875 -0.2979  1.0213 -2.4385
 6531SOL     OW31054   1.664   4.482   6.537  0.3243 -0.0331  0.4008
 6531SOL    HW131055   1.639   4.557   6.484 -1.5331 -0.4345  0.7012
 6531SOL    HW231056   1.576   4.449   6.556  1.1602 -1.1994  2.2047
 6532SOL     OW31057   3.039   1.796   3.612 -0.3388 -0.3226 -0.1012
 6532SOL    HW131058   3.000   1.804   3.525  1.5211  1.3315 -0.7834
 6532SOL    HW231059   3.123   1.838   3.593 -0.6848  0.4484  0.0413
 6533SOL     OW31060   3.162   1.509  14.686  0.0248 -0.3483 -0.0724
 6533SOL    HW131061   3.101   1.507  14.612 -1.8994  0.4081  1.4997
 6533SOL    HW231062   3.243   1.530  14.639  2.0862 -0.5953  3.4066
 6534SOL     OW31063   1.205   1.091   4.787  0.2603  0.6245 -0.1473
 6534SOL    HW131064   1.245   1.098   4.874  0.3863  1.5388 -0.2893
 6534SOL    HW231065   1.157   1.008   4.784 -1.5998  1.7267 -0.6867
 6535SOL     OW31066   4.625   3.417  16.442 -0.4017 -0.5277 -0.1512
 6535SOL    HW131067   4.630   3.491  16.503  0.8606 -1.3701  0.7394
 6535SOL    HW231068   4.584   3.350  16.496 -0.1788 -1.1403 -0.7458
 6536SOL     OW31069   2.818   4.018   2.244 -0.1803 -0.2215  0.3982
 6536SOL    HW131070   2.844   4.084   2.180 -3.4390 -0.1899 -0.9042
 6536SOL    HW231071   2.762   3.972   2.180 -1.8836  1.0741  0.9412
 6537SOL     OW31072   0.321   0.485  11.147  0.5792  0.2257  0.2070
 6537SOL    HW131073   0.269   0.524  11.216 -0.1463 -0.8989  0.3065
 6537SOL    HW231074   0.389   0.459  11.209  0.7422 -0.0225 -0.0714
 6538SOL     OW31075   2.837   1.143   7.131  0.3510 -0.2322 -0.0649
 6538SOL    HW131076   2.763   1.205   7.134  0.2933 -0.3015 -0.0536
 6538SOL    HW231077   2.820   1.090   7.052  1.5028  1.2019 -1.2781
 6539SOL     OW31078   1.296   1.356   5.122  0.0579 -0.0173 -0.1191
 6539SOL    HW131079   1.224   1.402   5.165 -0.8748 -0.7083 -0.9484
 6539SOL    HW231080   1.298   1.396   5.035 -1.5470  0.6777  0.1827
 6540SOL     OW31081   0.202   1.165   2.835  0.1718  0.1943  0.6940
 6540SOL    HW131082   0.280   1.160   2.779 -0.8516  2.0515 -0.8957
 6540SOL    HW231083   0.243   1.140   2.917  1.3133  1.3379  0.4834
 6541SOL     OW31084   2.580   4.580   6.666 -0.4828  0.1021  0.3955
 6541SOL    HW131085   2.562   4.672   6.646 -0.2616 -0.0407 -0.4612
 6541SOL    HW231086   2.652   4.553   6.609 -0.2562 -0.7880  1.1015
 6542SOL     OW31087   2.744   3.315   2.543 -0.4426 -0.0057  0.5766
 6542SOL    HW131088   2.826   3.352   2.574 -0.3984  1.3609 -1.1936
 6542SOL    HW231089   2.741   3.228   2.583  0.8689  0.0675  0.8211
 6543SOL     OW31090   1.700   0.015   7.403 -0.0603  0.2188  0.5259
 6543SOL    HW131091   1.786   0.031   7.441  1.2845 -1.8080 -1.6669
 6543SOL    HW231092   1.648   0.081   7.449  1.7243  0.0368  2.7758
 6544SOL     OW31093   1.469   3.829  13.220 -0.4501 -0.4893 -0.3136
 6544SOL    HW131094   1.527   3.787  13.283  0.9181  0.2031 -1.1077
 6544SOL    HW231095   1.529   3.832  13.145  0.5740  0.9166  0.5789
 6545SOL     OW31096   4.624   2.394   0.090 -0.0045 -0.4560 -0.4465
 6545SOL    HW131097   4.561   2.423   0.024 -1.8470 -4.3501 -0.3682
 6545SOL    HW231098   4.574   2.325   0.133 -0.0896 -0.8203 -1.1387
 6546SOL     OW31099   2.392   1.941  11.349 -0.3370 -0.1611  0.2521
 6546SOL    HW131100   2.301   1.931  11.318 -0.1382 -1.4791  0.1142
 6546SOL    HW231101   2.386   1.874  11.417  2.0923  0.5245  1.1335
 6547SOL     OW31102   2.864   1.973   2.919  0.0977 -0.4871  0.3887
 6547SOL    HW131103   2.857   1.951   3.012 -0.6292 -0.6962  0.2845
 6547SOL    HW231104   2.865   1.885   2.882 -0.4951 -0.8248  1.1823
 6548SOL     OW31105   3.822   1.577   0.075  0.5534  0.2709 -0.2979
 6548SOL    HW131106   3.906   1.590   0.030  1.5757  1.3011  1.8760
 6548SOL    HW231107   3.835   1.489   0.113 -1.1522 -0.3183 -1.1225
 6549SOL     OW31108   2.537   1.661   4.874 -0.2423  0.4529 -0.2883
 6549SOL    HW131109   2.497   1.704   4.798  0.3616  1.5416  0.0289
 6549SOL    HW231110   2.591   1.732   4.906 -1.3452  0.9981  0.3511
 6550SOL     OW31111   2.586   3.374   3.706 -0.0089  0.3200  0.3208
 6550SOL    HW131112   2.538   3.399   3.627  1.0904 -3.7718 -1.6121
 6550SOL    HW231113   2.614   3.288   3.677 -1.0228  0.5247 -1.2943
 6551SOL     OW31114   1.728   1.331   5.079  0.0852  0.3174  0.5118
 6551SOL    HW131115   1.662   1.262   5.080  1.7381 -1.3262 -1.6556
 6551SOL    HW231116   1.693   1.395   5.017 -0.1626 -0.4788 -0.1670
 6552SOL     OW31117   3.612   1.748   3.251  0.4845 -0.1840 -0.7397
 6552SOL    HW131118   3.517   1.751   3.258  0.5918  1.0520  0.2310
 6552SOL    HW231119   3.624   1.786   3.164  1.8075  2.0836  0.4235
 6553SOL     OW31120   1.727   1.485   8.719 -0.5501  0.7433  0.0067
 6553SOL    HW131121   1.759   1.541   8.790  0.3868 -0.2145  0.3333
 6553SOL    HW231122   1.691   1.552   8.660 -0.4976  1.1666  0.4561
 6554SOL     OW31123   3.033   2.339  11.126  0.4028  0.3992 -0.2924
 6554SOL    HW131124   3.007   2.398  11.055 -1.3964 -1.1890 -0.9455
 6554SOL    HW231125   3.043   2.398  11.201 -2.2844 -0.3163  0.6099
 6555SOL     OW31126   1.247   0.755   9.421  0.2838 -0.0691 -0.5864
 6555SOL    HW131127   1.337   0.735   9.394  0.4019  0.5281 -0.6336
 6555SOL    HW231128   1.203   0.759   9.336  1.5332 -1.4184 -1.3069
 6556SOL     OW31129   4.042   3.422   5.353  0.6159 -0.2669 -0.2570
 6556SOL    HW131130   3.979   3.357   5.385  0.4494  0.3388  0.6649
 6556SOL    HW231131   4.090   3.371   5.289 -0.9198 -1.3366 -0.5621
 6557SOL     OW31132   3.641   4.490   5.692  0.0788  0.4391 -0.1010
 6557SOL    HW131133   3.672   4.463   5.779  1.5893  0.1006 -0.7408
 6557SOL    HW231134   3.588   4.561   5.727 -0.4325 -0.1414  0.3041
 6558SOL     OW31135   1.479   4.639   9.043 -0.5481  0.6233 -1.0385
 6558SOL    HW131136   1.554   4.680   9.000 -0.4787  1.9694  0.3953
 6558SOL    HW231137   1.490   4.545   9.024  0.8057  0.5601  0.0712
 6559SOL     OW31138   4.451   1.923  16.870  0.0105  0.4456 -0.5749
 6559SOL    HW131139   4.409   2.004  16.841  0.3306  0.3926 -1.1931
 6559SOL    HW231140   4.436   1.940  16.963  1.4488 -1.4911  0.0166
 6560SOL     OW31141   4.147   1.345   3.205 -0.2832 -0.0268 -0.0781
 6560SOL    HW131142   4.115   1.426   3.244  2.9082  0.8877  0.6397
 6560SOL    HW231143   4.203   1.312   3.276  0.7671  0.1202 -0.8486
 6561SOL     OW31144   1.699   0.087   0.665  0.3679 -0.2405  0.4426
 6561SOL    HW131145   1.667   0.059   0.579 -1.6978  0.5036  0.9605
 6561SOL    HW231146   1.683   0.007   0.715  0.5362 -0.5734 -0.0258
 6562SOL     OW31147   2.077   3.525   9.111  0.6092 -0.1989  0.1232
 6562SOL    HW131148   2.168   3.513   9.087  0.7845 -0.1293  0.7627
 6562SOL    HW231149   2.079   3.502   9.204  0.2804 -1.0358 -0.0743
 6563SOL     OW31150   4.260   3.740   6.499  0.5166  0.3371  0.2424
 6563SOL    HW131151   4.307   3.752   6.582  2.5134 -0.5449 -0.7570
 6563SOL    HW231152   4.297   3.808   6.443  1.4161 -0.0497  0.3633
 6564SOL     OW31153   1.277   1.298   7.485  0.0373  0.1540  0.2247
 6564SOL    HW131154   1.232   1.313   7.568  0.8635  2.0577  0.3380
 6564SOL    HW231155   1.222   1.341   7.419 -0.1648  2.0029  1.5999
 6565SOL     OW31156   3.988   2.066   2.292  0.3675  0.1934 -0.0126
 6565SOL    HW131157   4.038   2.031   2.365  1.5365 -0.2914 -1.0511
 6565SOL    HW231158   3.973   2.154   2.326 -0.2964 -0.3276  1.0213
 6566SOL     OW31159   3.988   3.107   4.993  0.0400 -0.2901 -0.1913
 6566SOL    HW131160   4.080   3.084   4.979 -0.2042 -0.5291 -1.3518
 6566SOL    HW231161   3.960   3.113   4.902 -1.9553  0.3399  0.4534
 6567SOL     OW31162   3.911   3.333   7.338 -0.2152 -0.7220 -0.0961
 6567SOL    HW131163   3.948   3.302   7.420  1.3444 -0.3362 -0.6440
 6567SOL    HW231164   3.897   3.423   7.368 -0.4558 -0.8967  0.3115
 6568SOL     OW31165   2.209   2.278   9.483  0.2332  0.4476  0.2276
 6568SOL    HW131166   2.174   2.222   9.552  0.0310  0.3417  0.0369
 6568SOL    HW231167   2.180   2.364   9.513 -1.7497  0.1563 -0.8820
 6569SOL     OW31168   3.784   4.632   3.604  0.3424 -0.4459  0.0498
 6569SOL    HW131169   3.795   4.568   3.534 -0.6161 -1.8309  1.1721
 6569SOL    HW231170   3.712   4.690   3.579  0.8479 -0.1274 -0.6738
 6570SOL     OW31171   3.996   1.241   8.592 -0.2435  0.3576  0.1111
 6570SOL    HW131172   4.024   1.283   8.510 -2.3134 -1.2033 -1.3756
 6570SOL    HW231173   3.926   1.188   8.555  0.1664  1.4936 -2.3352
 6571SOL     OW31174   4.430   3.937  10.760 -0.3084  0.5517 -0.1048
 6571SOL    HW131175   4.422   3.873  10.689 -1.1084  1.3073 -0.6958
 6571SOL    HW231176   4.456   4.017  10.715  1.7382 -0.5608 -0.8748
 6572SOL     OW31177   1.644   3.526   8.451 -0.1767  0.1699 -0.3276
 6572SOL    HW131178   1.732   3.553   8.476 -0.4348  0.8323 -0.1329
 6572SOL    HW231179   1.623   3.564   8.366  1.2670  1.6584  0.0037
 6573SOL     OW31180   3.047   3.462   7.800 -0.7824  0.3199 -0.3090
 6573SOL    HW131181   3.113   3.531   7.795 -0.0026 -0.3897  0.3146
 6573SOL    HW231182   2.966   3.513   7.804 -1.6213 -0.9538 -1.0231
 6574SOL     OW31183   1.541   1.554   4.105 -0.6871  0.2060  0.0110
 6574SOL    HW131184   1.589   1.612   4.046  1.5789  0.6311  2.2786
 6574SOL    HW231185   1.596   1.571   4.181 -0.8777  2.2024 -0.2856
 6575SOL     OW31186   4.116   1.968  13.198 -0.2070  0.3495  0.0527
 6575SOL    HW131187   4.083   1.908  13.265 -1.5976  0.3189 -0.6712
 6575SOL    HW231188   4.193   2.005  13.242  0.4750 -0.2789 -0.6071
 6576SOL     OW31189   2.831   2.593  10.184  0.3573  0.1736  0.1719
 6576SOL    HW131190   2.927   2.586  10.179  0.3332 -0.2934  0.3012
 6576SOL    HW231191   2.815   2.555  10.098 -1.8217  0.2901  0.5265
 6577SOL     OW31192   1.268   0.166   5.354 -0.5607  0.4762  0.6059
 6577SOL    HW131193   1.313   0.162   5.439 -0.7152  1.6442  0.7336
 6577SOL    HW231194   1.335   0.196   5.292 -1.8955  2.5183  0.1896
 6578SOL     OW31195   2.407   2.174   2.403  0.0862 -0.5309  0.0187
 6578SOL    HW131196   2.329   2.224   2.380  0.4749  2.2540  4.7229
 6578SOL    HW231197   2.367   2.137   2.481  2.5199 -0.9589  1.0577
 6579SOL     OW31198   2.009   3.856   4.847 -0.1175  0.3130  0.7822
 6579SOL    HW131199   1.923   3.829   4.878 -0.2802 -1.0113 -0.8087
 6579SOL    HW231200   2.065   3.801   4.901  0.5725 -0.1407 -0.3753
 6580SOL     OW31201   0.547   1.557   8.937  0.1920  0.2213  0.6849
 6580SOL    HW131202   0.518   1.641   8.901 -3.1273 -1.9855 -1.7954
 6580SOL    HW231203   0.638   1.548   8.909 -0.4551 -0.9241 -1.0737
 6581SOL     OW31204   3.962   4.535   2.083 -0.0742 -0.6011 -0.1015
 6581SOL    HW131205   4.022   4.462   2.099  2.6297  1.1201 -2.2577
 6581SOL    HW231206   3.980   4.591   2.158 -1.0287 -0.0232 -0.3150
 6582SOL     OW31207   0.782   2.477  15.278 -0.0396 -0.1646 -0.2076
 6582SOL    HW131208   0.846   2.463  15.208 -0.3747 -1.2613 -0.2902
 6582SOL    HW231209   0.709   2.422  15.252 -0.1102 -0.4217  0.5394
 6583SOL     OW31210   1.721   3.100   6.105  0.1730  0.3517  0.3279
 6583SOL    HW131211   1.747   3.033   6.042  4.6035  1.2722  1.1714
 6583SOL    HW231212   1.659   3.153   6.055  2.0559  1.5802 -0.7017
 6584SOL     OW31213   0.991   3.258   5.101  0.6642 -0.3464  0.0634
 6584SOL    HW131214   0.936   3.240   5.177  2.2333 -0.5957  1.1242
 6584SOL    HW231215   1.078   3.247   5.139  1.3432  1.1771 -1.0485
 6585SOL     OW31216   2.706   4.383   8.514  0.0803 -0.7271 -0.0230
 6585SOL    HW131217   2.769   4.432   8.461 -1.9188 -0.5864 -2.2851
 6585SOL    HW231218   2.629   4.437   8.494  0.2553  0.4448  2.5559
 6586SOL     OW31219   0.096   4.423  12.004  0.1865  0.5628  0.0809
 6586SOL    HW131220   0.181   4.378  12.007  1.1315  2.4766  1.9016
 6586SOL    HW231221   0.062   4.380  11.925 -2.1643 -1.3062  2.1051
 6587SOL     OW31222   2.480   1.220   1.253 -0.6775  0.1051  0.3572
 6587SOL    HW131223   2.477   1.292   1.190  0.1436 -0.9002 -0.8367
 6587SOL    HW231224   2.501   1.143   1.200  0.8378 -0.5377  1.8593
 6588SOL     OW31225   2.066   4.619  10.459 -0.2211 -0.3101  0.5057
 6588SOL    HW131226   2.071   4.661  10.545  0.7493  1.3590 -0.3815
 6588SOL    HW231227   2.079   4.688  10.395 -0.2679 -0.1203  0.7002
 6589SOL     OW31228   4.535   1.844   9.417 -0.4029  0.6082 -0.3288
 6589SOL    HW131229   4.582   1.874   9.496 -1.3683 -1.2329  0.9324
 6589SOL    HW231230   4.600   1.801   9.361  0.8723  0.9511  0.8603
 6590SOL     OW31231   1.940   1.569   8.494  0.2817 -0.1060 -0.3484
 6590SOL    HW131232   1.868   1.583   8.432  0.9151  0.1564 -1.0257
 6590SOL    HW231233   1.940   1.650   8.544 -0.3594 -1.0446  1.1720
 6591SOL     OW31234   1.107   3.352   9.182  0.2207  0.3303 -0.3814
 6591SOL    HW131235   1.023   3.371   9.140  0.6922  0.4044 -1.2858
 6591SOL    HW231236   1.157   3.418   9.133  2.1964 -2.4722 -2.1270
 6592SOL     OW31237   4.205   4.618  17.244  0.0291  0.5351 -0.3736
 6592SOL    HW131238   4.180   4.557  17.314 -0.1757  1.0742  0.0250
 6592SOL    HW231239   4.116   4.649  17.228 -0.1331  0.6163  0.6293
 6593SOL     OW31240   4.396   1.612  17.273 -0.4406 -0.2335  0.3824
 6593SOL    HW131241   4.368   1.636  17.185  2.5768 -0.4504 -0.6266
 6593SOL    HW231242   4.450   1.537  17.250 -2.3709 -1.3589 -0.4485
 6594SOL     OW31243   2.342   1.807   8.795 -0.2948 -0.2755 -0.1899
 6594SOL    HW131244   2.293   1.823   8.715 -1.9631 -0.6246  0.7676
 6594SOL    HW231245   2.433   1.813   8.765  0.0613 -0.8888  0.7732
 6595SOL     OW31246   0.551   2.190   7.271 -0.4144  0.0726 -0.0635
 6595SOL    HW131247   0.557   2.098   7.296 -1.1487  0.3750  1.2313
 6595SOL    HW231248   0.523   2.243   7.346 -2.4194  1.7226 -1.9819
 6596SOL     OW31249   4.313   2.628   6.700  0.3211  0.4685 -0.7439
 6596SOL    HW131250   4.362   2.573   6.639  2.7190 -1.0896  2.5478
 6596SOL    HW231251   4.281   2.569   6.768  3.1134  0.9745  1.0344
 6597SOL     OW31252   2.375   2.646  16.165 -0.4272 -0.5314 -0.1565
 6597SOL    HW131253   2.375   2.550  16.162  0.8373 -0.4815 -1.7476
 6597SOL    HW231254   2.284   2.670  16.182 -0.2847 -0.0958 -0.0183
 6598SOL     OW31255   0.420   1.834   8.829 -0.1676  0.2396 -0.0901
 6598SOL    HW131256   0.332   1.816   8.794 -0.0161  2.2687 -1.4560
 6598SOL    HW231257   0.408   1.890   8.906  1.3257  1.0933 -0.4960
 6599SOL     OW31258   1.807   0.780   0.777 -0.2070  0.6676  0.4217
 6599SOL    HW131259   1.806   0.688   0.751 -0.0289  0.5683  0.7624
 6599SOL    HW231260   1.885   0.807   0.728 -0.4336  0.2640 -0.1589
 6600SOL     OW31261   3.289   3.262   9.051  0.3378 -0.5056 -0.4789
 6600SOL    HW131262   3.378   3.285   9.076 -0.1087  1.5351 -0.8105
 6600SOL    HW231263   3.315   3.262   8.959 -1.2539 -0.0424 -0.9309
 6601SOL     OW31264   3.947   2.776   2.569  0.2998 -0.0050 -0.0884
 6601SOL    HW131265   3.915   2.858   2.532  0.8962 -0.5621 -1.8583
 6601SOL    HW231266   4.035   2.777   2.531 -0.1773  0.3562 -1.1895
 6602SOL     OW31267   3.340   1.264   5.165 -0.2263 -0.2769 -0.3439
 6602SOL    HW131268   3.294   1.258   5.082 -1.1766 -2.4627  0.3614
 6602SOL    HW231269   3.416   1.206   5.157 -1.3781 -1.5439 -1.9387
 6603SOL     OW31270   2.299   0.547   4.394 -0.1967  0.0787  0.4118
 6603SOL    HW131271   2.308   0.640   4.375  0.2899  0.1405  0.9553
 6603SOL    HW231272   2.203   0.541   4.401 -0.0387 -2.5993  0.3021
 6604SOL     OW31273   4.120   0.653   7.938  0.0668 -0.0009  0.4256
 6604SOL    HW131274   4.176   0.575   7.948  1.1452  0.6332 -0.7103
 6604SOL    HW231275   4.035   0.611   7.931 -0.0618  0.2832  0.3122
 6605SOL     OW31276   0.580   3.363   2.087 -0.7859 -0.3735  0.5404
 6605SOL    HW131277   0.529   3.443   2.079 -1.1595 -0.6213  0.4762
 6605SOL    HW231278   0.526   3.301   2.137 -1.3878  2.0803  2.9213
 6606SOL     OW31279   2.245   2.462   1.040  0.2328  0.1911 -0.0971
 6606SOL    HW131280   2.244   2.489   0.948 -0.2906 -1.1126 -0.4689
 6606SOL    HW231281   2.265   2.547   1.081  1.1479 -0.5054  0.9011
 6607SOL     OW31282   4.578   4.126  13.581  0.0111 -0.1767  0.2973
 6607SOL    HW131283   4.632   4.063  13.629 -0.0299 -0.0379  0.5219
 6607SOL    HW231284   4.535   4.165  13.656 -0.6183 -2.5534  1.1862
 6608SOL     OW31285   4.554   1.227   1.991  0.5465  0.2500  0.2283
 6608SOL    HW131286   4.463   1.201   2.007  1.0919 -0.3098  2.4070
 6608SOL    HW231287   4.581   1.154   1.936 -0.8786 -1.8843  2.3779
 6609SOL     OW31288   4.578   3.611   8.803  0.3451 -0.1543  0.3862
 6609SOL    HW131289   4.659   3.634   8.848  0.4705 -0.0751  0.1203
 6609SOL    HW231290   4.528   3.623   8.884  1.4489  3.2497  0.5632
 6610SOL     OW31291   3.983   3.263   2.982  0.3057 -0.3563  0.6145
 6610SOL    HW131292   4.012   3.337   2.928  1.3109 -2.4583 -1.7631
 6610SOL    HW231293   3.890   3.286   2.977  0.5863  0.6325 -0.2156
 6611SOL     OW31294   0.191   3.996   5.249 -0.7610  0.0443 -0.1777
 6611SOL    HW131295   0.245   3.962   5.176 -1.7785  1.6510 -1.6844
 6611SOL    HW231296   0.162   4.075   5.204 -0.3331  1.8076  2.7084
 6612SOL     OW31297   1.675   0.954  10.994  0.3635 -0.0686 -0.0997
 6612SOL    HW131298   1.708   1.004  10.919  1.2516 -1.1302 -0.4061
 6612SOL    HW231299   1.583   0.979  10.994  0.5224  0.5789 -3.3565
 6613SOL     OW31300   0.292   0.979   3.875  0.1852  0.0604  0.2522
 6613SOL    HW131301   0.326   0.975   3.965 -0.8834  1.2776  0.7021
 6613SOL    HW231302   0.307   1.072   3.864 -1.0334  0.2569  0.2769
 6614SOL     OW31303   0.487   2.765  17.165  0.0404  0.0982  0.3450
 6614SOL    HW131304   0.528   2.851  17.176 -0.2135  0.0675  1.4605
 6614SOL    HW231305   0.524   2.738  17.080  0.8513 -2.6390  1.5714
 6615SOL     OW31306   0.580   3.517  14.283  0.3080 -0.3185  0.2928
 6615SOL    HW131307   0.616   3.506  14.371  0.7239 -0.5221  0.0978
 6615SOL    HW231308   0.509   3.578  14.303  0.5813  0.6912 -1.8038
 6616SOL     OW31309   2.551   3.426  14.700 -0.2460  0.5326 -0.6270
 6616SOL    HW131310   2.498   3.499  14.670  0.2512  1.0534 -0.2456
 6616SOL    HW231311   2.539   3.358  14.633 -1.8811  2.8688 -2.6695
 6617SOL     OW31312   3.961   2.615   8.522 -0.3372  0.3007 -0.2036
 6617SOL    HW131313   3.995   2.633   8.610 -1.2370 -1.4009  0.4756
 6617SOL    HW231314   3.980   2.522   8.509  0.6845  0.4373  0.2964
 6618SOL     OW31315   3.283   2.775   8.065 -0.7033  0.5108 -0.0856
 6618SOL    HW131316   3.331   2.774   8.148 -0.9913  1.2243  0.0906
 6618SOL    HW231317   3.261   2.682   8.059 -0.0542  0.3587 -0.0848
 6619SOL     OW31318   1.923   0.514   3.588 -0.5499  0.4735 -0.3788
 6619SOL    HW131319   1.891   0.462   3.514 -2.3925 -0.0351  0.7767
 6619SOL    HW231320   1.847   0.565   3.613 -0.2121  1.4235 -1.3104
 6620SOL     OW31321   1.091   1.419   7.308  0.4234  0.4869 -0.1186
 6620SOL    HW131322   1.012   1.375   7.277 -0.9335  1.9022  1.3978
 6620SOL    HW231323   1.074   1.509   7.280  0.8682  1.4463  2.7767
 6621SOL     OW31324   2.725   3.835   6.233 -0.5456 -0.0645  0.1531
 6621SOL    HW131325   2.661   3.763   6.233 -1.8933  1.1225 -1.0715
 6621SOL    HW231326   2.770   3.820   6.316  0.0913 -1.6514 -0.4860
 6622SOL     OW31327   1.834   1.337   0.434  0.9205 -0.3673 -0.0100
 6622SOL    HW131328   1.841   1.349   0.529  1.9208 -1.9754  0.1196
 6622SOL    HW231329   1.897   1.266   0.425  0.4491 -0.9855  1.5667
 6623SOL     OW31330   0.183   0.269  17.650  0.0719  0.6474  0.1236
 6623SOL    HW131331   0.197   0.247  17.558 -0.1476  2.2893 -0.3034
 6623SOL    HW231332   0.089   0.254  17.661  0.4045 -1.6008 -0.2295
 6624SOL     OW31333   3.936   0.917   2.957 -0.1165 -0.0289  0.2519
 6624SOL    HW131334   4.026   0.885   2.963 -0.3304 -0.6943 -0.0669
 6624SOL    HW231335   3.951   1.007   2.984 -0.8888  1.0782 -3.0128
 6625SOL     OW31336   1.160   3.928   6.340 -0.6947 -0.9754  0.1795
 6625SOL    HW131337   1.180   3.932   6.246 -1.0793  2.4825  0.2200
 6625SOL    HW231338   1.097   4.000   6.350 -0.9231 -1.7633  4.5143
 6626SOL     OW31339   3.858   4.209   3.764 -0.0099  0.2723 -0.0956
 6626SOL    HW131340   3.806   4.260   3.827 -1.4373 -1.0503 -0.1975
 6626SOL    HW231341   3.797   4.215   3.691 -1.9715  0.2419  1.5267
 6627SOL     OW31342   0.175   0.920   2.546 -0.2099  0.1673 -0.2306
 6627SOL    HW131343   0.130   0.879   2.472 -0.6584 -1.5298  0.9937
 6627SOL    HW231344   0.264   0.930   2.512 -0.8359  0.4311 -1.7930
 6628SOL     OW31345   0.334   4.504   1.260  0.2925  0.4552 -0.0953
 6628SOL    HW131346   0.318   4.493   1.167 -3.1651  1.2374  0.4065
 6628SOL    HW231347   0.247   4.503   1.300 -0.6869  0.1105 -2.2864
 6629SOL     OW31348   4.242   2.586   9.244  0.0098  0.1699  0.2764
 6629SOL    HW131349   4.318   2.594   9.187 -1.3637 -0.5575 -1.6668
 6629SOL    HW231350   4.271   2.640   9.317  1.8857 -0.4152 -0.0368
 6630SOL     OW31351   0.955   0.440   4.359 -0.3425 -0.0488 -0.3376
 6630SOL    HW131352   0.937   0.451   4.266 -0.2365 -0.6483 -0.4265
 6630SOL    HW231353   1.029   0.500   4.371 -0.3008 -0.7625  2.9120
 6631SOL     OW31354   3.144   1.644  13.729 -0.3701 -0.2043  0.1766
 6631SOL    HW131355   3.109   1.616  13.814  0.4436 -3.0539 -0.4179
 6631SOL    HW231356   3.238   1.641  13.751 -0.3706  1.2523  0.4067
 6632SOL     OW31357   3.554   3.464  15.697 -0.3876 -0.1564 -0.3122
 6632SOL    HW131358   3.558   3.528  15.768  1.4691 -3.0528  2.2277
 6632SOL    HW231359   3.462   3.468  15.672 -0.0647  0.7119 -1.3941
 6633SOL     OW31360   0.282   4.303   8.673  0.0493 -0.3156  0.4279
 6633SOL    HW131361   0.305   4.255   8.594  0.3767 -0.2229  0.4654
 6633SOL    HW231362   0.287   4.233   8.739 -1.7768  2.7590  3.8569
 6634SOL     OW31363   0.720   2.719   6.845  0.6002  0.1476 -0.5439
 6634SOL    HW131364   0.733   2.626   6.863  0.3817  0.3456  0.6327
 6634SOL    HW231365   0.790   2.721   6.781 -0.3811  3.5490 -1.5234
 6635SOL     OW31366   4.507   4.011  13.133  0.3699 -0.0936 -0.6644
 6635SOL    HW131367   4.549   4.046  13.054 -1.4949  2.4007 -0.5498
 6635SOL    HW231368   4.430   3.967  13.096  0.0028  0.1052 -0.1412
 6636SOL     OW31369   0.477   3.676   3.898  0.4355 -0.4906  0.4690
 6636SOL    HW131370   0.405   3.618   3.873 -1.0051  2.0449 -1.3266
 6636SOL    HW231371   0.556   3.625   3.883 -0.1252 -1.6980  1.6439
 6637SOL     OW31372   1.352   3.663   1.310  0.0932 -0.7474  0.5293
 6637SOL    HW131373   1.301   3.743   1.295  2.7059  0.6644 -0.7004
 6637SOL    HW231374   1.364   3.632   1.221  2.0267  0.4807  0.3685
 6638SOL     OW31375   1.007   2.622   7.563  0.2653  0.3345 -0.0360
 6638SOL    HW131376   0.997   2.562   7.489  1.7489 -0.6837  0.5782
 6638SOL    HW231377   1.097   2.600   7.591  0.3153  0.3381 -0.1955
 6639SOL     OW31378   1.603   0.178  16.326 -0.2743 -0.4924  0.6792
 6639SOL    HW131379   1.672   0.229  16.369  0.2610 -0.1727 -0.5830
 6639SOL    HW231380   1.631   0.191  16.236 -2.2647 -2.6383 -0.2448
 6640SOL     OW31381   4.540   1.821  17.520  0.1562 -0.3375 -0.1056
 6640SOL    HW131382   4.447   1.840  17.505 -0.1250 -0.6742  1.2610
 6640SOL    HW231383   4.579   1.865  17.444  2.4811 -0.9560  0.7478
 6641SOL     OW31384   4.116   1.293   8.357 -0.0786  0.0309 -0.4108
 6641SOL    HW131385   4.150   1.205   8.373  2.2705  1.0702  0.3672
 6641SOL    HW231386   4.127   1.301   8.262  0.8437 -0.9826 -0.3936
 6642SOL     OW31387   0.233   3.671   2.028 -0.2302  0.3700 -0.6189
 6642SOL    HW131388   0.279   3.590   2.004 -0.5448 -0.0896  0.3446
 6642SOL    HW231389   0.184   3.629   2.099  0.2820  0.5136 -0.1810
 6643SOL     OW31390   2.460   0.941   8.835  0.2043 -0.5676 -0.1043
 6643SOL    HW131391   2.494   0.943   8.925 -1.2652 -0.3911  0.4560
 6643SOL    HW231392   2.366   0.927   8.851 -0.4791  3.7876 -0.4045
 6644SOL     OW31393   1.306   0.700   3.492 -0.6484  0.2890 -0.5186
 6644SOL    HW131394   1.373   0.643   3.454  0.1615  1.0626 -0.2562
 6644SOL    HW231395   1.349   0.785   3.481 -1.1642  0.5905 -0.1741
 6645SOL     OW31396   1.348   0.323   4.568 -1.0388 -0.5829  0.1945
 6645SOL    HW131397   1.432   0.340   4.525 -0.5580  0.1998  1.4491
 6645SOL    HW231398   1.306   0.269   4.501 -0.7130 -0.9024  0.2492
 6646SOL     OW31399   2.404   3.107   6.101 -0.0763  0.2121  0.9054
 6646SOL    HW131400   2.346   3.149   6.039  3.3648  0.7655 -1.9679
 6646SOL    HW231401   2.429   3.025   6.059 -1.7833 -0.5837  1.4476
 6647SOL     OW31402   1.835   0.273   5.501 -0.4158  0.2353  0.5626
 6647SOL    HW131403   1.854   0.329   5.426  0.9601 -1.2982 -0.2115
 6647SOL    HW231404   1.831   0.187   5.459  0.1964  0.8317 -0.7019
 6648SOL     OW31405   0.912   1.087  12.589  0.4002 -0.2516 -0.1296
 6648SOL    HW131406   0.957   1.132  12.517  0.3551  0.1447  0.0868
 6648SOL    HW231407   0.897   1.166  12.642  1.2227  0.5319 -1.0605
 6649SOL     OW31408   4.188   3.383  17.388 -0.0919 -0.0460  0.0552
 6649SOL    HW131409   4.208   3.460  17.441  2.8884 -0.8302  0.0646
 6649SOL    HW231410   4.108   3.414  17.345 -1.0265 -2.2256  0.2590
 6650SOL     OW31411   2.446   4.239  13.919 -0.5981  0.0453  0.1791
 6650SOL    HW131412   2.404   4.300  13.980 -0.5660 -0.4738  0.7285
 6650SOL    HW231413   2.536   4.271  13.925 -0.2321 -1.4137  3.0031
 6651SOL     OW31414   0.968   2.637   1.685 -0.2461 -0.4200 -0.2130
 6651SOL    HW131415   1.032   2.706   1.670 -0.2081 -0.8295 -1.9556
 6651SOL    HW231416   0.891   2.690   1.705  2.1004  2.5100  0.9244
 6652SOL     OW31417   4.392   4.373   1.037 -0.2150 -0.8683  0.6666
 6652SOL    HW131418   4.464   4.424   1.076 -0.5392  2.2450 -2.8270
 6652SOL    HW231419   4.324   4.440   1.036  1.6831  1.1020  2.0341
 6653SOL     OW31420   4.283   2.230  13.119  0.2828  0.1602 -0.8233
 6653SOL    HW131421   4.312   2.194  13.203 -1.0160 -1.2044 -0.9665
 6653SOL    HW231422   4.222   2.292  13.159  0.8193 -0.1402  0.4500
 6654SOL     OW31423   1.680   1.927   1.561 -0.3117  0.1254 -0.4111
 6654SOL    HW131424   1.710   2.002   1.612 -0.7530 -0.0027  0.0442
 6654SOL    HW231425   1.606   1.898   1.614  0.9878 -0.1783  1.2552
 6655SOL     OW31426   3.591   0.814   1.927 -0.2437  0.7479 -0.4948
 6655SOL    HW131427   3.530   0.786   1.996 -0.8809 -1.7424 -2.0896
 6655SOL    HW231428   3.544   0.891   1.895  0.1566  0.7328 -1.1256
 6656SOL     OW31429   3.767   4.563   6.145  0.1377 -0.0573  0.3854
 6656SOL    HW131430   3.835   4.626   6.120 -1.7920  1.7585 -0.3473
 6656SOL    HW231431   3.720   4.619   6.207 -0.7363  1.3619 -1.5294
 6657SOL     OW31432   1.481   2.628   8.055 -0.5964  0.3471  0.0550
 6657SOL    HW131433   1.449   2.708   8.012 -0.0883  0.9229  0.7422
 6657SOL    HW231434   1.463   2.566   7.984  2.1610  0.4158 -0.6886
 6658SOL     OW31435   4.178   3.855   8.966 -0.5201  0.5044  0.1751
 6658SOL    HW131436   4.092   3.888   8.992 -0.3278  1.2548 -0.1434
 6658SOL    HW231437   4.189   3.786   9.032  1.1860  1.4780  0.9104
 6659SOL     OW31438   4.303   1.933  16.429  0.1100  0.4388 -0.1761
 6659SOL    HW131439   4.306   1.882  16.348 -0.1239 -1.6874  1.1525
 6659SOL    HW231440   4.384   1.983  16.438 -0.0693  0.8847 -1.1153
 6660SOL     OW31441   0.597   1.090   5.282  0.3494  0.2640 -0.7320
 6660SOL    HW131442   0.633   1.085   5.370  0.1946  0.6872 -0.6438
 6660SOL    HW231443   0.618   1.181   5.262 -0.5328  0.7272  0.4464
 6661SOL     OW31444   1.622   3.049  12.656 -0.1741 -0.0270  0.3181
 6661SOL    HW131445   1.603   3.143  12.651  0.4976  0.0365 -0.9169
 6661SOL    HW231446   1.643   3.036  12.749 -0.0586 -1.8362  0.0414
 6662SOL     OW31447   4.310   2.446   5.739 -0.0098  0.0971 -0.1693
 6662SOL    HW131448   4.223   2.473   5.710 -0.5328  1.8731  3.0275
 6662SOL    HW231449   4.306   2.352   5.755 -0.7241  0.0884 -0.4220
 6663SOL     OW31450   0.080   4.272  16.464 -0.0361 -0.3987  0.3022
 6663SOL    HW131451   0.133   4.273  16.544 -0.2382  0.5417  0.4218
 6663SOL    HW231452   0.035   4.357  16.468 -0.0900 -0.4166  0.0770
 6664SOL     OW31453   3.796   2.911   1.464  0.2681 -0.0960 -0.1710
 6664SOL    HW131454   3.890   2.930   1.458 -0.0858  0.9539 -2.2638
 6664SOL    HW231455   3.759   2.971   1.399  0.3725 -0.2542 -0.3777
 6665SOL     OW31456   1.791   3.926  12.829 -0.3155 -0.3080 -0.2084
 6665SOL    HW131457   1.860   3.934  12.895 -1.3338 -0.5458  0.8723
 6665SOL    HW231458   1.837   3.875  12.763  0.3145  0.0820 -0.0747
 6666SOL     OW31459   1.050   4.427  11.645 -0.4477 -0.2313 -0.4327
 6666SOL    HW131460   1.060   4.333  11.660 -2.3563 -0.2951  0.4963
 6666SOL    HW231461   1.053   4.441  11.551 -2.2669  3.1258 -0.0057
 6667SOL     OW31462   0.861   4.506  14.194  0.3293 -0.1073  0.1479
 6667SOL    HW131463   0.953   4.523  14.211  0.7997 -2.7558  0.1362
 6667SOL    HW231464   0.866   4.467  14.107  1.0284 -0.3371  0.2957
 6668SOL     OW31465   2.356   1.943   3.769  0.2358  0.3627 -0.3121
 6668SOL    HW131466   2.293   2.014   3.753  0.3176  0.0913 -1.8752
 6668SOL    HW231467   2.298   1.877   3.806  0.9005 -1.9327 -3.2942
 6669SOL     OW31468   2.161   0.240   6.918 -0.0148  0.1785  0.0372
 6669SOL    HW131469   2.207   0.168   6.962 -0.6418 -0.7291 -0.7952
 6669SOL    HW231470   2.166   0.311   6.982 -0.9460  0.4410 -0.1873
 6670SOL     OW31471   3.450   4.621   4.464  0.1269  0.3185  0.0687
 6670SOL    HW131472   3.472   4.563   4.392  1.2946  1.5346 -0.5599
 6670SOL    HW231473   3.521   4.684   4.454  0.3451 -0.2588 -2.0544
 6671SOL     OW31474   3.585   4.297   8.957 -0.0930  0.0820 -0.6556
 6671SOL    HW131475   3.550   4.212   8.929 -1.9308  0.6232  0.0232
 6671SOL    HW231476   3.619   4.272   9.044 -1.4089  1.0590  0.1386
 6672SOL     OW31477   2.092   0.953  15.026 -0.4517 -0.2200 -0.0606
 6672SOL    HW131478   2.140   1.035  15.022 -0.7143 -0.2754 -4.2171
 6672SOL    HW231479   2.034   0.957  14.950 -0.2797 -0.3481 -0.1971
 6673SOL     OW31480   0.142   2.052   8.541 -0.1017  0.1590  0.3295
 6673SOL    HW131481   0.237   2.044   8.540 -0.2070 -0.5239 -2.1934
 6673SOL    HW231482   0.101   2.001   8.611  1.1346 -0.2865  0.7377
 6674SOL     OW31483   1.785   0.893   8.224  0.3910 -0.4931  0.4441
 6674SOL    HW131484   1.840   0.971   8.232  1.0522 -0.7516 -1.7202
 6674SOL    HW231485   1.772   0.869   8.132  0.5144  0.9743  0.0555
 6675SOL     OW31486   3.566   3.679   8.000 -0.4305  0.0000  0.4361
 6675SOL    HW131487   3.509   3.622   8.052 -0.7173 -0.6145 -0.5495
 6675SOL    HW231488   3.507   3.748   7.973 -0.9860 -0.4911  0.3944
 6676SOL     OW31489   0.481   3.918   6.110  0.7134  0.2680 -0.5743
 6676SOL    HW131490   0.518   3.851   6.167 -0.2566 -0.3053 -0.6166
 6676SOL    HW231491   0.480   3.992   6.171 -1.4065  0.5939 -0.9929
 6677SOL     OW31492   3.150   2.485  10.418 -0.4149 -0.1489 -0.2238
 6677SOL    HW131493   3.170   2.464  10.509  0.0015 -0.8927 -0.4950
 6677SOL    HW231494   3.054   2.477  10.418 -0.3008 -1.5051  2.2007
 6678SOL     OW31495   1.344   2.566   5.162  0.4020  0.0712  0.4979
 6678SOL    HW131496   1.428   2.528   5.134  0.7124 -0.1533  1.7491
 6678SOL    HW231497   1.321   2.622   5.087 -0.1786 -1.2121 -0.2859
 6679SOL     OW31498   1.356   4.056  10.035 -0.7488 -0.0653 -0.2256
 6679SOL    HW131499   1.275   4.066   9.986 -0.1729 -0.2308 -1.2189
 6679SOL    HW231500   1.356   3.969  10.076 -2.2806 -1.1536 -2.5157
 6680SOL     OW31501   1.063   2.331   9.540  0.5517  0.2211 -0.1728
 6680SOL    HW131502   0.978   2.366   9.510 -0.1090 -1.8016 -0.6494
 6680SOL    HW231503   1.065   2.345   9.635  0.7228  0.3223 -0.1915
 6681SOL     OW31504   3.373   2.233   3.848 -0.2052 -0.3906 -0.3321
 6681SOL    HW131505   3.318   2.176   3.901 -0.4196  0.9653  0.8939
 6681SOL    HW231506   3.322   2.313   3.863  0.9756 -0.0667  1.9912
 6682SOL     OW31507   2.368   3.127   5.340 -0.3456  0.1737  0.1635
 6682SOL    HW131508   2.288   3.078   5.358  0.9261 -1.5182  1.1526
 6682SOL    HW231509   2.434   3.062   5.365 -0.5653 -1.1396 -2.6488
 6683SOL     OW31510   3.984   0.128   7.618 -0.2635 -0.1428  0.0309
 6683SOL    HW131511   4.036   0.051   7.593  1.5221  1.1902 -0.4099
 6683SOL    HW231512   3.913   0.095   7.672  0.4820  0.4107  1.3322
 6684SOL     OW31513   3.075   2.907  15.993 -0.1897 -0.2398 -0.3983
 6684SOL    HW131514   3.000   2.966  15.987 -1.0784 -1.3104  0.3208
 6684SOL    HW231515   3.126   2.943  16.066 -2.7581  2.8140 -0.1189
 6685SOL     OW31516   2.187   4.685  17.514 -0.2051  0.0628  0.0239
 6685SOL    HW131517   2.176   4.600  17.557  2.6065 -0.4856 -0.3526
 6685SOL    HW231518   2.151   4.662  17.428  2.1863  0.8128 -1.1701
 6686SOL     OW31519   0.615   0.369   3.823 -0.5034  1.2286  0.8613
 6686SOL    HW131520   0.583   0.301   3.764 -1.5705  1.5226  1.1053
 6686SOL    HW231521   0.708   0.380   3.807 -0.4776  0.7748  0.7032
 6687SOL     OW31522   2.327   3.238   9.160  0.5807 -0.1513 -0.3025
 6687SOL    HW131523   2.292   3.153   9.135 -0.4779  0.7801 -2.0103
 6687SOL    HW231524   2.295   3.252   9.249  1.5875  2.8731 -0.3977
 6688SOL     OW31525   1.223   3.066  10.263  0.2605  0.5091 -0.2872
 6688SOL    HW131526   1.239   3.082  10.356 -3.8669  0.1968  0.4754
 6688SOL    HW231527   1.202   3.156  10.238  1.0393  0.6804 -0.3064
 6689SOL     OW31528   2.807   2.891   6.896 -0.2389  0.8789  0.2915
 6689SOL    HW131529   2.876   2.857   6.954  0.2672 -0.8528 -1.3141
 6689SOL    HW231530   2.725   2.881   6.944  1.1218 -1.3597  2.1591
 6690SOL     OW31531   0.302   3.672   7.814  0.0977  0.0931 -0.2046
 6690SOL    HW131532   0.283   3.578   7.805  1.9222 -0.1753 -1.1452
 6690SOL    HW231533   0.366   3.657   7.884 -1.0990 -1.0259  0.6683
 6691SOL     OW31534   3.616   1.684   7.149 -0.4098 -0.3332 -0.4952
 6691SOL    HW131535   3.599   1.614   7.211 -0.1553  0.5417  0.5620
 6691SOL    HW231536   3.618   1.635   7.067  0.0160  0.3977 -0.9235
 6692SOL     OW31537   1.975   3.698   1.969  0.3475  0.3271 -0.1186
 6692SOL    HW131538   1.984   3.739   2.056  1.1589  0.2300 -0.1646
 6692SOL    HW231539   1.914   3.760   1.929  1.3016  2.8068  2.1935
 6693SOL     OW31540   0.856   4.325   6.238  0.0042 -0.5248 -0.0725
 6693SOL    HW131541   0.898   4.378   6.171  0.2562 -1.4776 -0.6742
 6693SOL    HW231542   0.778   4.378   6.254  1.1657  1.2671 -0.3989
 6694SOL     OW31543   4.138   3.809   8.673  0.5252 -0.7417 -0.0409
 6694SOL    HW131544   4.169   3.830   8.761  2.4574  5.1015 -2.0763
 6694SOL    HW231545   4.204   3.836   8.609  0.9325 -3.2841 -0.6972
 6695SOL     OW31546   2.686   1.558   8.709 -0.0391 -0.1979  0.3586
 6695SOL    HW131547   2.707   1.473   8.748  1.2659 -1.5158 -3.1593
 6695SOL    HW231548   2.683   1.540   8.615 -0.9342  0.9297  0.1669
 6696SOL     OW31549   3.751   2.922   0.637 -0.2548  0.1242 -0.5759
 6696SOL    HW131550   3.719   2.856   0.576  0.1384 -0.9848  0.4289
 6696SOL    HW231551   3.704   2.998   0.602  0.2841  0.5158 -0.4498
 6697SOL     OW31552   0.693   4.676  11.637  0.2519  0.2566  0.1750
 6697SOL    HW131553   0.633   4.631  11.577  1.3237 -1.2031  0.2133
 6697SOL    HW231554   0.734   4.604  11.684 -1.1311 -0.6143  0.0512
 6698SOL     OW31555   1.081   0.020   5.942  0.3282 -0.3565  0.2325
 6698SOL    HW131556   1.097   4.704   5.856 -2.1606  0.4009 -0.5447
 6698SOL    HW231557   1.020   0.094   5.933  0.0857 -0.7699 -1.5224
 6699SOL     OW31558   3.714   3.698  14.828  0.3690  0.4588 -0.0007
 6699SOL    HW131559   3.791   3.661  14.784 -0.2204  3.0037 -3.1490
 6699SOL    HW231560   3.752   3.782  14.854  0.8633  0.7747 -1.7441
 6700SOL     OW31561   4.004   2.456   4.144  0.4304 -0.0326 -0.9149
 6700SOL    HW131562   4.012   2.440   4.050 -0.4979 -1.2693 -0.7913
 6700SOL    HW231563   3.918   2.498   4.145 -0.0045 -0.9248 -1.0092
 6701SOL     OW31564   2.869   0.050   7.908  0.2679  0.6736  0.0837
 6701SOL    HW131565   2.913   0.084   7.986 -0.1904 -0.0498  0.6590
 6701SOL    HW231566   2.893   4.679   7.900 -0.1320  0.7265 -1.5562
 6702SOL     OW31567   1.864   2.392  15.934  0.2075  0.4253 -0.3739
 6702SOL    HW131568   1.955   2.416  15.950 -0.0375  1.7889 -1.0890
 6702SOL    HW231569   1.852   2.410  15.841 -1.8680 -1.1599 -0.4418
 6703SOL     OW31570   2.249   0.967   1.696 -0.0332 -0.4788 -0.2946
 6703SOL    HW131571   2.307   0.895   1.721  1.4633  0.2932 -1.5000
 6703SOL    HW231572   2.229   0.939   1.607 -1.2826 -2.0331  0.4746
 6704SOL     OW31573   2.488   1.907   0.972 -0.2024 -0.5232 -0.5621
 6704SOL    HW131574   2.482   1.986   0.920  0.7677  2.6266  4.1155
 6704SOL    HW231575   2.394   1.895   0.982 -0.1665  0.3755  0.8555
 6705SOL     OW31576   1.904   0.798  16.234  0.1062 -0.8126 -0.0600
 6705SOL    HW131577   1.952   0.715  16.234  1.6687  0.1011 -3.4095
 6705SOL    HW231578   1.838   0.776  16.299 -1.4751 -0.2233 -1.4806
 6706SOL     OW31579   4.063   0.849   6.988 -0.2504  0.0026  0.1847
 6706SOL    HW131580   4.079   0.920   7.049 -0.2362 -0.6175  0.9075
 6706SOL    HW231581   3.990   0.806   7.033 -0.7312  0.4130 -0.1952
 6707SOL     OW31582   1.477   0.457  10.464 -0.0571 -0.3754 -0.1037
 6707SOL    HW131583   1.423   0.518  10.414  0.8714 -0.1399 -0.8140
 6707SOL    HW231584   1.436   0.375  10.435  0.6038 -0.4930 -0.7252
 6708SOL     OW31585   4.492   2.910   8.949  0.4465  0.8347 -0.5002
 6708SOL    HW131586   4.410   2.866   8.926  2.2946 -2.6917 -0.3570
 6708SOL    HW231587   4.486   2.995   8.905 -0.5015  0.3440 -1.3072
 6709SOL     OW31588   3.591   1.021   4.853  0.1546 -0.8981 -0.2756
 6709SOL    HW131589   3.591   1.008   4.948 -2.0795  1.3636  0.0239
 6709SOL    HW231590   3.677   0.989   4.825  0.3805  0.0015 -0.6100
 6710SOL     OW31591   4.144   3.450   0.512  0.3661  0.1489 -0.2171
 6710SOL    HW131592   4.143   3.545   0.525  2.5853  0.6315 -3.4869
 6710SOL    HW231593   4.208   3.436   0.442 -2.3690 -0.6400 -2.5933
 6711SOL     OW31594   3.580   3.750   3.012 -0.3561  0.3088  0.3834
 6711SOL    HW131595   3.562   3.808   3.086 -1.9930  2.7103 -1.8598
 6711SOL    HW231596   3.673   3.774   3.003 -0.5496  1.7340  2.1129
 6712SOL     OW31597   2.727   2.376  14.008  0.4971 -0.2589 -0.3922
 6712SOL    HW131598   2.771   2.408  13.930 -1.6254  2.2209 -0.5805
 6712SOL    HW231599   2.797   2.386  14.073 -0.5601  3.2921  0.1731
 6713SOL     OW31600   1.280   3.486   6.967  0.0872  0.1877 -0.2757
 6713SOL    HW131601   1.373   3.499   6.985  0.0689  1.1986 -0.9151
 6713SOL    HW231602   1.249   3.497   7.057  0.1764  1.3228 -0.3803
 6714SOL     OW31603   0.730   3.637  16.442 -0.3111 -1.2103 -1.0877
 6714SOL    HW131604   0.761   3.593  16.363 -0.2946 -0.9120 -1.2454
 6714SOL    HW231605   0.658   3.586  16.480 -0.2287 -0.2889  0.3494
 6715SOL     OW31606   3.855   0.277   6.525  0.8058 -0.2889  0.0909
 6715SOL    HW131607   3.775   0.230   6.548 -0.8268  1.8650 -1.2043
 6715SOL    HW231608   3.835   0.306   6.436 -0.0705 -0.7712  0.1413
 6716SOL     OW31609   0.523   2.510  13.892 -0.0648 -0.4097  0.5947
 6716SOL    HW131610   0.529   2.561  13.973  0.5410 -0.0243  0.2999
 6716SOL    HW231611   0.578   2.562  13.834 -3.1883  1.5345 -0.6252
 6717SOL     OW31612   2.299   3.065   1.711 -0.0185 -0.0824  0.0972
 6717SOL    HW131613   2.234   3.072   1.781 -0.4964  1.8495 -0.5304
 6717SOL    HW231614   2.322   3.154   1.686  0.0290 -0.5042 -1.3300
 6718SOL     OW31615   1.836   3.397  11.735 -0.0443 -0.1155 -0.1922
 6718SOL    HW131616   1.898   3.335  11.773 -0.5723  0.4195  1.5393
 6718SOL    HW231617   1.792   3.353  11.662  0.2732 -0.2974 -0.2735
 6719SOL     OW31618   0.282   1.688   7.843 -0.1432  0.6219  0.6870
 6719SOL    HW131619   0.231   1.675   7.923 -1.0445 -0.3038 -0.0332
 6719SOL    HW231620   0.326   1.773   7.843  0.5486  0.2726  3.2429
 6720SOL     OW31621   3.656   2.101   3.132  0.0893 -0.2742  0.2218
 6720SOL    HW131622   3.582   2.086   3.190 -1.3239 -0.2947 -1.6073
 6720SOL    HW231623   3.638   2.192   3.110  1.4750 -0.8550 -3.2616
 6721SOL     OW31624   2.403   1.533   3.809  0.5140  0.5333 -0.6817
 6721SOL    HW131625   2.382   1.444   3.835 -2.2252  1.1829 -0.6011
 6721SOL    HW231626   2.330   1.578   3.853  0.8419 -0.3464  0.7526
 6722SOL     OW31627   0.142   0.465   6.335  0.8943 -0.5521  0.2350
 6722SOL    HW131628   0.155   0.420   6.252 -0.4776 -2.1060  0.8778
 6722SOL    HW231629   0.159   0.396   6.400 -2.8935 -1.8683 -0.2009
 6723SOL     OW31630   2.049   0.363  10.237  0.1131  0.0274  0.2702
 6723SOL    HW131631   1.962   0.368  10.197  0.8075 -2.2597 -1.5288
 6723SOL    HW231632   2.093   0.430  10.185 -1.0808 -0.9510 -1.9709
 6724SOL     OW31633   3.030   0.030   3.538 -0.0572 -0.0715 -0.1739
 6724SOL    HW131634   2.937   0.010   3.526 -0.1323  1.4539 -2.1725
 6724SOL    HW231635   3.077   4.693   3.478  0.4879  1.3319 -1.0871
 6725SOL     OW31636   4.424   2.707  15.562 -0.0591 -0.0228  0.2808
 6725SOL    HW131637   4.419   2.732  15.654 -1.2676  0.6736  0.0334
 6725SOL    HW231638   4.409   2.613  15.566 -0.0107 -0.1329 -2.1343
 6726SOL     OW31639   0.457   0.249   6.666  0.7231 -0.1127  0.6016
 6726SOL    HW131640   0.422   0.209   6.746  1.1447 -2.4177 -0.3721
 6726SOL    HW231641   0.513   0.181   6.629  0.6627 -0.4637  1.1521
 6727SOL     OW31642   2.889   3.603   9.300  0.6761 -0.4828 -0.0738
 6727SOL    HW131643   2.933   3.554   9.371 -0.8592  0.7511  1.7326
 6727SOL    HW231644   2.883   3.689   9.341  1.0989 -0.7355  0.5380
 6728SOL     OW31645   2.835   3.202  11.451 -0.1393 -0.0086  0.5186
 6728SOL    HW131646   2.911   3.258  11.469 -0.6211  0.6320  0.5422
 6728SOL    HW231647   2.875   3.127  11.406  0.3158  0.3868  0.2605
 6729SOL     OW31648   3.201   2.165  17.219  0.5343 -0.5633 -0.6173
 6729SOL    HW131649   3.200   2.259  17.235  2.3127 -0.7607  0.6658
 6729SOL    HW231650   3.107   2.151  17.206  0.3062 -0.2883  0.7937
 6730SOL     OW31651   2.417   3.250  15.041  0.2023  0.3427  0.4797
 6730SOL    HW131652   2.502   3.291  15.026 -1.5345  3.8098  0.1477
 6730SOL    HW231653   2.387   3.250  14.950 -1.1960 -0.1991  0.9315
 6731SOL     OW31654   3.017   2.646  17.144 -0.2654 -0.4335  0.1235
 6731SOL    HW131655   2.935   2.598  17.146 -1.3524  1.3747 -1.8283
 6731SOL    HW231656   3.007   2.693  17.227  4.5420  1.8650 -0.5895
 6732SOL     OW31657   3.689   2.263   2.525  0.2922  0.1976 -0.6678
 6732SOL    HW131658   3.656   2.342   2.569  0.8429  0.0261  0.0424
 6732SOL    HW231659   3.773   2.258   2.570  0.2255 -3.7042 -0.9801
 6733SOL     OW31660   3.405   4.589   6.900 -0.1008  0.7991 -0.1497
 6733SOL    HW131661   3.484   4.542   6.926  0.0152 -0.1246 -2.1508
 6733SOL    HW231662   3.424   4.680   6.924  1.6538  0.3666  0.0700
 6734SOL     OW31663   2.210   3.111  16.271  0.3723  0.1272  0.3574
 6734SOL    HW131664   2.136   3.137  16.216 -0.1754 -1.2872  0.4405
 6734SOL    HW231665   2.207   3.183  16.335 -0.5022  0.4225 -0.0021
 6735SOL     OW31666   0.163   2.104  15.006 -0.2928 -0.3646  0.2599
 6735SOL    HW131667   0.071   2.077  15.008 -0.0313 -1.2790  0.2597
 6735SOL    HW231668   0.167   2.124  14.913  0.5679  3.2568  1.0864
 6736SOL     OW31669   4.554   4.163   5.615 -0.3388 -0.7127  0.1644
 6736SOL    HW131670   4.618   4.127   5.676  0.4926 -0.2021 -0.4079
 6736SOL    HW231671   4.544   4.090   5.554 -2.4702 -1.4439  1.3518
 6737SOL     OW31672   4.504   0.827   6.495 -0.5492  0.4482  0.1270
 6737SOL    HW131673   4.530   0.759   6.432  0.5460  0.8825  0.1213
 6737SOL    HW231674   4.568   0.824   6.566  0.4838 -0.8542 -0.8482
 6738SOL     OW31675   2.838   0.593   4.789 -0.3779 -0.5633  0.0257
 6738SOL    HW131676   2.868   0.568   4.877  0.1959  1.1716  0.3270
 6738SOL    HW231677   2.819   0.509   4.748 -1.1660 -0.2347 -0.2830
 6739SOL     OW31678   3.202   2.246   1.408  0.0359  0.1891  0.1490
 6739SOL    HW131679   3.265   2.233   1.480 -0.2875 -2.4981 -0.0625
 6739SOL    HW231680   3.189   2.154   1.384  1.8156  0.8881 -3.4731
 6740SOL     OW31681   1.987   2.418   7.126  0.1436  0.3530 -0.1798
 6740SOL    HW131682   2.063   2.386   7.175  0.6826 -2.3891 -2.8059
 6740SOL    HW231683   2.022   2.472   7.055  0.4755  0.4461  0.0548
 6741SOL     OW31684   0.063   3.224   4.825 -0.2906 -0.1741 -0.4086
 6741SOL    HW131685   0.019   3.285   4.767  0.7769  1.2676  0.3031
 6741SOL    HW231686   0.079   3.153   4.763 -0.6973 -0.3080 -0.3577
 6742SOL     OW31687   0.589   3.380   3.567 -0.4812  0.3451 -0.1309
 6742SOL    HW131688   0.558   3.443   3.502  1.0096 -1.9784 -3.1291
 6742SOL    HW231689   0.612   3.305   3.511 -1.2070  2.0890 -2.7579
 6743SOL     OW31690   0.880   1.181   4.657  0.4108  0.5381  0.2202
 6743SOL    HW131691   0.935   1.228   4.719 -0.2082 -0.0809  1.2473
 6743SOL    HW231692   0.835   1.254   4.613 -0.3452 -1.2697 -2.0298
 6744SOL     OW31693   2.182   0.136   9.621  0.0750 -0.2071  0.7625
 6744SOL    HW131694   2.199   0.202   9.689  2.1742  0.4563 -0.4224
 6744SOL    HW231695   2.127   0.188   9.562  0.1951  0.1594  0.9718
 6745SOL     OW31696   1.929   0.599   9.422  0.3203  0.0602  0.2787
 6745SOL    HW131697   1.962   0.686   9.399  1.3864 -0.8299 -1.5298
 6745SOL    HW231698   1.870   0.580   9.349 -0.7759  0.9275  0.9473
 6746SOL     OW31699   2.566   3.941  12.056  0.0305 -0.2542  0.3240
 6746SOL    HW131700   2.645   3.921  12.005 -0.6522 -0.3216 -0.7118
 6746SOL    HW231701   2.579   3.881  12.130 -2.2097 -0.6274  0.4018
 6747SOL     OW31702   0.559   4.603   7.319 -0.0669  0.1460  0.4699
 6747SOL    HW131703   0.529   4.672   7.378 -0.4860 -0.1263  0.5777
 6747SOL    HW231704   0.513   4.632   7.240  0.4268 -2.7553 -0.8980
 6748SOL     OW31705   1.166   2.650  14.420 -0.0789  0.4060  0.6317
 6748SOL    HW131706   1.221   2.720  14.456 -0.2659 -0.0892  1.8698
 6748SOL    HW231707   1.164   2.595  14.498 -1.6605 -0.5064 -0.0552
 6749SOL     OW31708   3.082   0.940   0.148  0.6795 -0.1256  0.3151
 6749SOL    HW131709   3.085   0.847   0.126 -1.8578  0.1939 -1.3397
 6749SOL    HW231710   3.062   0.970   0.060  2.9520  0.2270 -0.0825
 6750SOL     OW31711   1.167   0.925  14.177 -0.0230 -0.0815 -0.0745
 6750SOL    HW131712   1.091   0.867  14.170 -1.1031  1.2521  0.7901
 6750SOL    HW231713   1.122   1.009  14.174  0.7364  0.3136 -0.3012
 6751SOL     OW31714   1.382   2.711   4.416 -0.1792  0.0012 -0.2200
 6751SOL    HW131715   1.348   2.680   4.500 -0.5883  2.6005  0.5907
 6751SOL    HW231716   1.473   2.683   4.422 -0.1342  0.1702 -0.0945
 6752SOL     OW31717   2.659   0.834   5.288 -0.2695 -0.1888  0.4020
 6752SOL    HW131718   2.693   0.923   5.299  0.4678 -0.8411  3.4703
 6752SOL    HW231719   2.647   0.814   5.381 -1.6515 -1.7903 -0.1292
 6753SOL     OW31720   3.652   3.305   4.044  0.2655  0.7631 -0.3074
 6753SOL    HW131721   3.669   3.393   4.077  3.5980  0.1471 -0.3388
 6753SOL    HW231722   3.562   3.286   4.071  0.0652  0.4196 -1.2083
 6754SOL     OW31723   0.788   3.896  10.416 -0.0149  0.0993  0.5493
 6754SOL    HW131724   0.714   3.953  10.392 -0.8814 -1.3346 -0.1788
 6754SOL    HW231725   0.762   3.811  10.380 -0.6351  0.5694 -0.1147
 6755SOL     OW31726   0.374   1.426   5.029  0.7953 -0.0447  0.3686
 6755SOL    HW131727   0.405   1.342   4.995  1.9385  0.7066 -0.4825
 6755SOL    HW231728   0.412   1.426   5.117  1.8951 -3.0974 -0.1230
 6756SOL     OW31729   2.853   0.958   6.925  0.1452  0.3305  0.4061
 6756SOL    HW131730   2.828   1.003   6.844 -2.0353 -1.5566  0.0331
 6756SOL    HW231731   2.932   0.913   6.895 -0.9726 -0.7018 -1.0010
 6757SOL     OW31732   2.593   4.296   1.393 -0.5265  0.0304 -0.9610
 6757SOL    HW131733   2.622   4.387   1.390 -0.8325  0.1346 -0.7183
 6757SOL    HW231734   2.498   4.298   1.406 -0.3942 -2.1450  0.3402
 6758SOL     OW31735   1.387   1.526   3.655  0.3454 -0.4355 -0.3001
 6758SOL    HW131736   1.350   1.557   3.738 -0.1049 -3.3545  0.5739
 6758SOL    HW231737   1.447   1.598   3.635  1.9166 -1.4058  1.0099
 6759SOL     OW31738   4.666   2.376   4.515  0.0167 -0.0352  0.3369
 6759SOL    HW131739   4.608   2.318   4.466  1.6155 -1.5820  0.2452
 6759SOL    HW231740   4.704   2.433   4.448 -0.1854 -1.7893 -1.2894
 6760SOL     OW31741   2.002   3.659  13.056  0.1621 -0.2916  0.4119
 6760SOL    HW131742   1.912   3.646  13.087  0.1112 -1.8470 -0.3434
 6760SOL    HW231743   2.020   3.752  13.069 -1.9229  0.1293  0.3502
 6761SOL     OW31744   4.388   0.085   1.286  0.4393 -0.2692  0.1231
 6761SOL    HW131745   4.358   0.059   1.374  3.2583  0.6419  1.3420
 6761SOL    HW231746   4.364   0.177   1.275 -2.1983 -1.0222 -0.5617
 6762SOL     OW31747   2.407   1.381   4.084 -0.1399  0.1272 -0.0007
 6762SOL    HW131748   2.362   1.385   4.169 -1.3002 -0.8529 -0.5663
 6762SOL    HW231749   2.387   1.292   4.055  1.3284 -0.5340  1.0579
 6763SOL     OW31750   0.392   3.914   5.032 -0.2421  0.3943 -0.4565
 6763SOL    HW131751   0.396   3.830   4.986  2.3008  0.4417 -0.2973
 6763SOL    HW231752   0.481   3.940   5.011 -0.0475  0.3091  0.2852
 6764SOL     OW31753   1.578   2.568  16.135 -0.7632 -0.8380 -0.5401
 6764SOL    HW131754   1.652   2.612  16.093 -0.6987 -1.2401 -0.8469
 6764SOL    HW231755   1.505   2.616  16.096 -0.1386 -0.4617 -1.2557
 6765SOL     OW31756   2.891   1.265   7.627 -0.2760  0.0438  0.1234
 6765SOL    HW131757   2.869   1.202   7.695 -1.0991  1.4068  1.1276
 6765SOL    HW231758   2.840   1.231   7.554 -0.2426  1.0842 -0.3778
 6766SOL     OW31759   0.243   0.598   8.666 -0.3263  0.5451  0.0044
 6766SOL    HW131760   0.156   0.580   8.631 -0.9124  1.6890  0.8593
 6766SOL    HW231761   0.221   0.653   8.741  2.5174  0.7070  0.7424
 6767SOL     OW31762   3.590   3.874   6.874  0.1110 -0.3028  0.9097
 6767SOL    HW131763   3.593   3.838   6.963 -2.0428  0.6538  1.3607
 6767SOL    HW231764   3.574   3.967   6.889 -0.2460  0.0039 -1.3962
 6768SOL     OW31765   3.503   0.276   4.239  0.0678 -0.4355 -0.1790
 6768SOL    HW131766   3.463   0.325   4.311  2.3095 -2.9305  2.7998
 6768SOL    HW231767   3.549   0.213   4.295  1.1990 -0.2884 -0.9397
 6769SOL     OW31768   1.170   0.763   7.014  0.2437  0.6086  0.5236
 6769SOL    HW131769   1.124   0.693   7.061 -0.8317  0.2446 -1.0500
 6769SOL    HW231770   1.240   0.787   7.074  0.2565 -0.3277  0.8767
 6770SOL     OW31771   2.328   0.827  15.774 -0.7638 -0.3855 -0.3960
 6770SOL    HW131772   2.368   0.831  15.687  0.5821  1.0999  0.2973
 6770SOL    HW231773   2.382   0.888  15.825  0.1807 -1.2417 -0.3812
 6771SOL     OW31774   1.933   0.725   3.369  0.1012  0.3213  0.0113
 6771SOL    HW131775   1.980   0.721   3.285 -2.2088  0.0062 -1.2658
 6771SOL    HW231776   1.879   0.649   3.347  2.1171 -0.7626 -1.1892
 6772SOL     OW31777   1.009   4.459   3.415  0.3488 -0.1772 -0.1646
 6772SOL    HW131778   1.080   4.520   3.396  0.6749 -0.5946 -0.2717
 6772SOL    HW231779   0.944   4.498   3.357  1.1560  0.0289 -0.9234
 6773SOL     OW31780   1.196   0.446  14.241 -0.2123 -0.3589  0.2615
 6773SOL    HW131781   1.114   0.399  14.256  0.9014 -2.4296 -0.1629
 6773SOL    HW231782   1.202   0.509  14.313 -1.6943  1.6525 -1.3994
 6774SOL     OW31783   1.040   0.317   3.592  0.1535  0.0359  0.2001
 6774SOL    HW131784   1.025   0.231   3.631  1.5127 -1.8872 -3.4760
 6774SOL    HW231785   0.953   0.338   3.557 -0.2759  0.6543  1.6377
 6775SOL     OW31786   1.774   1.068  12.264 -0.4273  0.0679 -0.1806
 6775SOL    HW131787   1.739   1.011  12.196  2.6393 -0.2518 -1.4819
 6775SOL    HW231788   1.861   1.033  12.281 -0.7899  0.0638  1.6438
 6776SOL     OW31789   2.208   3.758   6.304  0.2809  0.7385  0.4165
 6776SOL    HW131790   2.157   3.677   6.293  0.8566 -0.0047  3.2435
 6776SOL    HW231791   2.186   3.802   6.222  1.3720  0.2514 -0.1381
 6777SOL     OW31792   0.333   1.204   0.886 -0.1571 -0.0432  0.4085
 6777SOL    HW131793   0.300   1.139   0.824  0.1807 -0.6895  0.9052
 6777SOL    HW231794   0.334   1.284   0.833 -0.0988 -0.0437  0.4094
 6778SOL     OW31795   2.086   0.872   1.173  0.7352 -0.0559  0.7606
 6778SOL    HW131796   2.176   0.839   1.180  0.6400 -0.6663 -0.9803
 6778SOL    HW231797   2.095   0.913   1.087 -0.3900 -0.8303  0.2934
 6779SOL     OW31798   1.937   0.115   6.220 -0.2100  0.3637 -0.9681
 6779SOL    HW131799   2.009   0.175   6.204  1.7791 -1.8841 -0.3425
 6779SOL    HW231800   1.920   0.136   6.312  3.0721  0.9688 -0.5010
 6780SOL     OW31801   3.120   2.703   5.924 -0.0929  0.3149 -0.7593
 6780SOL    HW131802   3.121   2.671   6.015  0.5018  0.9276 -0.5595
 6780SOL    HW231803   3.085   2.626   5.879 -0.1280 -0.8374  1.2195
 6781SOL     OW31804   1.862   4.113   3.523  0.5504  0.1750 -0.0309
 6781SOL    HW131805   1.801   4.080   3.458  1.2410  1.5547 -1.3722
 6781SOL    HW231806   1.791   4.145   3.578  0.9668 -2.2637  1.9601
 6782SOL     OW31807   0.427   0.690   1.624 -0.0174 -0.6469 -0.2776
 6782SOL    HW131808   0.427   0.615   1.565  1.1050 -0.5793 -0.3466
 6782SOL    HW231809   0.516   0.713   1.652 -0.8653  2.4184 -0.0255
 6783SOL     OW31810   0.412   3.775  15.081  0.2484  0.0643 -0.3154
 6783SOL    HW131811   0.507   3.760  15.081 -0.0140 -1.6026 -1.3020
 6783SOL    HW231812   0.402   3.870  15.088  1.9736  0.3965 -2.6008
 6784SOL     OW31813   4.585   2.627   4.165  0.4677 -0.2914  0.6030
 6784SOL    HW131814   4.541   2.543   4.182 -1.7722  0.5513 -1.0243
 6784SOL    HW231815   4.517   2.692   4.182  0.2236  0.2942 -2.5563
 6785SOL     OW31816   1.494   0.156   0.128  0.6312  0.6771 -0.1891
 6785SOL    HW131817   1.514   0.202   0.209  0.1085  0.2920  0.1542
 6785SOL    HW231818   1.406   0.184   0.102  1.3558  3.5562  0.4425
 6786SOL     OW31819   0.266   0.865   7.659 -0.0384  0.3518  0.9586
 6786SOL    HW131820   0.338   0.866   7.595  0.6002  1.1655  1.6902
 6786SOL    HW231821   0.235   0.955   7.650  2.1283  1.0053 -0.1735
 6787SOL     OW31822   4.505   1.581   8.095  0.1880  0.0259 -0.0894
 6787SOL    HW131823   4.516   1.498   8.050  0.7253 -0.3525  0.7363
 6787SOL    HW231824   4.433   1.624   8.049 -0.6441 -2.3606 -1.0321
 6788SOL     OW31825   4.290   1.395   4.158 -0.2785 -0.3852  0.0663
 6788SOL    HW131826   4.301   1.373   4.065 -0.0882 -0.6485  0.1537
 6788SOL    HW231827   4.208   1.349   4.176  0.4718 -0.5580  3.0327
 6789SOL     OW31828   0.042   0.296   4.649  0.2667  0.3331 -0.4970
 6789SOL    HW131829   4.685   0.347   4.670  0.8171  1.2811 -0.7532
 6789SOL    HW231830   0.028   0.261   4.561  0.9039 -0.0006 -0.4688
 6790SOL     OW31831   0.583   3.169   2.651  0.2713  1.0988 -0.0890
 6790SOL    HW131832   0.576   3.199   2.741 -1.7982  1.0742 -0.2523
 6790SOL    HW231833   0.671   3.130   2.649 -0.1345  0.0856  1.8842
 6791SOL     OW31834   0.658   4.552   6.783 -0.3313 -0.4832  0.0635
 6791SOL    HW131835   0.677   4.462   6.810 -2.1231 -0.6115  0.9370
 6791SOL    HW231836   0.618   4.596   6.858  0.0252 -0.1139  0.0376
 6792SOL     OW31837   1.890   3.336   8.433  0.7319  0.5992  0.5036
 6792SOL    HW131838   1.979   3.301   8.432  0.1268 -0.9239 -1.2468
 6792SOL    HW231839   1.913   3.426   8.453 -2.0015  1.0598  1.5113
 6793SOL     OW31840   3.575   1.260   4.727  0.1321  0.5993  0.2081
 6793SOL    HW131841   3.517   1.252   4.651  1.5988  0.6113 -0.9155
 6793SOL    HW231842   3.579   1.169   4.758 -0.1478  0.1846 -0.9803
 6794SOL     OW31843   0.283   2.062   3.224 -0.2664 -0.3365  0.2921
 6794SOL    HW131844   0.347   2.052   3.295 -1.2071 -2.4532  0.8136
 6794SOL    HW231845   0.342   2.048   3.149 -1.9772  0.5201 -1.2177
 6795SOL     OW31846   4.354   4.325   5.009 -0.7384 -0.4467  0.5064
 6795SOL    HW131847   4.277   4.379   5.029 -0.9236 -1.1887  1.7665
 6795SOL    HW231848   4.388   4.369   4.931 -0.3035  0.0058  0.9511
 6796SOL     OW31849   0.250   0.881   1.542 -0.0733  0.3206 -0.0787
 6796SOL    HW131850   0.327   0.907   1.493  0.7695 -2.0255  0.0381
 6796SOL    HW231851   0.282   0.805   1.591  0.2786  0.2406 -0.4403
 6797SOL     OW31852   1.885   1.358   0.706  0.2471 -0.2015 -0.0396
 6797SOL    HW131853   1.980   1.357   0.711  0.3203 -0.8895 -1.6332
 6797SOL    HW231854   1.863   1.277   0.752  1.4465 -1.7337 -2.1693
 6798SOL     OW31855   3.813   0.166   4.261 -0.3771 -0.1756 -0.1514
 6798SOL    HW131856   3.769   0.138   4.341  0.8003  0.1803  0.6156
 6798SOL    HW231857   3.893   0.206   4.296 -1.9992  0.3960  2.9122
 6799SOL     OW31858   2.392   0.036   0.681 -0.7288 -0.1340 -0.0392
 6799SOL    HW131859   2.353   4.689   0.627  0.1590  0.1345 -1.0384
 6799SOL    HW231860   2.447   4.706   0.740  1.3264 -0.9894 -2.6785
 6800SOL     OW31861   2.960   2.208   4.072  0.3313  0.3025  0.6690
 6800SOL    HW131862   3.013   2.133   4.043 -0.8426 -0.0087 -0.6798
 6800SOL    HW231863   3.000   2.232   4.155 -0.8707 -1.9255  1.8985
 6801SOL     OW31864   3.961   4.168   4.159 -0.5503 -0.0771 -0.4603
 6801SOL    HW131865   4.021   4.201   4.225 -0.5734  2.4337 -1.6721
 6801SOL    HW231866   4.025   4.126   4.102 -1.9578  0.2196 -2.2764
 6802SOL     OW31867   2.822   3.630   3.881 -0.2024 -0.3576  0.1287
 6802SOL    HW131868   2.748   3.580   3.917  1.2257 -0.8848  2.3663
 6802SOL    HW231869   2.891   3.564   3.879  0.9481  0.9063 -1.2951
 6803SOL     OW31870   0.000   1.652  16.102 -0.2551  0.1687  0.2964
 6803SOL    HW131871   0.066   1.629  16.037  1.3796  1.9960  1.3000
 6803SOL    HW231872   4.668   1.573  16.110 -2.0810  1.4425  0.7617
 6804SOL     OW31873   3.281   0.969   8.967  0.2154  0.7683  0.4651
 6804SOL    HW131874   3.330   1.042   9.004 -0.4272  0.2601  2.3399
 6804SOL    HW231875   3.242   1.004   8.887 -1.0547  2.0744  1.6611
 6805SOL     OW31876   1.129   0.680   8.775  0.0772  0.5028 -0.3146
 6805SOL    HW131877   1.176   0.656   8.695  0.8036 -0.2817  0.3442
 6805SOL    HW231878   1.086   0.759   8.741  0.8732  1.5843  1.1649
 6806SOL     OW31879   4.110   0.295   6.648 -0.0198  0.3009 -0.1665
 6806SOL    HW131880   4.019   0.280   6.621 -0.5840  4.3011 -0.4451
 6806SOL    HW231881   4.134   0.364   6.587  0.5927 -0.7509 -1.1130
 6807SOL     OW31882   4.630   1.116   8.403 -0.2893 -0.2421 -0.3007
 6807SOL    HW131883   4.556   1.140   8.348  0.9712  2.5298 -0.7747
 6807SOL    HW231884   4.591   1.105   8.489  1.7212  2.3060  0.9221
 6808SOL     OW31885   3.996   2.002   5.267  0.6460  0.1626 -0.0269
 6808SOL    HW131886   4.020   2.093   5.249 -0.0599  0.2432 -0.6019
 6808SOL    HW231887   3.900   2.006   5.270  0.5784 -0.1765 -1.4994
 6809SOL     OW31888   3.910   4.367   8.495 -0.4950 -0.2357 -0.8239
 6809SOL    HW131889   3.898   4.273   8.478  1.2626 -0.8540  1.3588
 6809SOL    HW231890   3.986   4.389   8.442 -0.3349 -1.3683 -1.0573
 6810SOL     OW31891   1.722   4.486   3.600 -0.1336 -0.0112 -0.7684
 6810SOL    HW131892   1.684   4.574   3.604  2.4112  1.1213 -1.1908
 6810SOL    HW231893   1.770   4.487   3.683 -0.8219  0.1927 -0.3716
 6811SOL     OW31894   2.630   1.610   3.249 -0.3116 -0.6400  0.5492
 6811SOL    HW131895   2.599   1.585   3.336  2.5541 -0.0714  1.7687
 6811SOL    HW231896   2.542   1.609   3.213 -0.0123  0.6912 -0.2194
 6812SOL     OW31897   4.143   2.990   6.973 -0.3031 -0.0412  0.2366
 6812SOL    HW131898   4.205   2.989   7.046 -2.2661  0.3300  1.8996
 6812SOL    HW231899   4.095   2.907   6.983 -0.9390  0.2998 -0.0243
 6813SOL     OW31900   4.032   0.699  12.279  0.3243  0.1275  0.5388
 6813SOL    HW131901   4.042   0.660  12.366 -1.3605 -0.5939  0.4049
 6813SOL    HW231902   4.124   0.696  12.253  0.2528 -1.4174  0.4616
 6814SOL     OW31903   4.182   1.255   1.653  0.8875 -0.5089  0.0188
 6814SOL    HW131904   4.254   1.202   1.687  1.4613 -0.8753 -1.7743
 6814SOL    HW231905   4.236   1.297   1.586  0.6123  2.6816  1.8000
 6815SOL     OW31906   3.300   1.379   8.233  0.3710  0.2884  0.4933
 6815SOL    HW131907   3.288   1.411   8.323  1.3425 -1.1855  1.1371
 6815SOL    HW231908   3.395   1.390   8.225  0.4234 -0.6502 -0.0462
 6816SOL     OW31909   3.317   3.196   5.694 -0.5214 -0.1644 -0.1940
 6816SOL    HW131910   3.310   3.101   5.688  0.2225 -0.3959  2.4988
 6816SOL    HW231911   3.409   3.217   5.682 -0.2709 -0.3482  1.3475
 6817SOL     OW31912   4.469   3.327   3.780 -0.4117  0.4594  0.6916
 6817SOL    HW131913   4.393   3.314   3.723 -1.1694 -0.8120  1.9846
 6817SOL    HW231914   4.433   3.355   3.865 -2.2057 -0.4416  0.2328
 6818SOL     OW31915   3.782   3.374   7.645 -0.1718  0.0778 -0.7470
 6818SOL    HW131916   3.693   3.402   7.666 -0.4550 -2.0326  0.8779
 6818SOL    HW231917   3.815   3.333   7.725  0.7977  0.1926 -1.0956
 6819SOL     OW31918   0.001   0.037   6.831 -0.1407  0.9139  0.7905
 6819SOL    HW131919   0.036   0.044   6.742  0.4238 -0.8634  0.8697
 6819SOL    HW231920   4.659   0.108   6.834  2.1187  2.8902  1.4198
 6820SOL     OW31921   0.378   1.643   6.496 -0.6478 -0.7366  0.4341
 6820SOL    HW131922   0.429   1.652   6.416 -3.8418  0.3767 -1.4563
 6820SOL    HW231923   0.291   1.621   6.464 -0.3491 -1.0028 -0.1923
 6821SOL     OW31924   1.471   4.545   3.141 -0.1886 -0.1755 -0.4187
 6821SOL    HW131925   1.501   4.473   3.085  1.5379  0.4164 -0.2609
 6821SOL    HW231926   1.465   4.616   3.077  2.5589  1.4938  1.2006
 6822SOL     OW31927   0.895   2.486   6.503  0.7754  0.0865 -0.0133
 6822SOL    HW131928   0.960   2.479   6.574 -1.1283 -0.0008  1.7137
 6822SOL    HW231929   0.949   2.528   6.436 -0.0803  0.6305 -0.3469
 6823SOL     OW31930   3.194   3.173   3.039 -0.1709  0.9323 -0.4594
 6823SOL    HW131931   3.134   3.216   2.978  1.4063  3.0845 -0.4818
 6823SOL    HW231932   3.261   3.241   3.036 -0.2240  0.9648 -0.8988
 6824SOL     OW31933   3.555   1.927   5.475  0.2704 -0.5966  0.4096
 6824SOL    HW131934   3.534   1.998   5.414  2.4434 -0.0543  0.2866
 6824SOL    HW231935   3.473   1.879   5.484  0.5403 -1.2686 -0.7150
 6825SOL     OW31936   3.644   0.046   3.138 -0.3593 -0.4409  0.4021
 6825SOL    HW131937   3.663   0.043   3.044  1.9508  1.9232  0.7762
 6825SOL    HW231938   3.580   4.696   3.140  1.2591 -1.9892 -2.0761
 6826SOL     OW31939   2.904   3.965   8.104  0.3636 -0.0546  0.0166
 6826SOL    HW131940   2.945   3.884   8.074 -0.4734 -0.3756 -0.2614
 6826SOL    HW231941   2.829   3.968   8.044 -0.3852 -2.5179  0.8586
 6827SOL     OW31942   2.400   4.549   3.946 -0.6304  0.3144  0.2380
 6827SOL    HW131943   2.415   4.643   3.938 -0.9319  0.4776  1.5007
 6827SOL    HW231944   2.456   4.516   4.016  1.3292  3.4242  0.0997
 6828SOL     OW31945   2.678   1.461   4.739  0.0193 -0.4942  0.7725
 6828SOL    HW131946   2.636   1.527   4.795 -2.0299 -0.8138 -0.3902
 6828SOL    HW231947   2.712   1.518   4.671 -1.1948  0.8568  1.2734
 6829SOL     OW31948   2.044   1.519  15.384  0.1386  0.0586  0.2749
 6829SOL    HW131949   2.096   1.474  15.317  1.2182 -0.4347  1.4530
 6829SOL    HW231950   1.964   1.538  15.335  0.8426  1.9560 -0.1165
 6830SOL     OW31951   4.302   1.224   1.380  0.3047 -0.1297 -0.1204
 6830SOL    HW131952   4.396   1.234   1.369  0.4045 -0.6849  0.2420
 6830SOL    HW231953   4.297   1.132   1.402 -0.2427 -0.1890 -0.4740
 6831SOL     OW31954   1.439   0.972   1.600 -0.3897  0.1731  0.5526
 6831SOL    HW131955   1.516   1.029   1.599 -0.3651  0.1163 -0.9121
 6831SOL    HW231956   1.371   1.017   1.650 -2.7955 -0.2926 -2.3098
 6832SOL     OW31957   4.306   4.235   5.763  0.2302 -0.1052  0.3749
 6832SOL    HW131958   4.357   4.234   5.682 -1.3794 -0.6995 -0.6204
 6832SOL    HW231959   4.236   4.173   5.745  0.9515 -0.8951  0.3212
 6833SOL     OW31960   0.496   3.028   7.516 -0.5389 -0.1883  0.6310
 6833SOL    HW131961   0.478   2.943   7.477  0.8250 -0.8743  1.5186
 6833SOL    HW231962   0.547   3.068   7.446 -2.1812 -0.7945 -0.9078
 6834SOL     OW31963   3.680   4.471  12.030  0.0219 -0.0568  1.2388
 6834SOL    HW131964   3.598   4.425  12.049 -0.4397 -0.2130 -1.0995
 6834SOL    HW231965   3.662   4.558  12.064 -2.6043  0.3107 -1.0917
 6835SOL     OW31966   2.654   0.777   5.555  0.2623  0.3288 -0.4325
 6835SOL    HW131967   2.690   0.758   5.642 -1.1929 -0.5744 -0.0387
 6835SOL    HW231968   2.602   0.700   5.533 -1.6964  1.9924 -1.6563
 6836SOL     OW31969   0.359   1.512   7.645  0.4204 -0.7955 -0.2896
 6836SOL    HW131970   0.377   1.600   7.612 -0.4581 -1.0127 -1.3141
 6836SOL    HW231971   0.350   1.540   7.736  1.1327 -0.1118 -0.4269
 6837SOL     OW31972   1.895   0.305   6.828 -0.5991  0.3187  0.3736
 6837SOL    HW131973   1.837   0.231   6.807  0.5516 -0.0034 -1.6340
 6837SOL    HW231974   1.959   0.260   6.883  0.9872  2.4050  0.1991
 6838SOL     OW31975   1.947   3.001   4.395  0.0698 -0.5589  0.0754
 6838SOL    HW131976   1.892   2.975   4.470 -1.7814 -2.6435 -2.0094
 6838SOL    HW231977   1.884   3.009   4.324 -0.3179  1.2982  0.6200
 6839SOL     OW31978   3.119   4.363   1.931  0.1568  0.5304  0.0241
 6839SOL    HW131979   3.129   4.432   1.866 -1.3294  0.0969 -0.6680
 6839SOL    HW231980   3.137   4.288   1.873 -1.3389  0.0609  0.1681
 6840SOL     OW31981   4.319   0.678   8.220 -0.6192 -0.0734 -0.4123
 6840SOL    HW131982   4.325   0.611   8.288  2.3323 -0.1141 -0.6723
 6840SOL    HW231983   4.411   0.678   8.193 -0.6573  2.9749 -0.5753
 6841SOL     OW31984   0.076   4.355   4.018 -0.2048  0.0084 -0.5785
 6841SOL    HW131985   0.037   4.294   3.955  0.3054 -1.2255  0.3059
 6841SOL    HW231986   0.031   4.435   3.991 -0.0644  0.1782 -0.2990
 6842SOL     OW31987   4.020   3.795   5.857 -0.0295  0.0241  0.2012
 6842SOL    HW131988   4.057   3.790   5.945  0.6874 -2.6355 -0.2511
 6842SOL    HW231989   3.997   3.702   5.860 -1.4011  0.3995  1.2621
 6843SOL     OW31990   2.479   0.585   6.733 -0.4052  0.0416 -0.0504
 6843SOL    HW131991   2.570   0.609   6.713 -0.0540 -0.2973  1.1195
 6843SOL    HW231992   2.440   0.561   6.649 -0.9878  2.1331 -0.3619
 6844SOL     OW31993   3.006   2.665   7.133 -0.1788 -0.7777 -0.6772
 6844SOL    HW131994   2.931   2.606   7.140 -0.6378  0.1744  2.2916
 6844SOL    HW231995   3.072   2.617   7.184  1.0080 -0.9003 -2.3143
 6845SOL     OW31996   3.391   2.510  14.613  0.4408 -0.0958 -0.6245
 6845SOL    HW131997   3.400   2.418  14.589 -1.0309 -0.0049 -1.5196
 6845SOL    HW231998   3.450   2.550  14.548 -0.6562 -0.6787 -1.9827
 6846SOL     OW31999   2.246   0.626   1.974  1.0487  0.1321  0.0317
 6846SOL    HW132000   2.290   0.548   2.006 -0.4493 -1.9802 -3.1018
 6846SOL    HW232001   2.313   0.689   2.001  0.1753  1.2297 -0.3338
 6847SOL     OW32002   1.972   4.174   2.049 -0.3508 -0.2842  0.2694
 6847SOL    HW132003   2.049   4.155   1.996 -0.1734  0.0291  0.4160
 6847SOL    HW232004   2.005   4.233   2.117  1.5338 -2.3801  1.1777
 6848SOL     OW32005   0.533   4.334   6.055 -0.3862 -0.0745  0.0592
 6848SOL    HW132006   0.558   4.384   6.133 -3.8184  0.5211  0.7855
 6848SOL    HW232007   0.448   4.375   6.036 -0.2252  0.2082 -0.0498
 6849SOL     OW32008   1.975   4.108   8.130 -0.7270 -0.3018  0.5936
 6849SOL    HW132009   1.949   4.030   8.180 -0.5466 -1.4234 -1.0484
 6849SOL    HW232010   1.960   4.175   8.196 -3.3058 -0.7089  0.4266
 6850SOL     OW32011   0.762   4.087   7.465  0.5078  0.1832 -0.2502
 6850SOL    HW132012   0.850   4.109   7.433  1.6361 -1.8992  1.4215
 6850SOL    HW232013   0.708   4.129   7.398  1.7640  2.1007 -0.0300
 6851SOL     OW32014   4.309   0.405  13.272 -0.1338 -0.0249  0.7591
 6851SOL    HW132015   4.323   0.490  13.230 -0.5293  0.3914  1.4685
 6851SOL    HW232016   4.388   0.356  13.249  0.1135  0.9509 -0.5031
 6852SOL     OW32017   1.248   2.439   3.788 -0.0658 -0.1635  0.4102
 6852SOL    HW132018   1.342   2.425   3.772 -0.2765  0.8601 -1.7551
 6852SOL    HW232019   1.219   2.412   3.701  0.4705 -0.6491  0.3800
 6853SOL     OW32020   3.201   0.665   4.338  0.2820 -0.1587 -0.7732
 6853SOL    HW132021   3.286   0.637   4.304  1.0907 -0.5608  1.5837
 6853SOL    HW232022   3.154   0.586   4.362  0.4681  0.7544  2.5301
 6854SOL     OW32023   1.420   3.807  10.113 -0.0689 -0.1907  0.6926
 6854SOL    HW132024   1.379   3.721  10.102 -0.0959 -0.2952  1.6754
 6854SOL    HW232025   1.444   3.796  10.205 -0.0180 -1.7359  0.4932
 6855SOL     OW32026   3.798   4.397  16.137 -0.0261  0.0469  0.4185
 6855SOL    HW132027   3.869   4.460  16.149 -1.2454  1.2496  1.2588
 6855SOL    HW232028   3.714   4.444  16.133 -0.0521  0.2511  3.8212
 6856SOL     OW32029   0.671   3.560  12.632 -0.0047 -0.6095  0.0170
 6856SOL    HW132030   0.655   3.611  12.552 -1.6339 -2.2296 -0.7110
 6856SOL    HW232031   0.749   3.510  12.610 -0.7391 -2.5336  1.7157
 6857SOL     OW32032   1.211   2.869   4.898 -0.3329  0.1974 -0.2684
 6857SOL    HW132033   1.161   2.873   4.817 -0.5618 -0.9787 -0.1846
 6857SOL    HW232034   1.217   2.773   4.907 -2.6541  0.1024  0.3116
 6858SOL     OW32035   1.234   3.912   3.218  0.0744  0.8714  0.3736
 6858SOL    HW132036   1.273   3.879   3.137 -1.6372  3.5407 -1.5366
 6858SOL    HW232037   1.146   3.935   3.186 -0.6143 -1.7606  0.4095
 6859SOL     OW32038   4.464   0.745  13.407  0.2459 -0.3779 -1.0016
 6859SOL    HW132039   4.452   0.715  13.497  2.4787 -0.6624 -0.8002
 6859SOL    HW232040   4.553   0.716  13.386  0.8192  0.3009  0.5003
 6860SOL     OW32041   4.172   0.240   3.631 -0.1565 -0.5701 -0.0968
 6860SOL    HW132042   4.212   0.206   3.551  1.0501 -2.8443  1.4599
 6860SOL    HW232043   4.101   0.294   3.596  0.8227  0.2146 -0.8561
 6861SOL     OW32044   3.052   1.413   2.305  0.6692  0.0774 -0.1439
 6861SOL    HW132045   3.095   1.452   2.229 -1.5692  2.5266 -0.1200
 6861SOL    HW232046   2.966   1.454   2.301  0.0610 -1.1381  0.4123
 6862SOL     OW32047   2.293   2.581   8.367  0.9738  0.1482  0.6090
 6862SOL    HW132048   2.271   2.605   8.457  0.1572 -1.1765  0.7525
 6862SOL    HW232049   2.207   2.552   8.337  1.2242  1.7347 -1.6286
 6863SOL     OW32050   2.271   2.261   4.705 -0.8114 -0.4131 -0.5839
 6863SOL    HW132051   2.178   2.271   4.687 -0.9439 -3.0815 -1.3985
 6863SOL    HW232052   2.301   2.308   4.627 -2.6633 -0.5546 -1.3595
 6864SOL     OW32053   0.671   1.818   7.543 -0.1317 -0.4054 -0.0807
 6864SOL    HW132054   0.751   1.765   7.537 -0.9380 -1.5861 -0.4301
 6864SOL    HW232055   0.706   1.906   7.552  0.0429 -0.3858 -0.9260
 6865SOL     OW32056   0.761   0.665   4.762  0.1017  0.0275  0.8262
 6865SOL    HW132057   0.750   0.598   4.695  0.5353  0.3321  0.4494
 6865SOL    HW232058   0.856   0.658   4.769  0.1359  1.3042  1.5856
 6866SOL     OW32059   3.878   2.720   0.968 -0.1579 -0.6902 -1.2545
 6866SOL    HW132060   3.919   2.722   0.881 -1.7927 -0.6118 -2.0325
 6866SOL    HW232061   3.867   2.627   0.985  0.4557 -0.5430 -0.0526
 6867SOL     OW32062   1.453   1.580   6.227  0.1605 -0.5927 -0.1264
 6867SOL    HW132063   1.384   1.647   6.222 -0.9351 -1.5539  2.2685
 6867SOL    HW232064   1.524   1.645   6.230  0.7826 -1.2870  0.1306
 6868SOL     OW32065   3.969   1.136   9.602 -0.1828  0.2963  0.1934
 6868SOL    HW132066   3.983   1.044   9.579  0.4473  0.2747  0.6788
 6868SOL    HW232067   3.981   1.181   9.518 -2.9690 -0.6820 -0.7476
 6869SOL     OW32068   2.210   3.264   9.392 -0.3507 -1.0087  0.7225
 6869SOL    HW132069   2.122   3.298   9.404  0.6143  0.4939  3.3771
 6869SOL    HW232070   2.201   3.181   9.439  0.6431 -0.6143  1.6092
 6870SOL     OW32071   0.322   2.179   0.451  0.0490  0.2174  0.3196
 6870SOL    HW132072   0.403   2.130   0.457  0.5277  1.0447  0.6648
 6870SOL    HW232073   0.343   2.246   0.517 -0.4502 -0.0885  0.7864
 6871SOL     OW32074   0.473   3.922   2.660  0.7520  0.6682  0.7427
 6871SOL    HW132075   0.447   3.943   2.570 -0.7327  0.1030  1.0401
 6871SOL    HW232076   0.533   3.993   2.683  1.0147  1.5917 -2.8531
 6872SOL     OW32077   3.109   0.071  16.339 -0.2478  0.1876 -0.5965
 6872SOL    HW132078   3.101   0.100  16.248  0.0468  0.2287 -0.6112
 6872SOL    HW232079   3.028   0.021  16.337  0.4944 -1.0640  0.6818
 6873SOL     OW32080   1.046   2.789   0.579 -0.2272  0.2298  0.0828
 6873SOL    HW132081   1.018   2.869   0.624 -1.2989  0.1031 -0.3446
 6873SOL    HW232082   0.972   2.729   0.574 -2.2677  2.7371 -0.2256
 6874SOL     OW32083   1.276   2.094   4.189 -0.9253  0.2196  0.0591
 6874SOL    HW132084   1.325   2.175   4.179  0.1397 -0.3127  0.9758
 6874SOL    HW232085   1.246   2.087   4.098  0.0510 -1.8040 -0.0994
 6875SOL     OW32086   4.255   2.451   8.294  0.0509  0.8488 -0.0183
 6875SOL    HW132087   4.326   2.508   8.262  0.8005 -0.1800 -0.1842
 6875SOL    HW232088   4.312   2.374   8.289 -1.4279 -0.0632 -2.8494
 6876SOL     OW32089   1.821   0.593  10.242 -0.5506  0.4378 -0.3616
 6876SOL    HW132090   1.876   0.656  10.288  0.0119  0.7630 -1.4818
 6876SOL    HW232091   1.787   0.532  10.307  2.2887 -1.7728 -0.9739
 6877SOL     OW32092   0.761   0.479   4.557 -0.1109  0.6538 -0.1047
 6877SOL    HW132093   0.679   0.439   4.530 -1.5547  2.9838  0.8105
 6877SOL    HW232094   0.825   0.455   4.489 -2.1326 -0.4899 -1.5852
 6878SOL     OW32095   0.895   3.257  15.633 -0.3428 -0.5364  0.7365
 6878SOL    HW132096   0.989   3.252  15.653 -0.2483  1.5342  0.8193
 6878SOL    HW232097   0.862   3.334  15.680 -3.0498 -0.2753 -1.6310
 6879SOL     OW32098   3.203   0.040   1.616 -0.0471 -0.3487 -0.3097
 6879SOL    HW132099   3.278   0.075   1.566  1.2046 -0.8611  1.2126
 6879SOL    HW232100   3.223   0.091   1.694 -0.6468 -0.2772 -0.2041
 6880SOL     OW32101   2.611   4.689  10.033  0.2293  0.3529 -0.0427
 6880SOL    HW132102   2.572   0.003  10.113 -1.4658  0.7168 -1.0339
 6880SOL    HW232103   2.533   4.690   9.978  0.0686 -0.3920  0.1673
 6881SOL     OW32104   2.109   4.260   7.655  0.3909 -0.5434 -0.1663
 6881SOL    HW132105   2.156   4.341   7.637 -2.6898  1.3410  0.3519
 6881SOL    HW232106   2.178   4.195   7.665  0.6025  0.1284  2.7105
 6882SOL     OW32107   1.494   1.343  15.940  0.1158  0.8762 -0.4144
 6882SOL    HW132108   1.577   1.315  15.979 -0.3174 -0.7315 -0.6507
 6882SOL    HW232109   1.477   1.275  15.875  2.0520  1.3048 -1.3978
 6883SOL     OW32110   1.881   3.026   7.716 -0.3052  0.2411 -0.3429
 6883SOL    HW132111   1.792   3.021   7.680 -0.7238  0.5248  0.6530
 6883SOL    HW232112   1.916   2.982   7.639 -0.5973 -0.3304 -0.1490
 6884SOL     OW32113   0.942   0.299   9.115 -0.1209  0.3981  0.2567
 6884SOL    HW132114   0.967   0.345   9.195 -1.2255 -1.9283  1.9016
 6884SOL    HW232115   0.870   0.241   9.137  0.8533 -0.9989 -0.2567
 6885SOL     OW32116   0.289   1.553   9.747 -0.0718 -0.1943 -0.1825
 6885SOL    HW132117   0.253   1.627   9.698 -0.7188 -0.7355 -0.5182
 6885SOL    HW232118   0.321   1.497   9.676  1.3897  0.2196  0.1506
 6886SOL     OW32119   1.290   2.621  15.519  0.4212 -0.3180  0.2069
 6886SOL    HW132120   1.215   2.663  15.477  0.4116  1.4802  2.0779
 6886SOL    HW232121   1.317   2.551  15.458  0.2100 -1.7401  1.7515
 6887SOL     OW32122   1.297   2.933   9.506 -0.2267  0.6877  0.0820
 6887SOL    HW132123   1.215   2.913   9.551  1.4546 -0.9824  2.3554
 6887SOL    HW232124   1.309   2.856   9.450 -0.5104 -0.1876  1.2313
 6888SOL     OW32125   2.597   0.101   0.268 -0.5472 -0.0600  0.0739
 6888SOL    HW132126   2.511   0.128   0.238 -0.8675  0.7329  1.7401
 6888SOL    HW232127   2.650   0.169   0.227  2.5938 -1.9388  0.9738
 6889SOL     OW32128   3.051   1.958   6.450 -0.0424  0.6020 -0.6644
 6889SOL    HW132129   2.978   1.987   6.504 -0.1985  1.7079 -1.4809
 6889SOL    HW232130   3.115   1.914   6.506  2.4495  1.6980 -2.6250
 6890SOL     OW32131   2.793   3.064  13.951  0.6378  0.3969  0.5119
 6890SOL    HW132132   2.837   3.149  13.949  0.2401  0.5400 -2.4353
 6890SOL    HW232133   2.855   3.019  13.894  0.0487  0.6555 -0.3401
 6891SOL     OW32134   3.508   4.504   7.763  0.0607  0.3230 -0.4038
 6891SOL    HW132135   3.572   4.466   7.704 -0.9629 -2.6312  0.4114
 6891SOL    HW232136   3.427   4.456   7.746  0.8135 -0.1588 -2.5268
 6892SOL     OW32137   3.428   4.452   2.331  0.5297  0.4222 -0.0452
 6892SOL    HW132138   3.348   4.457   2.382  0.0301  0.1084 -0.8020
 6892SOL    HW232139   3.393   4.403   2.257  0.2725  0.3503  0.1245
 6893SOL     OW32140   3.821   3.349   9.717  0.1411 -0.7273 -0.1311
 6893SOL    HW132141   3.804   3.440   9.742  2.5750 -0.1030 -0.7236
 6893SOL    HW232142   3.740   3.334   9.668  0.5683  2.0404 -1.6586
 6894SOL     OW32143   2.537   2.193   6.397 -0.2782 -0.1982 -0.1827
 6894SOL    HW132144   2.583   2.258   6.451 -1.8746  0.8042 -0.0511
 6894SOL    HW232145   2.582   2.115   6.431  0.1917 -0.6249 -1.7600
 6895SOL     OW32146   2.968   0.215   5.781  0.2260 -0.0489  0.7264
 6895SOL    HW132147   2.922   0.272   5.718  1.4327 -0.3259 -0.3954
 6895SOL    HW232148   2.917   0.246   5.856 -1.5823  3.1737 -1.8196
 6896SOL     OW32149   0.599   4.270  14.583 -0.2129  0.3982 -0.5956
 6896SOL    HW132150   0.537   4.339  14.606  0.9323  0.3828  2.4273
 6896SOL    HW232151   0.559   4.192  14.622  0.7556  1.2165  2.0129
 6897SOL     OW32152   3.720   4.248   4.775 -0.1375 -0.1521  0.5216
 6897SOL    HW132153   3.627   4.270   4.767 -0.6805 -2.1265  1.4416
 6897SOL    HW232154   3.720   4.188   4.849  0.6212 -0.4397  0.2837
 6898SOL     OW32155   3.910   4.446   4.781 -0.4089 -0.6635 -0.1303
 6898SOL    HW132156   3.908   4.511   4.711 -0.0342 -1.9371 -1.3160
 6898SOL    HW232157   3.828   4.397   4.782  0.3693 -1.9648 -0.8359
 6899SOL     OW32158   4.675   2.844  10.510  0.0401 -0.0347  0.2829
 6899SOL    HW132159   4.691   2.791  10.588 -1.8219 -1.8730 -0.5687
 6899SOL    HW232160   0.017   2.914  10.525 -3.4416  3.1803  0.0321
 6900SOL     OW32161   4.391   1.125   6.034 -0.2596 -0.0586  0.3065
 6900SOL    HW132162   4.378   1.194   6.099  1.4411  1.4912 -0.9779
 6900SOL    HW232163   4.430   1.172   5.960  3.3140 -1.6990  1.1819
 6901SOL     OW32164   2.678   0.222  12.146  0.2402  0.3771 -0.0691
 6901SOL    HW132165   2.593   0.262  12.164 -1.3693 -1.6774 -3.1078
 6901SOL    HW232166   2.643   0.149  12.095 -2.5604  1.6272  0.0772
 6902SOL     OW32167   4.368   2.042   8.936 -0.1058  0.0444  0.2381
 6902SOL    HW132168   4.399   2.035   9.026 -0.6863 -1.0063  0.3538
 6902SOL    HW232169   4.278   2.009   8.937 -0.5680  1.3021  0.6609
 6903SOL     OW32170   1.723   2.975   2.049  0.2651 -0.0509  0.6223
 6903SOL    HW132171   1.810   2.944   2.022 -0.4307  0.3998 -2.1588
 6903SOL    HW232172   1.667   2.968   1.971 -0.5852  1.2940  1.1133
 6904SOL     OW32173   3.373   2.653   8.341  0.0602 -0.5845 -0.4010
 6904SOL    HW132174   3.282   2.624   8.349  0.7596 -1.5012  4.3699
 6904SOL    HW232175   3.413   2.566   8.340 -0.5266 -0.8252 -2.3154
 6905SOL     OW32176   0.476   3.541  16.578  0.1981 -0.0825  0.5910
 6905SOL    HW132177   0.454   3.631  16.604  2.9613  0.5293  0.7446
 6905SOL    HW232178   0.459   3.536  16.484 -1.0932 -0.6022  0.8537
 6906SOL     OW32179   4.080   4.529   2.689 -0.3084 -0.4658  0.0617
 6906SOL    HW132180   4.063   4.435   2.696  0.0438 -0.6989 -2.0360
 6906SOL    HW232181   4.039   4.539   2.602  1.0795 -0.0443 -0.5448
 6907SOL     OW32182   2.936   1.815  14.421  0.0331  0.3408  0.0843
 6907SOL    HW132183   2.993   1.801  14.496 -0.6275 -1.4307  0.2552
 6907SOL    HW232184   2.852   1.779  14.449  0.7787 -2.3558 -1.1555
 6908SOL     OW32185   1.132   3.002   6.301  0.0015 -0.7859 -0.3032
 6908SOL    HW132186   1.173   2.937   6.360  1.2649 -1.0936 -1.5246
 6908SOL    HW232187   1.064   2.938   6.283 -0.2612 -0.0997 -1.7128
 6909SOL     OW32188   2.134   3.396   4.705 -0.6081 -0.0784 -0.1960
 6909SOL    HW132189   2.154   3.489   4.690 -0.4604  0.2012  1.6794
 6909SOL    HW232190   2.172   3.382   4.792 -0.4825  1.0674 -0.0683
 6910SOL     OW32191   1.538   0.408   8.191  0.0628 -0.9169 -0.1237
 6910SOL    HW132192   1.502   0.322   8.210  0.5550 -0.4306  2.9151
 6910SOL    HW232193   1.623   0.390   8.151  1.1522  0.7639  1.4316
 6911SOL     OW32194   1.282   2.339  17.366  0.6990 -0.0956  0.4357
 6911SOL    HW132195   1.296   2.279  17.439 -0.5111 -1.6339 -0.6062
 6911SOL    HW232196   1.224   2.283  17.314  1.0820 -0.0094 -0.0730
 6912SOL     OW32197   2.727   1.181  12.689 -0.1149  0.6462 -0.0319
 6912SOL    HW132198   2.776   1.125  12.749  0.8679 -1.2858 -2.6460
 6912SOL    HW232199   2.639   1.160  12.721  0.3000 -1.5573 -0.3616
 6913SOL     OW32200   1.859   1.685  11.623 -0.4778  0.2017 -0.2830
 6913SOL    HW132201   1.945   1.694  11.582 -0.3839  0.2613 -0.0750
 6913SOL    HW232202   1.833   1.773  11.652 -1.0524 -1.2893  3.8116
 6914SOL     OW32203   4.635   0.355   7.875  0.1643 -0.0117 -0.7601
 6914SOL    HW132204   4.603   0.324   7.959 -1.5554  0.4785 -1.2346
 6914SOL    HW232205   4.710   0.409   7.900 -0.1400  0.6678 -1.3232
 6915SOL     OW32206   0.406   0.566   7.064 -0.5049 -0.0632 -0.2586
 6915SOL    HW132207   0.396   0.557   6.969 -0.1547 -0.8624 -0.2195
 6915SOL    HW232208   0.492   0.607   7.076 -0.4267 -0.8201  1.6648
 6916SOL     OW32209   2.448   3.048   2.297  0.3873 -0.4229  0.2721
 6916SOL    HW132210   2.428   2.969   2.347 -1.2131 -1.5239 -2.0816
 6916SOL    HW232211   2.395   3.112   2.344  0.6065 -0.5811  0.7383
 6917SOL     OW32212   0.745   1.758   1.630  0.4301 -0.8413  0.0446
 6917SOL    HW132213   0.773   1.844   1.660  1.0244 -0.8267 -0.5709
 6917SOL    HW232214   0.738   1.705   1.710 -0.8169  1.9215  1.7479
 6918SOL     OW32215   2.572   1.349  10.038  1.0328 -0.0605  0.4595
 6918SOL    HW132216   2.599   1.258  10.049  0.5020 -0.4287 -1.3687
 6918SOL    HW232217   2.487   1.351  10.083  1.2701 -0.5162  0.9305
 6919SOL     OW32218   4.433   2.398  12.780  0.0651  0.3659  0.1895
 6919SOL    HW132219   4.353   2.450  12.787 -0.3984 -0.6531  2.3017
 6919SOL    HW232220   4.410   2.316  12.823  0.6880  0.3716  0.5283
 6920SOL     OW32221   0.324   4.326  12.082  0.1791 -0.0473  0.0979
 6920SOL    HW132222   0.413   4.318  12.047  0.4189  0.0398  0.6806
 6920SOL    HW232223   0.343   4.288  12.169 -1.1780 -0.1095  0.3640
 6921SOL     OW32224   4.535   3.995   3.863  0.7578 -0.1686 -0.7226
 6921SOL    HW132225   4.469   3.956   3.806  1.3275 -1.5471 -0.4396
 6921SOL    HW232226   4.593   3.920   3.878  0.5085 -0.3233 -0.5215
 6922SOL     OW32227   1.710   0.972   4.885 -0.0652 -0.5151 -0.0307
 6922SOL    HW132228   1.710   0.879   4.860  0.8228 -0.0950 -1.5894
 6922SOL    HW232229   1.799   0.979   4.920 -0.0239  3.0435 -0.8642
 6923SOL     OW32230   3.963   0.544   2.669  0.1381 -0.0717 -0.3259
 6923SOL    HW132231   4.030   0.485   2.702 -0.6641 -0.0747  1.2740
 6923SOL    HW232232   4.008   0.608   2.613  0.1046 -1.7872 -2.3383
 6924SOL     OW32233   3.472   3.530   8.418 -0.0980 -0.0857 -0.4786
 6924SOL    HW132234   3.567   3.522   8.427  0.0089  2.4041  0.8038
 6924SOL    HW232235   3.457   3.579   8.499  1.5531  0.0937 -0.2660
 6925SOL     OW32236   2.284   3.669   4.952 -0.4917  0.5193  0.3714
 6925SOL    HW132237   2.208   3.676   5.010  0.1825 -1.3106  1.4855
 6925SOL    HW232238   2.261   3.587   4.908  3.3434 -0.3069 -0.1012
 6926SOL     OW32239   0.712   4.020   3.594  0.5301  0.1721 -0.2137
 6926SOL    HW132240   0.758   4.082   3.537  2.4797 -1.5828 -0.5262
 6926SOL    HW232241   0.761   3.941   3.571 -1.0079 -1.7829  3.2818
 6927SOL     OW32242   1.611   2.450   3.533  0.5936  0.4715  0.4846
 6927SOL    HW132243   1.653   2.450   3.447 -1.0831  0.2642 -0.3261
 6927SOL    HW232244   1.574   2.537   3.542  1.3983  0.7919  0.6801
 6928SOL     OW32245   4.476   0.763   0.302 -0.1793 -0.1546 -0.3090
 6928SOL    HW132246   4.418   0.687   0.296 -0.1822 -0.1460 -0.3825
 6928SOL    HW232247   4.541   0.739   0.237 -0.2439  0.9506 -0.7892
 6929SOL     OW32248   4.321   1.208  12.246 -0.2088 -0.1993 -0.1694
 6929SOL    HW132249   4.227   1.189  12.236 -0.0117  0.3381 -2.9743
 6929SOL    HW232250   4.348   1.131  12.295 -2.9053 -1.6930 -1.0014
 6930SOL     OW32251   4.388   1.772   7.467  0.3693  0.2698 -0.2435
 6930SOL    HW132252   4.355   1.854   7.429 -1.9403 -0.3595  0.4056
 6930SOL    HW232253   4.415   1.724   7.389 -0.6952  1.2956 -1.2457
 6931SOL     OW32254   1.216   4.184   7.121  0.2387  0.2294 -0.1389
 6931SOL    HW132255   1.237   4.123   7.192 -0.9604 -0.6679 -0.5467
 6931SOL    HW232256   1.155   4.244   7.165 -1.9831 -0.9010 -1.6763
 6932SOL     OW32257   1.407   1.715   7.386  0.3363  0.3304  0.0786
 6932SOL    HW132258   1.452   1.633   7.407  0.1625 -0.3344 -2.1131
 6932SOL    HW232259   1.473   1.754   7.329 -1.0812 -0.6189 -2.1964
 6933SOL     OW32260   0.055   4.362  12.267  0.2985  0.0762  0.3854
 6933SOL    HW132261   0.149   4.368  12.253 -0.1744 -1.0589 -3.2400
 6933SOL    HW232262   0.033   4.357  12.174  0.4466  2.0197  0.2494
 6934SOL     OW32263   2.735   4.662   1.740 -0.8044  0.1397 -0.4990
 6934SOL    HW132264   2.808   4.672   1.678  0.7684  0.4968  1.4005
 6934SOL    HW232265   2.735   0.028   1.779 -3.4139  0.4799 -1.2750
 6935SOL     OW32266   1.576   1.821   5.193  0.5368  0.0073  0.0169
 6935SOL    HW132267   1.599   1.778   5.111 -0.5810 -1.4506  0.4645
 6935SOL    HW232268   1.657   1.861   5.224  1.9238 -3.3385  0.6426
 6936SOL     OW32269   4.565   0.681   7.172  0.5235 -0.5865  0.5860
 6936SOL    HW132270   4.634   0.618   7.191 -0.0363 -1.3211  0.1671
 6936SOL    HW232271   4.534   0.651   7.087 -2.3260 -1.2853  1.8579
 6937SOL     OW32272   3.418   1.429   6.709  0.1402  0.5069 -0.1553
 6937SOL    HW132273   3.496   1.397   6.755  0.0042  0.4270  0.0213
 6937SOL    HW232274   3.395   1.360   6.646 -0.3886  1.1633 -0.6680
 6938SOL     OW32275   0.869   1.425   1.402 -0.0232 -0.1123 -0.6861
 6938SOL    HW132276   0.863   1.403   1.495  0.3224  0.1633 -0.5999
 6938SOL    HW232277   0.790   1.379   1.374  0.0705 -1.3260  0.9739
 6939SOL     OW32278   2.180   3.087  15.490 -0.4406 -0.1048 -0.3848
 6939SOL    HW132279   2.104   3.072  15.544 -1.2192  2.3841 -0.7949
 6939SOL    HW232280   2.142   3.157  15.437  0.0990 -0.0101 -0.6527
 6940SOL     OW32281   1.116   4.701   4.353 -0.8012  0.0375  0.4344
 6940SOL    HW132282   1.028   0.017   4.363 -1.4124 -1.9023  2.1934
 6940SOL    HW232283   1.081   4.621   4.315 -1.3149  1.2369 -1.6462
 6941SOL     OW32284   1.352   3.099   7.053 -0.1176 -0.4587  0.1160
 6941SOL    HW132285   1.409   3.082   6.979 -0.9843 -2.4837 -0.0695
 6941SOL    HW232286   1.263   3.112   7.022 -0.1299 -1.9533 -0.4653
 6942SOL     OW32287   3.427   3.021   3.601  0.2019 -0.1238  0.2574
 6942SOL    HW132288   3.392   3.103   3.566 -0.0785  0.6167  2.2450
 6942SOL    HW232289   3.391   3.017   3.690 -3.2501  0.5069 -1.1286
 6943SOL     OW32290   3.048   2.243   4.343 -0.8032  0.4229 -0.2917
 6943SOL    HW132291   3.049   2.338   4.352  0.1306  0.4021 -0.0712
 6943SOL    HW232292   3.114   2.219   4.409 -0.8590 -0.6792 -0.6391
 6944SOL     OW32293   4.166   0.970   2.408  0.0408 -0.4079 -0.4120
 6944SOL    HW132294   4.144   1.063   2.404 -2.0243 -0.8537  0.8757
 6944SOL    HW232295   4.099   0.946   2.344  0.8868  0.1026 -1.4963
 6945SOL     OW32296   4.649   4.487   9.390  0.0179 -0.1108  0.0515
 6945SOL    HW132297   4.655   4.463   9.298 -2.2178  0.5093 -0.2573
 6945SOL    HW232298   4.634   4.581   9.380  1.4493  0.2139  0.9144
 6946SOL     OW32299   0.698   3.410   9.073  0.0740  0.2235  0.1018
 6946SOL    HW132300   0.620   3.381   9.026  0.6722  0.7816 -1.2291
 6946SOL    HW232301   0.768   3.408   9.008  0.6300  0.8226  0.6846
 6947SOL     OW32302   2.486   4.154   2.983  0.2784 -0.0350 -0.3013
 6947SOL    HW132303   2.494   4.066   2.945  1.8575 -0.3154  0.6301
 6947SOL    HW232304   2.573   4.186   2.957 -0.2312  1.9467  0.4451
 6948SOL     OW32305   3.948   3.348   1.845  0.4987  0.2656  0.0708
 6948SOL    HW132306   3.952   3.368   1.752  0.1737 -0.7112 -0.1483
 6948SOL    HW232307   4.001   3.269   1.846  1.2132  0.7444 -0.0209
 6949SOL     OW32308   0.052   4.239   0.530 -0.0480  0.8169  0.2447
 6949SOL    HW132309   0.096   4.169   0.482  2.3028  1.8559  0.8777
 6949SOL    HW232310   4.686   4.220   0.496  1.4573 -1.9381 -2.0473
 6950SOL     OW32311   2.919   2.428   5.152  0.3661  0.4961  0.0865
 6950SOL    HW132312   2.893   2.341   5.122 -0.7065  0.2542  1.7398
 6950SOL    HW232313   2.958   2.459   5.070 -3.5962 -1.0515 -2.4040
 6951SOL     OW32314   4.253   2.269   2.872 -0.1900 -0.1237  0.1308
 6951SOL    HW132315   4.305   2.341   2.835  0.1086 -0.4101 -0.0076
 6951SOL    HW232316   4.160   2.283   2.852 -0.2107 -0.1892  0.1821
 6952SOL     OW32317   2.819   1.600   4.333  0.0561 -0.2032 -0.1162
 6952SOL    HW132318   2.738   1.567   4.293  0.5768  0.4434 -1.6905
 6952SOL    HW232319   2.853   1.517   4.367  2.6472  0.4790 -1.0796
 6953SOL     OW32320   0.919   0.484   5.557 -0.2320 -0.4336 -0.5389
 6953SOL    HW132321   0.931   0.484   5.462 -0.6859 -0.8142 -0.5963
 6953SOL    HW232322   0.877   0.398   5.565  1.9842 -1.5047 -0.1925
 6954SOL     OW32323   3.647   1.253   7.583  0.1300  0.1040 -0.1790
 6954SOL    HW132324   3.720   1.309   7.558  0.2048 -0.6535 -1.6803
 6954SOL    HW232325   3.610   1.304   7.654 -1.6213 -0.5935 -0.5770
 6955SOL     OW32326   0.835   0.748   0.910  0.0382  0.0382 -0.1071
 6955SOL    HW132327   0.868   0.714   0.994 -0.9177 -0.9411 -0.1248
 6955SOL    HW232328   0.745   0.716   0.904  1.2914 -3.3554 -0.7052
 6956SOL     OW32329   2.850   2.613   6.597  0.1026  0.3405  0.3635
 6956SOL    HW132330   2.901   2.542   6.558 -0.9420  0.1756 -0.6946
 6956SOL    HW232331   2.889   2.692   6.560  0.2144  0.1315  0.0357
 6957SOL     OW32332   0.167   0.265   6.520  0.5012 -0.2385  0.1894
 6957SOL    HW132333   0.186   0.204   6.449 -0.5565 -1.5032  0.9970
 6957SOL    HW232334   0.251   0.266   6.566  0.3405 -3.9533  0.5919
 6958SOL     OW32335   2.404   3.120  12.254  0.3722 -0.9290  0.3607
 6958SOL    HW132336   2.456   3.176  12.311  0.5697  0.0333 -0.7776
 6958SOL    HW232337   2.360   3.063  12.318  1.4234 -2.1415  0.0104
 6959SOL     OW32338   2.563   4.018   8.428  0.5025 -0.3856 -0.2330
 6959SOL    HW132339   2.645   4.045   8.387  0.5902 -0.6894 -0.2542
 6959SOL    HW232340   2.523   3.966   8.358 -0.4949 -0.3165  0.2805
 6960SOL     OW32341   1.649   0.047  11.052 -0.3246  0.3589  0.2011
 6960SOL    HW132342   1.705   0.040  11.129  1.1555 -0.4737 -0.9478
 6960SOL    HW232343   1.690   4.711  10.986 -1.0846  0.3337 -0.2470
 6961SOL     OW32344   2.519   2.449   4.567 -0.2379 -0.3342 -0.2282
 6961SOL    HW132345   2.524   2.385   4.496  1.1360  1.4936 -1.7721
 6961SOL    HW232346   2.613   2.460   4.582 -0.0789 -2.6734  0.4145
 6962SOL     OW32347   1.489   1.800   5.436 -0.0884  0.0879 -0.3994
 6962SOL    HW132348   1.568   1.830   5.480 -0.7144 -0.1943  0.9111
 6962SOL    HW232349   1.526   1.771   5.352  0.4923 -1.5508  0.4051
 6963SOL     OW32350   1.254   1.156   8.974 -0.2958 -0.3696  0.3626
 6963SOL    HW132351   1.320   1.089   8.961 -0.3815 -0.4961  0.5888
 6963SOL    HW232352   1.187   1.113   9.027 -1.9747  0.8874 -0.7381
 6964SOL     OW32353   1.397   0.301   4.009  0.4713 -0.0652  0.4003
 6964SOL    HW132354   1.312   0.258   4.017  1.0403 -1.7658 -2.4070
 6964SOL    HW232355   1.446   0.268   4.083  0.9664  1.6758  0.8469
 6965SOL     OW32356   1.209   4.598   6.661  0.4075 -0.0478  0.8612
 6965SOL    HW132357   1.163   4.607   6.578 -0.9507 -1.1308  1.4803
 6965SOL    HW232358   1.144   4.610   6.731 -0.5037  0.0074  0.0005
 6966SOL     OW32359   0.288   1.375   4.311 -0.1085 -0.2608 -0.2579
 6966SOL    HW132360   0.289   1.398   4.218 -1.7348 -0.6227 -0.3626
 6966SOL    HW232361   0.199   1.353   4.339 -0.5755  1.2713 -0.5501
 6967SOL     OW32362   3.913   4.145   9.257 -0.4440  0.3556 -0.0580
 6967SOL    HW132363   3.848   4.114   9.193 -1.2633  0.0325  0.9370
 6967SOL    HW232364   3.879   4.118   9.342 -0.2919 -0.3791 -0.2294
 6968SOL     OW32365   3.089   1.283  17.063 -0.2153 -0.0340 -0.4199
 6968SOL    HW132366   3.026   1.345  17.026  2.4222  0.7943 -3.4840
 6968SOL    HW232367   3.065   1.283  17.156  0.9602  2.1414 -0.1050
 6969SOL     OW32368   3.985   4.717   6.001  0.1184  0.0726 -0.3250
 6969SOL    HW132369   3.955   0.082   5.969  1.1241 -0.3962 -2.5290
 6969SOL    HW232370   3.977   4.674   5.916  1.3840 -3.1525  1.2182
 6970SOL     OW32371   3.171   2.970   5.278  0.0245 -0.2296  0.1438
 6970SOL    HW132372   3.262   2.997   5.285 -0.2147  0.5443  0.2068
 6970SOL    HW232373   3.163   2.874   5.271  0.7209 -0.1804 -1.2300
 6971SOL     OW32374   1.102   0.592  12.253  0.3318 -0.3718 -0.2764
 6971SOL    HW132375   1.099   0.643  12.334 -0.0680  0.6293 -0.9173
 6971SOL    HW232376   1.080   0.507  12.291  0.0203 -0.8054 -1.4125
 6972SOL     OW32377   3.870   3.789   8.585 -0.0467  0.0404 -0.0601
 6972SOL    HW132378   3.960   3.805   8.612 -0.4838  1.5354  0.4989
 6972SOL    HW232379   3.883   3.790   8.490  0.3105 -1.0508 -0.0217
 6973SOL     OW32380   4.607   1.125   1.062  0.2715  0.3187  0.2542
 6973SOL    HW132381   4.560   1.119   1.145  1.2528  1.3753  0.8920
 6973SOL    HW232382   4.599   1.036   1.028  1.3664  0.6585 -0.9119
 6974SOL     OW32383   2.634   0.429   8.917 -0.1262  0.1516  0.0088
 6974SOL    HW132384   2.599   0.385   8.839  0.8069 -0.9909  0.2403
 6974SOL    HW232385   2.671   0.354   8.964  0.5046  1.9219  2.3270
 6975SOL     OW32386   0.015   3.661  17.192  0.2240 -0.1352 -0.1541
 6975SOL    HW132387   0.093   3.716  17.193  0.7745 -0.9755  1.8759
 6975SOL    HW232388   0.046   3.570  17.189 -0.1258 -0.3040  1.2315
 6976SOL     OW32389   3.965   4.420   9.234  0.3722  0.5009  0.4538
 6976SOL    HW132390   3.901   4.455   9.295 -1.4289  0.9296 -1.6878
 6976SOL    HW232391   3.951   4.326   9.248  0.6844  0.2095 -1.1183
 6977SOL     OW32392   1.342   3.036  15.745  0.1958  0.3165  0.0496
 6977SOL    HW132393   1.352   3.025  15.839 -0.3329 -1.0206 -0.0464
 6977SOL    HW232394   1.419   2.986  15.718 -0.6132 -0.2639 -1.2062
 6978SOL     OW32395   4.253   3.488   4.027 -0.5832  0.2866  0.3781
 6978SOL    HW132396   4.308   3.532   4.093 -0.0355  0.6984 -0.3494
 6978SOL    HW232397   4.253   3.397   4.057 -0.5806  0.6925  1.6210
 6979SOL     OW32398   3.919   1.653   9.158  0.7583 -0.2566  0.1224
 6979SOL    HW132399   3.908   1.748   9.154  0.8504 -0.1411  2.2575
 6979SOL    HW232400   3.891   1.625   9.071  0.5984 -0.3596  0.2067
 6980SOL     OW32401   3.061   1.501   3.217 -0.3550  0.3395 -0.4698
 6980SOL    HW132402   2.977   1.455   3.212 -1.3648  2.0945  0.4020
 6980SOL    HW232403   3.077   1.538   3.130 -0.1174 -0.8929 -0.9459
 6981SOL     OW32404   2.130   1.028  16.768  0.1048  0.2315  0.0631
 6981SOL    HW132405   2.045   1.004  16.804  0.0213 -2.3377 -1.8407
 6981SOL    HW232406   2.160   0.939  16.748  1.3470  1.0297 -1.7064
 6982SOL     OW32407   2.386   4.083   3.519  0.1895 -0.6840 -0.6442
 6982SOL    HW132408   2.391   4.023   3.445  1.2066 -3.7669  1.8843
 6982SOL    HW232409   2.291   4.078   3.524  0.1696  1.9128  1.3029
 6983SOL     OW32410   0.664   2.404  10.980  0.0446  0.3388  0.1254
 6983SOL    HW132411   0.583   2.419  10.931  0.3733 -0.1835 -0.5704
 6983SOL    HW232412   0.699   2.493  10.978  1.8338 -0.4249 -1.8719
 6984SOL     OW32413   3.612   0.171   1.758  0.1067 -0.5880 -0.1070
 6984SOL    HW132414   3.517   0.175   1.771  0.1639  0.1252  0.0631
 6984SOL    HW232415   3.646   0.135   1.840  0.0625  2.1645  1.1312
 6985SOL     OW32416   0.963   4.498   7.540 -0.2434 -0.3610  0.0710
 6985SOL    HW132417   1.021   4.566   7.574  1.2428 -1.6939  0.2182
 6985SOL    HW232418   0.897   4.499   7.610 -0.2624 -0.0307  0.0476
 6986SOL     OW32419   1.913   0.361   4.623 -0.3289 -0.0445 -0.1768
 6986SOL    HW132420   1.849   0.403   4.680  0.0639  0.1184  0.1456
 6986SOL    HW232421   1.851   0.306   4.575  0.2573  0.1305 -1.1454
 6987SOL     OW32422   4.534   0.727  11.228 -0.1804 -0.2217 -0.2730
 6987SOL    HW132423   4.617   0.706  11.272 -0.9641 -2.3001  0.2471
 6987SOL    HW232424   4.474   0.653  11.239 -0.7080  0.3576  0.8182
 6988SOL     OW32425   3.791   0.113   2.439  0.2295 -0.2166 -0.3308
 6988SOL    HW132426   3.856   0.080   2.378 -0.6267  2.2433 -2.5618
 6988SOL    HW232427   3.818   0.204   2.452  0.0718 -0.5141  2.1359
 6989SOL     OW32428   0.492   2.491   5.920  0.7624 -0.1060  0.1878
 6989SOL    HW132429   0.508   2.583   5.941 -0.0308  0.1565 -0.3225
 6989SOL    HW232430   0.445   2.495   5.836  0.2291 -0.0242  0.4898
 6990SOL     OW32431   3.799   0.373  11.056 -0.0715  0.5698 -0.6732
 6990SOL    HW132432   3.824   0.391  11.147  0.2011 -1.2688 -0.3769
 6990SOL    HW232433   3.704   0.358  11.061  0.6875 -2.6691  3.7764
 6991SOL     OW32434   4.259   2.114   0.508  0.0160  0.0233  0.5413
 6991SOL    HW132435   4.224   2.026   0.525 -0.4337 -0.5696 -3.3717
 6991SOL    HW232436   4.177   2.163   0.514 -0.9892 -1.2552 -2.3418
 6992SOL     OW32437   2.419   2.898   5.556  0.1631 -0.3578 -0.5359
 6992SOL    HW132438   2.361   2.828   5.525  0.6251 -0.6361 -0.7797
 6992SOL    HW232439   2.470   2.924   5.479  1.8596 -0.0519  0.6866
 6993SOL     OW32440   0.491   2.768   5.947  0.3970 -0.1378 -0.4603
 6993SOL    HW132441   0.516   2.805   5.862  0.8108  1.3884  0.3311
 6993SOL    HW232442   0.420   2.824   5.976  0.1576 -1.8686  2.2771
 6994SOL     OW32443   3.605   0.065   4.037  0.0279 -0.0550  0.2108
 6994SOL    HW132444   3.641   0.137   4.090  0.0705  0.3845 -0.4023
 6994SOL    HW232445   3.579   0.111   3.957  1.0638 -0.9301 -0.6280
 6995SOL     OW32446   2.568   1.892   7.945 -0.2672  0.5913 -0.2114
 6995SOL    HW132447   2.559   1.895   8.040  0.2357  1.9335 -0.2152
 6995SOL    HW232448   2.663   1.888   7.934 -0.5847 -3.0557 -1.6441
 6996SOL     OW32449   0.510   4.003   2.967  0.2508  0.1080 -0.3292
 6996SOL    HW132450   0.496   4.064   2.893  0.7370  0.4939 -0.0988
 6996SOL    HW232451   0.567   3.937   2.928 -0.6120 -1.3635  0.9294
 6997SOL     OW32452   0.344   0.820   9.413 -0.3156 -0.5583  0.3344
 6997SOL    HW132453   0.405   0.804   9.485 -0.8972  2.0576  1.4229
 6997SOL    HW232454   0.335   0.732   9.377  0.9297 -0.5039 -0.1007
 6998SOL     OW32455   2.070   4.620   0.203 -0.2621 -0.3752  0.5624
 6998SOL    HW132456   2.139   4.642   0.264 -2.0726 -0.8946  2.7933
 6998SOL    HW232457   2.066   4.697   0.146 -0.4214  0.3889  1.6222
 6999SOL     OW32458   2.512   0.091   8.316 -0.3231  0.1256 -0.1946
 6999SOL    HW132459   2.516   0.037   8.394 -1.0199  0.3156 -0.0271
 6999SOL    HW232460   2.444   0.152   8.344  0.0227  0.6228 -0.4347
 7000SOL     OW32461   1.096   3.333   6.843 -0.5937 -0.0014 -0.1727
 7000SOL    HW132462   1.081   3.261   6.903  1.0009  0.4110  0.7198
 7000SOL    HW232463   1.157   3.391   6.888  0.6890 -1.1438 -0.4505
 7001SOL     OW32464   2.488   3.880   3.366  0.8322  0.1057  0.4632
 7001SOL    HW132465   2.460   3.873   3.274  2.6376  0.1060 -0.0929
 7001SOL    HW232466   2.542   3.801   3.378 -0.9942 -1.2733 -0.4339
 7002SOL     OW32467   0.685   2.610   5.126  0.9114 -0.5623  0.0271
 7002SOL    HW132468   0.756   2.601   5.063  1.3974 -1.2379  0.6656
 7002SOL    HW232469   0.642   2.526   5.107 -0.2705 -0.2052  1.1153
 7003SOL     OW32470   1.023   1.971   8.836  0.1032  0.1942  0.3051
 7003SOL    HW132471   1.078   2.021   8.897  0.5824  0.9621 -0.7550
 7003SOL    HW232472   1.022   2.031   8.761  0.0098 -0.9341 -0.5949
 7004SOL     OW32473   1.783   1.776   5.481 -0.0552 -0.0549  0.5011
 7004SOL    HW132474   1.772   1.684   5.456 -1.6564  0.6159 -1.3348
 7004SOL    HW232475   1.837   1.763   5.559  1.2144 -1.7557 -0.6558
 7005SOL     OW32476   1.354   3.523   8.320 -0.9689 -0.2388  0.1004
 7005SOL    HW132477   1.402   3.441   8.330 -0.4625 -0.1648 -1.7129
 7005SOL    HW232478   1.268   3.488   8.343 -1.1673 -2.0520 -3.4193
 7006SOL     OW32479   2.753   3.713  13.409 -0.0134  0.0127  0.0443
 7006SOL    HW132480   2.843   3.730  13.381  1.2109 -4.6558  1.1300
 7006SOL    HW232481   2.686   3.766  13.366  0.8311  0.4523 -0.7055
 7007SOL     OW32482   3.685   2.719   5.985  0.2696 -0.6897 -0.1302
 7007SOL    HW132483   3.663   2.809   6.006  4.1278 -0.1052  1.2483
 7007SOL    HW232484   3.600   2.679   6.003 -0.9586  1.3957 -1.3441
 7008SOL     OW32485   4.553   1.030  10.805  0.4471 -0.2337  0.2215
 7008SOL    HW132486   4.527   0.942  10.833  1.6570 -0.7664 -0.3095
 7008SOL    HW232487   4.645   1.044  10.830 -0.1667  0.5347  2.0589
 7009SOL     OW32488   3.238   3.454  15.325 -0.0090 -0.1393 -0.2911
 7009SOL    HW132489   3.209   3.460  15.234 -0.3594  0.9032 -0.1151
 7009SOL    HW232490   3.239   3.359  15.335 -1.1203 -0.1892 -0.6653
 7010SOL     OW32491   4.355   2.802   3.242  0.2737 -0.0629 -0.1700
 7010SOL    HW132492   4.368   2.730   3.181 -1.5221  1.6815 -2.6081
 7010SOL    HW232493   4.264   2.829   3.237  0.3116 -0.1906 -1.5076
 7011SOL     OW32494   4.390   4.578  15.918  0.2847  0.2972  0.1572
 7011SOL    HW132495   4.456   4.571  15.849  0.6334 -0.6424  0.5773
 7011SOL    HW232496   4.444   4.615  15.988  1.0646  2.7130 -1.7503
 7012SOL     OW32497   4.301   1.103  11.478  0.1649  0.5674  0.0935
 7012SOL    HW132498   4.354   1.059  11.412 -0.3274  0.6822 -0.3862
 7012SOL    HW232499   4.314   1.042  11.550 -0.3804 -1.3550 -1.4287
 7013SOL     OW32500   1.028   1.169   4.124 -0.2102  0.5174  0.3072
 7013SOL    HW132501   1.083   1.187   4.200 -3.1067 -0.3353  2.6270
 7013SOL    HW232502   1.014   1.074   4.131 -1.0782  0.7095  1.1427
 7014SOL     OW32503   3.312   1.481  10.384 -0.3561 -0.2197  0.3670
 7014SOL    HW132504   3.330   1.566  10.343 -0.8872  0.0045  0.5930
 7014SOL    HW232505   3.332   1.502  10.475 -0.1528  1.7692 -0.1373
 7015SOL     OW32506   0.383   2.798  12.760 -0.4073 -0.0577  0.3021
 7015SOL    HW132507   0.377   2.827  12.669  2.0366 -0.8960 -0.1149
 7015SOL    HW232508   0.288   2.788  12.770 -0.3109  0.4890  1.6701
 7016SOL     OW32509   1.945   3.290  16.730  0.0482  0.3582  0.1002
 7016SOL    HW132510   1.960   3.198  16.752  1.0672  1.3155  3.5335
 7016SOL    HW232511   1.945   3.319  16.822 -0.7600  1.6378 -0.3066
 7017SOL     OW32512   0.534   3.808   9.934  0.1483 -0.1674  0.5743
 7017SOL    HW132513   0.513   3.725   9.978  1.3982 -0.7897 -0.0285
 7017SOL    HW232514   0.571   3.767   9.856  0.2182  1.3018 -0.1488
 7018SOL     OW32515   2.684   2.367   7.747  0.2471  0.9393 -0.2524
 7018SOL    HW132516   2.604   2.317   7.736  0.7666 -0.0844  0.6279
 7018SOL    HW232517   2.726   2.353   7.662  1.8737  0.3351  0.6418
 7019SOL     OW32518   4.312   0.570   5.086  0.0472 -0.2248  0.0081
 7019SOL    HW132519   4.242   0.506   5.070 -1.0396  1.0416 -0.2830
 7019SOL    HW232520   4.388   0.515   5.064  0.2672  0.0756  0.0295
 7020SOL     OW32521   2.920   4.586  15.940 -0.1150  0.5504  0.6705
 7020SOL    HW132522   2.951   4.554  15.855  1.1636 -0.4967  1.5268
 7020SOL    HW232523   2.870   4.512  15.975  0.6650 -0.1352  0.3621
 7021SOL     OW32524   2.681   4.301   4.334  0.0485 -0.0563  0.3051
 7021SOL    HW132525   2.717   4.230   4.283 -0.1415  0.0112  0.0766
 7021SOL    HW232526   2.638   4.356   4.268  1.0098 -0.7377 -0.8750
 7022SOL     OW32527   3.068   3.179   7.477 -0.3732  0.9215  0.6637
 7022SOL    HW132528   3.022   3.132   7.407  1.3023  0.0914  0.1216
 7022SOL    HW232529   3.055   3.272   7.458 -1.0067  0.8638  0.8357
 7023SOL     OW32530   4.176   4.048  14.240 -0.5159 -0.2801  0.7750
 7023SOL    HW132531   4.137   4.126  14.281  0.7252  0.7996 -0.1097
 7023SOL    HW232532   4.242   4.029  14.306  0.5698  1.0592  0.0678
 7024SOL     OW32533   1.478   1.898   9.763 -0.2686  0.2717 -0.1635
 7024SOL    HW132534   1.386   1.876   9.749  0.5372 -1.3995 -3.0799
 7024SOL    HW232535   1.519   1.812   9.778 -0.9023  0.2615  1.4575
 7025SOL     OW32536   0.828   1.103   6.612  0.6457  0.0771 -0.8012
 7025SOL    HW132537   0.881   1.025   6.628 -1.2240 -0.9902  0.1186
 7025SOL    HW232538   0.893   1.147   6.556 -0.3836 -0.3318 -2.3393
 7026SOL     OW32539   2.061   1.872   3.554  0.2359  0.3831 -0.5514
 7026SOL    HW132540   2.121   1.813   3.508 -0.3232 -0.1255 -0.6347
 7026SOL    HW232541   2.106   1.955   3.543  0.1593  0.4461 -0.3975
 7027SOL     OW32542   4.292   1.071   5.223 -0.3274  0.3096 -0.0760
 7027SOL    HW132543   4.353   1.084   5.296 -2.1234 -2.9183  1.9878
 7027SOL    HW232544   4.256   1.160   5.214  1.1717  0.9130 -0.1317
 7028SOL     OW32545   1.705   0.657   3.690 -0.5658 -0.4443 -0.1345
 7028SOL    HW132546   1.660   0.588   3.738 -0.6918 -0.4907 -0.3196
 7028SOL    HW232547   1.630   0.696   3.646 -2.4656 -1.1796  2.5069
 7029SOL     OW32548   1.715   0.836  12.465  0.0052 -0.0098  0.6193
 7029SOL    HW132549   1.688   0.773  12.397  0.1347  0.3876  0.1969
 7029SOL    HW232550   1.783   0.799  12.520  0.6834  1.6960  0.9425
 7030SOL     OW32551   4.165   0.707   2.575 -0.5048 -0.4914 -0.9283
 7030SOL    HW132552   4.230   0.661   2.522  0.5466  1.4707 -1.3565
 7030SOL    HW232553   4.143   0.773   2.509  2.3224  0.7168 -0.6356
 7031SOL     OW32554   0.653   0.158  16.731  0.1591 -0.7658 -0.1719
 7031SOL    HW132555   0.683   0.067  16.730  2.0032 -0.1854  2.7851
 7031SOL    HW232556   0.561   0.158  16.703 -0.0512  0.0999  0.5284
 7032SOL     OW32557   2.852   0.981   3.091  0.0063  0.0177 -0.0980
 7032SOL    HW132558   2.761   0.959   3.069  0.8870 -2.2187 -1.4420
 7032SOL    HW232559   2.843   1.012   3.181  1.5098  0.3133 -0.0491
 7033SOL     OW32560   0.041   3.641   5.126  0.3114 -0.3412  0.3489
 7033SOL    HW132561   0.051   3.686   5.210 -3.4953 -1.7748  1.5446
 7033SOL    HW232562   0.109   3.574   5.137 -0.8628 -1.4865  0.5912
 7034SOL     OW32563   3.984   2.028   0.485  0.1485 -0.8449  0.2038
 7034SOL    HW132564   3.916   2.034   0.418 -1.4836  1.5958  2.0886
 7034SOL    HW232565   4.009   1.938   0.462  2.5967 -0.1238  0.0820
 7035SOL     OW32566   0.785   1.877   8.790 -0.1665  0.3179  1.0870
 7035SOL    HW132567   0.867   1.911   8.825 -0.1804 -0.2522  1.6733
 7035SOL    HW232568   0.778   1.792   8.833 -1.4423 -0.4866 -0.6802
 7036SOL     OW32569   1.012   0.811   2.880 -0.2448 -0.1068 -0.0715
 7036SOL    HW132570   1.064   0.808   2.800  0.1060  0.8812  0.1195
 7036SOL    HW232571   1.057   0.876   2.935 -1.6666 -0.7705  1.8826
 7037SOL     OW32572   2.698   2.741   6.284 -0.2296  0.3992 -0.1084
 7037SOL    HW132573   2.623   2.733   6.342  2.3916  0.6160  3.2578
 7037SOL    HW232574   2.730   2.651   6.282 -0.1484  0.4144  0.6903
 7038SOL     OW32575   3.272   2.207   4.523 -0.0050 -0.0449 -0.5126
 7038SOL    HW132576   3.315   2.138   4.572 -2.7551 -0.3250  1.5002
 7038SOL    HW232577   3.324   2.227   4.445  3.0978  1.3858  1.9119
 7039SOL     OW32578   0.615   1.125   7.896 -0.9152 -1.1020 -0.2378
 7039SOL    HW132579   0.563   1.188   7.944 -0.3596 -0.7978 -0.0396
 7039SOL    HW232580   0.677   1.109   7.967 -1.1874  0.7629  0.4188
 7040SOL     OW32581   1.427   2.102  14.668  0.2136 -0.3223  0.9777
 7040SOL    HW132582   1.341   2.114  14.710 -1.2395 -1.0173 -1.8397
 7040SOL    HW232583   1.457   2.192  14.679  0.6902 -0.2045 -1.4509
 7041SOL     OW32584   1.811   3.259   7.033  0.2353  0.3995 -0.0915
 7041SOL    HW132585   1.792   3.196   7.102 -0.4757  0.3919 -0.2938
 7041SOL    HW232586   1.824   3.197   6.961  2.7859  1.4250 -0.5159
 7042SOL     OW32587   2.776   1.085   7.784  0.1172 -0.2954  0.2581
 7042SOL    HW132588   2.693   1.068   7.739  0.7214 -2.6782  0.0477
 7042SOL    HW232589   2.796   1.000   7.821  1.0599  0.4207  1.3840
 7043SOL     OW32590   4.351   0.839   4.391  0.0395  0.2752  0.3094
 7043SOL    HW132591   4.443   0.842   4.419  0.4103 -0.6116 -0.7855
 7043SOL    HW232592   4.318   0.752   4.415 -3.5487  1.9035  1.1856
 7044SOL     OW32593   0.748   1.024  13.952  0.0971 -0.3621 -0.3409
 7044SOL    HW132594   0.785   0.939  13.975 -0.2478 -0.4496 -0.1187
 7044SOL    HW232595   0.780   1.085  14.018 -0.9982  0.5151 -0.6202
 7045SOL     OW32596   0.940   1.504  13.550 -0.2221 -0.2263 -0.0413
 7045SOL    HW132597   0.988   1.532  13.628 -1.5251  0.0003  0.6933
 7045SOL    HW232598   0.902   1.588  13.524 -0.8485 -0.1792  0.9916
 7046SOL     OW32599   2.411   0.916   8.185  0.4101 -0.2673 -0.2405
 7046SOL    HW132600   2.476   0.986   8.177 -0.7848  0.6714 -1.9531
 7046SOL    HW232601   2.474   0.845   8.194 -0.3438 -1.0526 -1.2291
 7047SOL     OW32602   1.953   1.681  11.254  0.1964 -0.4126  0.1452
 7047SOL    HW132603   1.980   1.616  11.190 -2.1009 -1.4788  0.2398
 7047SOL    HW232604   1.985   1.643  11.336 -0.6564  0.3723  0.8460
 7048SOL     OW32605   3.530   2.993   6.528  0.1186 -0.0381  0.6995
 7048SOL    HW132606   3.479   2.980   6.449 -0.0682 -0.0508  0.8224
 7048SOL    HW232607   3.569   2.905   6.527 -0.5067 -0.2645 -4.0830
 7049SOL     OW32608   2.600   1.313   5.872  0.0237  0.1588 -0.3232
 7049SOL    HW132609   2.619   1.241   5.811  0.2868 -0.2623  0.2609
 7049SOL    HW232610   2.671   1.301   5.935 -0.2827  0.7939  0.1387
 7050SOL     OW32611   1.020   1.644   6.539 -0.3718  0.2422  0.0623
 7050SOL    HW132612   1.004   1.619   6.448  0.6936  2.3839 -0.7051
 7050SOL    HW232613   1.021   1.555   6.575  3.1911  0.9893  1.7810
 7051SOL     OW32614   1.288   3.244   4.703  0.6305  0.2274 -0.6034
 7051SOL    HW132615   1.194   3.241   4.683  0.5058  1.6895 -0.2713
 7051SOL    HW232616   1.289   3.266   4.796 -0.9188  1.2290 -0.8247
 7052SOL     OW32617   4.050   1.234   6.865  0.5889 -0.0527  0.3201
 7052SOL    HW132618   4.036   1.190   6.949  3.0480 -1.2736  0.0711
 7052SOL    HW232619   4.081   1.319   6.895 -0.8239  1.0412 -1.3314
 7053SOL     OW32620   1.960   3.079  15.660  0.2551  0.2134 -0.3799
 7053SOL    HW132621   1.961   3.169  15.690 -2.0619  0.2246 -0.3133
 7053SOL    HW232622   1.866   3.066  15.647  0.2459 -0.8501  0.6423
 7054SOL     OW32623   0.920   1.268   7.167 -0.2650 -0.4570  0.7693
 7054SOL    HW132624   0.868   1.238   7.242 -2.2588  1.8384  0.2886
 7054SOL    HW232625   0.863   1.226   7.104  0.0592  1.7482 -0.9731
 7055SOL     OW32626   4.159   1.769  14.966 -0.3906 -0.2140  0.2997
 7055SOL    HW132627   4.246   1.769  14.928 -0.7223  1.1912 -0.4584
 7055SOL    HW232628   4.108   1.751  14.888  0.8878 -0.3991 -0.4869
 7056SOL     OW32629   1.174   3.779  13.989  1.0442 -0.2407  0.0324
 7056SOL    HW132630   1.210   3.721  13.922  1.6742  0.8879 -0.6035
 7056SOL    HW232631   1.255   3.827  14.009  1.9023 -2.1070  1.0199
 7057SOL     OW32632   2.252   2.629  15.249  0.0218  0.0219 -0.0596
 7057SOL    HW132633   2.203   2.551  15.274  0.1160  1.1267  3.5187
 7057SOL    HW232634   2.202   2.690  15.304  0.3899 -0.8925  1.2855
 7058SOL     OW32635   4.062   3.653   5.107  0.6102  0.3071  0.1605
 7058SOL    HW132636   4.125   3.711   5.065 -2.0466  1.6737 -1.9654
 7058SOL    HW232637   4.061   3.579   5.046  2.2426  1.0172 -0.7152
 7059SOL     OW32638   3.840   1.699   4.866  0.0679 -0.0281 -0.4112
 7059SOL    HW132639   3.932   1.675   4.859  0.3622  1.8693 -3.0763
 7059SOL    HW232640   3.857   1.791   4.889  0.5664 -0.3181  0.3948
 7060SOL     OW32641   1.205   2.131   7.819 -0.0954 -0.1215 -0.2818
 7060SOL    HW132642   1.175   2.043   7.841  1.6093 -0.2629  1.5747
 7060SOL    HW232643   1.278   2.124   7.758  0.4186 -1.5398  0.5007
 7061SOL     OW32644   1.385   2.705   8.796 -0.1406  0.5932 -0.1176
 7061SOL    HW132645   1.343   2.751   8.723 -2.1088 -0.0546  0.6117
 7061SOL    HW232646   1.346   2.755   8.867 -1.8240  0.5439 -1.0103
 7062SOL     OW32647   2.897   1.888  17.480  0.2810  0.4993 -0.7361
 7062SOL    HW132648   2.880   1.810  17.534 -0.5311 -0.0135 -1.7459
 7062SOL    HW232649   2.971   1.929  17.525 -1.8392  1.2767  2.0611
 7063SOL     OW32650   3.751   3.488  14.361  0.0665  0.7486 -0.5509
 7063SOL    HW132651   3.798   3.440  14.293  1.3471  0.0121  0.8430
 7063SOL    HW232652   3.770   3.582  14.361  0.8385  0.5894  1.0066
 7064SOL     OW32653   2.797   3.384   8.306  0.3208  0.0489  0.2103
 7064SOL    HW132654   2.868   3.409   8.365  1.4987  0.8792 -1.5709
 7064SOL    HW232655   2.821   3.295   8.277 -1.9553 -0.9265  1.3626
 7065SOL     OW32656   2.202   4.528  12.352 -0.3217 -0.5672 -0.1567
 7065SOL    HW132657   2.288   4.488  12.348  0.3046  0.6568  1.2260
 7065SOL    HW232658   2.177   4.506  12.262  2.3429 -0.1514 -0.9957
 7066SOL     OW32659   2.480   2.045   6.177  0.2579  0.0006  0.2788
 7066SOL    HW132660   2.480   2.114   6.244 -0.5831 -0.2096  0.4867
 7066SOL    HW232661   2.563   2.067   6.133 -0.5739  0.2505 -1.1709
 7067SOL     OW32662   4.307   3.736  13.288 -0.5099  0.7929  0.3209
 7067SOL    HW132663   4.396   3.701  13.294 -1.5399 -1.8012  0.2483
 7067SOL    HW232664   4.315   3.818  13.337  2.0217 -0.0193  1.2516
 7068SOL     OW32665   0.837   2.603  11.201  0.3317 -0.3222  0.2200
 7068SOL    HW132666   0.794   2.636  11.122  1.2224 -0.4713 -0.3188
 7068SOL    HW232667   0.904   2.670  11.212 -0.4652  0.5887 -0.4634
 7069SOL     OW32668   2.704   2.762   6.017 -0.1574  0.4828 -0.5918
 7069SOL    HW132669   2.635   2.698   6.004 -1.0004  1.0949  0.8135
 7069SOL    HW232670   2.689   2.776   6.111  1.6487 -0.5969 -0.1528
 7070SOL     OW32671   3.893   0.719   7.444 -0.2870 -0.0579  0.0467
 7070SOL    HW132672   3.940   0.711   7.527  1.5657 -1.1259 -1.0973
 7070SOL    HW232673   3.868   0.628   7.429 -0.6813  0.4287 -2.3821
 7071SOL     OW32674   0.209   0.590  11.388 -0.2209 -0.2010  0.2513
 7071SOL    HW132675   0.283   0.599  11.448 -0.4624 -1.7568  0.7857
 7071SOL    HW232676   0.172   0.678  11.389 -2.0238 -0.9221 -2.0424
 7072SOL     OW32677   1.347   1.352   4.093 -0.2130  0.4144  0.2496
 7072SOL    HW132678   1.280   1.386   4.035 -1.6259  0.3130  1.8270
 7072SOL    HW232679   1.418   1.416   4.091 -0.8598  1.0670 -1.6111
 7073SOL     OW32680   2.273   4.210   8.073 -0.1011  0.2844  0.3379
 7073SOL    HW132681   2.215   4.136   8.090 -1.2304  0.8953 -0.7924
 7073SOL    HW232682   2.274   4.248   8.161  0.4875  0.5673  0.2092
 7074SOL     OW32683   0.991   1.516  16.364  0.0384  0.3710  0.7384
 7074SOL    HW132684   1.028   1.597  16.398 -0.9885  0.9957  0.3737
 7074SOL    HW232685   1.039   1.518  16.281  0.7695  1.0154  1.1819
 7075SOL     OW32686   2.945   3.550   8.706  0.2499  0.1406  0.7203
 7075SOL    HW132687   2.943   3.521   8.615  2.0468 -0.6693  0.9302
 7075SOL    HW232688   3.013   3.489   8.734 -0.1469 -0.9291 -0.6419
 7076SOL     OW32689   3.611   4.182  13.454  0.3192  0.3103  0.1396
 7076SOL    HW132690   3.624   4.255  13.515  0.9225  1.6771 -1.6465
 7076SOL    HW232691   3.516   4.174  13.452  0.2800 -0.2839  3.2348
 7077SOL     OW32692   1.035   0.298  13.911  0.6076  0.4925 -0.2662
 7077SOL    HW132693   1.019   0.282  14.005  0.0328  0.3091 -0.3919
 7077SOL    HW232694   0.947   0.275  13.881 -0.0179  3.9475 -1.0804
 7078SOL     OW32695   0.181   2.693   3.529 -0.0748  0.2172  0.7521
 7078SOL    HW132696   0.220   2.608   3.552  0.9025  1.0959  2.3294
 7078SOL    HW232697   0.232   2.725   3.454 -2.8715 -0.4853 -1.4651
 7079SOL     OW32698   1.263   0.865   5.698 -0.5860 -0.1918 -0.7008
 7079SOL    HW132699   1.291   0.774   5.688 -0.5934 -0.6365  3.4847
 7079SOL    HW232700   1.309   0.910   5.626 -0.3713 -0.9223 -1.0244
 7080SOL     OW32701   1.233   4.010   8.494 -0.3946 -0.1194 -0.1792
 7080SOL    HW132702   1.280   3.932   8.523  0.7629  0.6087 -0.0926
 7080SOL    HW232703   1.290   4.034   8.422 -0.5404 -2.3496 -1.0516
 7081SOL     OW32704   4.615   4.513   9.842  0.5357 -0.2908 -0.0315
 7081SOL    HW132705   4.597   4.468   9.759 -2.6583  0.9106  0.0072
 7081SOL    HW232706   4.674   4.586   9.825  0.5254 -0.1272  0.6708
 7082SOL     OW32707   3.341   0.836  16.557 -0.3853  0.2099  0.7488
 7082SOL    HW132708   3.276   0.767  16.554 -0.8438  0.7016 -0.7151
 7082SOL    HW232709   3.291   0.900  16.507  1.8151  1.4043  0.0390
 7083SOL     OW32710   1.460   0.645   6.426  0.3838 -0.2826  0.1278
 7083SOL    HW132711   1.414   0.561   6.426 -1.6894  0.8571 -0.4659
 7083SOL    HW232712   1.498   0.634   6.513 -0.8392 -1.7111  0.4794
 7084SOL     OW32713   3.700   3.022   7.826  0.4029  0.2461  0.2658
 7084SOL    HW132714   3.666   2.961   7.891 -1.1325  0.8842  0.0517
 7084SOL    HW232715   3.615   3.061   7.805  0.3267 -0.8511 -1.4688
 7085SOL     OW32716   4.668   3.976   7.698 -0.0225 -0.1960  0.5426
 7085SOL    HW132717   0.016   4.016   7.645  1.2924 -0.6486  1.9257
 7085SOL    HW232718   4.635   4.052   7.746 -0.6663 -0.2484  0.1865
 7086SOL     OW32719   0.417   0.422  14.625  0.2136  0.1095  0.3985
 7086SOL    HW132720   0.386   0.488  14.563 -1.6574 -0.7532  0.4393
 7086SOL    HW232721   0.454   0.477  14.695 -0.5987  0.7038  0.3618
 7087SOL     OW32722   2.618   2.754   0.733  0.7427  0.1976  0.4533
 7087SOL    HW132723   2.659   2.834   0.699 -0.9020  0.6668 -0.4314
 7087SOL    HW232724   2.672   2.686   0.695  0.1315  0.3985 -0.7658
 7088SOL     OW32725   1.570   0.882   6.898  0.3211 -0.6173  0.4868
 7088SOL    HW132726   1.490   0.929   6.874  0.8881 -0.5071 -1.1995
 7088SOL    HW232727   1.546   0.825   6.971 -0.4240 -2.9211 -1.5529
 7089SOL     OW32728   1.669   0.460  16.754 -0.0027  0.3241 -0.1108
 7089SOL    HW132729   1.670   0.519  16.679 -0.5264  1.2504  0.6156
 7089SOL    HW232730   1.734   0.400  16.718 -1.9914 -2.3163  0.7210
 7090SOL     OW32731   0.981   1.680   9.081 -1.0346  0.3917 -0.7768
 7090SOL    HW132732   1.027   1.642   9.156 -0.5122 -0.1692 -1.3723
 7090SOL    HW232733   0.926   1.741   9.129  0.2044  1.6554 -0.9862
 7091SOL     OW32734   2.751   3.878   1.161 -0.7784 -0.8177 -0.0759
 7091SOL    HW132735   2.836   3.839   1.182 -0.6694 -1.0861 -0.9896
 7091SOL    HW232736   2.727   3.916   1.245  0.3513 -1.9072  0.7494
 7092SOL     OW32737   3.846   1.752   0.283 -0.1381  0.4283  0.1024
 7092SOL    HW132738   3.940   1.766   0.270 -0.4635  0.9745 -1.6487
 7092SOL    HW232739   3.834   1.688   0.213 -1.2630 -0.2171  0.8948
 7093SOL     OW32740   1.018   3.405  16.563  0.6220 -0.4487  0.1724
 7093SOL    HW132741   1.007   3.350  16.485  2.3202 -2.0755  1.0660
 7093SOL    HW232742   1.082   3.466  16.527 -1.9773  3.5681  2.3603
 7094SOL     OW32743   1.638   3.678   6.947  0.0383  0.0408  0.1476
 7094SOL    HW132744   1.720   3.686   6.994  0.7124  0.3537 -1.0808
 7094SOL    HW232745   1.570   3.715   7.003 -1.6041 -0.9493 -1.1736
 7095SOL     OW32746   0.320   4.444  11.124  0.2143 -0.5692  0.0223
 7095SOL    HW132747   0.404   4.479  11.093  1.0048 -2.8841 -0.4167
 7095SOL    HW232748   0.266   4.465  11.048  0.2049 -0.3969  0.0761
 7096SOL     OW32749   2.227   0.707   7.250 -0.2172 -0.5779 -0.0364
 7096SOL    HW132750   2.318   0.729   7.230  0.5838 -2.2805  1.7199
 7096SOL    HW232751   2.179   0.787   7.226  0.6306  0.0049  0.2506
 7097SOL     OW32752   3.563   0.957  14.400 -0.1560  0.4414 -0.2547
 7097SOL    HW132753   3.610   0.878  14.427  2.4944  2.6289  1.5464
 7097SOL    HW232754   3.582   1.015  14.474  0.1174 -0.6180  0.5140
 7098SOL     OW32755   1.559   0.574   8.884  0.2470 -0.2555  0.2881
 7098SOL    HW132756   1.585   0.557   8.793  0.1199  3.1354 -0.4099
 7098SOL    HW232757   1.625   0.519   8.926  0.0013  0.6484  1.8419
 7099SOL     OW32758   0.840   0.169   4.330  0.3752  0.1833 -0.2798
 7099SOL    HW132759   0.797   0.179   4.245 -1.6083  1.3763  0.8534
 7099SOL    HW232760   0.871   0.259   4.339 -1.5859  0.9715 -1.3396
 7100SOL     OW32761   1.947   1.976   6.534 -0.0567 -0.5799 -0.3672
 7100SOL    HW132762   1.858   1.966   6.570  0.5476  1.4614  1.7448
 7100SOL    HW232763   1.983   2.047   6.588 -1.0275 -2.2243  2.4161
 7101SOL     OW32764   3.400   0.652  12.685 -0.1216  0.1724 -0.5012
 7101SOL    HW132765   3.441   0.567  12.673  0.9995  0.4831  1.2075
 7101SOL    HW232766   3.310   0.638  12.654  0.7254 -2.8381 -1.6107
 7102SOL     OW32767   4.694   1.913  16.163  0.5747  0.3330  0.1125
 7102SOL    HW132768   0.030   1.947  16.095 -1.8769  4.1166 -0.0525
 7102SOL    HW232769   4.705   1.819  16.146 -0.8500  0.4933 -1.7414
 7103SOL     OW32770   0.440   4.178   3.898  0.2119  0.0528  0.1746
 7103SOL    HW132771   0.403   4.110   3.841  0.8451 -0.1782  0.0462
 7103SOL    HW232772   0.477   4.126   3.969  0.1922  0.7369  0.6895
 7104SOL     OW32773   2.590   2.503  10.706  0.0857 -0.0241  0.4239
 7104SOL    HW132774   2.588   2.445  10.629  2.9021 -0.1851  0.4739
 7104SOL    HW232775   2.502   2.540  10.701  0.2590  0.2137 -0.8221
 7105SOL     OW32776   1.681   0.374  12.249  0.2694 -0.2321  0.4156
 7105SOL    HW132777   1.686   0.465  12.278  1.5455 -0.2053  0.1039
 7105SOL    HW232778   1.589   0.358  12.270 -0.4933 -0.4297 -3.2167
 7106SOL     OW32779   2.223   2.618   1.774  0.2309 -0.6661 -0.0142
 7106SOL    HW132780   2.275   2.644   1.850  1.1396  1.9459 -1.5192
 7106SOL    HW232781   2.203   2.527   1.796  0.4165 -0.3941  1.2407
 7107SOL     OW32782   2.649   3.546   5.334 -0.1504  0.1902  0.5084
 7107SOL    HW132783   2.581   3.602   5.372 -0.4439  0.6665 -0.7064
 7107SOL    HW232784   2.635   3.463   5.380  0.6681  0.3487  1.0445
 7108SOL     OW32785   2.626   1.650  16.129 -0.7347 -0.3713  0.2325
 7108SOL    HW132786   2.532   1.663  16.139 -0.5891  1.8774 -1.3797
 7108SOL    HW232787   2.647   1.712  16.059 -0.2666 -2.5559 -1.5513
 7109SOL     OW32788   2.386   1.264   1.688 -0.4640 -0.0139 -0.0923
 7109SOL    HW132789   2.357   1.211   1.614  1.4084 -0.8919 -0.1905
 7109SOL    HW232790   2.343   1.348   1.677  2.3291  1.1749 -1.9651
 7110SOL     OW32791   1.355   1.989  15.665 -0.0777 -0.3379  0.0320
 7110SOL    HW132792   1.309   1.906  15.675  0.5227 -0.5470  1.0189
 7110SOL    HW232793   1.301   2.047  15.719 -0.5750  0.9667 -1.8800
 7111SOL     OW32794   1.695   3.230   7.464  0.5385 -0.5586 -0.0766
 7111SOL    HW132795   1.691   3.325   7.461 -0.0703 -0.5531  1.1102
 7111SOL    HW232796   1.612   3.213   7.508 -0.2685  1.6049 -0.7548
 7112SOL     OW32797   4.537   2.938   4.590 -0.3020 -0.0290 -0.4411
 7112SOL    HW132798   4.445   2.918   4.607 -0.3372 -0.0445 -0.6549
 7112SOL    HW232799   4.580   2.862   4.630  0.5320  0.0937 -1.0871
 7113SOL     OW32800   1.414   4.641  11.512 -0.4199  0.2451 -1.1185
 7113SOL    HW132801   1.330   4.680  11.487  1.1774  3.0715 -2.0491
 7113SOL    HW232802   1.453   4.613  11.429  3.1898  2.2298 -0.0967
 7114SOL     OW32803   1.681   2.399   4.219 -0.4986  0.4341 -0.0602
 7114SOL    HW132804   1.771   2.400   4.253  0.7114  1.4740 -3.3487
 7114SOL    HW232805   1.671   2.489   4.187  1.8911  0.3160 -1.1215
 7115SOL     OW32806   0.127   3.362   6.050  0.1316 -0.0344 -0.3799
 7115SOL    HW132807   0.197   3.328   5.994  1.7355  0.3303  1.4035
 7115SOL    HW232808   0.151   3.337   6.139 -2.6247  2.2333  0.9879
 7116SOL     OW32809   0.356   1.435   9.499  0.8651 -0.0832 -0.4004
 7116SOL    HW132810   0.355   1.456   9.406 -1.0667 -1.7205 -0.7495
 7116SOL    HW232811   0.331   1.343   9.492  0.5078 -0.0768  0.7463
 7117SOL     OW32812   4.660   0.324   5.487  0.5935  0.0951  1.1075
 7117SOL    HW132813   4.636   0.383   5.415  1.5729 -0.9262 -0.0564
 7117SOL    HW232814   4.702   0.384   5.549  2.1709  0.6169 -0.4487
 7118SOL     OW32815   4.379   3.979   4.642  0.7537 -0.3653 -0.2891
 7118SOL    HW132816   4.303   3.927   4.670 -0.8554  1.3602 -1.4136
 7118SOL    HW232817   4.452   3.923   4.667  1.7632  1.8162  1.6223
 7119SOL     OW32818   3.597   1.543  17.399 -0.3235 -0.3638  0.2069
 7119SOL    HW132819   3.546   1.553  17.479 -0.1246 -0.2764  0.3224
 7119SOL    HW232820   3.680   1.531  17.446 -0.9805  0.2916  1.5105
 7120SOL     OW32821   1.785   4.649   1.037  0.5292 -0.4348  0.8534
 7120SOL    HW132822   1.747   4.576   1.086 -0.8238 -1.7372 -2.1492
 7120SOL    HW232823   1.754   4.714   1.101  2.6824  0.5503  0.8974
 7121SOL     OW32824   2.848   2.649   5.816 -0.0400 -0.2734  0.0524
 7121SOL    HW132825   2.771   2.639   5.761 -0.6927 -0.7161  1.0624
 7121SOL    HW232826   2.820   2.707   5.886 -0.7775  0.9549 -1.2741
 7122SOL     OW32827   0.706   3.525   1.818  0.0235  0.2908  0.2862
 7122SOL    HW132828   0.759   3.551   1.894  1.7405  0.2388 -0.8975
 7122SOL    HW232829   0.765   3.463   1.775  0.5352  1.5226 -0.7746
 7123SOL     OW32830   0.211   3.935  12.052 -0.0903 -0.4308  0.0550
 7123SOL    HW132831   0.167   3.957  11.970 -2.3429  2.1423  1.9791
 7123SOL    HW232832   0.288   3.992  12.048 -0.1645 -0.3557 -0.3245
 7124SOL     OW32833   0.812   0.291   6.361 -0.2449  0.4024 -0.1110
 7124SOL    HW132834   0.742   0.340   6.403  0.0226  0.9497 -0.3040
 7124SOL    HW232835   0.822   0.334   6.276  0.6194  1.0719  0.3250
 7125SOL     OW32836   2.525   0.373   3.852  0.1420 -0.4341  0.3150
 7125SOL    HW132837   2.516   0.469   3.848  0.2204 -0.3177  3.0893
 7125SOL    HW232838   2.479   0.347   3.772 -0.5977  1.7076  0.0175
 7126SOL     OW32839   4.576   4.510   7.948  0.0644  0.1818  0.2867
 7126SOL    HW132840   4.622   4.497   7.865 -2.2100  0.1394 -0.9548
 7126SOL    HW232841   4.650   4.510   8.009 -0.2389 -1.7888  0.6422
 7127SOL     OW32842   3.250   3.269   4.988  0.3847  0.7249  0.0021
 7127SOL    HW132843   3.340   3.235   4.985 -0.1376 -0.4545 -2.1666
 7127SOL    HW232844   3.249   3.329   4.913  0.1746 -0.3621 -0.8641
 7128SOL     OW32845   0.635   3.284   2.926  0.6361  0.6122  0.0795
 7128SOL    HW132846   0.704   3.346   2.945  0.8205  0.0752  1.1272
 7128SOL    HW232847   0.559   3.339   2.906  1.6370  2.4108  1.2610
 7129SOL     OW32848   2.738   4.475   5.281  0.0782 -0.1926  0.1223
 7129SOL    HW132849   2.705   4.416   5.213 -1.1699  1.9392 -1.1051
 7129SOL    HW232850   2.654   4.514   5.305  0.6114 -0.2644  2.1160
 7130SOL     OW32851   1.822   3.149   9.170  0.4690 -0.0323  0.6178
 7130SOL    HW132852   1.761   3.097   9.117  3.1905 -0.1122 -2.4580
 7130SOL    HW232853   1.903   3.134   9.121 -0.4785 -1.1973 -0.6175
 7131SOL     OW32854   4.428   1.024  13.380  0.0898 -0.2104  0.4233
 7131SOL    HW132855   4.485   1.055  13.309  3.0688 -1.9938  2.0010
 7131SOL    HW232856   4.433   0.928  13.377 -0.4470 -0.2026 -0.5540
 7132SOL     OW32857   2.178   0.779   3.499 -0.2124  0.0100 -0.4762
 7132SOL    HW132858   2.194   0.690   3.530  1.7039  0.1406 -1.0733
 7132SOL    HW232859   2.095   0.784   3.451  0.1215  2.7653 -0.7146
 7133SOL     OW32860   4.349   4.040  14.006  0.0519 -0.1944  0.0222
 7133SOL    HW132861   4.299   4.121  14.010  0.0215 -0.2136  0.0338
 7133SOL    HW232862   4.322   4.014  14.094 -1.1120 -1.0071 -0.5715
 7134SOL     OW32863   1.033   0.713   8.352 -0.3849  0.5910 -0.1430
 7134SOL    HW132864   0.960   0.690   8.295 -0.3436  2.0979 -0.8078
 7134SOL    HW232865   1.069   0.629   8.381  0.4153  0.9418 -0.1386
 7135SOL     OW32866   2.098   1.508   6.128 -0.3759 -0.3007 -0.0459
 7135SOL    HW132867   2.035   1.577   6.148 -2.1270 -1.7735 -0.4528
 7135SOL    HW232868   2.084   1.437   6.191  0.3738 -0.6313 -0.2525
 7136SOL     OW32869   1.774   0.500   1.252  0.0392  0.2820  0.5388
 7136SOL    HW132870   1.800   0.562   1.184 -1.8101 -1.7619 -1.9969
 7136SOL    HW232871   1.810   0.416   1.223  0.7677  0.8514 -0.2079
 7137SOL     OW32872   1.434   1.597   9.775  0.5436 -0.1132 -0.8483
 7137SOL    HW132873   1.468   1.552   9.852 -1.4901 -1.0268 -0.4935
 7137SOL    HW232874   1.491   1.579   9.700  1.5177  1.1344 -0.4037
 7138SOL     OW32875   1.886   0.264   1.128 -0.3186  0.4667  0.0566
 7138SOL    HW132876   1.948   0.207   1.083 -1.4445 -1.7721  1.3638
 7138SOL    HW232877   1.905   0.241   1.218  1.1980 -2.5527 -1.0503
 7139SOL     OW32878   4.174   3.023   4.735 -0.3575 -0.5729  0.1739
 7139SOL    HW132879   4.194   2.931   4.749  0.8011 -0.3332  0.1105
 7139SOL    HW232880   4.259   3.065   4.747 -0.7529  0.0074  0.9300
 7140SOL     OW32881   3.801   3.471   2.052 -0.4348  0.3170 -0.0290
 7140SOL    HW132882   3.728   3.411   2.067 -1.2323  0.3529 -3.7600
 7140SOL    HW232883   3.837   3.417   1.981  2.1161 -0.0305  1.5241
 7141SOL     OW32884   1.090   2.160   5.020  0.3068  0.0052  0.4168
 7141SOL    HW132885   1.094   2.148   4.925 -1.6293  0.4308  0.2810
 7141SOL    HW232886   1.144   2.087   5.049  0.8130  0.9075  1.7344
 7142SOL     OW32887   3.612   3.824   7.162  0.1119  0.3860 -0.5652
 7142SOL    HW132888   3.645   3.776   7.238  1.6418 -0.0360 -1.5017
 7142SOL    HW232889   3.563   3.897   7.200  0.0041  0.5335 -0.9915
 7143SOL     OW32890   0.525   3.216   6.725 -0.3737 -0.3095 -0.1633
 7143SOL    HW132891   0.606   3.176   6.757  0.5051 -0.3241 -2.4303
 7143SOL    HW232892   0.463   3.207   6.798  0.5914  1.0881  0.8248
 7144SOL     OW32893   3.329   0.894  14.530  0.4261  0.6372 -0.0583
 7144SOL    HW132894   3.303   0.985  14.545  0.9933  0.6771  0.6695
 7144SOL    HW232895   3.400   0.915  14.470  2.1725  2.2655  2.5635
 7145SOL     OW32896   1.273   1.299  16.118 -0.0346 -0.0642 -0.2795
 7145SOL    HW132897   1.343   1.267  16.174 -1.0040 -1.1375  0.3272
 7145SOL    HW232898   1.309   1.293  16.030  1.3049 -0.7625  0.3189
 7146SOL     OW32899   3.217   4.007   3.085 -0.0372  0.1385 -0.3795
 7146SOL    HW132900   3.130   4.014   3.045 -0.5899 -0.2260  0.7495
 7146SOL    HW232901   3.205   3.931   3.142  1.2045 -0.3775 -0.8132
 7147SOL     OW32902   2.554   2.403   3.483  0.1131 -0.3443  0.4734
 7147SOL    HW132903   2.586   2.491   3.468  1.0374 -0.7580  0.0212
 7147SOL    HW232904   2.480   2.409   3.423 -1.0584  0.7319  2.0426
 7148SOL     OW32905   1.809   4.047   3.837  0.3389 -0.0450 -0.2561
 7148SOL    HW132906   1.871   4.110   3.874 -0.4501 -0.1250  1.2070
 7148SOL    HW232907   1.755   4.104   3.782 -1.5901 -2.6154 -1.0230
 7149SOL     OW32908   2.875   0.176  12.816  0.2193  0.5940  0.1197
 7149SOL    HW132909   2.894   0.120  12.891 -1.7830 -1.0917 -0.6556
 7149SOL    HW232910   2.855   0.115  12.746 -0.3052  0.0043  0.7827
 7150SOL     OW32911   0.571   1.436   4.018  0.3205 -0.1187  0.5183
 7150SOL    HW132912   0.543   1.345   4.029  0.8352 -0.0598  2.3299
 7150SOL    HW232913   0.561   1.475   4.105  1.6472 -2.0199  1.5107
 7151SOL     OW32914   0.373   3.143   3.973  0.2479 -0.2029  0.1465
 7151SOL    HW132915   0.399   3.161   3.883  0.3614 -0.3754  0.1451
 7151SOL    HW232916   0.293   3.092   3.958 -0.1099  0.2884  0.3886
 7152SOL     OW32917   0.301   0.183  14.699  0.4351  0.9301  0.6325
 7152SOL    HW132918   0.240   0.223  14.761  0.8985  2.9630 -0.2002
 7152SOL    HW232919   0.327   0.260  14.648 -1.9042  1.0440 -0.3844
 7153SOL     OW32920   2.451   1.082   4.140 -0.3967  0.1831 -0.0816
 7153SOL    HW132921   2.447   1.041   4.054 -0.9193  1.4432 -0.6546
 7153SOL    HW232922   2.522   1.038   4.187  0.2293  0.5072 -0.7365
 7154SOL     OW32923   4.114   3.709   6.834  0.2096 -0.7334 -0.4964
 7154SOL    HW132924   4.063   3.782   6.870  1.2078 -1.1423  1.7532
 7154SOL    HW232925   4.126   3.648   6.907  1.0750 -0.8014 -0.6937
 7155SOL     OW32926   2.529   0.149  11.535  0.1151  0.1163 -0.2302
 7155SOL    HW132927   2.436   0.127  11.531  0.7108 -2.2139 -1.4271
 7155SOL    HW232928   2.576   0.090  11.476  0.7849  1.0595 -0.6353
 7156SOL     OW32929   4.532   2.068  15.306  0.4587 -0.4968  0.0909
 7156SOL    HW132930   4.543   1.974  15.323 -1.8771 -0.8136 -0.0683
 7156SOL    HW232931   4.482   2.058  15.225  1.1346 -0.0563 -0.3732
 7157SOL     OW32932   2.144   3.614   9.680  0.3273 -0.0671  0.6172
 7157SOL    HW132933   2.192   3.644   9.602  0.8813 -0.9482  0.6323
 7157SOL    HW232934   2.212   3.604   9.746  1.3766 -0.6150 -0.5509
 7158SOL     OW32935   4.645   1.145  15.803  0.0363 -0.1009  0.3082
 7158SOL    HW132936   4.624   1.135  15.710 -2.3315  0.5622  0.7786
 7158SOL    HW232937   4.561   1.143  15.849 -1.1775 -2.1734 -1.9820
 7159SOL     OW32938   3.275   0.599   2.936 -0.2447  0.0752  0.4674
 7159SOL    HW132939   3.215   0.551   2.878 -0.1310 -1.6800  1.8000
 7159SOL    HW232940   3.354   0.548   2.953  1.9721  3.3872  0.0374
 7160SOL     OW32941   3.487   4.721  16.953 -0.3087 -0.4805 -0.6444
 7160SOL    HW132942   3.478   4.646  16.895 -1.3127 -0.0077 -1.0879
 7160SOL    HW232943   3.418   0.061  16.931 -0.1145 -0.6395 -1.6752
 7161SOL     OW32944   2.399   3.609   6.854 -0.5152  0.1011  0.0148
 7161SOL    HW132945   2.460   3.560   6.909 -1.5579 -1.0347  0.1383
 7161SOL    HW232946   2.378   3.536   6.797  0.6812 -0.0654 -0.2203
 7162SOL     OW32947   1.943   2.037   8.284 -0.2809  0.2896 -0.4820
 7162SOL    HW132948   1.926   2.085   8.365 -0.1605 -2.0419  0.9416
 7162SOL    HW232949   1.943   1.943   8.300  1.8780  0.3678 -0.1003
 7163SOL     OW32950   4.467   3.716   5.855 -0.2487 -0.1292  0.4365
 7163SOL    HW132951   4.407   3.759   5.915 -0.6478  0.3657 -0.3169
 7163SOL    HW232952   4.528   3.668   5.911  0.7422  0.5789 -0.0461
 7164SOL     OW32953   3.771   3.118   7.034  0.0941 -0.4229 -0.0241
 7164SOL    HW132954   3.754   3.164   7.116  2.8942  2.6001 -1.1509
 7164SOL    HW232955   3.716   3.041   7.048  1.2464 -1.1830  0.3324
 7165SOL     OW32956   3.572   3.439   3.490 -0.3827 -0.3335 -0.5383
 7165SOL    HW132957   3.497   3.382   3.473  0.6483 -1.3095 -1.8041
 7165SOL    HW232958   3.524   3.521   3.500  0.6916  0.4135 -1.4472
 7166SOL     OW32959   4.643   0.456  13.898 -0.0276  0.4631 -0.3272
 7166SOL    HW132960   4.650   0.491  13.987 -1.4286 -0.6677  0.2290
 7166SOL    HW232961   4.657   0.365  13.924  3.8387  1.1185 -0.1991
 7167SOL     OW32962   1.606   2.620   3.282 -0.7288  0.0321 -0.0593
 7167SOL    HW132963   1.516   2.587   3.280  0.6410 -3.8851  2.3792
 7167SOL    HW232964   1.616   2.660   3.369  2.9039  0.1007 -0.5156
 7168SOL     OW32965   4.336   2.631   4.503  0.2917 -0.1262 -0.2538
 7168SOL    HW132966   4.351   2.538   4.486 -2.9495 -0.7383  0.2033
 7168SOL    HW232967   4.265   2.617   4.565 -0.7735 -0.8077 -1.6369
 7169SOL     OW32968   2.314   3.932   7.518  1.0114 -0.9408  0.8060
 7169SOL    HW132969   2.282   3.961   7.604  2.9194 -2.9488  2.1943
 7169SOL    HW232970   2.356   4.013   7.491 -1.9114  0.8689  1.6908
 7170SOL     OW32971   1.229   0.229  10.937 -0.2414  0.1055  0.1881
 7170SOL    HW132972   1.258   0.319  10.949 -0.6015  0.1891  0.4411
 7170SOL    HW232973   1.313   0.190  10.914  0.0169  0.0084  1.2876
 7171SOL     OW32974   1.726   0.801   2.535  0.1263 -0.8593 -0.7954
 7171SOL    HW132975   1.711   0.738   2.605 -0.8813 -0.5826 -0.7581
 7171SOL    HW232976   1.748   0.867   2.601 -0.2157 -0.8855 -0.6572
 7172SOL     OW32977   1.149   3.586   4.610 -0.0729  0.3915 -0.1645
 7172SOL    HW132978   1.188   3.535   4.681 -0.2455  1.4681  0.7155
 7172SOL    HW232979   1.205   3.551   4.541  1.1946  3.5584 -0.7722
 7173SOL     OW32980   4.221   3.699   9.428 -0.0766  0.3856  0.5561
 7173SOL    HW132981   4.190   3.788   9.411 -2.5486 -0.3937  1.0590
 7173SOL    HW232982   4.168   3.678   9.505 -1.1587  1.4411  0.0955
 7174SOL     OW32983   3.173   4.600   4.430  0.2245  0.0321 -0.8494
 7174SOL    HW132984   3.267   4.615   4.438  0.2777 -1.7645  1.6794
 7174SOL    HW232985   3.165   4.549   4.349  2.4656 -0.4975 -0.7398
 7175SOL     OW32986   2.459   0.634  15.199 -0.5494  0.1218  0.2059
 7175SOL    HW132987   2.416   0.674  15.275 -2.3907 -3.0403  0.8508
 7175SOL    HW232988   2.397   0.668  15.135 -0.1943 -0.3192 -0.3720
 7176SOL     OW32989   3.809   0.476   9.010  0.5059  0.3085  0.6351
 7176SOL    HW132990   3.760   0.548   8.971  1.2742  0.0512 -0.8207
 7176SOL    HW232991   3.798   0.414   8.937  0.3869 -0.7437  1.5401
 7177SOL     OW32992   3.398   0.880   9.674 -0.2440  0.3136  0.1823
 7177SOL    HW132993   3.304   0.900   9.673 -0.9004 -2.7984 -2.5934
 7177SOL    HW232994   3.412   0.786   9.686 -0.3296  0.3829  0.8413
 7178SOL     OW32995   2.223   1.401  16.170 -0.0396 -0.5776 -0.0135
 7178SOL    HW132996   2.177   1.344  16.109  0.0328 -0.8352  0.1734
 7178SOL    HW232997   2.166   1.395  16.246 -0.3233  0.5213 -0.1362
 7179SOL     OW32998   2.492   2.272   7.345 -0.2592  0.0922  0.1946
 7179SOL    HW132999   2.528   2.187   7.321 -0.5184  0.3613 -1.1130
 7179SOL    HW233000   2.551   2.334   7.302  1.4012 -2.9275 -1.8402
 7180SOL     OW33001   4.615   1.949   6.761 -0.7951 -0.2966  0.4885
 7180SOL    HW133002   4.591   1.872   6.709 -2.4948  0.1104  0.6568
 7180SOL    HW233003   4.544   1.941   6.825 -1.2934  1.9639  0.2201
 7181SOL     OW33004   3.095   2.331   3.839 -0.7610 -0.2565 -0.2889
 7181SOL    HW133005   3.048   2.316   3.757 -1.9043 -0.6444  0.4402
 7181SOL    HW233006   3.024   2.376   3.884  0.3401  1.0077  0.1961
 7182SOL     OW33007   2.418   0.266   4.448 -0.3215 -0.1838 -0.0817
 7182SOL    HW133008   2.406   0.350   4.404 -1.3426 -0.5433 -0.4790
 7182SOL    HW233009   2.351   0.284   4.514  0.3539  2.1817 -0.0251
 7183SOL     OW33010   3.520   4.621   8.247  0.7105 -0.1350 -0.2291
 7183SOL    HW133011   3.525   4.581   8.160 -1.2789 -0.0478 -0.3724
 7183SOL    HW233012   3.459   4.562   8.290  1.3510 -0.5267  0.1349
 7184SOL     OW33013   4.466   4.496   4.109 -0.4237  0.0567 -0.2476
 7184SOL    HW133014   4.451   4.403   4.089  0.9256 -0.1115 -0.4291
 7184SOL    HW233015   4.410   4.497   4.187 -0.0947 -1.6422  0.0034
 7185SOL     OW33016   0.410   3.229   5.795 -0.8664 -0.4284 -0.5010
 7185SOL    HW133017   0.490   3.247   5.746  0.5388 -2.3726  1.0472
 7185SOL    HW233018   0.452   3.231   5.882 -1.1809  1.4816 -0.4112
 7186SOL     OW33019   2.658   0.551   2.161 -0.5828 -0.4840 -0.3319
 7186SOL    HW133020   2.633   0.607   2.088  0.1774 -0.4188 -0.5483
 7186SOL    HW233021   2.611   0.470   2.141 -2.3579  0.4907 -0.0734
 7187SOL     OW33022   3.919   1.410   7.138 -0.2160 -0.1733  0.0963
 7187SOL    HW133023   3.898   1.317   7.141 -1.5090  0.0861 -0.8491
 7187SOL    HW233024   3.985   1.422   7.207  1.1477 -1.9954 -0.9111
 7188SOL     OW33025   0.804   3.392   0.540 -0.2776  0.1634  0.4883
 7188SOL    HW133026   0.826   3.315   0.592  1.8247  1.8609  2.1331
 7188SOL    HW233027   0.838   3.375   0.452 -0.6243 -0.2950  0.4431
 7189SOL     OW33028   4.246   0.948   4.177  0.4763  0.1053 -0.5169
 7189SOL    HW133029   4.170   0.994   4.212  0.0540 -1.0470  0.0977
 7189SOL    HW233030   4.291   0.919   4.257 -0.1670  2.0155  0.5365
 7190SOL     OW33031   2.180   0.674  15.115 -0.4871 -0.0843 -0.1652
 7190SOL    HW133032   2.123   0.598  15.126 -1.0470  0.5753  1.5322
 7190SOL    HW233033   2.111   0.740  15.108  0.3364  0.7496 -0.4168
 7191SOL     OW33034   3.338   2.980  10.852 -0.5679 -0.3573 -0.2863
 7191SOL    HW133035   3.278   3.049  10.880 -1.3272 -1.8073  1.6220
 7191SOL    HW233036   3.387   2.977  10.934  0.7305  1.2140 -0.9946
 7192SOL     OW33037   3.894   1.985  16.549  0.2649  0.5918  0.3861
 7192SOL    HW133038   3.914   2.066  16.595 -2.5073  0.5369  1.6678
 7192SOL    HW233039   3.968   1.931  16.577 -0.0382 -0.2720 -0.4545
 7193SOL     OW33040   1.820   0.016   5.421  0.2449  0.2346 -1.1060
 7193SOL    HW133041   1.912   4.711   5.416 -0.5504 -2.9474  1.2366
 7193SOL    HW233042   1.780   4.660   5.462 -0.7026 -0.2615 -2.9677
 7194SOL     OW33043   1.962   4.513   7.459 -0.1038 -0.1016  0.3951
 7194SOL    HW133044   1.974   4.593   7.407  0.1794  0.2197  0.9488
 7194SOL    HW233045   2.037   4.535   7.514  0.0103 -1.2487  0.6829
 7195SOL     OW33046   1.607   3.095   0.360  0.4511 -0.0447 -0.4207
 7195SOL    HW133047   1.643   3.183   0.358  0.1755  0.0764 -0.0174
 7195SOL    HW233048   1.598   3.079   0.266  1.2958 -0.4379 -0.4358
 7196SOL     OW33049   4.720   3.980   3.007  0.2820  0.0105  0.2021
 7196SOL    HW133050   0.008   3.915   2.937  4.0281 -2.6677  3.1783
 7196SOL    HW233051   4.664   4.050   2.972  0.2057 -0.5220 -0.7449
 7197SOL     OW33052   3.686   2.075   6.536  0.0655 -0.3298  0.2514
 7197SOL    HW133053   3.735   2.147   6.575  3.4893 -3.5120  1.8316
 7197SOL    HW233054   3.601   2.096   6.575  0.7351 -0.1291  1.6030
 7198SOL     OW33055   1.676   3.859   9.199  0.3019  0.0288 -0.1512
 7198SOL    HW133056   1.690   3.765   9.210  0.0810 -0.0025 -0.1491
 7198SOL    HW233057   1.682   3.887   9.290 -0.7319 -1.6757  0.4299
 7199SOL     OW33058   1.698   3.677   0.287  0.1466  0.0776  0.3788
 7199SOL    HW133059   1.782   3.718   0.267 -0.8822  1.6971 -0.6563
 7199SOL    HW233060   1.640   3.699   0.214 -0.1972 -2.0410  0.0236
 7200SOL     OW33061   4.577   3.700   4.398 -0.6666  0.7186 -0.0757
 7200SOL    HW133062   4.543   3.730   4.482 -0.6671 -0.8000  0.4699
 7200SOL    HW233063   4.599   3.786   4.362 -1.0261  1.3514  1.2411
 7201SOL     OW33064   1.880   1.875  16.484 -0.1993 -0.4403 -0.1141
 7201SOL    HW133065   1.844   1.919  16.407 -0.5010 -1.4939 -0.5748
 7201SOL    HW233066   1.969   1.852  16.458 -0.8260 -2.4657 -0.4932
 7202SOL     OW33067   0.781   2.917   3.427 -0.3893 -0.1809 -0.3561
 7202SOL    HW133068   0.739   2.844   3.472  0.9998  0.0261  1.2767
 7202SOL    HW233069   0.815   2.870   3.351  2.1083  0.5855  0.2702
 7203SOL     OW33070   2.139   3.131   4.036 -0.5574 -0.7849  0.2289
 7203SOL    HW133071   2.165   3.061   3.977  2.1727 -1.1875  1.9015
 7203SOL    HW233072   2.150   3.101   4.127  1.0216 -0.0700  0.2651
 7204SOL     OW33073   1.172   2.669  12.983  0.1290 -0.0571 -0.4594
 7204SOL    HW133074   1.184   2.575  12.970 -1.4323 -0.2864 -0.3060
 7204SOL    HW233075   1.203   2.697  12.897 -4.9220  1.7675 -1.7257
 7205SOL     OW33076   2.272   0.882  16.164 -0.3952  0.4179 -0.5225
 7205SOL    HW133077   2.216   0.934  16.221 -0.8307 -1.1720  0.4800
 7205SOL    HW233078   2.258   0.797  16.204  0.6058  0.3809 -0.2439
 7206SOL     OW33079   4.514   4.259   0.441 -0.2497 -0.2632  0.8683
 7206SOL    HW133080   4.462   4.205   0.382  0.0213  2.0478 -1.4713
 7206SOL    HW233081   4.444   4.320   0.465  1.7707  1.7154  1.7360
 7207SOL     OW33082   4.189   3.085   2.915  0.4991  0.8286  0.2208
 7207SOL    HW133083   4.115   3.143   2.933 -1.0118 -1.1395  0.3290
 7207SOL    HW233084   4.263   3.142   2.935  1.0083  0.6438 -1.1323
 7208SOL     OW33085   0.606   0.417  15.109  0.0582 -0.2097  0.1398
 7208SOL    HW133086   0.621   0.450  15.198  0.0936  0.2937 -0.0484
 7208SOL    HW233087   0.686   0.440  15.061  0.3985 -1.1994  0.2458
 7209SOL     OW33088   4.161   2.451   8.973 -0.6543 -0.0103  0.0255
 7209SOL    HW133089   4.243   2.414   8.941  1.5067  4.6325  0.3086
 7209SOL    HW233090   4.180   2.465   9.065  2.2961  0.2490 -0.6391
 7210SOL     OW33091   1.689   1.343  12.311  0.5307 -0.0390 -0.4183
 7210SOL    HW133092   1.773   1.367  12.351  1.1900  1.8782 -2.9248
 7210SOL    HW233093   1.710   1.252  12.289 -2.4448 -0.6875 -0.5587
 7211SOL     OW33094   4.435   0.390   2.352  0.1664  0.1247 -0.1438
 7211SOL    HW133095   4.519   0.383   2.399  0.5158 -0.4077 -0.8442
 7211SOL    HW233096   4.454   0.348   2.268 -1.8933 -2.3978  0.6514
 7212SOL     OW33097   0.394   1.771   6.017  0.3540  0.1075  0.0266
 7212SOL    HW133098   0.368   1.863   6.013  1.3653  0.3331 -1.6444
 7212SOL    HW233099   0.308   1.728   6.013 -0.8145  2.5843 -1.2956
 7213SOL     OW33100   3.766   4.539  15.531  0.1793  0.4388 -0.5104
 7213SOL    HW133101   3.744   4.455  15.570  0.8779  0.2662 -0.4959
 7213SOL    HW233102   3.840   4.516  15.474  0.0723 -1.3993  0.0994
 7214SOL     OW33103   0.780   2.985   2.703  0.1862 -0.2393 -0.2347
 7214SOL    HW133104   0.725   2.922   2.658  1.7067 -1.4410 -0.3802
 7214SOL    HW233105   0.861   2.986   2.652  0.0032 -1.4753 -0.5228
 7215SOL     OW33106   3.376   3.363   3.070 -0.1620 -0.1681 -0.0659
 7215SOL    HW133107   3.337   3.389   3.153  0.6618 -0.0838  0.2983
 7215SOL    HW233108   3.373   3.445   3.021  1.2407  1.8939  3.3167
 7216SOL     OW33109   2.923   4.108   3.557 -0.0270  0.2391 -0.3014
 7216SOL    HW133110   2.893   4.094   3.647  0.1220 -1.7496 -0.5556
 7216SOL    HW233111   2.837   4.103   3.516  0.6962 -2.2151 -1.5574
 7217SOL     OW33112   3.632   1.838   3.002 -0.3361 -0.0533  0.6694
 7217SOL    HW133113   3.619   1.819   2.909 -2.9393 -1.1005  1.2763
 7217SOL    HW233114   3.619   1.933   3.000  0.3179  0.0174 -0.5867
 7218SOL     OW33115   1.923   1.238  13.624  0.1181  0.1356 -0.3865
 7218SOL    HW133116   1.946   1.207  13.536 -0.0016 -0.8562 -0.0644
 7218SOL    HW233117   1.838   1.279  13.608  0.2043 -0.6027 -2.8222
 7219SOL     OW33118   1.908   1.554   1.738 -0.3031 -0.4128 -0.0128
 7219SOL    HW133119   1.934   1.572   1.828  0.3151 -1.3988  0.0046
 7219SOL    HW233120   1.879   1.464   1.754 -1.7930 -0.3865 -2.5749
 7220SOL     OW33121   3.932   1.840   6.979 -0.2048  0.7728  0.2279
 7220SOL    HW133122   4.020   1.806   6.996 -1.2310 -1.0314  1.9074
 7220SOL    HW233123   3.892   1.778   6.919  0.0251  0.9516 -0.1104
 7221SOL     OW33124   0.304   0.490   7.856 -0.0297 -0.1461 -0.3026
 7221SOL    HW133125   0.260   0.514   7.775 -0.3795  1.8802  0.4640
 7221SOL    HW233126   0.232   0.476   7.918  0.3916 -1.4916 -0.1346
 7222SOL     OW33127   1.604   1.917  17.157 -0.6127 -0.6020  0.0916
 7222SOL    HW133128   1.588   2.005  17.121 -0.0808 -0.7016 -0.3999
 7222SOL    HW233129   1.700   1.922  17.150 -0.8498 -0.9086 -3.3166
 7223SOL     OW33130   2.028   0.293   3.221 -0.5374 -0.3072  0.5107
 7223SOL    HW133131   2.028   0.254   3.309  2.3090  0.5046  0.8557
 7223SOL    HW233132   2.094   0.248   3.169 -0.9215 -1.7599  1.2981
 7224SOL     OW33133   0.457   4.353  13.030 -0.0775  0.1115 -0.0952
 7224SOL    HW133134   0.439   4.273  12.981 -1.2577  0.1220  0.3252
 7224SOL    HW233135   0.367   4.375  13.054  0.3299 -3.5268  4.9208
 7225SOL     OW33136   3.989   0.280   1.869  0.5312  0.6070 -0.6839
 7225SOL    HW133137   3.940   0.335   1.929 -0.3892 -0.6838 -0.2441
 7225SOL    HW233138   3.956   0.192   1.887 -2.7130  2.3092  1.7645
 7226SOL     OW33139   4.297   1.942   6.929 -0.0604 -0.2603  0.3054
 7226SOL    HW133140   4.281   2.034   6.950  0.4222  0.0302 -0.5729
 7226SOL    HW233141   4.278   1.957   6.836  3.0045  2.1996  0.0994
 7227SOL     OW33142   3.652   2.238  12.068 -0.4671 -0.0360 -0.3738
 7227SOL    HW133143   3.582   2.175  12.084  0.2272 -1.0397 -1.2649
 7227SOL    HW233144   3.609   2.280  11.993 -1.7778  0.3661  0.6244
 7228SOL     OW33145   3.116   4.667   7.819  0.7036 -0.3027 -0.6638
 7228SOL    HW133146   3.065   4.586   7.827 -0.3509  0.1561 -2.6627
 7228SOL    HW233147   3.146   4.670   7.728 -1.0361  0.9057 -1.1869
 7229SOL     OW33148   1.919   2.509   1.020 -0.0725  0.4657  0.5111
 7229SOL    HW133149   1.879   2.534   0.937 -1.6573  2.7562  1.9706
 7229SOL    HW233150   2.010   2.538   1.011  0.2895 -0.7529  0.2948
 7230SOL     OW33151   1.601   1.400  16.733  0.6559  0.1480 -0.3592
 7230SOL    HW133152   1.586   1.307  16.747  2.4834  0.0760  1.1851
 7230SOL    HW233153   1.674   1.394  16.671  1.1183 -0.1616  0.2175
 7231SOL     OW33154   0.316   3.989   7.914  0.2217  0.2803 -0.2162
 7231SOL    HW133155   0.354   3.950   7.836  1.5046 -0.1556  0.6406
 7231SOL    HW233156   0.231   3.945   7.913  0.5440 -0.3127 -0.9717
 7232SOL     OW33157   1.089   3.543   6.330  0.3415 -0.5518  0.4526
 7232SOL    HW133158   1.184   3.540   6.325  0.4466  0.8370  1.5941
 7232SOL    HW233159   1.069   3.450   6.318 -2.8430 -0.4000  4.5874
 7233SOL     OW33160   0.828   1.605   8.864 -0.3383 -0.2360 -0.3442
 7233SOL    HW133161   0.879   1.568   8.793 -1.4055  0.7615 -1.6325
 7233SOL    HW233162   0.888   1.600   8.938 -0.6415 -0.3546 -0.1016
 7234SOL     OW33163   3.893   2.512   5.364  0.0146  0.6992  0.2933
 7234SOL    HW133164   3.888   2.599   5.403 -3.3292  0.7865 -0.3643
 7234SOL    HW233165   3.804   2.507   5.331 -0.3314 -0.4207  1.3973
 7235SOL     OW33166   1.153   0.791   0.395 -0.2979  0.8501 -0.3749
 7235SOL    HW133167   1.234   0.829   0.430  0.5382 -1.3973  0.1404
 7235SOL    HW233168   1.180   0.704   0.368 -0.5387  0.9361 -0.8926
 7236SOL     OW33169   1.929   3.910   6.319 -0.1562 -0.2733 -0.5440
 7236SOL    HW133170   1.911   3.819   6.342 -0.1907 -0.4949 -1.4536
 7236SOL    HW233171   1.855   3.966   6.344 -0.9525 -1.1843 -0.8596
 7237SOL     OW33172   3.611   3.643   3.760  0.2014 -0.0207 -0.1356
 7237SOL    HW133173   3.665   3.715   3.727  0.7738  0.2871  1.5032
 7237SOL    HW233174   3.540   3.699   3.791  0.7625  0.6612 -0.0896
 7238SOL     OW33175   3.275   2.601  10.229 -0.3047  0.7547 -0.5035
 7238SOL    HW133176   3.216   2.624  10.158  0.7969 -2.2556 -2.3750
 7238SOL    HW233177   3.215   2.548  10.283 -0.1700  1.3218  0.1989
 7239SOL     OW33178   1.189   0.048  10.008 -0.1146  0.0542  0.8424
 7239SOL    HW133179   1.219   4.713  10.080 -0.2831  0.0159  0.8824
 7239SOL    HW233180   1.122   4.714   9.968  0.4245  0.5811 -0.7897
 7240SOL     OW33181   2.047   0.936  13.800 -0.0712 -0.0375  0.1497
 7240SOL    HW133182   2.011   0.849  13.819  1.9886 -0.4579  2.0062
 7240SOL    HW233183   2.004   0.984  13.870  0.4832  4.1168 -2.3529
 7241SOL     OW33184   1.652   1.549   7.090  0.7028  0.0179 -0.3543
 7241SOL    HW133185   1.674   1.631   7.134  0.7077 -1.0358  1.6127
 7241SOL    HW233186   1.721   1.549   7.023  0.6420  1.5934 -0.4084
 7242SOL     OW33187   4.359   2.372  14.609  0.0451 -0.1988 -0.3083
 7242SOL    HW133188   4.409   2.304  14.654  0.1301 -0.8447 -1.3867
 7242SOL    HW233189   4.358   2.354  14.515  0.3233  0.0953 -0.3656
 7243SOL     OW33190   1.715   1.898   8.465  0.0655  0.3807  0.1402
 7243SOL    HW133191   1.782   1.887   8.532  0.0425  2.5075  0.4945
 7243SOL    HW233192   1.703   1.992   8.452  1.0859 -0.0245 -3.8651
 7244SOL     OW33193   1.537   3.053   0.080 -0.4410  0.3016  0.2223
 7244SOL    HW133194   1.459   3.004   0.107 -0.3510 -0.3897 -0.7977
 7244SOL    HW233195   1.525   3.058  17.673 -3.3784  1.0565  0.6336
 7245SOL     OW33196   4.079   1.026   0.688  0.5489  0.4738 -0.2575
 7245SOL    HW133197   4.031   1.099   0.725 -0.1025 -0.6736  1.1719
 7245SOL    HW233198   4.141   1.063   0.624 -3.9589  2.2658 -3.5563
 7246SOL     OW33199   1.317   0.611   9.011 -0.1658 -0.5497  0.0040
 7246SOL    HW133200   1.262   0.623   8.933 -0.3907  0.5440  0.3267
 7246SOL    HW233201   1.399   0.590   8.967  0.5506  1.5583  0.3538
 7247SOL     OW33202   0.437   4.614   9.420  0.7715 -0.0366 -0.2457
 7247SOL    HW133203   0.438   4.687   9.358  0.1184  1.0768  1.0602
 7247SOL    HW233204   0.396   4.646   9.500 -1.9857  0.9424 -2.0722
 7248SOL     OW33205   1.075   4.244   4.866 -0.5949 -0.0113 -0.1058
 7248SOL    HW133206   1.099   4.178   4.801  2.5097  0.0852  0.9229
 7248SOL    HW233207   1.119   4.322   4.830 -2.2793  1.7638  1.6820
 7249SOL     OW33208   1.752   1.331   3.853  0.1181 -0.4401  0.4647
 7249SOL    HW133209   1.815   1.402   3.868  1.3921 -1.5726  0.5685
 7249SOL    HW233210   1.807   1.282   3.792  1.6000  0.0998  1.3512
 7250SOL     OW33211   0.285   2.643   8.409  0.4002 -0.2653  0.1065
 7250SOL    HW133212   0.241   2.697   8.475  1.7663  0.3493  0.5217
 7250SOL    HW233213   0.252   2.556   8.428  0.7139 -0.4668 -0.2699
 7251SOL     OW33214   3.149   0.760  15.768  0.4361 -0.6305  0.1432
 7251SOL    HW133215   3.219   0.822  15.751  1.0992 -1.8787 -1.7184
 7251SOL    HW233216   3.178   0.718  15.849  2.3127 -0.8755 -0.6757
 7252SOL     OW33217   1.716   2.367   4.611  0.6393 -0.3449  0.3362
 7252SOL    HW133218   1.681   2.333   4.528  3.1782 -0.3942 -0.7139
 7252SOL    HW233219   1.692   2.459   4.598 -0.7281 -0.6986  0.3149
 7253SOL     OW33220   2.461   4.502   8.772 -0.0285 -0.2094 -0.3548
 7253SOL    HW133221   2.465   4.417   8.816 -3.2080 -0.0833  0.1382
 7253SOL    HW233222   2.470   4.474   8.681  0.3556  1.7569 -0.9145
 7254SOL     OW33223   1.368   2.320   9.928 -0.0611  0.2542 -0.2948
 7254SOL    HW133224   1.437   2.259   9.904  0.3518  0.7801 -0.4379
 7254SOL    HW233225   1.408   2.345  10.012 -2.2543 -0.5862  0.9958
 7255SOL     OW33226   3.739   2.412   7.117  0.3610 -0.2775 -0.5686
 7255SOL    HW133227   3.802   2.444   7.181 -1.8549  0.7052  1.1181
 7255SOL    HW233228   3.716   2.331   7.162 -3.7456  1.3158  0.1645
 7256SOL     OW33229   4.708   3.157   8.741 -0.4943 -0.6867 -0.1062
 7256SOL    HW133230   4.618   3.166   8.771 -0.1977 -0.6333  0.7825
 7256SOL    HW233231   0.014   3.078   8.786 -0.6275  1.0559  3.0516
 7257SOL     OW33232   0.237   1.343   2.392 -0.2119 -0.5129 -0.1788
 7257SOL    HW133233   0.143   1.329   2.402  0.4067 -2.1750  3.3006
 7257SOL    HW233234   0.257   1.303   2.307 -0.9868 -0.2566 -0.4819
 7258SOL     OW33235   0.282   2.738   9.125  0.2985  0.2880  0.1849
 7258SOL    HW133236   0.222   2.692   9.184  0.5958 -0.5451 -0.1675
 7258SOL    HW233237   0.347   2.765   9.190 -0.3735  2.4488 -0.0386
 7259SOL     OW33238   0.654   3.421  14.543  0.3271  0.4335  0.3827
 7259SOL    HW133239   0.732   3.409  14.597  0.8690  2.0404 -0.0410
 7259SOL    HW233240   0.599   3.438  14.620  0.5827  1.7145  0.2843
 7260SOL     OW33241   3.657   3.365   3.217 -0.7686 -0.5412 -0.2638
 7260SOL    HW133242   3.674   3.434   3.282  0.3089  0.6946 -1.8546
 7260SOL    HW233243   3.706   3.403   3.145 -1.1114 -0.5334 -0.4915
 7261SOL     OW33244   1.853   3.707   2.438 -0.8564  0.0451  0.4772
 7261SOL    HW133245   1.814   3.789   2.467 -0.6749  0.9436 -1.7854
 7261SOL    HW233246   1.803   3.690   2.358 -0.0332 -2.9099  0.5557
 7262SOL     OW33247   1.519   2.117   9.577 -0.4023 -0.0845 -0.4709
 7262SOL    HW133248   1.425   2.128   9.570 -0.4831 -1.2471 -1.2287
 7262SOL    HW233249   1.513   2.033   9.622 -1.5037  0.1907 -0.1273
 7263SOL     OW33250   0.621   4.095  10.284  0.5778 -0.5528  0.5151
 7263SOL    HW133251   0.622   4.186  10.314  0.3972 -0.5562  0.5311
 7263SOL    HW233252   0.528   4.077  10.295 -0.4549  2.8732 -2.6881
 7264SOL     OW33253   3.363   4.372   4.107  0.8564  0.4179 -0.2334
 7264SOL    HW133254   3.418   4.439   4.146 -1.9061  0.5380  3.4782
 7264SOL    HW233255   3.410   4.351   4.026  0.0343  2.1383 -1.1579
 7265SOL     OW33256   2.340   1.776  12.223 -0.1485  0.6534  0.3390
 7265SOL    HW133257   2.276   1.796  12.291  0.4876 -0.3258  1.2445
 7265SOL    HW233258   2.386   1.705  12.269  0.6183 -0.6092 -2.3833
 7266SOL     OW33259   3.866   3.994  14.244  0.1018 -0.1352  0.7184
 7266SOL    HW133260   3.808   4.017  14.171  0.0859  0.0867  0.8031
 7266SOL    HW233261   3.911   4.076  14.261 -0.0115  0.3939 -1.5543
 7267SOL     OW33262   3.357   3.644   7.040 -0.3213 -0.3525  0.2405
 7267SOL    HW133263   3.394   3.559   7.065  2.3719  0.6432 -0.3238
 7267SOL    HW233264   3.435   3.695   7.061 -0.9480  0.5667  0.3211
 7268SOL     OW33265   1.907   3.519   0.640  0.4245  0.2252  0.0196
 7268SOL    HW133266   1.937   3.607   0.616  0.8980 -0.5480 -2.2106
 7268SOL    HW233267   1.813   3.528   0.623 -0.5237 -2.7496  3.7992
 7269SOL     OW33268   4.244   1.493   4.624 -0.8733  0.1242  0.4798
 7269SOL    HW133269   4.153   1.506   4.595 -1.3026 -0.2094  1.6700
 7269SOL    HW233270   4.277   1.581   4.644  1.0020 -1.0628  2.5587
 7270SOL     OW33271   1.968   2.572   7.813 -0.2401 -0.8467  0.0644
 7270SOL    HW133272   1.951   2.486   7.851 -0.7505 -0.5960  0.3948
 7270SOL    HW233273   1.931   2.623   7.885 -1.8667 -0.1625 -1.2583
 7271SOL     OW33274   2.228   1.939   5.369 -0.6292  0.2071 -0.0444
 7271SOL    HW133275   2.221   1.962   5.276 -1.6269 -0.0167 -0.0302
 7271SOL    HW233276   2.180   2.012   5.408  0.2075  1.4447 -1.3096
 7272SOL     OW33277   4.189   3.409   6.660 -0.0164 -0.1620  0.5294
 7272SOL    HW133278   4.177   3.337   6.723 -1.1733  1.5743  2.3032
 7272SOL    HW233279   4.206   3.483   6.719  1.4429 -0.9360  1.0616
 7273SOL     OW33280   0.982   4.600  13.544 -0.0409 -0.1162  0.1094
 7273SOL    HW133281   0.989   4.529  13.608  1.8125  0.6620  0.7678
 7273SOL    HW233282   1.013   4.677  13.592 -0.0944  0.2329 -0.4171
 7274SOL     OW33283   1.867   1.099   0.829 -1.1438 -0.0955  0.3303
 7274SOL    HW133284   1.835   1.063   0.746 -0.9453 -0.1102  0.2606
 7274SOL    HW233285   1.836   1.043   0.900  0.7014 -2.2180 -0.5351
 7275SOL     OW33286   2.022   1.939   4.437  0.3403 -0.6415 -0.1920
 7275SOL    HW133287   1.946   1.971   4.486  2.0539  1.5102  1.0847
 7275SOL    HW233288   2.087   2.003   4.465 -0.4838  0.3952 -0.6454
 7276SOL     OW33289   2.881   0.901  12.591  0.5029 -0.6467  0.1880
 7276SOL    HW133290   2.832   0.845  12.651  0.7049 -2.7893 -1.6404
 7276SOL    HW233291   2.826   0.898  12.513  1.4756  1.5270 -0.5870
 7277SOL     OW33292   0.397   2.323  14.261 -0.1629 -0.7201  0.5748
 7277SOL    HW133293   0.390   2.297  14.169  0.1131 -1.4804  0.7691
 7277SOL    HW233294   0.485   2.359  14.258 -0.9299  1.0139 -1.2185
 7278SOL     OW33295   4.390   3.717   8.126 -0.2630  0.5109  0.2767
 7278SOL    HW133296   4.397   3.623   8.111  0.0575  0.6111 -0.2046
 7278SOL    HW233297   4.318   3.745   8.069  0.5702 -1.8509 -1.9377
 7279SOL     OW33298   0.456   2.516  12.117 -0.6857 -0.0315  0.2511
 7279SOL    HW133299   0.529   2.495  12.059  0.5580 -0.8601  2.1461
 7279SOL    HW233300   0.455   2.447  12.182 -1.9800 -2.0074 -1.8559
 7280SOL     OW33301   1.015   3.013   4.445 -0.0302 -0.0559 -0.6085
 7280SOL    HW133302   1.098   3.041   4.406  0.4408  0.2268  0.6130
 7280SOL    HW233303   0.999   2.944   4.381 -0.3632  1.5366 -2.2423
 7281SOL     OW33304   3.408   1.464   3.547  0.1058  0.5680 -0.0993
 7281SOL    HW133305   3.329   1.499   3.507 -0.4005  0.6725  0.9748
 7281SOL    HW233306   3.432   1.546   3.591 -0.0503  0.2219  0.6418
 7282SOL     OW33307   1.444   2.796   2.720 -0.4718  0.0230 -0.0745
 7282SOL    HW133308   1.442   2.776   2.627  0.0970 -2.1557  0.3682
 7282SOL    HW233309   1.522   2.850   2.726  0.5308 -1.7194  2.6214
 7283SOL     OW33310   1.756   1.465   1.093 -0.4547  0.2248  0.1917
 7283SOL    HW133311   1.722   1.532   1.153  1.6951  1.6023 -0.1391
 7283SOL    HW233312   1.674   1.441   1.050  0.2903 -1.0978 -0.5137
 7284SOL     OW33313   0.362   4.312   4.998 -0.0605  0.0242 -0.7203
 7284SOL    HW133314   0.456   4.316   5.017 -0.9478  0.2252  3.5182
 7284SOL    HW233315   0.343   4.404   4.977  1.3593  0.5477  0.2716
 7285SOL     OW33316   1.351   4.071   4.942 -0.1717  0.3722 -0.5946
 7285SOL    HW133317   1.416   4.050   4.874  1.8095 -0.8134  1.6586
 7285SOL    HW233318   1.282   4.011   4.914  0.2984  0.0821 -1.1424
 7286SOL     OW33319   2.705   3.380  11.235  0.0785  0.1514  0.0249
 7286SOL    HW133320   2.705   3.284  11.237  0.6688  0.1825  1.4042
 7286SOL    HW233321   2.643   3.401  11.165  0.5835 -0.6952 -0.6743
 7287SOL     OW33322   3.091   1.256   5.661  0.0693  0.0856  0.1374
 7287SOL    HW133323   3.084   1.223   5.751 -1.2466  0.1835  0.0623
 7287SOL    HW233324   3.116   1.173   5.619 -2.0356 -0.4235 -0.0841
 7288SOL     OW33325   4.053   3.049   8.650  0.3197  0.3199 -0.3820
 7288SOL    HW133326   4.070   3.141   8.630 -4.7243  1.8970  2.4817
 7288SOL    HW233327   4.078   3.013   8.565  2.2097  0.6589  0.0386
 7289SOL     OW33328   2.402   2.773   2.436  0.6055 -0.1485 -0.1264
 7289SOL    HW133329   2.366   2.717   2.367 -0.8731  1.4023 -0.6208
 7289SOL    HW233330   2.332   2.775   2.501  0.6158  0.6811 -0.1469
 7290SOL     OW33331   4.206   1.365  11.451  0.0609  0.2076 -0.6597
 7290SOL    HW133332   4.208   1.279  11.493 -1.1720  0.4522 -0.1055
 7290SOL    HW233333   4.116   1.396  11.460 -0.2504 -1.1212  0.8626
 7291SOL     OW33334   2.367   3.631   9.822 -0.1794 -0.3859  0.3819
 7291SOL    HW133335   2.407   3.594   9.900 -0.7824  3.0795  2.3230
 7291SOL    HW233336   2.436   3.595   9.767  0.4319  0.5405  0.5378
 7292SOL     OW33337   0.569   1.105  11.585  0.2905 -0.2859 -0.0911
 7292SOL    HW133338   0.599   1.035  11.643 -2.0190 -1.3175 -0.1344
 7292SOL    HW233339   0.533   1.065  11.506 -0.9403 -0.5012  0.5790
 7293SOL     OW33340   2.750   0.166   1.219  0.4348 -0.4005  0.0566
 7293SOL    HW133341   2.812   0.183   1.290  0.5371 -1.9128  0.3370
 7293SOL    HW233342   2.669   0.199   1.258 -0.1130 -1.7507  0.0579
 7294SOL     OW33343   3.350   0.347  12.771  0.0681  0.0910  0.4482
 7294SOL    HW133344   3.274   0.355  12.714  0.5943  1.1367 -0.1070
 7294SOL    HW233345   3.416   0.367  12.705 -2.2846 -0.2056 -1.9581
 7295SOL     OW33346   0.654   4.320   8.737  0.0771 -0.0882 -0.0239
 7295SOL    HW133347   0.624   4.318   8.828 -0.2173  1.5809 -0.0758
 7295SOL    HW233348   0.734   4.268   8.739  2.0979  3.0144 -0.4672
 7296SOL     OW33349   0.972   0.944  11.969  0.6459  0.2275 -0.8145
 7296SOL    HW133350   0.956   0.959  11.876  2.8003  1.7929 -0.9317
 7296SOL    HW233351   0.988   0.849  11.970 -0.5948  0.0550  1.6950
 7297SOL     OW33352   4.504   0.389   7.662  0.3538  0.0302 -0.2598
 7297SOL    HW133353   4.567   0.372   7.732  1.0081 -1.3059 -1.1728
 7297SOL    HW233354   4.428   0.351   7.707  0.8427  1.1845  1.5258
 7298SOL     OW33355   3.095   4.088   2.702  0.5604  0.1379  0.4064
 7298SOL    HW133356   3.167   4.135   2.660 -0.4381 -0.6487 -2.1926
 7298SOL    HW233357   3.050   4.050   2.627 -0.6046  0.7956  0.7774
 7299SOL     OW33358   1.696   3.444  14.162  0.9436  0.3484 -0.4260
 7299SOL    HW133359   1.687   3.406  14.250 -1.1313  1.4489 -0.1498
 7299SOL    HW233360   1.610   3.484  14.153  1.4927  2.1256  1.9626
 7300SOL     OW33361   1.311   1.456   4.846  0.2268 -0.7159 -0.2502
 7300SOL    HW133362   1.381   1.513   4.816  2.6254 -2.4472  2.0684
 7300SOL    HW233363   1.273   1.445   4.759  1.4499 -0.1964 -0.8459
 7301SOL     OW33364   0.735   0.174  12.940  0.4836  0.2838 -0.2157
 7301SOL    HW133365   0.763   0.139  13.024  3.3132  0.6245 -1.0372
 7301SOL    HW233366   0.787   0.254  12.946  2.2415 -0.9359  0.6825
 7302SOL     OW33367   2.462   1.857   8.462 -0.3566  0.0611  0.2676
 7302SOL    HW133368   2.477   1.892   8.374  1.0052  1.4552  1.0595
 7302SOL    HW233369   2.467   1.763   8.448 -0.9448 -0.0867  1.0118
 7303SOL     OW33370   2.539   2.722   6.849  0.4163  0.4111 -0.0436
 7303SOL    HW133371   2.474   2.662   6.885  0.9297  0.5993  1.2011
 7303SOL    HW233372   2.619   2.676   6.874  0.0852  0.9915  2.0708
 7304SOL     OW33373   1.490   1.047   6.531  0.3611  0.3605  0.6683
 7304SOL    HW133374   1.551   1.120   6.529 -0.1952  0.8563  1.6620
 7304SOL    HW233375   1.544   0.970   6.549 -1.7343 -1.2111  0.3970
 7305SOL     OW33376   0.495   3.695   8.750 -0.1572  0.0195 -0.6242
 7305SOL    HW133377   0.478   3.654   8.835 -1.1315  1.7512  0.0178
 7305SOL    HW233378   0.410   3.705   8.707  0.0573 -0.3026 -1.1277
 7306SOL     OW33379   2.438   2.273   4.350 -0.3234 -0.7655  0.5562
 7306SOL    HW133380   2.515   2.321   4.319  1.2272 -2.1188  2.2974
 7306SOL    HW233381   2.455   2.182   4.323 -0.0204 -0.1297 -1.4231
 7307SOL     OW33382   3.766   0.677   4.067 -0.3366 -0.7711 -0.1749
 7307SOL    HW133383   3.701   0.622   4.112  0.1624 -0.4374  0.9344
 7307SOL    HW233384   3.841   0.617   4.066 -1.2493 -1.9424  1.2221
 7308SOL     OW33385   2.692   2.415   7.229  0.5278  0.0158 -0.2335
 7308SOL    HW133386   2.731   2.502   7.223 -0.0780  0.3850  1.2474
 7308SOL    HW233387   2.733   2.365   7.158 -0.4745 -0.9425 -0.1317
 7309SOL     OW33388   4.101   1.473   0.870 -0.3126 -0.1142 -0.0850
 7309SOL    HW133389   4.114   1.483   0.964 -1.5728 -1.2932  0.2124
 7309SOL    HW233390   4.154   1.545   0.834 -0.3981 -0.2019 -0.3878
 7310SOL     OW33391   3.943   3.550   5.859  0.2604 -0.1330  0.0220
 7310SOL    HW133392   3.909   3.489   5.794  0.0577  1.6821 -1.5543
 7310SOL    HW233393   3.973   3.486   5.925  0.4126 -0.6073 -0.5086
 7311SOL     OW33394   2.269   3.036   3.084 -0.4943 -0.4910  0.5301
 7311SOL    HW133395   2.301   3.035   2.994 -1.9688 -0.7878  0.0009
 7311SOL    HW233396   2.175   3.036   3.069  0.1466 -0.9321 -3.3349
 7312SOL     OW33397   0.136   2.185   8.827 -0.4177 -0.4356  0.0251
 7312SOL    HW133398   0.075   2.248   8.789  0.5831  1.8621  2.2157
 7312SOL    HW233399   0.213   2.210   8.778 -1.2980  2.0031 -0.0856
 7313SOL     OW33400   3.312   3.282   8.379  0.1012 -0.0756 -0.0348
 7313SOL    HW133401   3.340   3.250   8.293 -0.7575 -0.9563  0.0090
 7313SOL    HW233402   3.362   3.362   8.393 -0.5531  0.0875  1.3780
 7314SOL     OW33403   1.196   4.361   6.405  0.7196  0.0264  0.3313
 7314SOL    HW133404   1.130   4.429   6.419 -1.0957 -1.5191 -0.5756
 7314SOL    HW233405   1.234   4.380   6.319  0.0789 -0.5427 -0.0842
 7315SOL     OW33406   3.530   0.242   6.204  0.3522 -0.4484 -0.3827
 7315SOL    HW133407   3.587   0.310   6.241 -2.1611  0.7356  1.3302
 7315SOL    HW233408   3.448   0.277   6.240  1.0861  1.7828 -0.8785
 7316SOL     OW33409   2.528   1.967   3.335 -0.2012  0.8748  0.7078
 7316SOL    HW133410   2.604   1.958   3.277  0.5663  0.1044  1.8367
 7316SOL    HW233411   2.458   1.940   3.276  0.6963  1.0093 -0.4311
 7317SOL     OW33412   0.814   4.028   4.459  0.5184  0.4017  0.1956
 7317SOL    HW133413   0.885   3.964   4.466  0.2709  0.1668  0.5217
 7317SOL    HW233414   0.742   3.971   4.432  0.2256  0.9962 -0.2674
 7318SOL     OW33415   3.741   0.258   8.493  0.6545  0.8070  0.0043
 7318SOL    HW133416   3.764   0.217   8.576  0.2935 -1.0613 -0.8247
 7318SOL    HW233417   3.762   0.346   8.523 -0.4629  0.8967  0.5291
 7319SOL     OW33418   1.070   3.300  16.305  0.2274  0.2446 -0.3029
 7319SOL    HW133419   1.162   3.280  16.290  0.5535  2.0570 -0.7664
 7319SOL    HW233420   1.048   3.341  16.220  0.3247  0.0394 -0.4261
 7320SOL     OW33421   1.089   0.435  14.579  0.2334 -0.2483  0.2867
 7320SOL    HW133422   0.998   0.420  14.605 -0.1100  0.6502 -0.4370
 7320SOL    HW233423   1.135   0.378  14.640  0.1163 -1.0633 -0.3853
 7321SOL     OW33424   1.389   4.399   6.589  0.0241 -0.3909 -0.1096
 7321SOL    HW133425   1.320   4.433   6.645  1.0282  1.1002  0.2308
 7321SOL    HW233426   1.332   4.350   6.529  3.1959 -0.9060 -2.7335
 7322SOL     OW33427   1.150   2.007   6.354  0.1525 -0.4657  0.2126
 7322SOL    HW133428   1.088   2.053   6.409  0.4060 -0.0048  0.1103
 7322SOL    HW233429   1.098   2.004   6.274  0.7815 -1.2771 -0.1723
 7323SOL     OW33430   2.713   3.069   5.129  0.1468 -0.3950 -0.0042
 7323SOL    HW133431   2.711   3.066   5.034 -0.6107 -0.2954  0.0108
 7323SOL    HW233432   2.693   3.160   5.151 -0.7122 -0.4099 -0.7026
 7324SOL     OW33433   0.230   0.603   4.950 -0.4301 -0.5227 -0.3825
 7324SOL    HW133434   0.143   0.594   4.988  0.3212 -3.3574  0.6520
 7324SOL    HW233435   0.221   0.574   4.859 -1.6297  0.7762 -0.6715
 7325SOL     OW33436   0.437   1.466  11.538  0.3764  0.6103 -0.5372
 7325SOL    HW133437   0.511   1.477  11.478  2.1142  0.0367  1.4932
 7325SOL    HW233438   0.484   1.459  11.622 -1.7005  0.3010  0.6019
 7326SOL     OW33439   2.765   4.099   5.309  0.2666 -0.1673  0.1094
 7326SOL    HW133440   2.721   4.027   5.263 -1.1806  0.0802  1.0982
 7326SOL    HW233441   2.717   4.176   5.279 -0.5340 -0.1988  1.2755
 7327SOL     OW33442   2.441   2.690   7.892 -0.0833  0.5215  0.0508
 7327SOL    HW133443   2.383   2.648   7.829 -1.4466  3.1545 -0.4262
 7327SOL    HW233444   2.403   2.667   7.977 -0.6623  1.2624 -0.0100
 7328SOL     OW33445   1.540   4.108   8.592  0.3770  0.5160  0.6323
 7328SOL    HW133446   1.502   4.074   8.673 -0.1849 -1.1040 -0.3210
 7328SOL    HW233447   1.562   4.033   8.537 -0.6041  0.6799  0.0176
 7329SOL     OW33448   3.180   3.057   8.900 -0.2079 -1.0198 -0.3509
 7329SOL    HW133449   3.256   3.060   8.842  0.3920 -2.0196  0.3892
 7329SOL    HW233450   3.209   3.123   8.963 -1.7113 -0.5580 -0.1211
 7330SOL     OW33451   4.079   3.559   4.224 -0.4831 -0.2567  0.3576
 7330SOL    HW133452   4.140   3.557   4.150 -2.6581  0.2890 -1.4483
 7330SOL    HW233453   4.028   3.638   4.207  0.0212 -0.5885 -2.5893
 7331SOL     OW33454   0.709   1.622   3.896 -0.2254  0.4612  0.1959
 7331SOL    HW133455   0.680   1.543   3.940  0.1477  1.1905  1.7304
 7331SOL    HW233456   0.692   1.601   3.804 -0.9464  2.5411 -0.1533
 7332SOL     OW33457   1.529   1.171  11.239 -0.1274 -0.2811  0.0173
 7332SOL    HW133458   1.461   1.109  11.213 -0.4613  0.4229 -0.8096
 7332SOL    HW233459   1.470   1.241  11.267  0.0196  0.2427 -0.9934
 7333SOL     OW33460   4.693   2.647  10.725  0.4570  0.4069 -0.1720
 7333SOL    HW133461   4.683   2.718  10.788 -0.9883  2.1349 -2.3477
 7333SOL    HW233462   4.616   2.591  10.736 -2.6136  5.4278  3.6985
 7334SOL     OW33463   0.958   0.927   4.700 -0.2800 -0.1345  0.4434
 7334SOL    HW133464   0.872   0.908   4.739 -0.1695 -0.5808  0.4628
 7334SOL    HW233465   0.945   1.018   4.673  2.6365  0.3224  0.6157
 7335SOL     OW33466   0.208   1.905   9.348 -0.2962  0.0061 -0.2827
 7335SOL    HW133467   0.206   2.001   9.351 -2.6281 -0.0833  1.2794
 7335SOL    HW233468   0.280   1.893   9.286 -1.3130 -1.3160 -1.2048
 7336SOL     OW33469   0.729   0.861   1.600 -0.7837 -0.2746  0.0918
 7336SOL    HW133470   0.813   0.906   1.588 -1.0418  0.2526  0.2592
 7336SOL    HW233471   0.760   0.789   1.655 -0.0856  1.0562  1.4247
 7337SOL     OW33472   3.231   0.073   4.112 -0.0789 -0.3064  0.0286
 7337SOL    HW133473   3.314   0.119   4.126  0.8602 -2.2906  1.0273
 7337SOL    HW233474   3.242   0.014   4.037 -2.1413  0.8535 -1.1875
 7338SOL     OW33475   3.770   3.548   4.132 -0.4334  0.2629  0.6268
 7338SOL    HW133476   3.770   3.602   4.211 -0.5338  0.8892  0.2025
 7338SOL    HW233477   3.823   3.605   4.076  0.7464 -1.9406 -0.4708
 7339SOL     OW33478   0.269   3.280  17.374  0.0178  1.0637  0.4472
 7339SOL    HW133479   0.237   3.190  17.379  0.9388  0.7693  0.8976
 7339SOL    HW233480   0.360   3.261  17.394 -0.9219 -3.2283  0.5994
 7340SOL     OW33481   3.942   3.949  15.355 -0.2248 -0.1706  0.3058
 7340SOL    HW133482   3.907   4.038  15.362  1.5054  0.6646 -1.7018
 7340SOL    HW233483   4.035   3.973  15.360 -0.1705 -0.0944 -1.2208
 7341SOL     OW33484   2.832   4.242   6.006  0.3907 -0.0048  0.1010
 7341SOL    HW133485   2.836   4.150   5.977 -1.4185  0.2487 -0.9314
 7341SOL    HW233486   2.827   4.286   5.921 -1.3325 -0.7388 -0.1637
 7342SOL     OW33487   1.175   0.042  11.430 -0.2453 -0.0851 -0.2753
 7342SOL    HW133488   1.095   0.059  11.480  0.4589  4.0056 -0.5223
 7342SOL    HW233489   1.157   0.104  11.359 -3.0125 -0.8284 -0.2188
 7343SOL     OW33490   1.070   0.773   5.930  0.2188 -0.1501  0.0967
 7343SOL    HW133491   1.073   0.733   5.843  0.1707 -0.0212  0.0369
 7343SOL    HW233492   1.151   0.747   5.974 -0.9865  0.0371  2.4401
 7344SOL     OW33493   2.386   4.312  11.966 -0.3604 -0.1719 -0.4161
 7344SOL    HW133494   2.455   4.300  12.031 -0.0036 -0.2271 -0.8125
 7344SOL    HW233495   2.322   4.368  12.011 -1.2557 -0.8076 -0.8892
 7345SOL     OW33496   0.946   0.514   8.901 -0.8067  0.0480  0.1755
 7345SOL    HW133497   0.852   0.531   8.890  0.0004  2.7739 -2.6016
 7345SOL    HW233498   0.986   0.594   8.868  1.0408 -0.0555  2.2256
 7346SOL     OW33499   4.533   2.466   6.976 -0.0869 -0.3361 -0.0711
 7346SOL    HW133500   4.478   2.400   6.933  0.8444 -1.2529  0.1497
 7346SOL    HW233501   4.459   2.525   6.993 -1.3858 -1.6332 -1.1258
 7347SOL     OW33502   0.092   1.351  11.884  0.0155  0.7722  0.6329
 7347SOL    HW133503   0.060   1.409  11.815 -2.4277  1.3414  2.2349
 7347SOL    HW233504   0.015   1.304  11.916  0.2041  0.2452  0.3092
 7348SOL     OW33505   3.604   0.420   3.252 -0.1129  0.3012  0.3284
 7348SOL    HW133506   3.690   0.378   3.257 -0.1763  0.3490  1.7806
 7348SOL    HW233507   3.617   0.484   3.182 -1.6404 -0.8962 -1.0487
 7349SOL     OW33508   1.047   3.915   3.716 -0.2558 -0.6188 -0.5845
 7349SOL    HW133509   1.046   3.873   3.802  0.9831 -0.7657 -0.6521
 7349SOL    HW233510   1.139   3.931   3.698 -0.0816 -1.6712 -0.6189
 7350SOL     OW33511   3.022   1.014  17.575 -0.1290  0.5974 -0.2000
 7350SOL    HW133512   3.093   1.072  17.547  0.2515  0.6274  0.8319
 7350SOL    HW233513   2.944   1.067  17.559  1.1580  2.4261 -0.4187
 7351SOL     OW33514   0.248   3.128  11.295  0.6528 -0.2281 -0.2329
 7351SOL    HW133515   0.322   3.127  11.234  0.1309  0.7247 -0.8874
 7351SOL    HW233516   0.286   3.083  11.370  0.3906 -0.2023 -0.0848
 7352SOL     OW33517   3.304   0.198   4.669  0.6340 -0.2191 -0.8476
 7352SOL    HW133518   3.224   0.175   4.621  0.2214 -0.3834 -0.0774
 7352SOL    HW233519   3.319   0.113   4.711  0.7588 -0.4206 -1.2945
 7353SOL     OW33520   0.927   4.275  16.764  0.2031  0.6235  0.3450
 7353SOL    HW133521   0.883   4.325  16.832 -0.8108  2.7075 -1.8535
 7353SOL    HW233522   0.973   4.338  16.709  0.2810 -2.0952 -2.7168
 7354SOL     OW33523   1.176   1.551   2.951  0.3813  0.2613  0.0522
 7354SOL    HW133524   1.264   1.584   2.930 -0.3719  2.1582 -0.1631
 7354SOL    HW233525   1.205   1.517   3.035 -0.4907 -0.5207  0.0350
 7355SOL     OW33526   1.356   3.069  16.019  0.3996 -0.9108  0.1499
 7355SOL    HW133527   1.310   3.142  15.977  0.1954 -0.1285  1.7510
 7355SOL    HW233528   1.353   3.111  16.105  1.1087  1.0711 -0.7930
 7356SOL     OW33529   0.143   4.024   0.414  0.1282 -0.1001 -0.0030
 7356SOL    HW133530   0.126   3.933   0.389  0.3484 -0.6429  1.8105
 7356SOL    HW233531   0.227   4.017   0.460 -0.6093  0.7091  1.4528
 7357SOL     OW33532   2.378   4.697   3.665  0.3241 -0.3156 -0.0561
 7357SOL    HW133533   2.287   4.668   3.657  0.6682 -0.9140 -1.7900
 7357SOL    HW233534   2.426   4.645   3.600  1.7547  0.4238  0.4077
 7358SOL     OW33535   2.170   4.200   0.429  0.2453 -0.4751  0.1148
 7358SOL    HW133536   2.197   4.165   0.343  1.6590 -1.2476  0.8619
 7358SOL    HW233537   2.253   4.238   0.457 -0.3756 -0.4120  1.8771
 7359SOL     OW33538   1.175   3.160   3.871 -0.9162  0.5823  0.3938
 7359SOL    HW133539   1.100   3.106   3.848  0.5497 -0.8183 -1.1128
 7359SOL    HW233540   1.145   3.186   3.958 -0.3276  2.3134  0.0876
 7360SOL     OW33541   1.082   3.421  17.055 -0.5513 -0.3087 -0.3216
 7360SOL    HW133542   1.047   3.456  16.973 -0.5435 -1.8210 -0.9833
 7360SOL    HW233543   1.129   3.344  17.024 -1.1654 -0.7889 -0.0716
 7361SOL     OW33544   1.865   3.092   8.574 -0.5197  0.3702  0.0179
 7361SOL    HW133545   1.844   3.090   8.668 -0.6525  0.8231 -0.0031
 7361SOL    HW233546   1.834   3.174   8.535 -1.1010  0.1663  0.0455
 7362SOL     OW33547   4.125   3.795  14.543 -0.6682 -0.7364  0.2792
 7362SOL    HW133548   4.117   3.827  14.633  2.4188  0.5382  0.1048
 7362SOL    HW233549   4.207   3.834  14.514 -1.6437  0.5901 -0.7050
 7363SOL     OW33550   3.493   0.467   3.627 -0.0652 -0.4126  0.0714
 7363SOL    HW133551   3.501   0.519   3.547 -1.4383  0.4805  0.5094
 7363SOL    HW233552   3.539   0.530   3.683 -0.2761 -2.0143  2.0303
 7364SOL     OW33553   1.978   4.413  11.455 -0.4177 -0.1122  0.1394
 7364SOL    HW133554   1.903   4.410  11.395  0.9213  0.3016 -1.5706
 7364SOL    HW233555   1.968   4.501  11.491 -1.4119  0.0143 -0.4473
 7365SOL     OW33556   4.554   0.244   8.100  0.2886  0.2388 -0.2423
 7365SOL    HW133557   4.522   0.154   8.104 -0.2378  0.3258 -2.2007
 7365SOL    HW233558   4.556   0.278   8.189  0.5269 -1.6924  0.4712
 7366SOL     OW33559   0.295   3.081   2.974  0.1426  0.5224  0.2566
 7366SOL    HW133560   0.248   3.156   2.939 -0.9459 -0.6342 -0.7700
 7366SOL    HW233561   0.231   3.058   3.043 -0.0753 -0.0128 -0.1208
 7367SOL     OW33562   3.750   1.439   3.250  0.1691  0.1864  0.7059
 7367SOL    HW133563   3.676   1.500   3.244 -1.4681 -1.8864 -0.3116
 7367SOL    HW233564   3.730   1.403   3.336 -1.0788 -1.6041 -0.3105
 7368SOL     OW33565   1.598   2.465   5.101  0.7525 -1.0562  0.5105
 7368SOL    HW133566   1.592   2.480   5.007 -0.7554  1.5970  1.0217
 7368SOL    HW233567   1.667   2.399   5.111 -0.4424 -2.1302  1.6136
 7369SOL     OW33568   4.393   1.755  11.236  0.4602  0.3737 -0.1468
 7369SOL    HW133569   4.414   1.683  11.295 -1.5476 -0.6686 -0.6882
 7369SOL    HW233570   4.461   1.818  11.263  0.4710 -0.5829  2.0822
 7370SOL     OW33571   3.333   3.378   4.403  0.3152 -0.1234  0.2218
 7370SOL    HW133572   3.356   3.464   4.439 -2.0620  1.3321 -1.7688
 7370SOL    HW233573   3.240   3.388   4.386  0.5091 -1.8994 -1.7433
 7371SOL     OW33574   0.688   3.479   8.408 -0.1335  0.2977 -0.2659
 7371SOL    HW133575   0.728   3.392   8.413  1.4752  0.8986 -2.2450
 7371SOL    HW233576   0.764   3.526   8.442 -0.5811  1.2143 -0.5534
 7372SOL     OW33577   4.464   0.521   8.984 -0.2299 -0.2399  0.0777
 7372SOL    HW133578   4.412   0.567   9.050  1.9597  0.4881  1.2833
 7372SOL    HW233579   4.546   0.568   8.995 -0.7023  0.6309 -0.1838
 7373SOL     OW33580   0.140   1.877   6.083 -0.0345  0.7024 -0.2957
 7373SOL    HW133581   0.178   1.964   6.088 -0.6652  1.0206 -1.0741
 7373SOL    HW233582   0.147   1.849   6.174 -0.6591 -0.4130 -0.5896
 7374SOL     OW33583   4.181   0.609   1.369  0.1143  0.1203  0.2616
 7374SOL    HW133584   4.176   0.671   1.441 -1.2350  0.1992  0.1026
 7374SOL    HW233585   4.098   0.608   1.321 -0.4452 -2.1341  1.2766
 7375SOL     OW33586   3.132   0.599   7.382  0.0773 -0.0779  0.5737
 7375SOL    HW133587   3.145   0.550   7.463  0.4735 -0.4032  0.3106
 7375SOL    HW233588   3.067   0.660   7.418 -0.5930 -0.5308  0.1178
 7376SOL     OW33589   0.659   1.480   7.769 -0.2256  0.0034  0.3930
 7376SOL    HW133590   0.605   1.544   7.723 -2.0988 -2.6095 -1.1203
 7376SOL    HW233591   0.634   1.396   7.729  0.4319  0.4256 -0.9221
 7377SOL     OW33592   0.436   4.332   5.664  0.0745 -0.1700 -0.2647
 7377SOL    HW133593   0.475   4.248   5.639  0.3143 -0.6458  1.6288
 7377SOL    HW233594   0.475   4.389   5.598  1.5091  0.0260  0.7530
 7378SOL     OW33595   1.954   2.278  12.103 -0.0934 -0.0212  0.0003
 7378SOL    HW133596   1.895   2.331  12.156 -1.4941 -0.8496 -0.6988
 7378SOL    HW233597   1.972   2.206  12.163  1.1752 -0.4287 -0.8735
 7379SOL     OW33598   2.494   2.880  14.787 -0.0565  0.6219  0.4392
 7379SOL    HW133599   2.493   2.785  14.802  1.3697  0.4190 -0.7836
 7379SOL    HW233600   2.559   2.909  14.851 -1.3854  3.9351  0.2682
 7380SOL     OW33601   1.906   1.424   1.321 -0.3477  0.1933 -0.0070
 7380SOL    HW133602   1.830   1.455   1.370 -0.0963  1.1023 -0.2007
 7380SOL    HW233603   1.872   1.411   1.233  1.3131 -0.4819 -0.5334
 7381SOL     OW33604   0.610   1.233   0.888 -0.5172  0.6484  0.7155
 7381SOL    HW133605   0.527   1.189   0.905 -0.0948 -0.4513 -0.0432
 7381SOL    HW233606   0.570   1.304   0.837  0.4380  0.2857 -0.5624
 7382SOL     OW33607   1.116   2.219  13.698  0.6174  0.1668  0.3601
 7382SOL    HW133608   1.139   2.296  13.751  0.2362 -0.6544  1.7016
 7382SOL    HW233609   1.021   2.210  13.699  0.7241 -0.9739 -0.3690
 7383SOL     OW33610   1.087   0.621   2.589 -0.5939  0.3271  0.1719
 7383SOL    HW133611   1.046   0.677   2.523  0.3320  1.3137  0.4230
 7383SOL    HW233612   1.021   0.554   2.606  0.8147 -1.2280 -0.4825
 7384SOL     OW33613   4.306   3.746   3.159  0.4336  0.2291  0.1711
 7384SOL    HW133614   4.307   3.657   3.122  1.1223  0.9665 -1.6015
 7384SOL    HW233615   4.354   3.798   3.094 -0.0584 -0.4853 -0.7640
 7385SOL     OW33616   4.289   4.539  16.867  0.1377  0.1470 -0.5151
 7385SOL    HW133617   4.303   4.624  16.907  1.2069 -0.4706  0.4238
 7385SOL    HW233618   4.196   4.545  16.846 -0.4412 -0.2989  1.9222
 7386SOL     OW33619   1.225   2.666   8.227  0.3792  0.1246 -0.0287
 7386SOL    HW133620   1.172   2.588   8.243 -0.3801  1.0770  2.1033
 7386SOL    HW233621   1.293   2.636   8.167 -1.4238 -0.4155 -1.7810
 7387SOL     OW33622   3.285   0.276   2.518  0.1457 -0.2736  0.1987
 7387SOL    HW133623   3.374   0.270   2.484  0.2775 -1.5863  0.7865
 7387SOL    HW233624   3.238   0.330   2.454  1.2961 -1.9133 -2.0502
 7388SOL     OW33625   2.794   3.573   7.785  0.6692 -0.1321 -0.1558
 7388SOL    HW133626   2.708   3.535   7.803  1.0188 -0.4901  0.7400
 7388SOL    HW233627   2.779   3.632   7.711 -0.2725 -0.1269  0.0410
 7389SOL     OW33628   2.814   3.513  17.354 -0.0564 -0.2259  0.2844
 7389SOL    HW133629   2.759   3.440  17.325 -0.1170 -0.1978  0.3290
 7389SOL    HW233630   2.791   3.587  17.297  0.0553 -0.1587  0.3275
 7390SOL     OW33631   0.380   3.545   3.477 -0.1748 -0.1078  0.1535
 7390SOL    HW133632   0.318   3.524   3.547 -1.2763  0.4674 -0.6571
 7390SOL    HW233633   0.375   3.640   3.466  0.3416 -0.3637 -2.3233
 7391SOL     OW33634   2.022   1.778   3.811 -0.0580  0.7348 -0.2718
 7391SOL    HW133635   1.955   1.837   3.845  1.9252  2.8149 -0.0014
 7391SOL    HW233636   2.019   1.793   3.717  0.3496  0.2906 -0.3516
 7392SOL     OW33637   3.084   0.850   6.862  0.1299  0.2888 -0.3809
 7392SOL    HW133638   3.042   0.768   6.886  2.3019 -0.6019  0.4040
 7392SOL    HW233639   3.175   0.821   6.870 -1.1148 -3.2406  0.6662
 7393SOL     OW33640   2.044   3.648  10.087 -0.3688 -0.4685  0.0803
 7393SOL    HW133641   1.964   3.701  10.077  0.7306  1.3569  0.8924
 7393SOL    HW233642   2.022   3.575  10.029 -0.9309 -1.1861  1.2003
 7394SOL     OW33643   2.281   1.744   7.893  0.6643 -0.1216  0.2146
 7394SOL    HW133644   2.275   1.834   7.861  1.2786 -0.1424  0.0419
 7394SOL    HW233645   2.231   1.739   7.975 -2.3569  0.2311 -1.6206
 7395SOL     OW33646   1.899   1.842   4.187 -0.4686  0.3261  0.0734
 7395SOL    HW133647   1.937   1.907   4.127 -1.1633  0.1682 -0.5418
 7395SOL    HW233648   1.868   1.899   4.258 -2.6273  0.2633 -0.8172
 7396SOL     OW33649   3.668   1.467   6.969  0.0573 -0.0446  0.1310
 7396SOL    HW133650   3.763   1.480   6.968  0.0275  0.2586  0.8966
 7396SOL    HW233651   3.657   1.379   7.007 -0.5970  0.4525  1.0814
 7397SOL     OW33652   0.686   2.889   9.420 -0.4251  0.2256  0.1201
 7397SOL    HW133653   0.758   2.848   9.468 -0.2382  0.4725  0.0510
 7397SOL    HW233654   0.681   2.977   9.455 -2.5369  0.2156 -0.1839
 7398SOL     OW33655   1.955   1.859   8.600 -0.1061 -0.2159 -0.0825
 7398SOL    HW133656   2.047   1.884   8.598 -0.5916  1.5830 -0.1211
 7398SOL    HW233657   1.939   1.886   8.691 -2.3419  0.6027 -0.7156
 7399SOL     OW33658   0.810   4.262   8.384  0.1050 -0.4540 -0.0385
 7399SOL    HW133659   0.855   4.289   8.304  0.5687 -2.5087 -0.4677
 7399SOL    HW233660   0.877   4.210   8.428  0.3764  0.3104  0.4603
 7400SOL     OW33661   3.662   0.277   0.120  0.0187  0.1699 -0.2172
 7400SOL    HW133662   3.646   0.313   0.033 -0.0192 -3.8589 -1.8976
 7400SOL    HW233663   3.752   0.308   0.124  0.0876 -0.3997  2.6579
 7401SOL     OW33664   1.990   3.803  16.354 -0.4083 -0.8371 -0.5328
 7401SOL    HW133665   2.084   3.815  16.345 -0.5283  0.5762  0.0908
 7401SOL    HW233666   1.966   3.838  16.268  1.6259  1.1772 -0.2727
 7402SOL     OW33667   2.876   3.245   9.454 -0.2064  0.2984 -0.0333
 7402SOL    HW133668   2.909   3.254   9.543  1.0575 -2.0109 -0.2615
 7402SOL    HW233669   2.807   3.310   9.440 -0.2688  0.1528 -0.4058
 7403SOL     OW33670   0.351   2.014  14.698 -0.2843  0.1993  0.0755
 7403SOL    HW133671   0.338   1.928  14.739 -0.8908 -0.2465 -1.0337
 7403SOL    HW233672   0.339   2.067  14.776  0.1420  1.5992 -0.8021
 7404SOL     OW33673   0.863   2.579   5.415 -0.5770 -0.2834 -0.3290
 7404SOL    HW133674   0.777   2.545   5.390 -2.0549  3.6462 -0.7207
 7404SOL    HW233675   0.870   2.540   5.502 -0.0966  0.1373 -0.1764
 7405SOL     OW33676   4.217   1.355   5.179  0.5190 -0.6820  0.3204
 7405SOL    HW133677   4.123   1.346   5.167  0.0040  2.4910  1.8658
 7405SOL    HW233678   4.244   1.400   5.099 -1.6342 -1.6594 -0.9413
 7406SOL     OW33679   1.697   4.380   4.119  0.1735  0.3657  0.2673
 7406SOL    HW133680   1.713   4.316   4.188 -0.4121 -0.8149 -0.6893
 7406SOL    HW233681   1.706   4.327   4.039  0.3778 -0.5129  0.8753
 7407SOL     OW33682   3.818   0.824   2.057  0.2916 -0.1165  0.8558
 7407SOL    HW133683   3.797   0.916   2.073  1.1242  0.0685  0.8622
 7407SOL    HW233684   3.738   0.817   2.005  1.1487  1.6406 -0.6745
 7408SOL     OW33685   1.165   0.510   3.078 -0.2146 -0.5384 -0.3383
 7408SOL    HW133686   1.223   0.584   3.099 -1.2116 -0.8210  3.4804
 7408SOL    HW233687   1.095   0.542   3.021 -2.1353 -0.0339  2.2873
 7409SOL     OW33688   1.340   2.559   3.271  0.1341  0.0556  0.3679
 7409SOL    HW133689   1.282   2.486   3.251  0.9341 -0.5762  0.3516
 7409SOL    HW233690   1.277   2.627   3.296 -0.9808 -0.9737  0.3461
 7410SOL     OW33691   3.835   4.249   1.840 -0.0686 -0.2388 -0.3378
 7410SOL    HW133692   3.892   4.174   1.821  1.1617  0.4479  0.6828
 7410SOL    HW233693   3.914   4.304   1.840 -0.7434  0.7376  1.0735
 7411SOL     OW33694   1.741   2.703   7.960  0.4016 -0.1736  0.1776
 7411SOL    HW133695   1.771   2.749   8.038  0.2756  1.1474 -0.5514
 7411SOL    HW233696   1.676   2.645   8.000  0.6279 -1.7249 -1.6690
 7412SOL     OW33697   2.182   2.254   5.076  0.0460 -0.4253 -0.1342
 7412SOL    HW133698   2.189   2.280   5.168 -2.0993  3.4524 -1.1048
 7412SOL    HW233699   2.089   2.235   5.067  0.0940 -0.8768  0.2607
 7413SOL     OW33700   3.392   0.499   8.920 -0.1338  0.0801  0.4266
 7413SOL    HW133701   3.395   0.577   8.865 -0.1536  0.5512  1.0861
 7413SOL    HW233702   3.461   0.452   8.873 -0.6630 -0.2849  0.0063
 7414SOL     OW33703   3.300   3.377   6.776  0.0854  0.2053 -0.3982
 7414SOL    HW133704   3.332   3.293   6.742  0.7159  0.1745  0.2718
 7414SOL    HW233705   3.220   3.335   6.805  0.3940 -0.8215 -1.0022
 7415SOL     OW33706   4.514   2.394  11.040 -0.4899 -0.4088  0.5437
 7415SOL    HW133707   4.556   2.426  11.120  1.1797 -1.4300  0.0754
 7415SOL    HW233708   4.527   2.300  11.055  0.1946 -0.3898  0.0763
 7416SOL     OW33709   0.036   0.415   3.652  0.1027  0.5599 -0.0460
 7416SOL    HW133710   4.704   0.417   3.573 -0.5027 -4.6116  0.2297
 7416SOL    HW233711   0.004   0.488   3.705 -0.6559 -0.0423  0.3242
 7417SOL     OW33712   3.116   2.193   2.950 -0.3126 -0.4816  0.1946
 7417SOL    HW133713   3.039   2.204   2.894  2.0257  4.7603 -1.9199
 7417SOL    HW233714   3.123   2.286   2.972  1.6228  0.0295 -2.5661
 7418SOL     OW33715   0.655   4.568   5.617 -0.2257 -0.5481 -0.5209
 7418SOL    HW133716   0.698   4.647   5.583  1.4280 -0.6552  1.3217
 7418SOL    HW233717   0.617   4.522   5.542  0.0367  2.3644 -2.4815
 7419SOL     OW33718   0.317   3.204   7.004 -0.3450 -0.2489 -0.2339
 7419SOL    HW133719   0.291   3.112   7.008  1.1537 -0.6190  0.9264
 7419SOL    HW233720   0.269   3.248   7.074  0.4083  2.6928 -1.5422
 7420SOL     OW33721   3.782   4.100   6.707  0.0213 -0.1146  0.1862
 7420SOL    HW133722   3.869   4.063   6.695 -0.3808 -1.3082  0.9986
 7420SOL    HW233723   3.729   4.026   6.678  0.1113 -0.0589 -0.1206
 7421SOL     OW33724   0.278   2.573   3.010  0.3951  0.5397  0.5209
 7421SOL    HW133725   0.311   2.662   2.998 -0.0113  0.4295 -1.4733
 7421SOL    HW233726   0.193   2.590   2.970  0.3657 -0.5612  0.1239
 7422SOL     OW33727   0.033   3.384   2.550  0.1720  0.5407  0.1570
 7422SOL    HW133728   4.694   3.386   2.475  0.2934  0.3036  0.0544
 7422SOL    HW233729   0.007   3.301   2.591  2.5155  0.3686  1.2777
 7423SOL     OW33730   1.854   0.760  11.330 -0.0603 -0.1765 -0.1867
 7423SOL    HW133731   1.859   0.840  11.383 -0.0878 -0.9863  1.0247
 7423SOL    HW233732   1.760   0.746  11.317  0.0451 -1.3689  0.3386
 7424SOL     OW33733   2.746   4.720   8.513  0.0728  0.1456  0.4192
 7424SOL    HW133734   2.769   0.091   8.502 -0.5801  0.3070  0.4100
 7424SOL    HW233735   2.745   4.693   8.421 -0.9198 -1.2894  0.8544
 7425SOL     OW33736   4.487   3.656  11.566  0.0361 -0.1841  0.5353
 7425SOL    HW133737   4.464   3.638  11.657 -0.7520 -3.2663 -0.2554
 7425SOL    HW233738   4.411   3.712  11.548  0.0522  0.4645  2.5836
 7426SOL     OW33739   2.784   0.073   4.369  0.2825 -0.1394  0.5330
 7426SOL    HW133740   2.775   0.057   4.275  0.6782  2.6163  0.0185
 7426SOL    HW233741   2.697   0.059   4.407  0.6136 -0.1676  1.2705
 7427SOL     OW33742   2.626   0.984  13.155  0.2275  0.4238  0.2074
 7427SOL    HW133743   2.609   0.930  13.077 -0.9647 -1.3839  1.6955
 7427SOL    HW233744   2.534   1.008  13.167  0.0812  0.7089 -1.4803
 7428SOL     OW33745   1.552   3.371   6.988 -0.1575  0.6586 -0.6336
 7428SOL    HW133746   1.520   3.349   7.075  2.3485 -1.1397 -0.1729
 7428SOL    HW233747   1.647   3.377   6.999 -0.0740  2.6397 -2.2983
 7429SOL     OW33748   1.371   0.389   5.688  0.0972  0.0560 -0.2794
 7429SOL    HW133749   1.454   0.367   5.646 -0.4740 -0.6716 -1.0157
 7429SOL    HW233750   1.401   0.422   5.773 -0.6056 -0.3536  0.1233
 7430SOL     OW33751   3.607   4.639   1.398  0.1756 -0.3966 -0.2942
 7430SOL    HW133752   3.702   4.644   1.400  0.0988  1.3322 -0.4249
 7430SOL    HW233753   3.591   4.558   1.446 -0.0796 -0.4858 -0.5337
 7431SOL     OW33754   1.521   4.335   5.441  0.7832  0.0806  0.4104
 7431SOL    HW133755   1.441   4.285   5.457  1.0096 -1.1528 -2.2218
 7431SOL    HW233756   1.582   4.266   5.416  0.6450 -1.2516  3.8251
 7432SOL     OW33757   0.739   1.402   4.941 -0.4527  0.4682 -0.9554
 7432SOL    HW133758   0.822   1.369   4.907  1.8573  1.7354  3.5083
 7432SOL    HW233759   0.708   1.465   4.875 -0.0051  1.2992 -0.3650
 7433SOL     OW33760   4.464   3.642   7.044 -0.0101  0.2441 -0.1433
 7433SOL    HW133761   4.394   3.632   7.109  0.0121 -1.3890 -0.3623
 7433SOL    HW233762   4.476   3.737   7.046  1.2140  0.0667  0.8878
 7434SOL     OW33763   4.642   0.436   2.503 -0.2579 -0.7119 -0.1054
 7434SOL    HW133764   4.716   0.445   2.445 -0.8234 -0.5737 -0.8045
 7434SOL    HW233765   4.651   0.506   2.568 -4.4781  0.2073 -0.4564
 7435SOL     OW33766   0.123   2.136  16.799 -0.3858 -0.0246  0.4416
 7435SOL    HW133767   0.098   2.173  16.883 -0.3055  1.2433 -0.0844
 7435SOL    HW233768   0.163   2.214  16.760  0.7278 -1.2640 -0.9252
 7436SOL     OW33769   4.505   3.309  11.607  0.0159  0.2953  0.4518
 7436SOL    HW133770   4.414   3.335  11.621  0.8313  3.0924  0.5197
 7436SOL    HW233771   4.485   3.237  11.546 -1.1099  1.6042 -0.7199
 7437SOL     OW33772   0.597   2.336   4.632 -0.8759 -0.6236 -0.2953
 7437SOL    HW133773   0.566   2.385   4.708 -1.0023  0.8565 -1.3064
 7437SOL    HW233774   0.539   2.363   4.561 -2.4723 -0.4168  1.1040
 7438SOL     OW33775   3.653   0.627   4.834 -0.0203 -0.1900 -0.1153
 7438SOL    HW133776   3.558   0.621   4.847  0.0599 -1.9533 -0.3183
 7438SOL    HW233777   3.673   0.545   4.880 -1.2688 -0.4997 -0.1241
 7439SOL     OW33778   1.154   4.461  11.987  0.1965  0.4223  0.2203
 7439SOL    HW133779   1.217   4.399  11.949 -0.4557  1.6317 -2.8033
 7439SOL    HW233780   1.127   4.516  11.913  0.2515  0.8357  0.5074
 7440SOL     OW33781   3.538   4.057   2.568 -0.4410 -0.1636  0.0055
 7440SOL    HW133782   3.451   4.073   2.532  0.6143  2.3740 -1.4007
 7440SOL    HW233783   3.528   3.993   2.639 -2.1577 -0.9824 -0.9892
 7441SOL     OW33784   0.538   1.675   6.256  0.9588  0.3590 -0.1394
 7441SOL    HW133785   0.602   1.648   6.190  2.9705 -0.8262  2.2780
 7441SOL    HW233786   0.470   1.715   6.202  1.4062  1.0207 -0.2119
 7442SOL     OW33787   3.223   3.012  13.848 -0.2617 -0.4095  0.7293
 7442SOL    HW133788   3.313   3.009  13.882 -0.3775 -0.4116  1.0375
 7442SOL    HW233789   3.237   3.063  13.768 -3.2846 -0.5543  0.1115
 7443SOL     OW33790   4.400   2.138  12.906 -0.2479 -0.2910 -0.6280
 7443SOL    HW133791   4.470   2.086  12.946 -3.0974 -1.6320  2.5756
 7443SOL    HW233792   4.366   2.189  12.980 -0.2369  1.3042 -1.7145
 7444SOL     OW33793   4.654   0.657  15.037  0.3705 -0.3881 -0.2062
 7444SOL    HW133794   4.661   0.717  15.112 -0.4680 -0.8300  0.2271
 7444SOL    HW233795   4.576   0.606  15.058  1.6829 -1.8696  1.0401
 7445SOL     OW33796   2.969   0.123   6.888 -0.4833 -0.3705  0.2570
 7445SOL    HW133797   3.004   0.172   6.962  0.4289  0.4599 -0.7156
 7445SOL    HW233798   2.973   0.032   6.919  0.5101 -0.8809 -1.3317
 7446SOL     OW33799   1.491   0.244  12.811  0.3997  0.8654  0.4541
 7446SOL    HW133800   1.569   0.261  12.759  1.6068  1.4928  2.4507
 7446SOL    HW233801   1.502   0.300  12.888 -1.6285  1.7498  0.1164
 7447SOL     OW33802   2.456   3.033  15.206 -0.7965 -0.4569  0.1872
 7447SOL    HW133803   2.474   3.116  15.162 -2.0898 -1.2809 -1.8781
 7447SOL    HW233804   2.364   3.027  15.179 -0.9754  1.5923  0.2864
 7448SOL     OW33805   0.226   4.268   6.450 -0.4961  0.3569  0.1237
 7448SOL    HW133806   0.237   4.328   6.377  2.1984  1.2688  1.2744
 7448SOL    HW233807   0.131   4.277   6.459 -0.7434 -0.2917 -1.8239
 7449SOL     OW33808   3.621   2.441   4.685  0.0826 -0.3778  0.0800
 7449SOL    HW133809   3.714   2.454   4.665  0.3455  0.2001  1.7244
 7449SOL    HW233810   3.637   2.367   4.744 -1.8036 -0.2026  0.7993
 7450SOL     OW33811   1.565   0.065  10.477 -0.5544 -0.2046  0.4959
 7450SOL    HW133812   1.654   0.059  10.441 -1.0245 -1.4674 -0.4438
 7450SOL    HW233813   1.583   0.107  10.561  1.7419 -3.7740  1.8143
 7451SOL     OW33814   1.265   3.465   4.908 -0.0793 -0.0090  0.4106
 7451SOL    HW133815   1.198   3.490   4.972 -0.1545  1.0402 -0.0850
 7451SOL    HW233816   1.317   3.418   4.973 -1.2707 -0.8520  0.7590
 7452SOL     OW33817   1.250   2.614   4.612  0.6994 -0.1876 -0.8520
 7452SOL    HW133818   1.266   2.636   4.704 -0.3564  0.8393 -0.9149
 7452SOL    HW233819   1.155   2.605   4.617  0.7170  0.4611  0.8136
 7453SOL     OW33820   3.002   1.846   6.938 -0.2921 -0.2570 -0.2750
 7453SOL    HW133821   3.074   1.855   6.999 -1.6873 -0.4128  1.4006
 7453SOL    HW233822   2.955   1.767   6.966 -1.1058  0.5924  0.7839
 7454SOL     OW33823   3.744   2.991   6.017  0.4130  0.1700 -0.6157
 7454SOL    HW133824   3.824   3.032   5.985 -0.8402  2.7256 -0.5302
 7454SOL    HW233825   3.761   2.986   6.111 -3.5565 -0.5542  0.0553
 7455SOL     OW33826   3.311   0.384  10.828  0.3143 -0.0101  0.1469
 7455SOL    HW133827   3.381   0.378  10.892  0.0234 -1.8211  0.3087
 7455SOL    HW233828   3.255   0.319  10.870  0.6960 -1.8075 -2.0931
 7456SOL     OW33829   0.527   0.918   3.193 -0.1798  0.1959  0.8372
 7456SOL    HW133830   0.506   0.877   3.277 -1.3069  1.2290  1.0383
 7456SOL    HW233831   0.622   0.904   3.204 -0.2210  0.1614  1.1558
 7457SOL     OW33832   3.088   4.653  10.519  0.0242 -0.5588 -0.1966
 7457SOL    HW133833   3.103   4.654  10.424 -0.6132 -0.5938 -0.3015
 7457SOL    HW233834   3.008   4.705  10.526 -0.4774 -1.1112 -1.6952
 7458SOL     OW33835   0.650   2.737   2.673 -0.0390  0.4232 -0.0098
 7458SOL    HW133836   0.717   2.668   2.672  0.1357  0.6018 -1.0085
 7458SOL    HW233837   0.594   2.707   2.602  1.9092 -1.0183 -0.9579
 7459SOL     OW33838   2.361   4.119   5.696  0.1955  0.3851  0.1182
 7459SOL    HW133839   2.400   4.060   5.631 -0.4942 -0.6213  0.6100
 7459SOL    HW233840   2.383   4.196   5.644  1.4169  0.1322  0.2609
 7460SOL     OW33841   3.627   2.569   7.978 -0.3389  0.1257 -0.3031
 7460SOL    HW133842   3.715   2.553   7.944  0.1099  2.6959 -0.3990
 7460SOL    HW233843   3.594   2.482   8.000  0.2125 -0.5068 -1.9735
 7461SOL     OW33844   2.703   1.617  13.418  0.0575 -0.0040 -0.0682
 7461SOL    HW133845   2.785   1.664  13.433  0.4482 -0.2231 -1.5373
 7461SOL    HW233846   2.672   1.618  13.509 -2.5881  1.1573 -0.9927
 7462SOL     OW33847   3.993   0.399   5.525  0.0161 -0.3368  0.3921
 7462SOL    HW133848   3.944   0.332   5.478 -2.0132 -0.6587  2.9574
 7462SOL    HW233849   3.921   0.455   5.556  0.3403  0.7724 -0.8817
 7463SOL     OW33850   2.297   0.279   8.383 -0.3834  0.1087  0.1687
 7463SOL    HW133851   2.250   0.320   8.310 -1.7574  0.9547  1.5273
 7463SOL    HW233852   2.223   0.271   8.444 -1.1138  0.2500 -0.6956
 7464SOL     OW33853   2.336   0.702  14.443 -0.0030  0.3716 -0.1560
 7464SOL    HW133854   2.278   0.711  14.367  0.7671 -1.0937 -0.9124
 7464SOL    HW233855   2.278   0.729  14.515  0.3759  3.2668 -0.9062
 7465SOL     OW33856   2.184   1.712   5.507 -0.0310  0.4902 -0.5455
 7465SOL    HW133857   2.202   1.794   5.461 -2.1453  1.7626  0.9508
 7465SOL    HW233858   2.121   1.669   5.449  0.2534  1.8977 -1.9121
 7466SOL     OW33859   1.103   0.624   5.705 -0.5348  0.2088  0.1301
 7466SOL    HW133860   1.150   0.559   5.756 -0.7292  0.0320  0.0825
 7466SOL    HW233861   1.034   0.572   5.663  2.6660 -3.2479 -0.7861
 7467SOL     OW33862   0.448   4.134   9.997 -0.7033  0.6200  0.1599
 7467SOL    HW133863   0.481   4.136  10.087  0.3069 -3.0411 -0.1386
 7467SOL    HW233864   0.398   4.053   9.987  0.0603 -0.1821  2.6612
 7468SOL     OW33865   0.195   0.958  12.548 -0.3086  0.1016 -0.2634
 7468SOL    HW133866   0.235   0.891  12.494 -0.3188  1.0756 -1.4898
 7468SOL    HW233867   0.202   0.923  12.636  0.3671 -0.4267 -0.5335
 7469SOL     OW33868   2.734   1.968  11.990 -0.4283 -0.0545 -0.1078
 7469SOL    HW133869   2.720   2.000  11.901 -2.5860  0.8485  0.5436
 7469SOL    HW233870   2.646   1.943  12.019  0.0965  0.0164  1.5340
 7470SOL     OW33871   3.374   3.781  11.219  1.1384  0.1507 -0.3424
 7470SOL    HW133872   3.448   3.831  11.252  2.1085 -0.3803 -1.7128
 7470SOL    HW233873   3.312   3.849  11.192  2.4403  1.3736 -0.2076
 7471SOL     OW33874   0.531   4.207  13.289  0.1757  0.0049  0.5616
 7471SOL    HW133875   0.596   4.274  13.311  0.9730 -0.8248  0.7345
 7471SOL    HW233876   0.487   4.246  13.214  3.0849 -0.0686 -1.1636
 7472SOL     OW33877   2.975   1.782  15.031 -0.2120 -0.1537  0.1562
 7472SOL    HW133878   2.945   1.793  14.940  1.5124  1.5696 -0.1882
 7472SOL    HW233879   3.009   1.693  15.026  0.9459  0.3548 -1.0931
 7473SOL     OW33880   3.656   0.205   4.492 -0.2431  0.1624 -0.1727
 7473SOL    HW133881   3.699   0.290   4.502  0.7518 -0.1798 -1.5574
 7473SOL    HW233882   3.638   0.189   4.585 -1.4958 -0.0034 -0.4473
 7474SOL     OW33883   2.263   1.271  14.129 -0.3474  0.0185  0.4510
 7474SOL    HW133884   2.346   1.314  14.107  0.6403 -1.6699  0.7934
 7474SOL    HW233885   2.251   1.314  14.214  0.0099  1.2652 -0.1340
 7475SOL     OW33886   4.703   4.172   4.173  0.1849 -1.0257 -0.3028
 7475SOL    HW133887   4.620   4.214   4.149 -0.2411 -0.5237  1.9698
 7475SOL    HW233888   0.042   4.231   4.127 -0.3487  0.4240  0.8293
 7476SOL     OW33889   3.602   0.555   8.332 -0.2412 -0.0495  0.0245
 7476SOL    HW133890   3.534   0.620   8.316 -1.2568 -1.2623 -0.6006
 7476SOL    HW233891   3.637   0.596   8.411 -1.6800  1.4672 -0.1211
 7477SOL     OW33892   2.384   2.655  17.426 -0.2321  0.3731 -0.3269
 7477SOL    HW133893   2.406   2.621  17.513 -0.6134 -1.4064 -0.9422
 7477SOL    HW233894   2.414   2.576  17.382  3.1831  1.3627  0.1719
 7478SOL     OW33895   1.623   4.107  16.848 -0.2629  0.5227 -0.1935
 7478SOL    HW133896   1.673   4.093  16.767  1.3967 -0.2953  0.9624
 7478SOL    HW233897   1.531   4.123  16.828  0.2014  2.7827 -0.4817
 7479SOL     OW33898   4.022   2.048   6.486 -0.2167 -0.1161  0.8933
 7479SOL    HW133899   3.946   2.005   6.447  0.0172  0.3402 -0.0657
 7479SOL    HW233900   3.994   2.137   6.509  1.1812  0.1995  1.3196
 7480SOL     OW33901   1.361   1.331  10.536  0.3034  0.3891  0.0013
 7480SOL    HW133902   1.297   1.344  10.606  0.3723 -1.1958  0.3576
 7480SOL    HW233903   1.418   1.408  10.543 -0.7588  1.1593  0.0708
 7481SOL     OW33904   1.459   0.289   5.202  0.0869  0.1603 -0.1199
 7481SOL    HW133905   1.407   0.259   5.127  0.2924  1.2377 -0.6999
 7481SOL    HW233906   1.532   0.229   5.196 -1.8892 -2.2566 -0.0360
 7482SOL     OW33907   3.322   0.679  15.284 -0.3380  0.2615 -0.4684
 7482SOL    HW133908   3.370   0.678  15.201  0.4521  1.6095 -0.0282
 7482SOL    HW233909   3.268   0.602  15.266  1.6596 -1.1438 -0.4358
 7483SOL     OW33910   4.466   1.622  12.574  0.1926 -0.2542  0.4299
 7483SOL    HW133911   4.475   1.713  12.547  0.5183 -1.1718 -2.5170
 7483SOL    HW233912   4.465   1.571  12.493 -0.7387  1.7289 -0.7780
 7484SOL     OW33913   0.101   0.791   1.841  0.0840 -0.0996  0.3593
 7484SOL    HW133914   0.109   0.797   1.746  2.0423 -1.4091  0.4556
 7484SOL    HW233915   0.110   0.697   1.852  0.2476 -0.0145  0.9430
 7485SOL     OW33916   3.907   2.312   9.632 -0.1107  0.7149 -0.1176
 7485SOL    HW133917   3.843   2.333   9.564 -1.3282 -0.8149  0.5537
 7485SOL    HW233918   3.984   2.301   9.576  0.3981 -0.6333  0.8453
 7486SOL     OW33919   3.800   3.345   9.389  0.0096 -0.2012 -0.3257
 7486SOL    HW133920   3.771   3.435   9.373 -2.1715 -1.1565 -1.7652
 7486SOL    HW233921   3.871   3.330   9.326  0.7727 -2.0586  0.9677
 7487SOL     OW33922   0.218   0.466   4.434  0.2259  0.3088 -0.1044
 7487SOL    HW133923   0.235   0.528   4.363 -0.8354  0.5415 -0.1435
 7487SOL    HW233924   0.185   0.396   4.378 -1.6857  1.1008  0.0488
 7488SOL     OW33925   4.509   4.414   4.448 -0.5100  0.5182 -0.0834
 7488SOL    HW133926   4.424   4.432   4.409 -0.8228  3.7791  2.0676
 7488SOL    HW233927   4.498   4.327   4.487  1.4198 -0.7956 -2.4523
 7489SOL     OW33928   2.609   4.644  11.340  0.1104 -0.3222 -0.3953
 7489SOL    HW133929   2.544   4.575  11.355 -1.3836  0.9557 -1.0386
 7489SOL    HW233930   2.693   4.598  11.344 -1.1315 -2.6234 -0.6151
 7490SOL     OW33931   2.342   2.511   8.089  0.4350 -0.5180 -0.3085
 7490SOL    HW133932   2.346   2.519   8.184 -0.0558  1.0449 -0.4148
 7490SOL    HW233933   2.365   2.419   8.076  2.6526  0.0296 -0.1533
 7491SOL     OW33934   2.429   0.762   0.289  0.4440  0.3435 -0.1570
 7491SOL    HW133935   2.463   0.752   0.378 -1.3139 -1.4815  0.3007
 7491SOL    HW233936   2.493   0.711   0.240  0.4627  0.7673 -0.5680
 7492SOL     OW33937   4.539   3.029   6.807 -0.1222 -0.2766  0.4473
 7492SOL    HW133938   4.533   2.941   6.842  0.8351 -1.5276 -2.5265
 7492SOL    HW233939   4.499   3.010   6.722 -0.2839 -0.3828  0.5484
 7493SOL     OW33940   2.767   1.336  16.224  0.0135  0.2232 -0.2683
 7493SOL    HW133941   2.739   1.256  16.267 -0.3611  0.6081  0.2044
 7493SOL    HW233942   2.858   1.348  16.253 -0.7782 -0.8080  2.6727
 7494SOL     OW33943   0.890   3.614   2.816  0.6284  0.0950 -0.3428
 7494SOL    HW133944   0.906   3.707   2.830  3.3447 -0.5760  1.0207
 7494SOL    HW233945   0.929   3.592   2.731  0.9516 -0.2130 -0.1147
 7495SOL     OW33946   2.735   0.722   5.818 -0.6503  0.3909 -0.3208
 7495SOL    HW133947   2.670   0.750   5.883 -2.1557 -0.2876 -1.5166
 7495SOL    HW233948   2.741   0.628   5.836  0.7227  0.1985 -1.7828
 7496SOL     OW33949   0.973   4.024   0.865  0.1544 -0.3682  0.0516
 7496SOL    HW133950   0.978   3.929   0.863  1.8061 -0.2563 -0.8879
 7496SOL    HW233951   0.967   4.045   0.772  0.2745 -1.5558 -0.2194
 7497SOL     OW33952   0.224   3.964   6.052 -0.2205 -0.7778 -0.2307
 7497SOL    HW133953   0.317   3.944   6.048 -0.3758 -1.8859  1.6434
 7497SOL    HW233954   0.191   3.967   6.142 -1.7130  0.2973 -0.8075
 7498SOL     OW33955   2.752   0.111   4.092 -0.5024 -0.1836  0.2600
 7498SOL    HW133956   2.704   0.064   4.023 -0.4094  0.4264 -0.2245
 7498SOL    HW233957   2.711   0.198   4.094  1.1430  0.5826  0.1947
 7499SOL     OW33958   2.074   3.079   6.499 -0.9341  0.3053 -0.5399
 7499SOL    HW133959   2.169   3.069   6.492 -0.6883  1.3086  1.2577
 7499SOL    HW233960   2.057   3.155   6.444 -1.0566  0.6941  0.0319
 7500SOL     OW33961   2.039   0.156  10.619 -1.0586  0.1180 -0.2470
 7500SOL    HW133962   1.983   0.234  10.623 -1.0997  0.0694  0.0981
 7500SOL    HW233963   1.968   0.095  10.639 -0.6034 -0.1567  0.5254
 7501SOL     OW33964   2.146   1.382   1.222  0.2869 -0.3704 -0.1692
 7501SOL    HW133965   2.101   1.340   1.149 -1.0720  0.3445  0.2562
 7501SOL    HW233966   2.079   1.444   1.252 -0.7375  1.0418 -5.4751
 7502SOL     OW33967   2.680   4.177   7.908 -0.1833  0.7291  0.4480
 7502SOL    HW133968   2.735   4.212   7.838 -1.8273  0.7354 -0.8339
 7502SOL    HW233969   2.609   4.242   7.912 -0.9257 -0.0843  0.3470
 7503SOL     OW33970   0.784   2.349   9.471 -0.5677 -0.0097 -0.3667
 7503SOL    HW133971   0.724   2.372   9.399 -0.5837 -0.1005 -0.3830
 7503SOL    HW233972   0.761   2.410   9.541 -1.1420 -2.2927  1.4428
 7504SOL     OW33973   3.021   4.372  15.434 -0.0040 -0.7008 -0.1357
 7504SOL    HW133974   2.948   4.311  15.443  0.0139 -0.4943  1.3644
 7504SOL    HW233975   3.055   4.350  15.347  0.7349  0.2508 -0.0893
 7505SOL     OW33976   2.305   3.032   4.826  0.5588  0.3894 -0.1545
 7505SOL    HW133977   2.323   3.125   4.838  0.5285  0.2013  1.3903
 7505SOL    HW233978   2.299   2.993   4.914  1.2116 -0.3186 -0.4234
 7506SOL     OW33979   3.933   2.410  12.747 -0.2591 -0.6857 -0.1191
 7506SOL    HW133980   4.023   2.425  12.777 -1.1053 -0.0916  2.0751
 7506SOL    HW233981   3.933   2.434  12.654  0.5592  0.5592  0.2035
 7507SOL     OW33982   3.820   0.170   1.532 -0.5351 -0.1142  0.6335
 7507SOL    HW133983   3.736   0.173   1.579 -0.6423 -0.3622  0.4581
 7507SOL    HW233984   3.812   0.095   1.473  0.7345  0.9647 -0.9058
 7508SOL     OW33985   2.235   2.253  13.378 -0.4385  0.6799 -0.7263
 7508SOL    HW133986   2.217   2.159  13.386  0.3968  0.4966 -1.0214
 7508SOL    HW233987   2.330   2.260  13.386 -0.4046  0.5859 -1.0486
 7509SOL     OW33988   3.842   2.073   9.282 -0.3105 -0.2385 -0.1875
 7509SOL    HW133989   3.908   2.097   9.217 -0.3380  0.4213  0.0306
 7509SOL    HW233990   3.907   2.053   9.350  1.1744 -3.3635 -2.5172
 7510SOL     OW33991   1.101   1.045  10.453  0.0810 -0.6419  0.3681
 7510SOL    HW133992   1.108   1.125  10.505 -1.4565 -1.6423  2.1262
 7510SOL    HW233993   1.045   1.077  10.382  0.4300 -1.1867 -0.1558
 7511SOL     OW33994   1.484   3.584   6.735  0.6223  0.2952  0.4351
 7511SOL    HW133995   1.553   3.625   6.787  1.5478  1.0940 -1.4236
 7511SOL    HW233996   1.435   3.525   6.792 -1.7584  1.6204 -0.2526
 7512SOL     OW33997   1.464   0.725   4.318 -0.4030 -0.1212  0.3248
 7512SOL    HW133998   1.457   0.776   4.398 -5.1144 -2.2084  1.1907
 7512SOL    HW233999   1.484   0.797   4.258  1.9730 -0.7888  0.2932
 7513SOL     OW34000   1.800   4.022  15.650  0.2515 -1.0534 -0.3127
 7513SOL    HW134001   1.850   4.006  15.570  0.3076  0.5602 -0.5812
 7513SOL    HW234002   1.776   4.114  15.649  1.2949 -0.7952 -0.6120
 7514SOL     OW34003   1.592   1.714   4.428 -0.5824  0.3415 -0.2663
 7514SOL    HW134004   1.594   1.800   4.385  1.7528  1.2264  1.6452
 7514SOL    HW234005   1.659   1.659   4.387 -1.2092 -1.4832  1.1729
 7515SOL     OW34006   0.947   2.851   6.128 -0.3802  0.0002  0.3734
 7515SOL    HW134007   0.858   2.814   6.124  0.6236 -2.1772 -1.6826
 7515SOL    HW234008   0.936   2.944   6.110 -2.3086 -0.0939  1.0728
 7516SOL     OW34009   0.103   4.033  13.303  0.1717  0.4351 -0.7481
 7516SOL    HW134010   0.173   3.969  13.315  0.6654  0.9515 -0.8579
 7516SOL    HW234011   0.147   4.103  13.255  0.0956  0.3495 -0.9422
 7517SOL     OW34012   0.861   2.547   7.325  0.5340 -0.2741 -0.2595
 7517SOL    HW134013   0.843   2.608   7.254 -0.1812  0.9060  0.9383
 7517SOL    HW234014   0.926   2.491   7.284  0.0345 -2.1133  1.4676
 7518SOL     OW34015   4.282   4.590  15.205  0.0155 -0.2507  0.2732
 7518SOL    HW134016   4.361   4.644  15.211 -1.9552  2.7197 -0.0161
 7518SOL    HW234017   4.244   4.606  15.291  0.8720 -1.8328  0.9347
 7519SOL     OW34018   2.399   4.087   8.622  0.1810 -0.8590 -0.1375
 7519SOL    HW134019   2.319   4.040   8.598  0.2137 -0.0692 -1.7379
 7519SOL    HW234020   2.463   4.044   8.566 -0.2755  1.3030 -2.2973
 7520SOL     OW34021   1.291   3.141   8.498 -0.3636  0.4756  0.9037
 7520SOL    HW134022   1.348   3.218   8.490 -2.6770  2.0352 -0.6583
 7520SOL    HW234023   1.243   3.158   8.580 -0.3126  1.5668  0.7122
 7521SOL     OW34024   2.229   0.167   6.635 -0.7434  0.2873 -0.8439
 7521SOL    HW134025   2.167   0.217   6.581 -1.2867  0.0173 -0.4688
 7521SOL    HW234026   2.185   0.177   6.720 -3.9383  0.1524 -2.4805
 7522SOL     OW34027   0.586   4.516  12.823 -0.1426  0.1566 -0.0696
 7522SOL    HW134028   0.674   4.549  12.841  0.1090  0.1051 -1.1912
 7522SOL    HW234029   0.564   4.478  12.908 -1.4778 -1.4737 -1.1371
 7523SOL     OW34030   4.448   4.008   8.595 -0.0872 -0.2745 -0.1988
 7523SOL    HW134031   4.514   3.955   8.639  0.0724 -0.0788 -0.2028
 7523SOL    HW234032   4.465   3.976   8.506 -1.5384  1.1005 -0.9702
 7524SOL     OW34033   1.941   3.426   9.419 -0.6127 -0.0041  0.0578
 7524SOL    HW134034   1.977   3.460   9.501 -0.2716 -1.0550  0.3396
 7524SOL    HW234035   1.907   3.340   9.444  1.1201 -0.5952  0.3872
 7525SOL     OW34036   2.781   2.161  12.456 -0.0845 -0.2439  0.0615
 7525SOL    HW134037   2.810   2.070  12.450  1.8307  0.4701 -1.3495
 7525SOL    HW234038   2.801   2.185  12.366 -2.3969 -0.0634 -0.4097
 7526SOL     OW34039   1.328   0.309   3.363 -0.3684 -0.5454 -0.4912
 7526SOL    HW134040   1.307   0.324   3.271  1.1368  0.5141 -0.6731
 7526SOL    HW234041   1.380   0.228   3.360  0.0017 -0.3178 -0.2953
 7527SOL     OW34042   2.143   1.722   4.201  0.5818  0.4840 -0.0295
 7527SOL    HW134043   2.061   1.771   4.213 -1.3839 -2.6521 -0.5263
 7527SOL    HW234044   2.214   1.783   4.220  0.4672  0.4712  0.4277
 7528SOL     OW34045   2.105   2.715  16.142 -0.0022 -0.6338 -1.0612
 7528SOL    HW134046   2.094   2.783  16.075 -2.1450 -0.2237 -0.2922
 7528SOL    HW234047   2.022   2.672  16.121 -1.0709  0.4971  0.9129
 7529SOL     OW34048   4.305   2.639  17.427  0.4812 -0.0730  0.6689
 7529SOL    HW134049   4.332   2.670  17.340 -0.3794 -1.5851 -0.1429
 7529SOL    HW234050   4.260   2.557  17.404  2.4102 -0.9695  0.0815
 7530SOL     OW34051   1.868   4.590   1.980  0.1007 -0.2521 -0.6362
 7530SOL    HW134052   1.945   4.588   2.036 -0.6593 -2.2839  0.3170
 7530SOL    HW234053   1.907   4.593   1.892  3.0598  2.0753  0.7538
 7531SOL     OW34054   3.117   2.851   3.476  0.3427  0.1820 -0.6132
 7531SOL    HW134055   3.205   2.852   3.438  0.3437  0.2124 -0.6104
 7531SOL    HW234056   3.136   2.843   3.570 -0.6917 -0.4536 -0.4644
 7532SOL     OW34057   4.712   1.044   7.373  0.3545  0.2999 -0.1343
 7532SOL    HW134058   4.629   1.005   7.344  0.5299 -0.0319 -0.1983
 7532SOL    HW234059   4.698   1.035   7.467  1.0936 -0.2653 -0.0757
 7533SOL     OW34060   4.694   1.103  10.272  0.1048 -1.2187 -0.3818
 7533SOL    HW134061   4.624   1.122  10.333 -0.1468 -0.5792 -0.8731
 7533SOL    HW234062   4.718   1.012  10.291  0.5306 -1.0484 -0.0859
 7534SOL     OW34063   2.285   2.975   7.183 -0.0783  0.1967 -0.1419
 7534SOL    HW134064   2.332   2.979   7.267  3.4944  0.2411 -2.1751
 7534SOL    HW234065   2.202   2.945   7.221  0.5497  0.1893  1.2223
 7535SOL     OW34066   2.513   4.036   5.939 -0.5686 -0.4480 -0.4017
 7535SOL    HW134067   2.585   4.021   5.879  0.7398 -0.8272  1.2543
 7535SOL    HW234068   2.463   4.098   5.886  1.3109  1.7536  0.4166
 7536SOL     OW34069   0.345   2.684   8.839  0.3711  0.0449  0.4235
 7536SOL    HW134070   0.423   2.629   8.847 -0.2273 -0.8656  0.0250
 7536SOL    HW234071   0.342   2.713   8.930 -0.9684 -1.7997  0.9716
 7537SOL     OW34072   2.590   3.368   2.962  0.5720  0.5353  0.2574
 7537SOL    HW134073   2.636   3.285   2.950  2.0610  1.4788 -0.4947
 7537SOL    HW234074   2.567   3.393   2.872  0.9784  0.0460  0.0152
 7538SOL     OW34075   2.582   3.727   0.782 -0.3735  0.3691 -0.2234
 7538SOL    HW134076   2.491   3.712   0.756 -1.2336  2.4207  1.6486
 7538SOL    HW234077   2.561   3.742   0.875 -0.9005  2.9851 -0.7656
 7539SOL     OW34078   0.150   0.040   6.067  0.0742 -0.1912 -0.0749
 7539SOL    HW134079   0.079   4.713   6.025  1.0567 -2.0760  0.4289
 7539SOL    HW234080   0.190   0.080   5.990 -0.7591  0.1302 -0.3362
 7540SOL     OW34081   0.420   2.342   9.264 -0.4078 -0.1723 -0.0377
 7540SOL    HW134082   0.398   2.413   9.324  4.1052  0.5606  0.7690
 7540SOL    HW234083   0.442   2.271   9.325  0.4145  0.5130  0.4686
 7541SOL     OW34084   2.230   0.796   6.730  0.2760  0.8165 -0.1870
 7541SOL    HW134085   2.278   0.795   6.647  0.6741 -2.7599  0.0997
 7541SOL    HW234086   2.302   0.833   6.782 -0.6069 -0.5004  1.9617
 7542SOL     OW34087   0.492   4.446   2.996  0.3366  0.9217  0.1928
 7542SOL    HW134088   0.450   4.455   2.910  0.2592 -1.8625 -0.0482
 7542SOL    HW234089   0.421   4.398   3.038  0.0225  1.9259  0.8279
 7543SOL     OW34090   3.160   4.503   2.362  0.5060  0.7118 -0.1443
 7543SOL    HW134091   3.143   4.475   2.452  0.4203  0.3605 -0.2677
 7543SOL    HW234092   3.086   4.563   2.353  0.1777  0.5971  1.7298
 7544SOL     OW34093   1.524   3.758  15.572  0.0894  0.3886  0.4325
 7544SOL    HW134094   1.608   3.772  15.615 -0.3554 -0.4720  1.5777
 7544SOL    HW234095   1.468   3.803  15.635 -0.3462  1.1974 -0.5377
 7545SOL     OW34096   0.491   0.673   2.856  0.5084  0.0342 -0.3341
 7545SOL    HW134097   0.579   0.709   2.864 -1.0144  3.6888 -0.3735
 7545SOL    HW234098   0.485   0.623   2.937 -0.5869 -1.8786 -1.5848
 7546SOL     OW34099   2.422   3.558  16.038  0.7928 -0.1209  0.5544
 7546SOL    HW134100   2.448   3.604  15.959  0.8374  1.6909  1.6280
 7546SOL    HW234101   2.409   3.636  16.092 -2.4068 -0.3358  0.0624
 7547SOL     OW34102   0.958   3.975   7.165  0.5806 -0.1075 -0.0938
 7547SOL    HW134103   0.878   3.934   7.133 -0.1269  0.2654  1.1793
 7547SOL    HW234104   0.969   4.050   7.106  3.2993 -0.1633  0.3487
 7548SOL     OW34105   1.407   1.482  11.499 -0.3509 -0.5761  0.3988
 7548SOL    HW134106   1.426   1.573  11.476 -0.4281 -1.3553 -2.7342
 7548SOL    HW234107   1.492   1.462  11.537  0.5783  1.6113 -0.5039
 7549SOL     OW34108   4.268   2.043   7.994  0.4627 -0.2045  0.3366
 7549SOL    HW134109   4.342   2.043   8.054 -1.2580  0.8913  2.4699
 7549SOL    HW234110   4.306   2.004   7.915  0.2226 -1.1749  0.7097
 7550SOL     OW34111   1.817   1.994   9.868  0.6964  0.2265 -0.1541
 7550SOL    HW134112   1.865   1.948   9.937 -1.3863 -2.4976 -0.5067
 7550SOL    HW234113   1.785   1.916   9.823 -3.2266  0.1770  2.6521
 7551SOL     OW34114   4.163   3.394   2.765  0.1894  0.2151 -0.5239
 7551SOL    HW134115   4.119   3.455   2.707  0.0694  0.5838 -0.0449
 7551SOL    HW234116   4.245   3.370   2.722  0.0842  0.2377 -0.7329
 7552SOL     OW34117   2.147   4.086   6.397 -0.2945  0.5049  0.2775
 7552SOL    HW134118   2.082   4.019   6.376 -0.7544  0.8207  0.6812
 7552SOL    HW234119   2.159   4.062   6.489  1.5755 -1.1557 -0.4002
 7553SOL     OW34120   1.602   3.129   3.692  0.2693 -0.1314  0.4288
 7553SOL    HW134121   1.587   3.215   3.653 -1.7948 -1.1217 -0.9287
 7553SOL    HW234122   1.554   3.134   3.774  1.7154 -1.2132  1.3385
 7554SOL     OW34123   3.831   0.246   8.787  0.3411 -0.0865  0.6600
 7554SOL    HW134124   3.811   0.207   8.872  1.8741 -1.3450  0.4298
 7554SOL    HW234125   3.926   0.237   8.783  0.0408 -2.6415 -0.5563
 7555SOL     OW34126   2.687   2.049   7.328  0.3842 -0.5142  0.8653
 7555SOL    HW134127   2.756   2.056   7.261  1.6190 -0.3355  2.1563
 7555SOL    HW234128   2.679   1.954   7.338 -2.3948 -0.6409 -2.3367
 7556SOL     OW34129   2.456   2.422  14.026 -0.0662 -0.6428  0.5776
 7556SOL    HW134130   2.547   2.400  14.044  0.3708 -0.3197 -1.2576
 7556SOL    HW234131   2.451   2.455  13.936  1.2887  0.6795  0.9901
 7557SOL     OW34132   1.004   1.069   6.849 -0.1819 -0.5498  0.5325
 7557SOL    HW134133   1.068   1.101   6.786 -0.2819 -0.3922  0.5105
 7557SOL    HW234134   0.956   1.151   6.864 -0.1784 -0.2366 -1.1913
 7558SOL     OW34135   4.406   2.792   4.282 -0.1679  0.6348  0.5809
 7558SOL    HW134136   4.322   2.837   4.280  0.0272  0.8610 -2.2153
 7558SOL    HW234137   4.393   2.745   4.365  0.3628 -1.4918 -0.5475
 7559SOL     OW34138   0.624   3.021   4.251 -0.2635  0.0946 -0.2070
 7559SOL    HW134139   0.646   3.031   4.158 -1.1059 -0.0813 -0.4252
 7559SOL    HW234140   0.609   3.109   4.284  0.8084  0.4269 -0.6104
 7560SOL     OW34141   2.342   2.723   5.207  0.3074  0.8187 -0.4934
 7560SOL    HW134142   2.406   2.652   5.205  0.5068  0.9772  0.1758
 7560SOL    HW234143   2.312   2.712   5.298 -1.5890 -0.1304 -1.2289
 7561SOL     OW34144   1.585   3.364   8.021 -0.0073 -0.1043  0.6384
 7561SOL    HW134145   1.582   3.282   7.972  1.5959  0.5227 -0.5201
 7561SOL    HW234146   1.664   3.349   8.074 -1.1285  1.1041  2.6183
 7562SOL     OW34147   2.941   3.694   3.634  0.1828  0.3303  0.3244
 7562SOL    HW134148   2.867   3.671   3.690 -0.5656  0.3736 -0.6671
 7562SOL    HW234149   3.008   3.639   3.675  0.4455  1.0510  0.8692
 7563SOL     OW34150   1.433   4.616  10.182 -0.0542 -0.7317 -0.2590
 7563SOL    HW134151   1.425   4.618  10.087  1.6052 -1.2147 -0.4155
 7563SOL    HW234152   1.529   4.626  10.183 -0.0183 -1.3010  1.3818
 7564SOL     OW34153   0.416   2.796  13.118  0.5494  0.5927  0.2597
 7564SOL    HW134154   0.398   2.888  13.136 -0.9516  0.4241 -0.4054
 7564SOL    HW234155   0.376   2.749  13.191 -3.1160  0.3702 -1.8796
 7565SOL     OW34156   1.371   1.009   0.064  0.6638 -0.3237 -0.5126
 7565SOL    HW134157   1.390   1.088   0.014 -2.5064  0.5206 -0.4179
 7565SOL    HW234158   1.413   1.024   0.149  0.5405  0.9268 -0.6714
 7566SOL     OW34159   3.237   4.089   8.736 -0.6478 -0.0606  0.4495
 7566SOL    HW134160   3.287   4.033   8.795  1.1476  0.7532 -0.3064
 7566SOL    HW234161   3.213   4.170   8.783  2.5406  1.3433 -0.3628
 7567SOL     OW34162   2.002   0.333   1.861  0.0910  0.6684  0.4755
 7567SOL    HW134163   1.931   0.277   1.893  0.9553 -0.3319  0.6432
 7567SOL    HW234164   2.026   0.370   1.946  1.0255  0.9124  0.1064
 7568SOL     OW34165   1.651   0.021   0.378  0.1526  0.4595 -0.4298
 7568SOL    HW134166   1.582   0.087   0.375  0.3752  0.7100 -0.0967
 7568SOL    HW234167   1.722   0.070   0.338 -0.0406  2.0871  1.2109
 7569SOL     OW34168   0.785   1.550   7.438  0.3052 -0.1127 -0.0768
 7569SOL    HW134169   0.811   1.517   7.353  0.8350  0.4201 -0.1174
 7569SOL    HW234170   0.691   1.529   7.440  0.1246  0.7148  0.3416
 7570SOL     OW34171   1.114   4.359  14.885  0.5071 -0.2314 -0.0475
 7570SOL    HW134172   1.200   4.317  14.884  0.5480 -0.2017  2.0479
 7570SOL    HW234173   1.060   4.310  14.824  1.9653 -0.8743 -0.8267
 7571SOL     OW34174   4.713   3.428   4.189  0.3860  0.1379  0.0071
 7571SOL    HW134175   4.714   3.366   4.116  1.6337 -0.7507  0.7812
 7571SOL    HW234176   0.046   3.501   4.159 -0.8515  1.5928  1.2845
 7572SOL     OW34177   1.930   2.507   9.193 -0.0172 -0.2473  0.6765
 7572SOL    HW134178   1.882   2.430   9.161 -0.2057  0.9778 -1.9821
 7572SOL    HW234179   2.013   2.466   9.215 -1.1671 -1.7669  2.2147
 7573SOL     OW34180   4.430   3.138   0.888  0.1355  0.5039  0.8394
 7573SOL    HW134181   4.346   3.183   0.897 -0.2841 -0.3589  1.3134
 7573SOL    HW234182   4.479   3.185   0.821 -1.0193  2.2853  1.2494
 7574SOL     OW34183   0.964   0.726   7.906  0.2725  0.1251 -0.2378
 7574SOL    HW134184   0.986   0.651   7.850  2.9792 -0.3078  1.4261
 7574SOL    HW234185   0.868   0.729   7.905  0.1938 -1.6944  1.9385
 7575SOL     OW34186   4.461   0.419   3.102  0.6734 -0.1083 -0.2210
 7575SOL    HW134187   4.454   0.393   3.010  0.4811  1.0984 -0.5435
 7575SOL    HW234188   4.542   0.470   3.098  0.3058  0.5864  1.4225
 7576SOL     OW34189   4.341   4.674   7.808 -0.1857  0.6539  0.0109
 7576SOL    HW134190   4.420   4.626   7.831 -0.1259  0.5930 -0.3356
 7576SOL    HW234191   4.271   4.618   7.843 -0.4288 -0.0960 -1.7203
 7577SOL     OW34192   2.056   1.393  16.428  0.4019 -0.5885 -0.2329
 7577SOL    HW134193   2.098   1.322  16.478  1.6153 -0.7008 -1.4068
 7577SOL    HW234194   2.118   1.466  16.437  1.5798 -1.6389  0.0870
 7578SOL     OW34195   2.820   1.136   8.491  0.1249 -0.6776 -0.4372
 7578SOL    HW134196   2.869   1.202   8.444 -0.4076  0.3296  0.4271
 7578SOL    HW234197   2.843   1.048   8.459 -0.9373 -1.3881  0.7235
 7579SOL     OW34198   2.510   2.917   1.722 -0.4334  0.0586 -0.2745
 7579SOL    HW134199   2.433   2.973   1.715  0.5417  1.6682  1.7766
 7579SOL    HW234200   2.492   2.860   1.797  1.5356  1.6478  1.3832
 7580SOL     OW34201   2.163   4.153  13.866  0.1517  0.7149 -0.2240
 7580SOL    HW134202   2.118   4.214  13.924  1.9944 -1.0057  3.0021
 7580SOL    HW234203   2.249   4.181  13.897  0.1210 -0.9564  1.3922
 7581SOL     OW34204   0.512   3.235   6.046 -0.2128 -0.3541  0.0053
 7581SOL    HW134205   0.519   3.319   6.089 -0.1808  0.9285 -2.4849
 7581SOL    HW234206   0.603   3.205   6.044  0.3624  1.3103  1.5103
 7582SOL     OW34207   4.175   0.964   9.173 -0.0703  0.0503  0.5415
 7582SOL    HW134208   4.271   0.964   9.169 -0.0022  0.7099  1.9214
 7582SOL    HW234209   4.169   0.877   9.212 -2.2462  0.0709  0.2218
 7583SOL     OW34210   4.669   3.426   1.357 -0.3644  0.4285 -0.2388
 7583SOL    HW134211   4.707   3.340   1.375  1.5435  1.7807  2.0303
 7583SOL    HW234212   4.632   3.441   1.444 -1.9601 -0.2387 -0.8072
 7584SOL     OW34213   2.727   3.843   8.591 -0.1129  0.2004  0.7840
 7584SOL    HW134214   2.712   3.931   8.557 -0.2917 -0.3839 -0.6597
 7584SOL    HW234215   2.782   3.859   8.667  0.4208 -0.3134  0.5114
 7585SOL     OW34216   0.088   2.076   1.637 -0.1429 -0.1989 -0.7434
 7585SOL    HW134217   0.099   1.985   1.662  3.3363  0.0496 -1.3760
 7585SOL    HW234218   0.075   2.056   1.544  1.3429 -2.6722 -0.4045
 7586SOL     OW34219   2.952   2.843   7.503 -0.6171 -0.1477  0.8394
 7586SOL    HW134220   2.875   2.892   7.530 -0.0286  1.5577 -0.6363
 7586SOL    HW234221   2.948   2.764   7.557  0.1431 -1.4294 -0.9644
 7587SOL     OW34222   4.326   1.612  16.510 -1.0456  0.7314  0.0061
 7587SOL    HW134223   4.387   1.547  16.545  0.6531  0.8620 -2.6865
 7587SOL    HW234224   4.391   1.670  16.472  0.1622 -0.2233  0.6318
 7588SOL     OW34225   4.704   3.267  13.104  0.7921  0.5527  0.8543
 7588SOL    HW134226   0.051   3.246  13.167  0.7468  2.5406  1.5626
 7588SOL    HW234227   4.633   3.294  13.163  1.7386  2.6284  1.0538
 7589SOL     OW34228   2.388   1.199   4.659 -0.0446  0.3514 -0.2184
 7589SOL    HW134229   2.374   1.291   4.637 -0.7989  0.4868  0.8516
 7589SOL    HW234230   2.308   1.152   4.683 -1.8050  3.2446 -0.4944
 7590SOL     OW34231   2.994   4.130   1.789 -0.1511 -0.0819 -0.4822
 7590SOL    HW134232   3.000   4.052   1.735  0.4289 -0.4027  0.0467
 7590SOL    HW234233   2.941   4.178   1.725 -0.9893 -0.7266 -0.2760
 7591SOL     OW34234   1.904   3.979   4.326  0.3944  0.5897 -0.4576
 7591SOL    HW134235   1.965   4.001   4.255  1.6750 -2.7904 -0.4160
 7591SOL    HW234236   1.877   3.891   4.301  1.0127 -0.3134  2.0304
 7592SOL     OW34237   3.301   1.830   5.237  0.1538  0.0594  0.5188
 7592SOL    HW134238   3.391   1.829   5.204 -0.0914  0.6971 -0.1860
 7592SOL    HW234239   3.249   1.761   5.197  0.9904  0.8486 -1.9250
 7593SOL     OW34240   4.648   4.609   8.903  0.0778  0.4716 -0.2878
 7593SOL    HW134241   4.663   4.564   8.819 -0.4082 -0.7173  0.2712
 7593SOL    HW234242   4.574   4.559   8.937 -1.2913  2.2605 -0.6358
 7594SOL     OW34243   3.547   0.138   7.288 -0.8093  0.0991  0.2282
 7594SOL    HW134244   3.560   0.100   7.201 -0.5552 -0.5542  0.5512
 7594SOL    HW234245   3.620   0.200   7.292 -1.0247  0.3698 -0.0291
 7595SOL     OW34246   4.131   0.614   0.416 -0.2185 -0.4124 -1.0522
 7595SOL    HW134247   4.207   0.593   0.362 -0.8258 -3.8071 -0.5656
 7595SOL    HW234248   4.057   0.581   0.365  0.1220 -1.0717 -1.1176
 7596SOL     OW34249   0.299   2.377  16.432 -0.5690 -0.7753  0.7359
 7596SOL    HW134250   0.278   2.318  16.504  0.1172 -1.9717 -0.0378
 7596SOL    HW234251   0.214   2.416  16.410 -0.8694  0.6478  4.5239
 7597SOL     OW34252   1.690   4.107   5.361  0.0679 -0.2729  0.3383
 7597SOL    HW134253   1.680   4.013   5.373  1.8587 -0.6235 -1.0296
 7597SOL    HW234254   1.722   4.100   5.271  1.2706  1.3541  0.6477
 7598SOL     OW34255   0.707   1.310   9.260  0.1726 -0.1639  0.1002
 7598SOL    HW134256   0.677   1.401   9.263 -1.6756 -0.7481 -0.1881
 7598SOL    HW234257   0.762   1.309   9.338  1.1955  1.3978 -0.6237
 7599SOL     OW34258   4.226   3.374   2.046  1.0289 -0.1434  0.1079
 7599SOL    HW134259   4.169   3.429   1.991 -0.1720  0.2407  1.7379
 7599SOL    HW234260   4.243   3.309   1.978 -0.2869 -0.1084 -0.2664
 7600SOL     OW34261   3.820   0.086  16.820  0.0363 -0.4975  0.0593
 7600SOL    HW134262   3.826   0.150  16.750 -2.2888  0.4495  0.6998
 7600SOL    HW234263   3.752   0.123  16.877  0.0600  2.6949 -1.9847
 7601SOL     OW34264   2.892   0.599   6.926 -0.0521  0.0900  0.2324
 7601SOL    HW134265   2.974   0.607   6.974  0.5169  0.7383 -0.8646
 7601SOL    HW234266   2.836   0.551   6.988 -1.5036  2.1739  0.5368
 7602SOL     OW34267   2.074   0.703   6.435 -0.3310 -0.3503  0.5388
 7602SOL    HW134268   1.993   0.658   6.457 -0.1691 -1.0295 -0.2755
 7602SOL    HW234269   2.058   0.785   6.483  2.1694  0.4698 -0.0480
 7603SOL     OW34270   1.661   2.688   4.126  0.2246 -0.1563 -0.2944
 7603SOL    HW134271   1.569   2.685   4.101 -0.1031  0.0698  0.8822
 7603SOL    HW234272   1.672   2.778   4.157  1.6452  0.2257 -1.9001
 7604SOL     OW34273   4.629   0.187  14.787  0.0301 -0.0840 -0.3469
 7604SOL    HW134274   4.709   0.239  14.777 -0.8421  1.4970  0.7971
 7604SOL    HW234275   4.646   0.116  14.725 -0.2812 -0.7679  0.3595
 7605SOL     OW34276   1.257   1.833   2.891  0.8026  0.0971 -0.5261
 7605SOL    HW134277   1.263   1.913   2.943 -0.9365 -0.1556  0.0745
 7605SOL    HW234278   1.192   1.855   2.825  1.5776 -0.6412 -1.5357
 7606SOL     OW34279   3.922   2.763   5.478  0.2322  0.3165  0.9044
 7606SOL    HW134280   3.867   2.766   5.556 -1.3839 -0.9254 -0.2075
 7606SOL    HW234281   3.925   2.853   5.445 -0.8342  0.8258  2.2255
 7607SOL     OW34282   1.936   4.156   7.052 -0.2195  0.6697 -0.4132
 7607SOL    HW134283   1.985   4.160   7.135 -0.1495  0.5573 -0.4507
 7607SOL    HW234284   1.853   4.120   7.084  0.4910 -0.1396  0.5057
 7608SOL     OW34285   4.618   3.950   5.390 -0.2590  0.2159 -0.0961
 7608SOL    HW134286   4.653   3.861   5.387 -2.5914 -0.6902 -0.4609
 7608SOL    HW234287   4.685   3.997   5.341  1.5583 -1.9986  0.2350
 7609SOL     OW34288   1.409   1.641   6.502 -0.2533  0.5396 -0.0243
 7609SOL    HW134289   1.501   1.664   6.486 -1.0305  1.7190 -2.7677
 7609SOL    HW234290   1.412   1.545   6.495 -1.0191  0.5704 -0.7553
 7610SOL     OW34291   2.912   0.810  13.211 -0.5169  0.1730 -0.1611
 7610SOL    HW134292   3.006   0.826  13.223 -1.1266  2.4451  1.6708
 7610SOL    HW234293   2.885   0.878  13.149  0.7558  0.8154 -0.0046
 7611SOL     OW34294   1.425   3.108   9.033  0.1685  0.0982 -0.6565
 7611SOL    HW134295   1.408   3.187   9.085  0.7793 -0.0098 -0.2921
 7611SOL    HW234296   1.353   3.054   9.065 -2.3674  2.6163 -2.1175
 7612SOL     OW34297   1.468   3.087  14.606 -0.2900  0.1867 -0.5515
 7612SOL    HW134298   1.528   3.029  14.559 -1.3333  0.1718 -1.8854
 7612SOL    HW234299   1.515   3.168  14.586  1.7409 -0.6281  0.9863
 7613SOL     OW34300   4.081   1.997  16.840 -0.1425  0.7997 -0.7214
 7613SOL    HW134301   4.039   2.064  16.787  0.0304 -0.4716 -2.4423
 7613SOL    HW234302   4.094   1.926  16.778  0.2051 -0.0304  0.2998
 7614SOL     OW34303   2.364   4.280   3.196  0.3643  0.2337 -0.2697
 7614SOL    HW134304   2.398   4.229   3.122 -1.1345 -2.8689  1.1678
 7614SOL    HW234305   2.270   4.263   3.186  0.5764 -2.0363  1.7113
 7615SOL     OW34306   1.493   3.281   8.391 -0.1658  0.5059  0.3365
 7615SOL    HW134307   1.554   3.261   8.321  0.3665  0.7271  0.7364
 7615SOL    HW234308   1.537   3.349   8.442 -0.6142  0.7082  0.4520
 7616SOL     OW34309   0.455   1.795   1.611  0.1644  0.2034  0.6329
 7616SOL    HW134310   0.491   1.810   1.524 -0.8633  0.3285  0.2253
 7616SOL    HW234311   0.474   1.881   1.648 -0.2138  0.3647  0.4562
 7617SOL     OW34312   1.058   2.057   5.828 -0.6482  0.2599  0.0261
 7617SOL    HW134313   1.034   1.969   5.801  0.5737 -0.3645  0.9495
 7617SOL    HW234314   1.061   2.094   5.739 -0.7057 -0.5829 -0.3253
 7618SOL     OW34315   1.488   3.072   4.664  0.8314 -0.5102 -0.3101
 7618SOL    HW134316   1.486   3.068   4.568 -1.1517 -1.4000 -0.2223
 7618SOL    HW234317   1.411   3.126   4.679  1.8375  0.0850  2.8266
 7619SOL     OW34318   1.585   0.975   0.697 -0.1361 -0.0064  0.2175
 7619SOL    HW134319   1.661   1.002   0.647  0.7267 -0.5723  1.2243
 7619SOL    HW234320   1.622   0.895   0.735  1.7322  0.8338  0.1610
 7620SOL     OW34321   0.364   1.597   4.812 -0.4744 -0.0510 -0.2971
 7620SOL    HW134322   0.278   1.555   4.801  0.1344 -1.3788  0.0422
 7620SOL    HW234323   0.390   1.544   4.887  2.4192  0.3835 -0.9905
 7621SOL     OW34324   2.989   4.559   7.442  0.5333 -0.2450 -0.4640
 7621SOL    HW134325   3.056   4.625   7.460  1.5118 -0.8758 -1.8220
 7621SOL    HW234326   2.912   4.602   7.478 -1.5140 -3.3679 -1.1224
 7622SOL     OW34327   2.010   1.465   5.456  0.5084  0.8629  0.1544
 7622SOL    HW134328   1.915   1.477   5.448 -0.2328 -3.1673  3.1654
 7622SOL    HW234329   2.014   1.374   5.425 -0.8203  0.4411  1.2583
 7623SOL     OW34330   0.446   1.151   1.493 -0.6126 -0.1729  0.3113
 7623SOL    HW134331   0.472   1.106   1.574  4.7478 -0.9034 -1.7981
 7623SOL    HW234332   0.470   1.079   1.434 -2.4331 -0.2088 -0.3671
 7624SOL     OW34333   4.668   0.195  17.290 -0.3242 -0.4186 -0.1228
 7624SOL    HW134334   4.633   0.243  17.214  1.0803 -1.3494 -1.3646
 7624SOL    HW234335   4.591   0.148  17.321 -0.0384 -0.1096  1.0500
 7625SOL     OW34336   2.952   4.342   3.047 -0.0693 -0.7785 -0.4603
 7625SOL    HW134337   2.896   4.352   3.124  1.4563  2.8016  0.1767
 7625SOL    HW234338   3.035   4.368   3.086  0.3822 -0.6094 -1.5327
 7626SOL     OW34339   1.589   1.528   3.456 -0.5721  0.4438  0.4252
 7626SOL    HW134340   1.525   1.462   3.430 -0.1357  0.2334 -0.1142
 7626SOL    HW234341   1.671   1.480   3.460 -0.6775  0.0218 -2.4174
 7627SOL     OW34342   2.136   4.341  10.554 -0.5366  0.1124 -0.3161
 7627SOL    HW134343   2.183   4.372  10.476  0.6437  0.9466  0.7306
 7627SOL    HW234344   2.126   4.248  10.536  0.1307  0.0339 -0.3064
 7628SOL     OW34345   0.526   2.319  10.489 -0.4506 -0.0324 -0.2153
 7628SOL    HW134346   0.615   2.307  10.522 -0.5309  0.8591  0.3439
 7628SOL    HW234347   0.503   2.229  10.465  0.4571 -0.0876 -0.8570
 7629SOL     OW34348   0.949   0.022   3.563  0.6273  0.2077  0.2341
 7629SOL    HW134349   0.902   0.001   3.482  0.7349 -1.7139  0.6594
 7629SOL    HW234350   1.034   4.703   3.543  0.2994 -1.3582  1.9654
 7630SOL     OW34351   3.561   4.401   2.774 -0.2873  0.0349  0.2999
 7630SOL    HW134352   3.487   4.407   2.715 -0.1762  0.0054  0.1582
 7630SOL    HW234353   3.532   4.324   2.823  0.4410  0.5224  1.5143
 7631SOL     OW34354   1.659   1.257   5.472  0.1300 -0.2787  0.4163
 7631SOL    HW134355   1.572   1.279   5.439  0.0904  1.1281  1.4257
 7631SOL    HW234356   1.638   1.235   5.562  1.2249  0.0589  0.7583
 7632SOL     OW34357   3.714   0.867   3.185  0.5306  0.5645  0.0032
 7632SOL    HW134358   3.664   0.790   3.158 -1.6192  1.3517  1.8041
 7632SOL    HW234359   3.791   0.871   3.127  0.0803  1.5123 -0.5303
 7633SOL     OW34360   3.001   1.515  14.484 -0.3882 -0.0963  0.4587
 7633SOL    HW134361   2.989   1.572  14.408  0.3731  0.1310  0.5079
 7633SOL    HW234362   2.929   1.453  14.470 -0.7579  0.0929  1.5331
 7634SOL     OW34363   4.112   4.192   8.326 -0.3027 -0.0993 -0.0380
 7634SOL    HW134364   4.100   4.097   8.326 -3.0146  0.2421  0.8774
 7634SOL    HW234365   4.108   4.210   8.232 -1.1895  1.9588  0.3927
 7635SOL     OW34366   1.326   1.068   3.812  0.3697 -0.1618 -0.2028
 7635SOL    HW134367   1.277   1.098   3.735 -2.5568  0.6198  1.9529
 7635SOL    HW234368   1.366   1.155   3.820  1.4100 -0.7562  0.9732
 7636SOL     OW34369   3.153   2.427  10.682 -0.8851 -0.2149  0.2937
 7636SOL    HW134370   3.213   2.486  10.727 -1.7997  1.6116 -0.8765
 7636SOL    HW234371   3.074   2.451  10.730  0.2165  1.8508  1.0361
 7637SOL     OW34372   1.354   2.328   4.158  0.1269  0.4759 -0.2159
 7637SOL    HW134373   1.319   2.374   4.234  2.5056 -1.0354  1.8215
 7637SOL    HW234374   1.372   2.408   4.109 -0.2222 -0.2868 -1.5867
 7638SOL     OW34375   1.728   2.631   5.313 -0.1532 -0.2626  0.5559
 7638SOL    HW134376   1.635   2.640   5.336 -0.7585  0.7804 -2.2813
 7638SOL    HW234377   1.728   2.616   5.219 -1.0392  4.3324 -0.1648
 7639SOL     OW34378   1.329   2.846  14.496 -0.3261 -0.1628  0.4458
 7639SOL    HW134379   1.356   2.880  14.410 -1.1619 -0.9754 -0.1474
 7639SOL    HW234380   1.407   2.845  14.550  0.5997  2.4935 -0.8038
 7640SOL     OW34381   3.829   1.823   8.348  0.4012  0.2647 -0.6395
 7640SOL    HW134382   3.846   1.751   8.409 -0.5282  1.3597  0.9179
 7640SOL    HW234383   3.768   1.881   8.394  1.0438 -1.2605  2.1179
 7641SOL     OW34384   1.080   3.869   1.130  0.4666 -0.5560 -0.3491
 7641SOL    HW134385   1.059   3.793   1.185 -0.2074  0.7766  1.2465
 7641SOL    HW234386   1.065   3.829   1.045  0.4789  2.4997 -1.8031
 7642SOL     OW34387   1.771   3.286  12.010 -0.5867 -0.0880 -0.0778
 7642SOL    HW134388   1.756   3.377  11.986  0.8225  0.0211 -0.5375
 7642SOL    HW234389   1.865   3.278  11.993 -0.4397 -1.0513  1.1512
 7643SOL     OW34390   3.772   2.262  16.105 -0.2834 -0.4229  0.8099
 7643SOL    HW134391   3.791   2.193  16.168 -0.9310 -0.3763  1.0582
 7643SOL    HW234392   3.803   2.221  16.024  1.6788 -0.5510  1.6300
 7644SOL     OW34393   4.160   3.308   8.614 -0.1044  0.0476 -0.2089
 7644SOL    HW134394   4.255   3.306   8.624 -0.0484 -0.1423 -0.7797
 7644SOL    HW234395   4.130   3.381   8.668 -2.1171 -1.7289  1.0419
 7645SOL     OW34396   0.985   3.583   6.058 -0.5418 -0.7659  0.7080
 7645SOL    HW134397   0.896   3.596   6.090 -1.4043 -1.3611 -1.4649
 7645SOL    HW234398   1.022   3.584   6.146 -2.2149  1.1438  1.4011
 7646SOL     OW34399   0.607   3.204   7.103 -0.1455 -0.3938  0.1708
 7646SOL    HW134400   0.588   3.296   7.083  0.1625 -0.2819  0.3934
 7646SOL    HW234401   0.519   3.166   7.109 -0.4524  0.2192 -0.4041
 7647SOL     OW34402   4.688   4.277   2.476 -1.3061  0.1527  0.3721
 7647SOL    HW134403   0.040   4.215   2.474 -1.2519  0.2031  0.7495
 7647SOL    HW234404   4.612   4.225   2.449 -0.8290 -0.5402  0.3522
 7648SOL     OW34405   2.065   1.858   7.582 -0.2919  0.3375 -0.6018
 7648SOL    HW134406   2.151   1.816   7.583 -0.4024  0.1225 -0.2304
 7648SOL    HW234407   2.014   1.800   7.526  0.3365  0.1664 -0.9875
 7649SOL     OW34408   2.525   3.082  16.279 -0.3671  0.3224  0.2843
 7649SOL    HW134409   2.517   2.989  16.295  0.2067 -0.0014 -1.2938
 7649SOL    HW234410   2.436   3.118  16.275 -0.5791 -0.3368 -1.0081
 7650SOL     OW34411   3.512   0.002  15.044  0.7176 -0.0618 -0.4926
 7650SOL    HW134412   3.435   0.058  15.058  0.3092 -0.9506  0.8134
 7650SOL    HW234413   3.468   4.658  14.989  0.6460  1.2522 -2.0221
 7651SOL     OW34414   2.515   0.687   5.137 -0.6101  0.4011  0.4728
 7651SOL    HW134415   2.575   0.729   5.199  0.6479 -0.1785 -0.3505
 7651SOL    HW234416   2.501   0.757   5.074  0.8362  0.1698 -0.0955
 7652SOL     OW34417   2.550   2.418   6.202  0.1511 -0.2199 -0.1441
 7652SOL    HW134418   2.640   2.442   6.220  0.1060 -0.7435  0.7362
 7652SOL    HW234419   2.542   2.330   6.238  1.8592 -0.7779 -1.1593
 7653SOL     OW34420   1.756   4.428  11.295 -0.3203  0.1982  0.0615
 7653SOL    HW134421   1.700   4.497  11.330  0.0605  0.4571  0.1680
 7653SOL    HW234422   1.715   4.427  11.209  0.7052 -0.2556 -0.4317
 7654SOL     OW34423   2.661   3.603  10.966 -0.2471 -0.4756  0.0274
 7654SOL    HW134424   2.661   3.669  11.034  0.4292 -0.1277 -0.3101
 7654SOL    HW234425   2.604   3.536  11.003  0.5032 -1.5163 -0.7005
 7655SOL     OW34426   1.183   0.130  14.316  0.2694 -0.5662 -0.0119
 7655SOL    HW134427   1.194   0.071  14.391 -1.5886 -1.1338 -0.1962
 7655SOL    HW234428   1.271   0.167  14.304  0.3095 -0.8547 -0.6186
 7656SOL     OW34429   0.620   4.694   4.863 -0.1334 -0.4070  0.8285
 7656SOL    HW134430   0.639   0.051   4.914 -1.2725 -0.0091  0.6616
 7656SOL    HW234431   0.533   4.707   4.824  0.8641 -1.7514 -1.8564
 7657SOL     OW34432   3.292   0.560   5.401  0.1630  0.6274  0.3884
 7657SOL    HW134433   3.232   0.531   5.332 -1.8609  1.8019  1.6877
 7657SOL    HW234434   3.236   0.569   5.478 -0.5386  1.6761 -0.2503
 7658SOL     OW34435   4.020   1.607   5.986 -0.6949 -0.5501  0.1469
 7658SOL    HW134436   4.049   1.675   6.047 -0.5859 -1.2525  0.8682
 7658SOL    HW234437   3.962   1.655   5.927 -0.5410 -0.7877 -0.1950
 7659SOL     OW34438   0.059   2.653   8.845 -0.1980  0.0710 -0.0280
 7659SOL    HW134439   0.143   2.618   8.813  0.5910 -0.2090  2.3495
 7659SOL    HW234440   0.062   2.633   8.939  0.6790  0.2132 -0.0233
 7660SOL     OW34441   0.066   1.508   7.174  0.4074  0.1720 -0.2639
 7660SOL    HW134442   0.077   1.538   7.084  0.0270 -0.6704 -0.5883
 7660SOL    HW234443   0.040   1.418   7.153 -1.2668  0.4428  0.6552
 7661SOL     OW34444   3.920   2.543  16.214 -0.2259 -0.1434 -0.4012
 7661SOL    HW134445   3.835   2.553  16.255 -0.7219 -1.1911 -1.1644
 7661SOL    HW234446   3.900   2.471  16.154  2.1359 -1.9579  0.9685
 7662SOL     OW34447   1.219   0.317   6.215 -0.4583 -0.0297 -0.0167
 7662SOL    HW134448   1.133   0.359   6.211  0.6083  1.9729 -2.4251
 7662SOL    HW234449   1.183   0.237   6.254  0.1487  0.2697  1.1280
 7663SOL     OW34450   1.014   1.786   1.089 -0.7730  0.1994  0.4613
 7663SOL    HW134451   1.075   1.739   1.032  0.0521  1.1855  0.5355
 7663SOL    HW234452   1.075   1.810   1.159 -0.3642  1.3771 -0.3113
 7664SOL     OW34453   3.252   3.919   5.994 -0.2967 -0.9324 -0.0143
 7664SOL    HW134454   3.178   3.880   5.948 -0.7087  0.6310 -0.7067
 7664SOL    HW234455   3.272   3.851   6.058  0.4540 -0.3087  0.4178
 7665SOL     OW34456   2.009   2.983   6.843  0.3301 -0.0515  0.0109
 7665SOL    HW134457   2.034   3.075   6.840 -1.7798  0.5517  0.9064
 7665SOL    HW234458   2.096   2.945   6.862  0.4623  1.2492  2.0467
 7666SOL     OW34459   0.353   2.573   6.197 -0.5232  0.1666  0.0747
 7666SOL    HW134460   0.274   2.572   6.251 -0.5860 -0.3072 -0.0251
 7666SOL    HW234461   0.369   2.668   6.194 -2.5802  0.4191 -2.7411
 7667SOL     OW34462   2.069   0.764   8.254 -0.4191 -0.3218  0.7592
 7667SOL    HW134463   1.988   0.814   8.256 -0.9730 -1.2560  1.5219
 7667SOL    HW234464   2.121   0.807   8.322 -0.6734  1.7178 -0.3518
 7668SOL     OW34465   2.746   0.632  13.043  0.3159 -0.3467 -0.1410
 7668SOL    HW134466   2.779   0.543  13.033  0.1362 -0.3234 -0.9474
 7668SOL    HW234467   2.802   0.669  13.111  0.1947  2.0702 -1.3548
 7669SOL     OW34468   4.521   3.218   8.135 -0.1464 -0.0306 -0.5154
 7669SOL    HW134469   4.548   3.185   8.221 -0.6128  0.4548 -0.1784
 7669SOL    HW234470   4.607   3.218   8.093  0.7328 -1.9571  1.2923
 7670SOL     OW34471   1.785   2.634   6.029  0.2791 -0.0033 -0.2209
 7670SOL    HW134472   1.704   2.590   6.005 -0.0394  0.4437  0.0256
 7670SOL    HW234473   1.748   2.694   6.094  0.0191  1.2632 -1.5478
 7671SOL     OW34474   1.684   0.115  11.694  0.0480 -0.1717 -0.1848
 7671SOL    HW134475   1.739   0.175  11.744 -1.2989 -0.4952  1.6853
 7671SOL    HW234476   1.615   0.089  11.755  0.1212  1.8330  0.7543
 7672SOL     OW34477   4.636   4.667   4.267  0.5518  0.1767  0.5750
 7672SOL    HW134478   4.577   4.594   4.248 -0.6914  0.7537  2.1260
 7672SOL    HW234479   4.589   0.024   4.237 -0.5861 -0.2903  1.1471
 7673SOL     OW34480   0.166   1.319  10.326 -0.1294 -0.0017  0.1423
 7673SOL    HW134481   0.183   1.328  10.232 -0.8560 -2.6234 -0.2668
 7673SOL    HW234482   0.081   1.274  10.324 -0.2253  0.1623  0.6528
 7674SOL     OW34483   3.546   0.048  14.670  0.6575  0.2613  0.4741
 7674SOL    HW134484   3.521   0.103  14.596  0.3911 -0.0354  0.3436
 7674SOL    HW234485   3.599   0.106  14.725 -1.3930  2.2664  0.3434
 7675SOL     OW34486   0.495   2.860   4.767  0.7975  0.5649 -0.5093
 7675SOL    HW134487   0.493   2.902   4.853  0.7846 -0.4562 -0.0076
 7675SOL    HW234488   0.566   2.910   4.728  1.3331  0.0083 -0.2578
 7676SOL     OW34489   0.350   0.581   8.424  0.3951  0.1641  0.4930
 7676SOL    HW134490   0.335   0.600   8.517  1.0001 -0.5229  0.7411
 7676SOL    HW234491   0.375   0.488   8.426  0.3297  0.1676  1.4758
 7677SOL     OW34492   0.401   1.101   5.756 -0.2704 -0.6007  0.3155
 7677SOL    HW134493   0.313   1.136   5.768 -0.2451 -0.6888  0.7626
 7677SOL    HW234494   0.404   1.013   5.793  0.7230 -0.3608  0.8108
 7678SOL     OW34495   4.523   4.236   0.066 -0.8090 -0.6410  0.1215
 7678SOL    HW134496   4.511   4.165   0.129 -0.3027 -0.8865 -0.0637
 7678SOL    HW234497   4.435   4.265   0.042  0.2059  3.2177  0.8949
 7679SOL     OW34498   1.983   1.487  11.075 -0.3241 -0.0408 -0.4875
 7679SOL    HW134499   2.062   1.438  11.096  0.2534  0.7200 -0.8517
 7679SOL    HW234500   1.936   1.418  11.029  3.2234 -0.7810 -2.9891
 7680SOL     OW34501   4.096   0.467  10.045 -0.3278 -0.2068  0.1960
 7680SOL    HW134502   4.088   0.392  10.104  2.3866  0.7548  1.7761
 7680SOL    HW234503   4.187   0.494  10.053 -0.1218 -1.6476  2.4106
 7681SOL     OW34504   0.008   3.287   6.913 -0.1244  0.0082  0.4288
 7681SOL    HW134505   0.092   3.312   6.873 -0.4622 -0.2452 -0.4455
 7681SOL    HW234506   4.668   3.320   6.847 -1.2280 -3.0023 -0.0384
 7682SOL     OW34507   1.930   3.528  16.326 -0.1745 -0.1610  0.5970
 7682SOL    HW134508   1.940   3.608  16.378  0.0323 -0.4136  0.9474
 7682SOL    HW234509   1.988   3.554  16.255 -0.2847 -0.7717  0.2865
 7683SOL     OW34510   2.536   0.739  10.395 -0.2190 -0.4877  0.3959
 7683SOL    HW134511   2.571   0.795  10.464 -0.1668  0.6076 -0.5166
 7683SOL    HW234512   2.532   0.801  10.322 -2.4951  0.4922  1.3641
 7684SOL     OW34513   3.943   3.518  16.173 -0.5464 -0.3205  0.3706
 7684SOL    HW134514   4.023   3.525  16.121 -1.8031 -2.0607 -1.8194
 7684SOL    HW234515   3.930   3.424  16.183 -0.5167 -0.1894  1.6362
 7685SOL     OW34516   1.293   3.633   4.105 -0.2259 -0.2243 -0.1396
 7685SOL    HW134517   1.364   3.569   4.091 -0.0374  0.1157 -0.7606
 7685SOL    HW234518   1.314   3.677   4.187  1.4616 -1.6988  0.2232
 7686SOL     OW34519   2.388   2.884   5.888 -0.5354  0.3257  0.2247
 7686SOL    HW134520   2.382   2.903   5.794 -2.0108 -0.9592  0.0685
 7686SOL    HW234521   2.300   2.855   5.910  0.1702 -1.0683  1.2401
 7687SOL     OW34522   1.110   3.429   5.694 -0.0412  0.0679 -0.2564
 7687SOL    HW134523   1.167   3.356   5.672  1.5927  0.4686  2.6265
 7687SOL    HW234524   1.177   3.489   5.726  0.9137 -1.2303  0.1671
 7688SOL     OW34525   4.630   4.309   5.287 -0.3600  0.2879  0.0200
 7688SOL    HW134526   4.690   4.292   5.359 -0.7805  0.9915  0.5366
 7688SOL    HW234527   4.654   4.250   5.216  1.1722 -0.1732  0.9215
 7689SOL     OW34528   3.443   3.402   3.777 -0.2534  0.2197 -0.6370
 7689SOL    HW134529   3.470   3.489   3.747  1.9440 -0.6835 -1.3171
 7689SOL    HW234530   3.502   3.351   3.720  1.2363  1.0950  0.1118
 7690SOL     OW34531   1.870   1.037   9.240  0.0138  0.4993  0.5516
 7690SOL    HW134532   1.824   1.119   9.256 -0.5299  0.7926 -2.4997
 7690SOL    HW234533   1.873   1.025   9.145  0.6103 -2.0533  0.8985
 7691SOL     OW34534   3.972   1.223  11.671 -0.5020 -0.0188  0.2973
 7691SOL    HW134535   3.980   1.301  11.617  0.3136  1.1361  2.0584
 7691SOL    HW234536   3.878   1.228  11.687 -0.3846  0.4457  0.8602
 7692SOL     OW34537   4.213   1.860   3.521 -0.4001  0.3844  0.7523
 7692SOL    HW134538   4.179   1.902   3.442 -0.6894 -1.5903 -0.1723
 7692SOL    HW234539   4.307   1.878   3.515 -0.5784  0.5493 -1.8016
 7693SOL     OW34540   3.263   0.909  17.235  0.2020  0.2470 -0.3342
 7693SOL    HW134541   3.300   0.996  17.217 -2.7209  1.5573  0.0231
 7693SOL    HW234542   3.305   0.887  17.317 -0.7564 -0.4396 -0.0282
 7694SOL     OW34543   1.144   2.389   3.255  0.4693  0.4380 -0.1680
 7694SOL    HW134544   1.053   2.401   3.226  0.6020  0.0604 -0.7457
 7694SOL    HW234545   1.156   2.295   3.237  1.0640  0.5175 -0.1625
 7695SOL     OW34546   4.705   1.399  14.194 -0.3427 -0.2558 -0.5126
 7695SOL    HW134547   4.694   1.409  14.099 -0.4372  1.2007 -0.3463
 7695SOL    HW234548   4.673   1.486  14.215  1.2424 -0.5386  3.0580
 7696SOL     OW34549   2.261   3.908  10.734 -0.2799  0.1643  0.2540
 7696SOL    HW134550   2.310   3.886  10.655  0.2722  1.6664  0.1764
 7696SOL    HW234551   2.334   3.916  10.796 -0.3367 -1.5467  0.5233
 7697SOL     OW34552   2.691   1.376   6.861 -0.2405  0.1036 -0.4878
 7697SOL    HW134553   2.659   1.444   6.921 -1.8899 -1.3874  0.2999
 7697SOL    HW234554   2.732   1.426   6.789  2.1570 -1.6056 -0.3006
 7698SOL     OW34555   4.201   1.733   7.046 -0.5060 -0.2981  0.2124
 7698SOL    HW134556   4.244   1.802   6.994  0.5823 -2.2851 -1.5295
 7698SOL    HW234557   4.185   1.797   7.114 -0.0570 -0.2053  0.2343
 7699SOL     OW34558   0.069   2.770   4.019 -0.0251  0.1311  0.5412
 7699SOL    HW134559   0.116   2.713   3.958  0.2053 -0.7915  1.5856
 7699SOL    HW234560   0.013   2.706   4.063 -2.9293  0.6588 -2.3576
 7700SOL     OW34561   2.733   2.715   4.194  0.3765 -0.3927 -0.1092
 7700SOL    HW134562   2.693   2.645   4.142  0.5908 -0.9584  0.4973
 7700SOL    HW234563   2.651   2.757   4.223  0.8617  1.6320 -1.6279
 7701SOL     OW34564   4.305   3.319  15.428 -0.1011 -1.1185 -0.1018
 7701SOL    HW134565   4.370   3.267  15.380  2.2706  0.9926  0.8217
 7701SOL    HW234566   4.255   3.242  15.456 -0.9484  0.0040  1.4646
 7702SOL     OW34567   0.410   1.608   8.137  0.9841  0.0777 -0.2669
 7702SOL    HW134568   0.460   1.676   8.092  0.4326  1.3141  0.9923
 7702SOL    HW234569   0.469   1.589   8.209  0.1974  1.9087  0.8621
 7703SOL     OW34570   4.653   1.653   2.234  0.0184 -0.0047  0.0715
 7703SOL    HW134571   4.615   1.575   2.275  2.6068 -0.6443  1.2678
 7703SOL    HW234572   4.662   1.621   2.144 -1.1048  1.7175 -0.6462
 7704SOL     OW34573   2.819   3.839  10.890  0.0396  0.3328  0.0377
 7704SOL    HW134574   2.863   3.904  10.945 -0.4086  1.8272 -1.3783
 7704SOL    HW234575   2.749   3.820  10.953 -0.9417 -0.1063 -1.1821
 7705SOL     OW34576   0.933   1.307   0.390 -0.2046  0.1400  0.1193
 7705SOL    HW134577   0.945   1.295   0.295 -1.0800  1.3499 -0.1367
 7705SOL    HW234578   0.996   1.248   0.430 -0.3303 -0.4710 -0.5752
 7706SOL     OW34579   1.686   3.442   9.613 -0.0064  0.1575 -0.5886
 7706SOL    HW134580   1.692   3.457   9.707  0.9944  1.0285 -0.8008
 7706SOL    HW234581   1.718   3.522   9.572  1.8327 -0.0091  0.5663
 7707SOL     OW34582   1.321   3.464  12.028 -0.4375  0.2618  0.8230
 7707SOL    HW134583   1.398   3.506  11.991  0.2510 -1.1295  0.6537
 7707SOL    HW234584   1.258   3.483  11.959  0.2307 -0.6950 -0.0691
 7708SOL     OW34585   3.552   4.359   6.181 -0.1003  0.0719  0.2615
 7708SOL    HW134586   3.498   4.424   6.136 -1.5122 -0.7285  0.8102
 7708SOL    HW234587   3.535   4.276   6.136  1.1818  0.5283 -1.0825
 7709SOL     OW34588   2.076   1.185  17.592  0.5210  0.1724  0.0166
 7709SOL    HW134589   2.095   1.279  17.598  1.9565 -0.1952  1.0365
 7709SOL    HW234590   2.030   1.177  17.508 -1.7438  0.0483  1.2604
 7710SOL     OW34591   2.910   2.952  11.033 -0.5093 -0.2657  0.7700
 7710SOL    HW134592   2.977   2.912  10.977 -0.9201 -0.2635  0.2812
 7710SOL    HW234593   2.857   2.993  10.965 -0.5338  0.3364  1.1508
 7711SOL     OW34594   3.631   0.106   6.594  0.2079  0.5226 -0.0306
 7711SOL    HW134595   3.540   0.091   6.620  0.8820 -0.4738  1.7674
 7711SOL    HW234596   3.670   0.119   6.681 -1.5920  0.3968  0.7968
 7712SOL     OW34597   3.447   1.132   9.800 -0.1452 -0.2975 -0.1954
 7712SOL    HW134598   3.379   1.069   9.775  0.3148 -1.7201  2.0263
 7712SOL    HW234599   3.526   1.083   9.774 -1.5886 -3.5899  1.5210
 7713SOL     OW34600   0.118   0.228   8.525  0.0868  0.0484 -0.1875
 7713SOL    HW134601   0.119   0.298   8.590 -0.9750  0.0057 -0.1178
 7713SOL    HW234602   0.049   0.167   8.554  0.8255 -1.1194 -0.8934
 7714SOL     OW34603   2.441   3.304   0.992 -0.5437  0.6658 -0.3030
 7714SOL    HW134604   2.358   3.333   1.030 -1.8473 -1.2659 -1.6884
 7714SOL    HW234605   2.495   3.312   1.071  2.2370 -2.0748 -1.9222
 7715SOL     OW34606   4.342   3.310   7.224 -0.6448 -0.0107  0.6685
 7715SOL    HW134607   4.397   3.260   7.163 -1.5551 -0.7390  0.4413
 7715SOL    HW234608   4.263   3.256   7.220 -0.9954  0.6429 -1.3592
 7716SOL     OW34609   0.029   1.652  12.358 -0.3821  0.0219  0.7736
 7716SOL    HW134610   0.067   1.702  12.430 -1.2570  2.2198 -0.3001
 7716SOL    HW234611   0.007   1.570  12.403 -0.4310 -0.7987 -0.7585
 7717SOL     OW34612   2.756   4.208  15.431 -0.1511  0.2357 -0.3349
 7717SOL    HW134613   2.760   4.181  15.339 -0.4772 -1.2444  0.0771
 7717SOL    HW234614   2.731   4.300  15.429  1.4891  0.6001 -3.6605
 7718SOL     OW34615   0.657   0.288   7.425 -0.1811  0.0867 -0.2072
 7718SOL    HW134616   0.728   0.259   7.368 -0.4324 -1.6118  0.3358
 7718SOL    HW234617   0.684   0.247   7.508  0.1134  1.7283  0.5036
 7719SOL     OW34618   3.998   3.531  15.366  0.2844 -0.5649 -0.5307
 7719SOL    HW134619   4.001   3.586  15.287  3.0417  0.5115  0.3144
 7719SOL    HW234620   3.970   3.594  15.431 -2.6438 -1.8698 -0.5659
 7720SOL     OW34621   1.854   2.950   6.602  0.2859 -0.2983  0.1395
 7720SOL    HW134622   1.909   2.988   6.671  0.0911  1.0177 -0.4444
 7720SOL    HW234623   1.905   2.985   6.529  0.7631  0.0632  0.6418
 7721SOL     OW34624   0.183   2.891   5.640 -0.5077  0.1094  0.0986
 7721SOL    HW134625   0.144   2.863   5.557  0.1817  0.3000 -0.2833
 7721SOL    HW234626   0.191   2.986   5.635  0.5036  0.0737  1.1545
 7722SOL     OW34627   1.015   3.687   1.768 -0.2807 -0.5109 -0.2266
 7722SOL    HW134628   1.005   3.679   1.863 -0.2208 -2.3735 -0.3787
 7722SOL    HW234629   1.100   3.646   1.752 -0.1185 -0.8898  1.6659
 7723SOL     OW34630   0.915   2.437   0.930  0.1866 -0.1214 -0.3660
 7723SOL    HW134631   1.008   2.449   0.908  1.0501 -1.8390  2.3154
 7723SOL    HW234632   0.877   2.368   0.875  0.2258 -0.8252  0.4970
 7724SOL     OW34633   3.872   0.650   2.920  0.2250 -0.3035 -0.0627
 7724SOL    HW134634   3.889   0.599   2.840  1.4480  2.0945 -1.3127
 7724SOL    HW234635   3.914   0.732   2.898 -0.2607 -0.2511 -0.8007
 7725SOL     OW34636   1.689   3.713  15.342 -0.7626 -0.1244  0.3650
 7725SOL    HW134637   1.745   3.640  15.364 -1.2941 -0.7146 -0.2494
 7725SOL    HW234638   1.639   3.719  15.423 -1.4424 -0.7200 -0.0118
 7726SOL     OW34639   1.475   2.949   5.432 -0.4438  0.0212  0.1811
 7726SOL    HW134640   1.394   2.977   5.389 -1.1589 -0.9274  0.9277
 7726SOL    HW234641   1.448   2.989   5.514  0.5448  2.3272 -0.6067
 7727SOL     OW34642   3.694   4.114  16.522 -0.4639  0.0646  0.4697
 7727SOL    HW134643   3.732   4.144  16.439 -0.5144 -3.1893 -0.7093
 7727SOL    HW234644   3.727   4.179  16.585 -0.8807 -1.0128  1.7984
 7728SOL     OW34645   1.901   2.685   9.384 -0.8572 -0.6451 -0.1791
 7728SOL    HW134646   1.912   2.618   9.317  1.6335 -1.2726  0.8620
 7728SOL    HW234647   1.839   2.741   9.338 -0.6457  1.2640  1.8495
 7729SOL     OW34648   2.568   3.673   4.950 -0.4035 -0.5034 -0.4644
 7729SOL    HW134649   2.474   3.687   4.937 -0.4956  1.0196  1.6423
 7729SOL    HW234650   2.561   3.589   4.996  1.0074 -1.0487 -1.2416
 7730SOL     OW34651   0.117   1.562   0.144 -0.2361 -0.2446  0.4867
 7730SOL    HW134652   0.118   1.488   0.205  2.2058  0.4194  1.2250
 7730SOL    HW234653   0.199   1.549   0.096 -0.3691 -1.2948  0.5395
 7731SOL     OW34654   2.603   3.933  17.626 -0.7809 -0.3019  0.5567
 7731SOL    HW134655   2.510   3.945  17.611 -0.1347 -1.3068 -4.3849
 7731SOL    HW234656   2.600   3.844  17.590  0.0561 -0.1897  0.1955
 7732SOL     OW34657   2.913   0.373  12.392  0.0282 -0.6447 -0.2992
 7732SOL    HW134658   2.953   0.349  12.308 -0.3933 -0.5885 -0.5151
 7732SOL    HW234659   2.848   0.436  12.360  2.8312  1.1788 -2.4775
 7733SOL     OW34660   2.801   1.883   3.446  0.3121 -0.4016  0.5809
 7733SOL    HW134661   2.712   1.852   3.430  0.1060 -1.2761  3.3746
 7733SOL    HW234662   2.787   1.977   3.452 -0.1316 -0.4639  0.5242
 7734SOL     OW34663   3.514   3.425   7.427 -0.4159 -0.1173 -0.0212
 7734SOL    HW134664   3.512   3.444   7.521  0.8258 -0.4424  0.0698
 7734SOL    HW234665   3.418   3.422   7.424 -0.3936 -0.3033 -0.5749
 7735SOL     OW34666   0.768   2.131   0.661 -0.5497 -0.0071 -0.5829
 7735SOL    HW134667   0.737   2.195   0.597 -0.9510 -1.1386 -1.5375
 7735SOL    HW234668   0.805   2.057   0.612 -0.6793  0.7272 -1.7978
 7736SOL     OW34669   1.815   4.114   9.163  0.1112 -0.3678  0.1086
 7736SOL    HW134670   1.730   4.070   9.166 -1.0851  1.9298 -0.4781
 7736SOL    HW234671   1.861   4.032   9.182  1.3651 -0.0895 -1.7585
 7737SOL     OW34672   4.594   1.255  11.988 -1.0335  0.3617 -0.0397
 7737SOL    HW134673   4.529   1.306  12.036 -0.3441  1.3593 -0.1736
 7737SOL    HW234674   4.616   1.181  12.045  1.0934 -0.0019 -1.3130
 7738SOL     OW34675   2.484   0.789   2.032  0.1050  0.0097  0.4835
 7738SOL    HW134676   2.444   0.825   2.111  1.9641 -0.5343  1.6819
 7738SOL    HW234677   2.495   0.872   1.986 -0.1067 -1.0606 -1.5172
 7739SOL     OW34678   1.294   3.089   1.173  0.0688  0.2632  0.2334
 7739SOL    HW134679   1.300   3.048   1.087 -1.3455  0.6548 -0.0536
 7739SOL    HW234680   1.385   3.090   1.202  0.2793  0.0759 -0.4226
 7740SOL     OW34681   2.505   1.772   6.133 -0.3380 -0.4502 -0.2169
 7740SOL    HW134682   2.501   1.867   6.136 -0.1025 -0.3440 -3.3502
 7740SOL    HW234683   2.594   1.763   6.099 -1.6714  0.1824 -3.8030
 7741SOL     OW34684   0.575   1.982  13.560 -0.1373 -0.2245 -0.0906
 7741SOL    HW134685   0.514   2.056  13.559 -3.9476 -3.4568 -3.2966
 7741SOL    HW234686   0.535   1.925  13.625  2.5835 -1.0270  0.8979
 7742SOL     OW34687   4.389   2.974   2.725 -0.0933  0.5499 -0.0378
 7742SOL    HW134688   4.331   2.988   2.800 -1.8276  3.7097 -1.9653
 7742SOL    HW234689   4.344   2.988   2.642 -0.5801  1.0410  0.3061
 7743SOL     OW34690   0.445   4.573   5.252  0.5728  0.2357 -0.0729
 7743SOL    HW134691   0.371   4.576   5.312  1.1141 -0.8781  0.6534
 7743SOL    HW234692   0.407   4.554   5.167  0.2564 -1.0961  0.3756
 7744SOL     OW34693   1.161   4.197   0.973 -0.2202  0.3763  0.2358
 7744SOL    HW134694   1.143   4.280   0.928 -1.5839 -0.5799 -1.0049
 7744SOL    HW234695   1.077   4.153   0.961  0.8919 -1.6854 -0.1049
 7745SOL     OW34696   0.470   3.529   7.534  0.1423  0.0236 -0.0681
 7745SOL    HW134697   0.521   3.606   7.507 -0.1158  0.6068  1.0726
 7745SOL    HW234698   0.519   3.499   7.611  0.0993 -0.5677 -0.2779
 7746SOL     OW34699   0.093   3.367   3.265  0.6823  0.6474  0.5540
 7746SOL    HW134700   0.186   3.348   3.253  1.1380  3.6978 -0.8177
 7746SOL    HW234701   0.082   3.333   3.354 -1.0974 -3.3373 -1.1772
 7747SOL     OW34702   0.490   0.152  17.098 -0.1989  0.0187 -0.1933
 7747SOL    HW134703   0.467   0.243  17.119 -0.1580 -0.1905  0.7866
 7747SOL    HW234704   0.582   0.169  17.075 -0.6715  3.2288  0.2566
 7748SOL     OW34705   2.104   1.266   4.672  0.2149 -0.6260 -0.7047
 7748SOL    HW134706   2.057   1.328   4.616  1.4600  1.6112  0.7380
 7748SOL    HW234707   2.086   1.187   4.621  1.5678 -1.8586  0.7307
 7749SOL     OW34708   4.268   0.164   7.445  0.3866 -0.1413  0.1630
 7749SOL    HW134709   4.223   0.108   7.382  0.5367  1.5366 -1.4147
 7749SOL    HW234710   4.261   0.252   7.409 -2.3061  0.5669  2.3603
 7750SOL     OW34711   1.942   1.642   9.308  0.0057 -0.3546  0.0554
 7750SOL    HW134712   1.968   1.685   9.389  1.8651 -1.4655  0.0323
 7750SOL    HW234713   1.960   1.552   9.337 -2.5393 -0.9952 -0.3354
 7751SOL     OW34714   3.699   2.293   5.896 -0.1841 -0.0893  0.2385
 7751SOL    HW134715   3.630   2.358   5.883 -0.3971 -0.3926 -0.1426
 7751SOL    HW234716   3.770   2.314   5.836  2.5689 -3.7331  2.1919
 7752SOL     OW34717   2.451   2.344   8.882  0.1886  0.2165  0.2806
 7752SOL    HW134718   2.486   2.255   8.873  1.1614  0.5733  0.5584
 7752SOL    HW234719   2.476   2.373   8.969  1.7519 -1.9138  0.5554
 7753SOL     OW34720   4.081   1.422   8.903  0.5749 -0.1487 -0.6232
 7753SOL    HW134721   4.072   1.362   8.976 -1.8468  0.8461 -0.1143
 7753SOL    HW234722   3.992   1.457   8.896  0.8233  0.5303 -0.3254
 7754SOL     OW34723   3.000   0.754   5.781  0.3812 -0.2068 -0.5886
 7754SOL    HW134724   2.906   0.735   5.793  0.3160  0.4578 -0.0840
 7754SOL    HW234725   3.031   0.725   5.867 -0.5550 -0.0537 -0.1979
 7755SOL     OW34726   4.139   4.202  16.161  0.2660 -0.1835 -0.2547
 7755SOL    HW134727   4.111   4.228  16.073  0.6145 -0.8527 -0.5617
 7755SOL    HW234728   4.227   4.239  16.157  0.0612  0.4931  1.5183
 7756SOL     OW34729   3.066   2.892   7.254  0.4980  0.4045  0.6378
 7756SOL    HW134730   3.033   2.810   7.216 -0.0331  1.4975 -1.2233
 7756SOL    HW234731   2.993   2.910   7.312  0.1880  0.0676  0.3534
 7757SOL     OW34732   3.025   3.515   5.856 -0.6847 -0.2375  0.2846
 7757SOL    HW134733   3.080   3.447   5.816  0.8755  0.8469  0.5742
 7757SOL    HW234734   2.955   3.508   5.791 -0.5850  1.9156 -0.0846
 7758SOL     OW34735   1.175   1.705   4.157 -0.2876  0.0828  0.3457
 7758SOL    HW134736   1.155   1.782   4.103  1.7391  1.0468  0.9951
 7758SOL    HW234737   1.106   1.647   4.124 -0.8166 -0.1962  1.9423
 7759SOL     OW34738   0.955   1.037   5.833  0.1956  0.0891  0.4311
 7759SOL    HW134739   0.897   0.994   5.896 -1.0743  1.4101  0.1679
 7759SOL    HW234740   0.902   1.107   5.794 -0.0341 -0.9739 -1.1445
 7760SOL     OW34741   2.602   2.255  12.631 -0.0243  0.2940 -0.6761
 7760SOL    HW134742   2.590   2.174  12.680 -0.2561  0.6780 -0.0949
 7760SOL    HW234743   2.665   2.226  12.565  0.3594  3.0759 -1.5780
 7761SOL     OW34744   1.096   2.780   7.320  0.3350 -0.3398 -0.5622
 7761SOL    HW134745   1.157   2.820   7.259 -1.5914  1.2270 -1.4864
 7761SOL    HW234746   1.072   2.706   7.264  0.1629 -0.9893  0.3630
 7762SOL     OW34747   3.408   3.990   4.239  0.4086  0.4106 -0.1965
 7762SOL    HW134748   3.334   4.020   4.187  1.0866 -0.1337 -1.4836
 7762SOL    HW234749   3.492   4.021   4.205  1.5827  0.0338  2.3246
 7763SOL     OW34750   1.353   0.729   3.073 -0.0659  0.3273 -0.0940
 7763SOL    HW134751   1.385   0.776   2.996 -0.7320 -1.0997 -1.2438
 7763SOL    HW234752   1.437   0.720   3.116 -0.7318  0.9673  1.3380
 7764SOL     OW34753   0.999   1.900   4.517  0.9274  0.1070  0.2378
 7764SOL    HW134754   1.089   1.904   4.484  0.9904  2.9598  0.7750
 7764SOL    HW234755   0.958   1.913   4.431  0.2790 -0.3742  0.4734
 7765SOL     OW34756   3.713   2.347   9.471  0.3095  0.5208  0.1643
 7765SOL    HW134757   3.623   2.364   9.499  0.0776 -1.4459  0.6298
 7765SOL    HW234758   3.698   2.312   9.383  1.3523 -0.2934  0.3127
 7766SOL     OW34759   0.745   3.938   6.743 -0.0388  0.3236  0.5576
 7766SOL    HW134760   0.696   3.866   6.704  1.2918 -0.9090  1.1494
 7766SOL    HW234761   0.811   3.954   6.676 -0.2858 -2.3257 -0.3412
 7767SOL     OW34762   2.409   3.893   1.560  0.2672 -0.3758 -0.1495
 7767SOL    HW134763   2.334   3.834   1.567 -0.0690 -0.1639 -1.9465
 7767SOL    HW234764   2.451   3.846   1.488 -0.8710 -1.7203  0.0774
 7768SOL     OW34765   1.572   3.538   8.992 -0.5289 -0.4231  0.1401
 7768SOL    HW134766   1.659   3.518   8.959 -0.0348  3.6939 -1.0446
 7768SOL    HW234767   1.580   3.481   9.068 -0.3159  1.3570  1.4752
 7769SOL     OW34768   0.255   2.062   7.557 -0.3870  0.4176  0.0777
 7769SOL    HW134769   0.163   2.036   7.560 -0.5668  0.7832 -2.5355
 7769SOL    HW234770   0.277   2.053   7.464  0.5016 -0.5193  0.3797
 7770SOL     OW34771   3.097   2.755   7.848 -0.4735 -0.1606 -0.4319
 7770SOL    HW134772   3.055   2.839   7.832  0.2892  0.5372  1.2262
 7770SOL    HW234773   3.168   2.771   7.911 -0.8497 -0.3079  0.0293
 7771SOL     OW34774   3.630   2.591   5.312 -0.0078 -0.2835  0.1719
 7771SOL    HW134775   3.616   2.684   5.294 -2.7160 -0.9866 -1.4561
 7771SOL    HW234776   3.564   2.577   5.380  0.1035 -0.9575  0.1427
 7772SOL     OW34777   3.035   4.085   5.376  0.2739 -0.0054  0.1784
 7772SOL    HW134778   2.940   4.078   5.383  0.2061  1.2705  0.3948
 7772SOL    HW234779   3.055   4.163   5.427  1.0882 -0.7094  0.9273
 7773SOL     OW34780   2.219   2.965   9.245  0.2303  0.0378 -0.7088
 7773SOL    HW134781   2.298   2.912   9.259  1.0265  0.9853 -1.6496
 7773SOL    HW234782   2.182   3.001   9.326 -0.8988 -1.7482 -0.4214
 7774SOL     OW34783   2.933   2.286  15.438  0.1622  0.3111 -0.6974
 7774SOL    HW134784   3.027   2.279  15.455  0.1396 -1.2787 -1.2881
 7774SOL    HW234785   2.894   2.336  15.510 -1.1300 -4.0688  1.6436
 7775SOL     OW34786   2.092   3.239  16.482  0.0079 -0.0248  0.5208
 7775SOL    HW134787   2.019   3.180  16.501  1.6863 -2.5498 -0.7561
 7775SOL    HW234788   2.079   3.303  16.551 -0.6013  0.9885 -0.5288
 7776SOL     OW34789   2.542   4.528   4.249  0.2444  0.3370  0.1391
 7776SOL    HW134790   2.632   4.555   4.228 -0.8283  2.1030 -2.0888
 7776SOL    HW234791   2.504   4.601   4.297  0.2818  2.4335 -3.0167
 7777SOL     OW34792   1.013   1.189   6.422  0.4786  0.0029  0.1503
 7777SOL    HW134793   1.044   1.113   6.374  1.0400  0.9908 -1.0534
 7777SOL    HW234794   0.966   1.227   6.348 -0.8702 -0.3414  0.8206
 7778SOL     OW34795   4.223   3.495   6.298  0.0067 -0.1456 -0.0502
 7778SOL    HW134796   4.274   3.502   6.217  0.5195  2.2023  0.4597
 7778SOL    HW234797   4.203   3.589   6.302 -1.4307 -0.4014 -1.1495
 7779SOL     OW34798   1.195   4.231  11.088  0.0149 -0.2135 -0.1850
 7779SOL    HW134799   1.143   4.291  11.034 -0.5304  0.5600  1.2098
 7779SOL    HW234800   1.212   4.302  11.149  0.2625  0.5489 -1.1369
 7780SOL     OW34801   3.088   0.605  15.125 -0.4246 -0.0508  0.1200
 7780SOL    HW134802   3.038   0.563  15.055 -1.3371  0.9861  0.1653
 7780SOL    HW234803   3.151   0.537  15.151 -0.2688  0.3116  0.6801
 7781SOL     OW34804   0.324   3.467   9.830 -0.0203  0.3489 -0.3970
 7781SOL    HW134805   0.279   3.547   9.803 -0.9063  0.2405  0.7526
 7781SOL    HW234806   0.383   3.500   9.898 -0.2627  2.0803 -1.0287
 7782SOL     OW34807   2.324   3.873   4.087 -0.0313  0.1996 -0.0432
 7782SOL    HW134808   2.390   3.919   4.138 -0.3736 -1.2288  1.6849
 7782SOL    HW234809   2.312   3.937   4.017  0.8205 -0.2697 -0.6182
 7783SOL     OW34810   3.030   3.524   9.075  0.2052  0.0729  0.0084
 7783SOL    HW134811   2.998   3.556   9.160 -1.8827 -1.4292 -0.2100
 7783SOL    HW234812   2.945   3.538   9.033 -0.2791 -2.0923  0.3133
 7784SOL     OW34813   3.274   2.954   9.521  0.5910  1.0994 -0.1367
 7784SOL    HW134814   3.352   2.940   9.576 -1.3560  0.8382  2.5655
 7784SOL    HW234815   3.307   2.935   9.433  0.9194  3.9061 -0.6046
 7785SOL     OW34816   2.015   3.290   1.662 -0.1895 -0.0728  0.2344
 7785SOL    HW134817   2.109   3.278   1.676  0.0587  0.3823 -1.0267
 7785SOL    HW234818   1.994   3.197   1.647 -0.4445 -0.1587  1.1273
 7786SOL     OW34819   2.311   3.677   0.729 -0.4045 -0.2615  0.0291
 7786SOL    HW134820   2.266   3.605   0.685  0.2921  0.1141 -1.2734
 7786SOL    HW234821   2.313   3.750   0.667 -2.3422 -0.6622 -0.4897
 7787SOL     OW34822   4.503   3.662   9.048 -0.1325 -0.2719 -0.0986
 7787SOL    HW134823   4.416   3.698   9.064  0.4096  1.2759 -0.5624
 7787SOL    HW234824   4.539   3.664   9.136  1.2702 -1.3422 -0.6393
 7788SOL     OW34825   0.681   4.361   4.758  0.1441  0.8460  0.3171
 7788SOL    HW134826   0.606   4.383   4.703  0.2918  0.0725 -0.1989
 7788SOL    HW234827   0.685   4.265   4.762  0.9478  1.0099  3.3335
 7789SOL     OW34828   0.622   1.815   1.394 -0.4659 -0.1210  0.4173
 7789SOL    HW134829   0.648   1.770   1.474 -0.8580  1.8399  1.6228
 7789SOL    HW234830   0.704   1.864   1.386 -1.2041  1.0890  0.4178
 7790SOL     OW34831   4.422   3.400   0.037  0.4288 -0.0546  0.0358
 7790SOL    HW134832   4.342   3.348   0.043  0.5209  0.1192  2.6559
 7790SOL    HW234833   4.424   3.455  17.646 -0.1560 -0.3881 -0.2094
 7791SOL     OW34834   4.369   3.408   7.489  0.5689  0.3448 -0.9200
 7791SOL    HW134835   4.348   3.387   7.398 -0.9115  0.9962 -0.7273
 7791SOL    HW234836   4.457   3.376   7.509  1.1092  2.6668  0.2915
 7792SOL     OW34837   2.635   2.745  14.054  0.1959  0.3790  0.2350
 7792SOL    HW134838   2.711   2.751  13.996  1.5616  0.3316  2.0320
 7792SOL    HW234839   2.665   2.779  14.138  1.0407  2.0887 -0.7613
 7793SOL     OW34840   4.372   2.368   4.791 -0.1375 -0.0864 -0.2797
 7793SOL    HW134841   4.342   2.377   4.881  2.3186 -1.7044  0.6723
 7793SOL    HW234842   4.465   2.388   4.801 -1.1734  2.3062  4.5693
 7794SOL     OW34843   3.665   0.989  14.162  0.2926  0.0348  0.1877
 7794SOL    HW134844   3.626   0.992  14.249 -0.2636 -0.6880 -0.0292
 7794SOL    HW234845   3.607   1.040  14.104  1.1035 -1.9384 -2.3947
 7795SOL     OW34846   2.765   2.216  16.323  0.1661  0.6454  0.1386
 7795SOL    HW134847   2.673   2.197  16.302  0.8301 -0.1918 -2.0852
 7795SOL    HW234848   2.766   2.209  16.418  1.5038  1.9981  0.2167
 7796SOL     OW34849   3.403   4.640   5.647  0.2474 -0.1484 -0.1119
 7796SOL    HW134850   3.469   4.685   5.595  0.4515 -1.7083 -1.1958
 7796SOL    HW234851   3.333   4.705   5.640  0.5291  0.0800 -0.8073
 7797SOL     OW34852   1.755   3.510   7.498  0.9326  0.3587 -0.0427
 7797SOL    HW134853   1.744   3.569   7.573 -0.0242  0.7899 -0.5257
 7797SOL    HW234854   1.837   3.467   7.522 -0.3590 -1.8930  0.2687
 7798SOL     OW34855   2.952   4.562   9.284 -0.6977 -0.1267 -0.4303
 7798SOL    HW134856   3.039   4.530   9.310 -1.0813 -1.2374 -0.5209
 7798SOL    HW234857   2.913   4.587   9.368  0.6597 -4.2612  1.4482
 7799SOL     OW34858   2.431   0.621   3.803 -0.2066  0.6389 -0.4132
 7799SOL    HW134859   2.371   0.658   3.868 -0.2394 -1.5538  0.8173
 7799SOL    HW234860   2.366   0.597   3.737 -0.4674  0.7956 -0.2162
 7800SOL     OW34861   2.442   3.403   2.328  0.2904 -0.4587  0.0093
 7800SOL    HW134862   2.408   3.446   2.250  1.0717  1.9471  0.9999
 7800SOL    HW234863   2.517   3.461   2.343 -1.4027  1.7540 -0.1764
 7801SOL     OW34864   3.841   0.990  13.930  0.5237  0.6519  0.4275
 7801SOL    HW134865   3.786   1.018  14.004 -0.7205  0.6859 -0.5119
 7801SOL    HW234866   3.779   0.998  13.858  0.4908  0.7164  0.4621
 7802SOL     OW34867   3.061   3.660   7.046 -0.5399  0.0276  0.4005
 7802SOL    HW134868   3.068   3.739   6.991 -1.0155  0.2321  0.6324
 7802SOL    HW234869   3.150   3.629   7.057  0.5009  2.3699 -1.4698
 7803SOL     OW34870   1.347   4.141   7.669  0.6657  0.3071 -0.6306
 7803SOL    HW134871   1.267   4.169   7.623 -1.4408 -0.8412  2.3402
 7803SOL    HW234872   1.399   4.219   7.650  4.2759 -1.6701  1.2339
 7804SOL     OW34873   3.005   2.093   9.366 -0.3521 -0.0454  0.3725
 7804SOL    HW134874   2.947   2.019   9.348 -2.7718  1.3305  2.4205
 7804SOL    HW234875   2.956   2.134   9.438 -1.1033  0.6996 -0.5659
 7805SOL     OW34876   0.901   3.303   7.402 -0.1352 -0.1756  0.4612
 7805SOL    HW134877   0.969   3.365   7.429  0.8790 -1.3081  0.5061
 7805SOL    HW234878   0.833   3.365   7.374  0.6668  0.2273 -0.5937
 7806SOL     OW34879   0.903   4.173  10.222  0.0956  0.1894  0.6184
 7806SOL    HW134880   0.931   4.112  10.154 -0.4788 -0.5559  1.0553
 7806SOL    HW234881   0.810   4.185  10.205  0.2048  1.7635  1.1270
 7807SOL     OW34882   1.123   2.667   9.674 -0.0444  0.0880 -0.3331
 7807SOL    HW134883   1.131   2.573   9.691 -0.5627 -0.0546 -0.8383
 7807SOL    HW234884   1.104   2.692   9.764  0.6178  1.2082 -0.5004
 7808SOL     OW34885   4.526   0.423   4.730  0.2026 -0.1878 -0.2645
 7808SOL    HW134886   4.495   0.374   4.807 -0.0912  1.6297  0.7540
 7808SOL    HW234887   4.451   0.427   4.671 -1.2820  0.6079  1.6802
 7809SOL     OW34888   2.340   4.241   2.604 -0.2508 -0.5590 -0.0547
 7809SOL    HW134889   2.387   4.159   2.591  0.3091 -0.6056  2.3538
 7809SOL    HW234890   2.333   4.259   2.510  1.4231  1.7070  0.2682
 7810SOL     OW34891   1.633   0.481   8.650  0.1717  0.6864  0.6199
 7810SOL    HW134892   1.605   0.395   8.683  1.4316 -0.2197 -0.6346
 7810SOL    HW234893   1.684   0.447   8.576  2.3945  1.4390  1.8052
 7811SOL     OW34894   3.292   4.226   5.514 -0.4881 -0.0340 -0.4506
 7811SOL    HW134895   3.208   4.272   5.516 -0.3506  0.2167 -0.3212
 7811SOL    HW234896   3.342   4.283   5.456 -0.1210 -1.7711 -1.8302
 7812SOL     OW34897   4.348   2.714   7.690 -0.1479  0.0504  0.0331
 7812SOL    HW134898   4.333   2.665   7.609 -0.4134 -0.6891  0.5213
 7812SOL    HW234899   4.391   2.789   7.651  0.2135  0.5243  1.3400
 7813SOL     OW34900   2.825   0.056  12.326  0.1049  0.7348  0.3173
 7813SOL    HW134901   2.912   0.045  12.288  0.9880  1.6860  2.0818
 7813SOL    HW234902   2.780   0.112  12.262 -0.3079 -0.1503 -0.1582
 7814SOL     OW34903   0.224   2.177   4.180  0.4845 -0.0900  0.1508
 7814SOL    HW134904   0.185   2.264   4.183  0.9005  0.1401 -1.5223
 7814SOL    HW234905   0.214   2.155   4.087  1.1294  0.8339 -0.1265
 7815SOL     OW34906   0.535   0.154   3.307 -0.4066  0.3323  0.3144
 7815SOL    HW134907   0.516   0.093   3.235  1.5556  1.2313 -0.9859
 7815SOL    HW234908   0.452   0.195   3.329 -0.9329 -0.6407  0.1597
 7816SOL     OW34909   0.469   3.654   9.517  0.1131  0.1176 -0.2388
 7816SOL    HW134910   0.401   3.720   9.503  0.9181  1.1489  0.7635
 7816SOL    HW234911   0.411   3.581   9.492 -0.2910  0.0217  0.9878
 7817SOL     OW34912   3.144   4.628   0.090  0.0463  0.1265 -0.0284
 7817SOL    HW134913   3.191   4.584   0.019  0.6891  0.3029  0.2905
 7817SOL    HW234914   3.160   4.567   0.162 -0.7595  1.1277  0.9980
 7818SOL     OW34915   4.256   0.030   6.017  0.5880 -0.1218 -0.4836
 7818SOL    HW134916   4.265   0.116   5.976  2.1582 -0.2979 -0.5266
 7818SOL    HW234917   4.162   0.010   6.015  0.2588  1.2555  1.1316
 7819SOL     OW34918   1.591   3.891   0.845  0.3368  0.7642 -0.5377
 7819SOL    HW134919   1.591   3.937   0.762  0.3400  0.1062 -0.9047
 7819SOL    HW234920   1.500   3.901   0.874  0.6177  1.7974 -0.0036
 7820SOL     OW34921   0.503   4.568   8.694 -0.0366  0.5107 -0.1713
 7820SOL    HW134922   0.477   4.477   8.680 -2.0934  1.2363 -1.0660
 7820SOL    HW234923   0.529   4.581   8.785  1.0259  0.0490 -0.4031
 7821SOL     OW34924   1.081   2.191   5.303  0.2055  0.6406  0.2195
 7821SOL    HW134925   1.106   2.283   5.313 -2.0714  1.2701  0.1308
 7821SOL    HW234926   1.103   2.179   5.210  1.4999 -0.2187  0.6302
 7822SOL     OW34927   4.546   3.213   1.138 -0.6270 -0.3584  0.2143
 7822SOL    HW134928   4.605   3.139   1.150  1.2209  1.3772  1.8886
 7822SOL    HW234929   4.518   3.183   1.051  0.4887 -0.7878 -0.0009
 7823SOL     OW34930   4.392   2.743   7.977 -0.2556  0.0017 -0.5539
 7823SOL    HW134931   4.367   2.761   7.886 -0.0052 -5.6540 -1.7349
 7823SOL    HW234932   4.324   2.791   8.026 -0.1112 -0.6476  0.2860
 7824SOL     OW34933   2.904   2.431  12.830 -0.3886 -0.0345 -0.5136
 7824SOL    HW134934   2.965   2.433  12.904 -1.3797  0.0849  0.3028
 7824SOL    HW234935   2.879   2.523  12.823  0.8003  0.2462 -1.0692
 7825SOL     OW34936   4.448   2.833  16.548  0.3308 -0.4808 -0.2462
 7825SOL    HW134937   4.386   2.865  16.613  2.4352 -0.0678  1.5512
 7825SOL    HW234938   4.428   2.892  16.475 -0.9423  0.4174  0.8428
 7826SOL     OW34939   3.494   0.687   1.389 -0.4322 -0.0163  0.1783
 7826SOL    HW134940   3.576   0.648   1.419 -1.1826 -1.0225  0.9038
 7826SOL    HW234941   3.490   0.767   1.442  0.2522 -0.0366  0.2650
 7827SOL     OW34942   4.606   3.015   3.550  0.8102  0.4342 -0.3169
 7827SOL    HW134943   4.563   3.033   3.466  0.8883  1.9475 -0.0318
 7827SOL    HW234944   4.695   3.048   3.535  0.6463  1.5537  1.2290
 7828SOL     OW34945   0.068   3.303  11.492 -0.4583  0.3022  0.2097
 7828SOL    HW134946   0.056   3.346  11.577  2.7392 -0.0051  0.8419
 7828SOL    HW234947   0.098   3.220  11.529 -1.3573 -0.1611 -0.1137
 7829SOL     OW34948   1.456   4.097   7.984  0.9971 -0.1372 -0.2184
 7829SOL    HW134949   1.551   4.083   7.980  1.1998  1.4293 -0.9396
 7829SOL    HW234950   1.435   4.118   7.893  0.1292  0.9189  0.2361
 7830SOL     OW34951   3.311   3.617   0.556  0.0019  0.3628  0.3026
 7830SOL    HW134952   3.390   3.601   0.607  0.2331 -0.4536 -0.3122
 7830SOL    HW234953   3.304   3.547   0.490 -0.7488  1.1323 -0.4441
 7831SOL     OW34954   4.233   1.711   6.531 -0.2078  0.1960 -1.1986
 7831SOL    HW134955   4.289   1.767   6.586  0.4604 -2.3175  0.7127
 7831SOL    HW234956   4.269   1.626   6.557 -0.7251 -0.4711 -2.6460
 7832SOL     OW34957   1.072   0.260  11.746 -0.0969  0.2889 -0.5729
 7832SOL    HW134958   1.026   0.205  11.682 -2.1307 -1.5704  2.4892
 7832SOL    HW234959   1.016   0.262  11.824 -1.5734  1.4707 -1.6520
 7833SOL     OW34960   0.959   2.795   6.693  0.7086  0.2796 -0.0018
 7833SOL    HW134961   1.002   2.824   6.612  1.9822 -0.6158  0.3383
 7833SOL    HW234962   1.026   2.810   6.759 -0.1352  3.6987  0.0827
 7834SOL     OW34963   2.795   0.023  17.683 -0.4016 -0.0758 -0.3794
 7834SOL    HW134964   2.775   0.026   0.089 -0.5506 -1.8872 -0.3593
 7834SOL    HW234965   2.818   4.652  17.675  2.5273  0.8360 -2.5617
 7835SOL     OW34966   2.665   1.009   8.213  0.4090 -0.4457 -0.4683
 7835SOL    HW134967   2.741   0.954   8.194  1.5495  0.4244  1.5504
 7835SOL    HW234968   2.703   1.096   8.225 -0.7626  0.0069  0.0247
 7836SOL     OW34969   1.271   4.691  10.535  0.3095 -0.1907 -0.3866
 7836SOL    HW134970   1.232   0.032  10.597  1.7902 -2.3357  2.6937
 7836SOL    HW234971   1.193   4.674  10.482 -1.2100  1.2186  1.4328
 7837SOL     OW34972   2.953   3.936   0.561 -0.6173 -0.0029 -0.1246
 7837SOL    HW134973   2.865   3.918   0.528 -0.5923 -0.5787  0.1103
 7837SOL    HW234974   2.992   3.850   0.550 -0.2909  0.1070  0.1933
 7838SOL     OW34975   4.015   0.699   7.689  0.2926  0.1849  0.1243
 7838SOL    HW134976   4.058   0.662   7.767  1.1848  1.5161  0.2670
 7838SOL    HW234977   3.987   0.785   7.721  0.2598  0.4770 -0.6911
 7839SOL     OW34978   0.388   3.915   3.773  0.3728  0.3142 -0.1431
 7839SOL    HW134979   0.311   3.858   3.770 -1.3734  2.5623  1.4469
 7839SOL    HW234980   0.429   3.851   3.830 -0.8043 -0.5219 -0.2283
 7840SOL     OW34981   2.807   3.306   2.263 -0.3087  0.2284 -0.2483
 7840SOL    HW134982   2.790   3.301   2.357 -1.5161  0.0339 -0.4876
 7840SOL    HW234983   2.794   3.212   2.251  1.2206  0.1052 -1.0586
 7841SOL     OW34984   2.835   4.236   8.701  0.1031 -0.3095  0.1102
 7841SOL    HW134985   2.785   4.261   8.779  1.6153  0.8131  0.7049
 7841SOL    HW234986   2.780   4.279   8.635  0.0518  0.0611  0.3952
 7842SOL     OW34987   2.159   2.378   5.380 -0.2345  0.1290 -0.4360
 7842SOL    HW134988   2.135   2.460   5.423 -0.6914  0.5287 -1.4757
 7842SOL    HW234989   2.250   2.367   5.411 -0.0359  0.2321 -0.9881
 7843SOL     OW34990   1.523   0.496   5.356  0.1156 -0.3322  0.0824
 7843SOL    HW134991   1.520   0.417   5.302 -0.7760  0.1409 -0.5515
 7843SOL    HW234992   1.430   0.506   5.373  0.3607 -0.2074  1.4192
 7844SOL     OW34993   2.211   4.716   5.860  0.5662  0.7867  0.5110
 7844SOL    HW134994   2.148   0.064   5.881  1.3094  1.0275  1.9682
 7844SOL    HW234995   2.160   4.639   5.885 -0.1042  0.5011 -1.7466
 7845SOL     OW34996   2.660   0.310  15.137  0.0839  0.2575  0.0405
 7845SOL    HW134997   2.594   0.252  15.099 -0.6152 -0.0524  1.7316
 7845SOL    HW234998   2.700   0.344  15.057  0.9370 -1.0475 -0.0769
 7846SOL     OW34999   4.333   2.262   8.541 -0.5577  1.0972 -0.2870
 7846SOL    HW135000   4.256   2.247   8.487  0.6109  0.3405 -1.7638
 7846SOL    HW235001   4.380   2.181   8.519  0.8378  1.4673  1.3478
 7847SOL     OW35002   0.965   4.633  11.171  0.4453 -0.5922 -0.0747
 7847SOL    HW135003   0.931   4.640  11.082 -0.1751 -2.7848 -0.0054
 7847SOL    HW235004   0.964   0.004  11.198  0.0957 -0.4718 -0.4980
 7848SOL     OW35005   2.056   3.941   2.440  0.2002  0.3150  0.2410
 7848SOL    HW135006   2.059   3.879   2.513 -2.1068  0.2868  0.3204
 7848SOL    HW235007   1.971   3.980   2.463 -0.5128 -2.2636  1.9721
 7849SOL     OW35008   3.792   2.685  15.930 -0.5088 -0.4378  0.0691
 7849SOL    HW135009   3.767   2.729  15.848 -0.7886  1.3358  1.1049
 7849SOL    HW235010   3.869   2.637  15.902 -1.0753 -1.4685  0.2819
 7850SOL     OW35011   0.843   2.391  15.889 -0.4808 -0.5131  0.5978
 7850SOL    HW135012   0.778   2.398  15.959  1.6272  1.4906  2.3781
 7850SOL    HW235013   0.889   2.310  15.911 -3.1187 -2.0890  0.2785
 7851SOL     OW35014   4.318   3.957   5.533  0.2989  0.5953  0.2233
 7851SOL    HW135015   4.316   4.014   5.456 -0.3566  2.4678  1.6265
 7851SOL    HW235016   4.248   3.998   5.584 -0.2362  0.0442 -0.0712
 7852SOL     OW35017   0.705   0.532   0.168  0.2408 -0.1915  0.7141
 7852SOL    HW135018   0.748   0.546   0.252  1.8178  1.1951 -0.3284
 7852SOL    HW235019   0.617   0.562   0.191 -0.3790 -1.5116  0.0500
 7853SOL     OW35020   1.821   4.108   7.422 -0.1068 -0.5424  0.2760
 7853SOL    HW135021   1.915   4.124   7.414  0.1525 -0.6723  2.9883
 7853SOL    HW235022   1.828   4.034   7.481 -0.3269 -0.9733 -0.2392
 7854SOL     OW35023   0.045   0.735   1.407  0.0382  0.7661 -0.2523
 7854SOL    HW135024   0.090   0.810   1.446  1.6473  0.0698 -0.7936
 7854SOL    HW235025   0.033   0.767   1.317 -2.7559 -0.3137 -0.2643
 7855SOL     OW35026   0.214   2.548  13.732 -0.1732  0.3760  0.3719
 7855SOL    HW135027   0.193   2.637  13.760  0.1262  1.1790 -1.9655
 7855SOL    HW235028   0.167   2.505  13.804  1.3629 -0.0629  1.1161
 7856SOL     OW35029   2.103   0.443   7.523  0.0707 -0.0186 -0.4466
 7856SOL    HW135030   2.034   0.506   7.542 -0.2841 -0.6302  0.3202
 7856SOL    HW235031   2.087   0.399   7.607  3.5018  1.2009  0.8786
 7857SOL     OW35032   0.805   0.121   6.851 -0.1256 -0.3832 -0.8535
 7857SOL    HW135033   0.719   0.152   6.823 -0.8568 -1.2405  0.4640
 7857SOL    HW235034   0.869   0.192   6.845 -0.2975 -0.1629 -0.0292
 7858SOL     OW35035   1.916   1.681   6.197 -0.5065 -0.0420  0.2357
 7858SOL    HW135036   1.959   1.684   6.283  1.0533 -3.0471 -0.4471
 7858SOL    HW235037   1.833   1.645   6.228  0.3793  0.4095  3.1358
 7859SOL     OW35038   2.537   3.112   2.053  0.6220 -0.0603 -0.1974
 7859SOL    HW135039   2.516   3.080   2.140  0.0054 -0.1719 -0.3849
 7859SOL    HW235040   2.592   3.045   2.011  1.6269  1.1160 -0.7402
 7860SOL     OW35041   2.176   3.415   8.675 -0.3741 -0.0823  0.2089
 7860SOL    HW135042   2.157   3.500   8.635 -0.7175 -0.0781  0.3739
 7860SOL    HW235043   2.228   3.434   8.753 -2.7908  0.6594  1.6427
 7861SOL     OW35044   2.754   3.019  11.635  0.0106  0.5227 -0.0394
 7861SOL    HW135045   2.795   3.083  11.577  0.0029 -0.5473 -1.2480
 7861SOL    HW235046   2.803   3.030  11.716 -1.3576 -1.3682  1.0559
 7862SOL     OW35047   3.185   0.169  16.588  0.3601 -0.1879  0.0666
 7862SOL    HW135048   3.154   0.148  16.500 -0.5208  0.4282  0.2245
 7862SOL    HW235049   3.176   0.264  16.596  2.5844  0.0131  0.2293
 7863SOL     OW35050   3.435   0.659   3.429 -0.1186  0.1349  0.5949
 7863SOL    HW135051   3.359   0.627   3.381 -0.9505  1.3468  1.0982
 7863SOL    HW235052   3.469   0.724   3.368  0.5147 -0.7111  0.0346
 7864SOL     OW35053   2.864   4.196   1.119  0.0160 -0.0134  0.8497
 7864SOL    HW135054   2.819   4.184   1.203 -0.0579 -2.2405  0.5015
 7864SOL    HW235055   2.921   4.119   1.124  0.2033  0.0763  0.1174
 7865SOL     OW35056   2.841   4.307   8.212  0.5152 -0.2992 -0.1065
 7865SOL    HW135057   2.819   4.235   8.272  1.7414 -0.5142  0.0943
 7865SOL    HW235058   2.937   4.307   8.216  0.6670  2.5326 -3.5109
 7866SOL     OW35059   1.144   3.783   8.188 -0.1141 -0.0668 -0.6423
 7866SOL    HW135060   1.126   3.761   8.279  2.6444 -0.4801 -0.1826
 7866SOL    HW235061   1.145   3.694   8.154 -1.6509  0.0641 -1.0440
 7867SOL     OW35062   1.111   1.366   0.748 -0.5206  0.3400 -0.4157
 7867SOL    HW135063   1.047   1.353   0.818  1.4132  1.3827  1.5661
 7867SOL    HW235064   1.144   1.279   0.726  2.3901  0.9281  1.6384
 7868SOL     OW35065   3.608   3.230   1.817  0.2371  0.3188  0.0821
 7868SOL    HW135066   3.623   3.321   1.790 -0.8886  0.8444  1.2045
 7868SOL    HW235067   3.674   3.183   1.766 -0.1066  0.4934 -0.5251
 7869SOL     OW35068   1.034   4.440   1.653 -0.0987  0.3715 -0.5137
 7869SOL    HW135069   1.115   4.471   1.692 -0.2806  0.7957 -0.4764
 7869SOL    HW235070   1.059   4.347   1.649 -0.9211  0.2121 -2.0864
 7870SOL     OW35071   4.122   0.062   7.217 -0.1100  0.0285 -0.7545
 7870SOL    HW135072   4.137   0.070   7.122  0.0457  1.9420 -0.5729
 7870SOL    HW235073   4.036   0.020   7.216  1.1062 -2.4778  0.8481
 7871SOL     OW35074   1.655   4.459  10.349 -0.1071 -0.0542 -0.0363
 7871SOL    HW135075   1.733   4.446  10.403  1.1026  1.7324 -1.3626
 7871SOL    HW235076   1.680   4.400  10.279  0.7459 -1.0229  1.0918
 7872SOL     OW35077   1.554   1.588   9.416 -0.3748 -0.2267 -0.1673
 7872SOL    HW135078   1.483   1.524   9.425 -0.4690 -0.0533  0.3782
 7872SOL    HW235079   1.501   1.667   9.401 -1.5059 -1.0388 -0.4608
 7873SOL     OW35080   0.471   3.424  11.335 -0.7303  0.1354 -0.2743
 7873SOL    HW135081   0.499   3.514  11.318  0.0891  0.2770  1.8219
 7873SOL    HW235082   0.553   3.378  11.314 -0.8291  0.2732 -0.9770
 7874SOL     OW35083   2.980   0.867   2.694 -1.1091 -0.4634  0.1240
 7874SOL    HW135084   2.989   0.953   2.651 -1.8036 -0.4022  0.1016
 7874SOL    HW235085   2.942   0.819   2.621  0.4937  0.2251 -1.1822
 7875SOL     OW35086   2.083   2.748   5.845 -0.0632 -0.0702  0.9832
 7875SOL    HW135087   2.130   2.775   5.924  1.9436  1.5020 -0.7563
 7875SOL    HW235088   2.077   2.653   5.851  1.4918 -0.0371  2.8502
 7876SOL     OW35089   3.902   4.186   7.470  0.4669 -0.2414  0.0318
 7876SOL    HW135090   3.855   4.227   7.398 -3.5351 -0.3697  2.5729
 7876SOL    HW235091   3.922   4.108   7.419  0.8301 -0.6444  0.7933
 7877SOL     OW35092   3.153   3.745   8.395 -0.3118 -0.7027  0.3002
 7877SOL    HW135093   3.168   3.687   8.469  0.5262 -1.2017 -0.2557
 7877SOL    HW235094   3.058   3.751   8.384 -0.1170  2.0201 -0.0583
 7878SOL     OW35095   2.029   0.764   0.657  0.7510  0.7167  0.5055
 7878SOL    HW135096   2.041   0.740   0.565  2.7051  1.2426  0.6275
 7878SOL    HW235097   2.110   0.719   0.679 -1.5478 -2.4867  2.3774
 7879SOL     OW35098   4.150   3.835   7.968 -0.6454 -0.1917  0.3254
 7879SOL    HW135099   4.102   3.757   7.939 -0.0243  0.2157 -1.8162
 7879SOL    HW235100   4.125   3.892   7.895  2.1656  4.2906  2.8920
 7880SOL     OW35101   1.307   2.938   0.933 -0.3406  0.2788  0.0425
 7880SOL    HW135102   1.330   2.870   0.870  0.5036  1.2999 -0.7727
 7880SOL    HW235103   1.212   2.945   0.924 -0.4603 -0.2626  0.8904
 7881SOL     OW35104   2.749   2.027   7.014 -0.3040  0.0304 -0.2594
 7881SOL    HW135105   2.725   2.113   6.979  0.2748  0.5817  0.7004
 7881SOL    HW235106   2.845   2.030   7.021 -0.2904  2.0227 -1.2015
 7882SOL     OW35107   4.475   0.242  12.002 -0.0413 -0.7849  0.1816
 7882SOL    HW135108   4.398   0.193  11.974  0.8319 -1.6590 -0.6891
 7882SOL    HW235109   4.486   0.217  12.093 -0.6621  0.3559  0.5691
 7883SOL     OW35110   3.187   4.612   9.821 -0.1836 -0.3323  0.1785
 7883SOL    HW135111   3.166   4.582   9.910 -2.6063 -2.7088 -1.1730
 7883SOL    HW235112   3.118   4.678   9.818 -0.1079 -0.1826  1.4086
 7884SOL     OW35113   2.942   1.458   9.069 -0.2779 -0.0432 -0.1417
 7884SOL    HW135114   2.888   1.385   9.097  0.7456 -0.6183  0.3489
 7884SOL    HW235115   3.032   1.427   9.060  0.5141  2.2928 -0.4249
 7885SOL     OW35116   0.751   0.140  13.934 -0.0068 -0.5425  0.4769
 7885SOL    HW135117   0.760   0.048  13.908  0.0360 -0.4037 -0.0037
 7885SOL    HW235118   0.746   0.136  14.029  0.6029 -0.0475  0.5344
 7886SOL     OW35119   0.419   1.731   2.352 -0.1648  0.3033 -0.8489
 7886SOL    HW135120   0.351   1.733   2.284  0.0684 -2.9850 -1.1835
 7886SOL    HW235121   0.497   1.700   2.305  0.2489 -2.0907  1.4189
 7887SOL     OW35122   4.529   3.784  16.898 -0.4943  0.1466 -0.2804
 7887SOL    HW135123   4.444   3.744  16.884 -0.2427 -0.6722  0.6170
 7887SOL    HW235124   4.555   3.717  16.961 -2.5270 -1.3555 -1.0583
 7888SOL     OW35125   0.033   0.886   3.906  0.0108 -0.2789  0.0778
 7888SOL    HW135126   0.069   0.797   3.905  1.1403  0.1877 -0.1882
 7888SOL    HW235127   0.109   0.943   3.916 -1.2625  1.5384 -0.6727
 7889SOL     OW35128   4.335   1.306   3.893 -0.0556 -0.6632  0.1653
 7889SOL    HW135129   4.298   1.357   3.821  0.1700  0.7631  1.0593
 7889SOL    HW235130   4.428   1.310   3.869 -0.1536 -1.4368 -0.3340
 7890SOL     OW35131   2.302   2.358   0.745 -0.2785  0.4159  0.0709
 7890SOL    HW135132   2.257   2.302   0.681  1.6686 -0.6032 -0.3790
 7890SOL    HW235133   2.380   2.390   0.701 -2.0183  3.0066 -1.1105
 7891SOL     OW35134   0.283   3.454   3.716  0.5110  0.1296  0.1600
 7891SOL    HW135135   0.213   3.414   3.768  1.0628  1.3490  1.8425
 7891SOL    HW235136   0.356   3.393   3.728 -0.3903 -0.7839  1.0281
 7892SOL     OW35137   1.963   2.973   2.559 -0.0702 -0.4975 -0.3158
 7892SOL    HW135138   1.907   3.044   2.589  0.5011  0.0181 -0.4747
 7892SOL    HW235139   2.022   3.009   2.493 -0.0824 -0.8521 -0.5175
 7893SOL     OW35140   1.435   3.235   1.487 -0.4979 -0.0484 -0.1981
 7893SOL    HW135141   1.500   3.165   1.493  0.0122  0.2180 -2.4929
 7893SOL    HW235142   1.496   3.306   1.506 -1.8956  1.0810  0.1318
 7894SOL     OW35143   0.130   0.958   6.051 -0.6848 -0.4069  0.3712
 7894SOL    HW135144   0.182   0.930   5.975 -1.4478  0.1885 -0.3722
 7894SOL    HW235145   0.191   0.939   6.123 -1.1195  0.6014  1.0058
 7895SOL     OW35146   3.641   4.335   4.519 -0.1741 -0.3640 -0.1880
 7895SOL    HW135147   3.702   4.299   4.583  0.1588  1.0685  0.3016
 7895SOL    HW235148   3.596   4.256   4.487 -2.3477  1.4225 -1.5945
 7896SOL     OW35149   3.793   4.550   8.249 -0.1926 -0.6160 -0.4300
 7896SOL    HW135150   3.793   4.632   8.297  0.7196 -0.9693  0.1751
 7896SOL    HW235151   3.703   4.518   8.255 -0.8146  0.8510 -2.0357
 7897SOL     OW35152   3.528   0.559   6.981 -0.6181  0.7222  0.0309
 7897SOL    HW135153   3.532   0.494   6.911  1.5318  1.9334 -0.9613
 7897SOL    HW235154   3.471   0.510   7.040 -0.7865 -0.0607 -0.7774
 7898SOL     OW35155   1.302   0.050   8.389  0.2809 -0.9458  0.0438
 7898SOL    HW135156   1.207   0.059   8.391  0.3486 -0.3903  0.8716
 7898SOL    HW235157   1.301   4.683   8.351 -0.6620 -1.3046  0.8901
 7899SOL     OW35158   2.231   3.645   6.039 -0.2634 -0.0524  0.3823
 7899SOL    HW135159   2.319   3.682   6.041 -0.2765  0.0068 -0.3015
 7899SOL    HW235160   2.182   3.727   6.025 -0.8435 -0.3844  0.4588
 7900SOL     OW35161   2.683   3.593   5.903 -0.1498  0.4188 -0.3239
 7900SOL    HW135162   2.730   3.598   5.820  1.2015  3.1360  0.6173
 7900SOL    HW235163   2.661   3.500   5.914  1.3727  0.1101  0.0677
 7901SOL     OW35164   2.163   0.115   5.210  0.1671 -0.7556  0.6091
 7901SOL    HW135165   2.112   0.040   5.240  1.1122 -1.0533  1.4775
 7901SOL    HW235166   2.252   0.084   5.190  0.4025  0.8462 -0.7612
 7902SOL     OW35167   1.859   4.442  12.153  0.1975 -0.3108 -0.9069
 7902SOL    HW135168   1.823   4.429  12.241 -0.1290 -1.6660 -1.2362
 7902SOL    HW235169   1.778   4.433  12.102 -0.4990  2.2013 -0.2703
 7903SOL     OW35170   0.067   1.481   8.699  0.2082  0.4740 -0.4265
 7903SOL    HW135171   4.703   1.484   8.742  0.3224  1.6721 -0.2843
 7903SOL    HW235172   0.098   1.395   8.727  1.5811  0.5600 -1.6254
 7904SOL     OW35173   2.085   0.746   8.700  0.1441  0.6600  0.2363
 7904SOL    HW135174   2.114   0.664   8.739  2.4320  1.3954  0.1115
 7904SOL    HW235175   1.992   0.743   8.725  0.2592  0.5480  0.6636
 7905SOL     OW35176   2.351   0.312   5.404  1.0159  0.3938  0.7773
 7905SOL    HW135177   2.311   0.259   5.335  0.6631  1.9653 -0.2500
 7905SOL    HW235178   2.346   0.399   5.363 -1.8321  0.1713  0.6546
 7906SOL     OW35179   1.621   1.002  16.999 -0.2308  0.2540  0.0329
 7906SOL    HW135180   1.618   0.997  17.094 -1.2244 -0.3756 -0.0279
 7906SOL    HW235181   1.669   1.084  16.987 -0.8278  0.8617  1.7788
 7907SOL     OW35182   1.933   1.107   8.265 -0.1213 -0.0479  0.2430
 7907SOL    HW135183   1.969   1.057   8.337  1.5522  1.2840  0.3397
 7907SOL    HW235184   2.010   1.161   8.244  0.4757 -1.5512 -1.4890
 7908SOL     OW35185   2.804   3.279   8.985 -0.1615  0.3497 -0.1247
 7908SOL    HW135186   2.792   3.366   8.947 -1.0365 -0.0993 -0.8729
 7908SOL    HW235187   2.847   3.232   8.914  0.5776  1.2778 -0.2742
 7909SOL     OW35188   1.541   1.160  13.614  0.0769  0.0965  0.2742
 7909SOL    HW135189   1.582   1.241  13.584 -0.4913  1.0272  2.0017
 7909SOL    HW235190   1.454   1.193  13.594 -0.5066 -2.5841 -1.6846
 7910SOL     OW35191   2.906   4.013   6.201 -0.2859 -0.0007 -0.7156
 7910SOL    HW135192   2.843   3.945   6.176  0.9272 -0.2811 -3.0263
 7910SOL    HW235193   2.941   4.044   6.118 -1.1397 -2.2197 -1.9158
 7911SOL     OW35194   2.821   2.456   9.576  0.1257 -0.1503  0.2666
 7911SOL    HW135195   2.857   2.372   9.605 -0.5780 -0.6514 -0.2967
 7911SOL    HW235196   2.727   2.456   9.594  0.4824 -1.4661  2.1111
 7912SOL     OW35197   3.276   0.105  13.517 -0.5881  0.0827 -0.7608
 7912SOL    HW135198   3.342   0.050  13.474 -1.0100 -1.5486  0.6867
 7912SOL    HW235199   3.321   0.186  13.495 -0.9743  0.8165  1.1247
 7913SOL     OW35200   1.789   3.879   1.866 -0.1209  0.5938 -0.4964
 7913SOL    HW135201   1.701   3.851   1.893 -0.9259  1.3765 -2.3344
 7913SOL    HW235202   1.779   3.974   1.870  0.9208  0.5904  1.7529
 7914SOL     OW35203   0.951   1.909   3.223 -0.0639  0.3287  0.2464
 7914SOL    HW135204   0.975   1.820   3.250  1.7153 -0.2071 -3.1992
 7914SOL    HW235205   0.888   1.891   3.154  1.7881  1.1032 -1.6324
 7915SOL     OW35206   2.531   3.859  13.828 -0.5359 -0.5334  0.3962
 7915SOL    HW135207   2.497   3.819  13.909  1.4367 -0.2244  1.3868
 7915SOL    HW235208   2.626   3.845  13.832 -0.5893 -1.4315 -1.7708
 7916SOL     OW35209   0.680   1.250   6.251  0.1628 -0.1038  0.2184
 7916SOL    HW135210   0.648   1.247   6.341  1.5602 -3.2805  0.5859
 7916SOL    HW235211   0.695   1.159   6.226  3.3263  0.7282 -0.8391
 7917SOL     OW35212   0.634   2.704   3.547 -0.2204 -0.0481  0.2078
 7917SOL    HW135213   0.709   2.651   3.571  0.3776  0.6894 -0.0397
 7917SOL    HW235214   0.584   2.638   3.499 -1.7012  0.8130  0.5441
 7918SOL     OW35215   2.667   0.152   7.193 -0.1066 -0.0607 -0.0647
 7918SOL    HW135216   2.708   0.070   7.219 -2.9512 -0.4537  3.3178
 7918SOL    HW235217   2.582   0.119   7.225 -0.8071  1.9854  0.1797
 7919SOL     OW35218   3.648   1.092   4.232  0.0319  0.0450 -0.1383
 7919SOL    HW135219   3.661   1.183   4.258 -1.5194  1.0930 -2.9816
 7919SOL    HW235220   3.623   1.094   4.139  2.3679  1.0417 -0.7328
 7920SOL     OW35221   3.437   0.623   9.710 -0.1802 -0.0333  0.0719
 7920SOL    HW135222   3.367   0.591   9.767  0.4830  2.2945  2.1731
 7920SOL    HW235223   3.429   0.555   9.643  3.1956  0.6992 -1.0627
 7921SOL     OW35224   1.599   0.459   3.078 -0.1174 -0.1022  0.2620
 7921SOL    HW135225   1.527   0.445   3.016  0.8818 -0.3443 -0.8392
 7921SOL    HW235226   1.636   0.372   3.088 -0.9308 -0.5717 -0.8174
 7922SOL     OW35227   2.848   4.345   0.902 -0.1454  0.1147 -0.0486
 7922SOL    HW135228   2.865   4.316   0.992 -1.4550  0.6975  0.3779
 7922SOL    HW235229   2.807   4.270   0.860  0.5789 -0.0767 -0.4057
 7923SOL     OW35230   2.680   3.437   9.333 -0.1893  0.2277  0.0183
 7923SOL    HW135231   2.606   3.484   9.293  0.1970  0.0438 -0.8922
 7923SOL    HW235232   2.753   3.497   9.320  0.8891 -0.7707  1.5259
 7924SOL     OW35233   4.189   3.323  13.955  0.5196 -0.4637 -0.0169
 7924SOL    HW135234   4.167   3.401  14.006 -3.2127 -0.0901 -2.2015
 7924SOL    HW235235   4.165   3.252  14.015  1.2004  0.1000  0.9243
 7925SOL     OW35236   2.771   2.886   5.559 -0.2845  0.3108 -0.2385
 7925SOL    HW135237   2.837   2.823   5.531  0.1831  0.9842 -0.6313
 7925SOL    HW235238   2.815   2.923   5.635  0.0937  0.3168 -0.4647
 7926SOL     OW35239   3.397   1.570   3.032  0.0301 -0.5345 -0.1538
 7926SOL    HW135240   3.447   1.512   2.974  1.3110  0.7099 -0.3166
 7926SOL    HW235241   3.361   1.637   2.974 -3.4534  0.3524  3.0738
 7927SOL     OW35242   2.380   0.359   6.005 -0.1475 -0.0766  0.0431
 7927SOL    HW135243   2.425   0.274   6.004 -0.7244 -0.3747 -1.0449
 7927SOL    HW235244   2.400   0.409   5.925 -1.0655 -0.6038 -0.5140
 7928SOL     OW35245   4.275   2.575   6.984 -0.1463 -0.1642 -0.1909
 7928SOL    HW135246   4.200   2.631   7.002  1.3866  0.5235  4.1362
 7928SOL    HW235247   4.254   2.501   7.041 -0.6817  0.0053 -0.1631
 7929SOL     OW35248   2.736   3.054   1.005  0.3118  0.6611  0.1224
 7929SOL    HW135249   2.682   3.028   1.080 -1.1136 -0.7890 -1.4147
 7929SOL    HW235250   2.675   3.087   0.939  0.0435 -0.6609 -0.2738
 7930SOL     OW35251   1.875   4.715  14.728 -0.1439 -0.1700 -0.2766
 7930SOL    HW135252   1.896   4.621  14.727  0.5028 -0.0391  1.2281
 7930SOL    HW235253   1.946   0.026  14.784 -1.9218  1.1417  1.2104
 7931SOL     OW35254   1.911   2.917   8.896 -0.1278  0.5353 -0.0690
 7931SOL    HW135255   1.818   2.915   8.920  0.1438  0.7112  1.0060
 7931SOL    HW235256   1.952   2.870   8.969  1.7445  3.3485  0.7207
 7932SOL     OW35257   2.185   1.001   4.567  0.0552  0.5093  0.0224
 7932SOL    HW135258   2.254   0.935   4.573 -0.0798  0.3256 -0.4524
 7932SOL    HW235259   2.201   1.043   4.483  3.0531 -0.8648 -0.0668
 7933SOL     OW35260   2.777   2.850   2.944 -0.6796 -0.3205  0.2116
 7933SOL    HW135261   2.866   2.822   2.925 -1.1550 -0.3687 -2.0039
 7933SOL    HW235262   2.777   2.857   3.039  0.7632  2.4106  0.0289
 7934SOL     OW35263   0.847   4.368   7.977  0.4111 -0.6462  0.2174
 7934SOL    HW135264   0.766   4.322   7.958 -1.0822  1.0613  2.3599
 7934SOL    HW235265   0.843   4.419   7.896 -0.0744  5.2596  3.9309
 7935SOL     OW35266   3.142   3.562  11.238  0.1127  0.5274 -0.1798
 7935SOL    HW135267   3.049   3.587  11.234 -1.2636 -4.8072 -1.5710
 7935SOL    HW235268   3.151   3.552  11.144 -0.4355 -1.9925  0.0175
 7936SOL     OW35269   4.646   4.389   3.263  0.4971  0.8415  0.2678
 7936SOL    HW135270   0.006   4.340   3.250  0.2471  1.4603 -3.5391
 7936SOL    HW235271   4.675   4.480   3.251  1.4463  0.5887  0.6663
 7937SOL     OW35272   3.311   1.138  17.113 -0.1513  0.3384  0.1290
 7937SOL    HW135273   3.250   1.210  17.096  0.6278  1.1174  0.6029
 7937SOL    HW235274   3.373   1.195  17.159 -1.0772 -0.5062  2.3950
 7938SOL     OW35275   1.545   3.064   0.633 -0.2031 -0.1529 -0.0347
 7938SOL    HW135276   1.556   3.073   0.539 -0.0556 -1.4838 -0.1408
 7938SOL    HW235277   1.456   3.099   0.639 -0.1904 -0.1289  0.0152
 7939SOL     OW35278   1.559   2.966   7.309  0.1026  0.1041  0.2135
 7939SOL    HW135279   1.528   2.914   7.383 -0.9403 -0.1292 -0.3794
 7939SOL    HW235280   1.496   2.925   7.249  0.0579  0.3084  0.1223
 7940SOL     OW35281   4.004   1.335   6.587  0.5166  0.7264 -0.6005
 7940SOL    HW135282   4.010   1.262   6.649  2.3710  2.3395  1.1281
 7940SOL    HW235283   3.934   1.314   6.526  0.2696  1.2964 -0.5107
 7941SOL     OW35284   2.104   0.927   0.886  0.3307  0.2602  0.2893
 7941SOL    HW135285   2.070   0.879   0.810 -1.9913  3.0165 -0.3885
 7941SOL    HW235286   2.035   0.990   0.906  0.1671 -0.5001  2.1121
 7942SOL     OW35287   1.702   3.681   2.202 -0.1694  0.3642  0.0301
 7942SOL    HW135288   1.681   3.678   2.109 -0.5937  0.6792  0.1143
 7942SOL    HW235289   1.683   3.772   2.225 -0.1655  0.2363  0.5399
 7943SOL     OW35290   2.584   0.876   9.349  0.2413  0.0204 -0.3588
 7943SOL    HW135291   2.518   0.925   9.399  0.3261 -1.5914  1.2989
 7943SOL    HW235292   2.621   0.819   9.415 -0.5352 -1.5937 -1.3128
 7944SOL     OW35293   4.289   1.456   8.531 -0.1990 -0.3664 -0.0399
 7944SOL    HW135294   4.242   1.390   8.480  0.7965 -0.7113 -0.5005
 7944SOL    HW235295   4.348   1.472   8.458  0.3298  0.2341  0.5160
 7945SOL     OW35296   4.336   0.761   2.184  0.1101  0.0460 -0.0616
 7945SOL    HW135297   4.246   0.740   2.159  0.3330  1.4721 -2.1053
 7945SOL    HW235298   4.337   0.725   2.272  1.4310 -1.5322 -0.7196
 7946SOL     OW35299   1.419   0.650   8.169 -0.0857 -0.6073 -0.5164
 7946SOL    HW135300   1.510   0.672   8.192 -0.0848 -0.5932 -0.5330
 7946SOL    HW235301   1.418   0.555   8.180 -0.7084 -0.6521 -0.9831
 7947SOL     OW35302   4.200   3.446   7.848 -0.1261 -0.1854  0.1677
 7947SOL    HW135303   4.128   3.498   7.885  0.4146 -0.8615  2.1494
 7947SOL    HW235304   4.267   3.449   7.916 -1.1124 -1.2099  1.1936
 7948SOL     OW35305   0.356   4.401   4.267  0.2203 -0.1617  0.2124
 7948SOL    HW135306   0.357   4.487   4.226  1.1674 -0.3784 -0.2270
 7948SOL    HW235307   0.277   4.402   4.321 -0.3657 -1.1355 -0.6414
 7949SOL     OW35308   2.424   0.788  16.823  0.0716 -0.2116 -0.9081
 7949SOL    HW135309   2.517   0.800  16.804  0.4029 -0.1307  0.7247
 7949SOL    HW235310   2.425   0.787  16.919 -0.7749 -0.1428 -0.8976
 7950SOL     OW35311   2.800   2.142   4.663  0.2198 -0.4698 -0.0663
 7950SOL    HW135312   2.861   2.069   4.651  1.5437  0.3374  1.7923
 7950SOL    HW235313   2.850   2.221   4.643  1.3410 -1.4985 -1.3559
 7951SOL     OW35314   2.635   0.868   6.662 -0.2637 -0.3483 -0.6600
 7951SOL    HW135315   2.669   0.956   6.679 -3.0810  0.7058 -0.5125
 7951SOL    HW235316   2.717   0.826   6.636  0.4237 -0.0343  0.9929
 7952SOL     OW35317   3.987   1.993   5.999 -0.2357  0.0775  0.2772
 7952SOL    HW135318   4.057   1.989   5.934  0.2378  0.9113  0.7377
 7952SOL    HW235319   4.030   2.043   6.069  1.8923  0.7036 -1.4654
 7953SOL     OW35320   3.304   3.391   0.390 -0.5206 -0.0295 -0.3385
 7953SOL    HW135321   3.249   3.313   0.393  0.3217 -0.5919  0.3363
 7953SOL    HW235322   3.394   3.360   0.400 -0.6277 -0.1854  0.1709
 7954SOL     OW35323   4.353   0.642  13.157  0.4281  0.1412 -0.3749
 7954SOL    HW135324   4.312   0.703  13.096 -0.2672 -1.3998 -1.4460
 7954SOL    HW235325   4.393   0.699  13.223  0.5311  0.5745 -0.8157
 7955SOL     OW35326   3.880   2.993   9.731  0.5049  0.5942 -0.7312
 7955SOL    HW135327   3.842   3.020   9.815 -1.9870  0.3216 -1.7731
 7955SOL    HW235328   3.863   2.899   9.727  3.1965  0.1369 -1.0196
 7956SOL     OW35329   1.420   1.409  11.241 -0.1441  0.7741  0.3723
 7956SOL    HW135330   1.508   1.446  11.230  0.0612 -0.9126 -3.6375
 7956SOL    HW235331   1.395   1.448  11.324  1.9600  0.7893  0.9951
 7957SOL     OW35332   0.452   3.589   8.311 -0.0874  0.4552 -0.0478
 7957SOL    HW135333   0.454   3.603   8.406  1.2852 -0.2522  0.0275
 7957SOL    HW235334   0.538   3.548   8.300 -0.5479 -0.3138 -0.7834
 7958SOL     OW35335   0.698   2.150   4.121 -0.2573  0.3816 -0.1386
 7958SOL    HW135336   0.642   2.177   4.194 -0.1518 -2.1147  0.8735
 7958SOL    HW235337   0.687   2.058   4.145  0.0192  0.4642  0.3259
 7959SOL     OW35338   1.150   1.161   3.317  0.2579 -0.0677  0.3918
 7959SOL    HW135339   1.212   1.175   3.245  0.4619  1.4351  0.8555
 7959SOL    HW235340   1.129   1.069   3.303  1.1616 -0.1881 -0.1745
 7960SOL     OW35341   3.785   1.968   2.709  0.3452 -0.1959  0.3516
 7960SOL    HW135342   3.774   1.881   2.670  0.6182  0.4912 -1.2220
 7960SOL    HW235343   3.696   1.995   2.732  0.6832  1.1508  0.0801
 7961SOL     OW35344   3.078   3.136   2.407 -0.1432 -0.5219  0.0162
 7961SOL    HW135345   3.066   3.208   2.470  0.9702 -1.9055  1.8057
 7961SOL    HW235346   3.109   3.179   2.327 -4.4207  1.3015 -0.7127
 7962SOL     OW35347   2.669   2.497   4.042  0.1236  0.7000  0.0732
 7962SOL    HW135348   2.744   2.521   3.987  0.0367  0.6143 -0.0838
 7962SOL    HW235349   2.640   2.415   4.002  1.5737  0.3180 -0.2217
 7963SOL     OW35350   0.621   2.235   0.917  0.4487 -0.5374 -0.0800
 7963SOL    HW135351   0.655   2.231   0.828  2.9042 -0.2823  0.8470
 7963SOL    HW235352   0.577   2.151   0.901 -0.7282  0.0113  0.3055
 7964SOL     OW35353   2.000   0.886   4.760  0.2090  0.7339  0.1483
 7964SOL    HW135354   2.000   0.948   4.834 -0.7862  0.8165  0.0763
 7964SOL    HW235355   2.074   0.921   4.710 -0.8011  1.0757 -1.0998
 7965SOL     OW35356   3.571   3.313   2.096 -0.6881 -0.0760  0.2792
 7965SOL    HW135357   3.499   3.373   2.114 -1.6422 -1.7037  1.8391
 7965SOL    HW235358   3.567   3.298   2.001 -1.9301  0.8979  0.1782
 7966SOL     OW35359   1.410   3.296  17.578  0.8994  0.3432  0.2345
 7966SOL    HW135360   1.334   3.344  17.546 -0.3653 -1.8152 -0.0218
 7966SOL    HW235361   1.411   3.225  17.513 -2.2778  1.6798 -1.2383
 7967SOL     OW35362   2.051   0.824   4.135 -0.2119  0.0085 -0.5068
 7967SOL    HW135363   2.050   0.728   4.129 -0.1736 -0.0393  0.2035
 7967SOL    HW235364   2.136   0.849   4.171 -0.1931 -2.1222  0.9372
 7968SOL     OW35365   4.551   3.628  10.849 -0.1579  0.3631  0.7501
 7968SOL    HW135366   4.495   3.638  10.771 -1.4847  1.3741  1.8231
 7968SOL    HW235367   4.602   3.709  10.852  1.0645 -0.3787 -0.4471
 7969SOL     OW35368   3.017   0.256   2.035 -0.1578  0.0202  0.2647
 7969SOL    HW135369   3.097   0.277   2.082 -0.2079 -0.8158  0.7194
 7969SOL    HW235370   3.053   0.210   1.959 -0.8696 -1.0147  0.5488
 7970SOL     OW35371   1.090   1.598  13.739 -0.1826 -0.0258 -0.4755
 7970SOL    HW135372   1.144   1.562  13.810  2.4908  0.4521 -2.2756
 7970SOL    HW235373   1.087   1.692  13.754 -3.8516 -0.3709  0.9936
 7971SOL     OW35374   3.578   0.088   7.861 -0.2574  0.4438 -0.0437
 7971SOL    HW135375   3.550   0.125   7.945 -3.3762  0.4589 -1.1122
 7971SOL    HW235376   3.516   0.016   7.851  1.3109 -0.8789 -0.3489
 7972SOL     OW35377   2.551   0.944   8.589  0.1344 -0.1761 -0.4061
 7972SOL    HW135378   2.599   0.860   8.593 -0.3286 -0.4288 -0.1281
 7972SOL    HW235379   2.531   0.955   8.682 -0.6049 -1.6475 -0.3788
 7973SOL     OW35380   3.471   2.173   6.920 -0.4642  0.0741 -0.4325
 7973SOL    HW135381   3.523   2.104   6.960 -0.4947 -0.2884 -1.0089
 7973SOL    HW235382   3.439   2.134   6.838 -0.0036  0.9730 -1.0471
 7974SOL     OW35383   0.159   4.092   5.820 -1.0878 -0.0517  0.2992
 7974SOL    HW135384   0.146   4.045   5.738  1.1999  1.1103 -0.7177
 7974SOL    HW235385   0.190   4.040   5.894 -1.5449 -1.5416 -0.5800
 7975SOL     OW35386   1.175   2.879   3.538  0.4367  0.5789  0.5367
 7975SOL    HW135387   1.133   2.857   3.455 -0.4838  0.5388  1.0076
 7975SOL    HW235388   1.233   2.937   3.489  0.2828  0.1553 -0.1349
 7976SOL     OW35389   2.255   1.585  16.489  0.3211 -0.0112 -0.6496
 7976SOL    HW135390   2.243   1.563  16.581 -0.4771  1.4864 -0.3777
 7976SOL    HW235391   2.350   1.586  16.497  0.4124  0.7824 -1.8214
 7977SOL     OW35392   0.740   3.046  11.153 -0.2218  0.2337  0.0841
 7977SOL    HW135393   0.726   2.988  11.079  2.2146 -0.5096  0.1924
 7977SOL    HW235394   0.815   3.100  11.126  1.2516 -0.7112  2.2542
 7978SOL     OW35395   1.915   3.684   6.965 -0.5889 -0.4075 -0.1813
 7978SOL    HW135396   1.903   3.729   7.049  1.1232 -0.5431  0.1361
 7978SOL    HW235397   1.927   3.754   6.901 -3.5748 -0.6299 -1.0067
 7979SOL     OW35398   4.607   1.692  16.373 -0.0188  0.2393 -0.0834
 7979SOL    HW135399   4.660   1.772  16.380  2.2921 -1.2003 -1.0515
 7979SOL    HW235400   4.643   1.669  16.288 -0.7036 -1.4500  0.0969
 7980SOL     OW35401   3.066   0.969  10.964  0.3126 -0.1747  0.1133
 7980SOL    HW135402   2.970   0.973  10.967  0.3335 -0.0223  0.6101
 7980SOL    HW235403   3.077   1.064  10.960  1.5058 -0.3117  0.2164
 7981SOL     OW35404   2.365   3.957  16.912 -0.0245 -0.0096 -0.0161
 7981SOL    HW135405   2.412   4.029  16.871 -0.1276  0.7041  1.1196
 7981SOL    HW235406   2.284   4.003  16.937  0.2106  0.5496 -0.2833
 7982SOL     OW35407   0.529   2.860   7.290  0.6500  0.3464 -0.6060
 7982SOL    HW135408   0.623   2.878   7.293  0.9070 -1.0568 -0.2626
 7982SOL    HW235409   0.519   2.818   7.204 -4.5941  1.3819 -0.5016
 7983SOL     OW35410   2.111   0.331   4.185 -0.2651  0.1846  0.0042
 7983SOL    HW135411   2.098   0.394   4.256  0.1146  0.2251  0.0398
 7983SOL    HW235412   2.048   0.265   4.214  0.6413 -0.9765 -0.7239
 7984SOL     OW35413   3.794   1.934   9.653 -0.1963  0.0340  0.5484
 7984SOL    HW135414   3.786   2.020   9.695  0.6465  0.7869 -0.8033
 7984SOL    HW235415   3.706   1.911   9.681 -0.0853 -0.5451  0.4223
 7985SOL     OW35416   3.351   0.345  17.527  0.4162  0.3730 -0.1588
 7985SOL    HW135417   3.434   0.361  17.571  0.2885 -1.4424  0.7447
 7985SOL    HW235418   3.314   0.433  17.534  1.6864  0.7550  1.8363
 7986SOL     OW35419   4.720   4.535   2.519 -0.4907  0.5943  0.7007
 7986SOL    HW135420   0.046   4.574   2.445 -1.2099  0.9594  0.4324
 7986SOL    HW235421   4.719   4.443   2.492 -0.3993  0.1250  2.2853
 7987SOL     OW35422   1.380   4.359   9.079  0.0107 -0.1974  0.1688
 7987SOL    HW135423   1.394   4.412   9.157 -1.8947 -1.4992  1.3951
 7987SOL    HW235424   1.292   4.322   9.093 -0.7116  1.4644 -0.0116
 7988SOL     OW35425   3.049   3.411   2.186 -0.6087  0.4781  0.5871
 7988SOL    HW135426   3.075   3.487   2.238  0.5109  0.0230  0.6881
 7988SOL    HW235427   2.965   3.381   2.221 -0.6270 -0.2128 -0.0312
 7989SOL     OW35428   2.955   4.423  13.114 -0.1977  0.0537 -0.5191
 7989SOL    HW135429   3.014   4.364  13.159 -0.6048 -0.1434 -0.2462
 7989SOL    HW235430   2.868   4.403  13.149 -1.3646  2.7788 -1.7864
 7990SOL     OW35431   3.062   1.548   2.600  0.0347 -0.3979 -0.2272
 7990SOL    HW135432   3.099   1.525   2.515  0.8205 -0.1035  0.0437
 7990SOL    HW235433   3.004   1.473   2.616  0.3217 -0.5071  0.2784
 7991SOL     OW35434   4.417   4.679   7.015 -0.6462  0.3380  0.2389
 7991SOL    HW135435   4.330   4.644   7.031 -0.5799  0.0250 -0.0817
 7991SOL    HW235436   4.400   0.031   6.956  2.6528  1.5577  0.7605
 7992SOL     OW35437   0.867   0.716   6.329  0.1376 -0.9537 -0.1067
 7992SOL    HW135438   0.778   0.681   6.339 -0.6604  0.5410 -1.9968
 7992SOL    HW235439   0.915   0.677   6.403  1.3088  0.2153 -0.2692
 7993SOL     OW35440   1.297   4.399   8.007  0.1455 -0.1964  0.3880
 7993SOL    HW135441   1.362   4.376   7.941 -1.9516 -1.3669 -1.2713
 7993SOL    HW235442   1.300   4.315   8.053  3.3553 -0.7123 -0.7763
 7994SOL     OW35443   2.258   1.836   4.771  0.1349 -0.0760  0.2386
 7994SOL    HW135444   2.191   1.806   4.709  0.4759 -1.7237  0.6662
 7994SOL    HW235445   2.241   1.779   4.846 -0.2851  1.3837  1.2567
 7995SOL     OW35446   4.667   1.578   1.774 -0.0151 -0.3616 -0.2863
 7995SOL    HW135447   4.669   1.539   1.861  1.1192 -0.9475 -0.5826
 7995SOL    HW235448   4.638   1.667   1.797  1.5862  0.0090  0.2986
 7996SOL     OW35449   1.674   0.306   6.504 -0.0031  0.2375  0.4044
 7996SOL    HW135450   1.656   0.215   6.480  1.7956 -0.6698  2.5417
 7996SOL    HW235451   1.733   0.282   6.576  0.6991  1.3258  0.1938
 7997SOL     OW35452   4.341   4.554   2.773  0.5821  0.1246  0.2390
 7997SOL    HW135453   4.357   4.640   2.734  1.1290  0.1058  0.4137
 7997SOL    HW235454   4.248   4.539   2.757  0.7267  0.6954 -1.1510
 7998SOL     OW35455   4.696   1.859   1.165 -0.0488  0.4297  0.1595
 7998SOL    HW135456   4.605   1.870   1.139 -0.8193  0.0790  2.7559
 7998SOL    HW235457   4.704   1.919   1.238 -1.2143 -0.9367  1.4116
 7999SOL     OW35458   2.653   4.033   5.660  0.0737  0.3329  0.6600
 7999SOL    HW135459   2.592   3.983   5.605 -1.3957 -0.1563  2.7656
 7999SOL    HW235460   2.665   4.108   5.602  0.9239  1.1681  1.9394
 8000SOL     OW35461   4.308   3.247  12.264 -0.4622 -0.8707  0.0226
 8000SOL    HW135462   4.364   3.324  12.275 -1.7540  0.0596  0.1240
 8000SOL    HW235463   4.366   3.175  12.288  1.0251  0.0338 -0.8645
 8001SOL     OW35464   4.589   4.600   1.766  0.4290 -0.1424  0.1370
 8001SOL    HW135465   4.561   4.541   1.696  1.5015  1.0391 -1.2790
 8001SOL    HW235466   4.579   4.690   1.735 -1.2653 -1.1537 -2.1699
 8002SOL     OW35467   1.175   1.492   9.759  0.3266 -0.0923  0.3607
 8002SOL    HW135468   1.193   1.398   9.756  3.1232  0.4298  1.0119
 8002SOL    HW235469   1.261   1.532   9.774 -0.0093  0.1245  1.6992
 8003SOL     OW35470   0.609   2.154   6.400  0.3077  0.2499 -0.1017
 8003SOL    HW135471   0.674   2.169   6.468 -1.4666  1.5644  1.2867
 8003SOL    HW235472   0.616   2.060   6.381 -0.1836 -0.1306  1.5712
 8004SOL     OW35473   4.316   3.431  17.003 -0.5447  0.0237 -0.6630
 8004SOL    HW135474   4.297   3.437  17.096  1.1676 -0.4213 -0.2811
 8004SOL    HW235475   4.410   3.451  17.002 -0.2655 -1.2610  1.5427
 8005SOL     OW35476   0.946   2.425  15.081 -0.3578 -0.2456 -0.0412
 8005SOL    HW135477   0.968   2.407  14.989  0.3413  1.5781 -0.2305
 8005SOL    HW235478   1.015   2.484  15.110 -0.3831 -1.2919  2.1562
 8006SOL     OW35479   4.527   4.063   2.447 -0.4248 -0.7416  0.1449
 8006SOL    HW135480   4.454   4.064   2.385 -0.0400  1.2301 -0.2742
 8006SOL    HW235481   4.581   3.994   2.409 -0.7973 -0.7317 -0.4066
 8007SOL     OW35482   2.479   4.267   6.440 -0.1809 -0.3075  0.6131
 8007SOL    HW135483   2.467   4.183   6.485  0.9502 -0.2265  1.0681
 8007SOL    HW235484   2.547   4.236   6.380 -0.5022  1.0559 -0.4539
 8008SOL     OW35485   1.862   1.702   4.653 -0.2638  0.2814  0.3775
 8008SOL    HW135486   1.811   1.734   4.578 -2.4476 -3.3034  0.3567
 8008SOL    HW235487   1.848   1.778   4.710 -4.9367 -0.9442  0.8415
 8009SOL     OW35488   1.592   2.678   9.677  0.4021  0.0272  0.9041
 8009SOL    HW135489   1.610   2.694   9.584  1.5838 -1.1366  0.9220
 8009SOL    HW235490   1.587   2.582   9.675  1.2743 -0.0332  1.3755
 8010SOL     OW35491   4.383   3.483   4.648  0.2618 -0.1794 -0.4223
 8010SOL    HW135492   4.345   3.400   4.618 -1.9447  0.1077  1.5983
 8010SOL    HW235493   4.475   3.458   4.649 -0.0025 -1.1516 -0.6059
 8011SOL     OW35494   0.175   4.152  13.037  0.5159 -0.7341  0.1697
 8011SOL    HW135495   0.131   4.078  12.995  1.8985 -2.2581  1.3928
 8011SOL    HW235496   0.239   4.167  12.968 -1.1161  0.5116 -1.0652
 8012SOL     OW35497   0.630   4.000   4.933  0.0921 -0.5926 -0.1841
 8012SOL    HW135498   0.719   4.032   4.947 -1.6676  3.8425  0.7923
 8012SOL    HW235499   0.648   3.957   4.849  0.2604 -1.0152  0.0664
 8013SOL     OW35500   2.092   3.090   1.902 -0.2448 -0.2574 -0.0665
 8013SOL    HW135501   2.069   3.013   1.954 -0.8150 -1.2648 -1.8175
 8013SOL    HW235502   2.025   3.152   1.932 -0.9778 -0.8801 -0.4165
 8014SOL     OW35503   4.265   3.203  16.863 -0.2601  0.2632 -0.0451
 8014SOL    HW135504   4.170   3.208  16.856 -0.2300 -0.3683 -0.9584
 8014SOL    HW235505   4.282   3.283  16.911 -3.3698  1.7780 -1.4708
 8015SOL     OW35506   0.794   1.636   2.493  0.3661 -0.0978  0.0615
 8015SOL    HW135507   0.722   1.673   2.544  0.2206 -0.0216 -0.1963
 8015SOL    HW235508   0.866   1.690   2.526  0.0992 -0.2881  0.9437
 8016SOL     OW35509   3.546   1.377   9.190 -0.3591 -0.1053  0.5108
 8016SOL    HW135510   3.542   1.450   9.127  4.1664 -3.1330 -3.2562
 8016SOL    HW235511   3.625   1.397   9.240 -0.4046  2.2004 -0.3093
 8017SOL     OW35512   4.045   2.563  17.260 -0.1420 -0.1578 -0.0518
 8017SOL    HW135513   3.957   2.596  17.243 -0.9330 -1.6903  0.9976
 8017SOL    HW235514   4.097   2.641  17.239 -0.9431  1.0929  2.6216
 8018SOL     OW35515   4.313   3.399   9.081 -0.0321  0.4030 -0.2494
 8018SOL    HW135516   4.364   3.370   9.157  0.8546  1.2713 -0.5056
 8018SOL    HW235517   4.385   3.423   9.023  0.4225  0.5661  0.3727
 8019SOL     OW35518   2.210   1.019   8.015  0.3361  0.2405 -0.2485
 8019SOL    HW135519   2.238   0.989   7.928 -1.0462 -1.3341 -0.1592
 8019SOL    HW235520   2.253   0.962   8.079 -0.0325  1.6020  1.2113
 8020SOL     OW35521   3.242   0.431   6.671 -0.1912  0.4170  0.0791
 8020SOL    HW135522   3.193   0.384   6.604  0.1070 -0.3645  0.4022
 8020SOL    HW235523   3.283   0.498   6.617 -0.0308  0.9746  0.8953
 8021SOL     OW35524   2.374   3.617   4.421  0.1943  0.0184  0.2656
 8021SOL    HW135525   2.451   3.601   4.366 -0.0554  0.5335 -0.2413
 8021SOL    HW235526   2.313   3.622   4.347  0.6138  1.2705 -0.0023
 8022SOL     OW35527   2.353   1.806  17.622  0.2428  0.1965 -0.0857
 8022SOL    HW135528   2.306   1.867  17.566 -0.7431 -0.8174 -0.3576
 8022SOL    HW235529   2.298   1.805   0.013  1.1595 -1.0348  0.5514
 8023SOL     OW35530   4.374   4.149   3.218 -0.0008 -0.3048 -0.1921
 8023SOL    HW135531   4.419   4.153   3.134  0.4969  1.0594  0.1448
 8023SOL    HW235532   4.287   4.184   3.200  0.2626  0.3698 -0.1322
 8024SOL     OW35533   4.634   1.192  16.673 -0.5535  0.8118 -0.0679
 8024SOL    HW135534   4.598   1.104  16.684  0.0369  0.6242  0.4001
 8024SOL    HW235535   0.002   1.176  16.705 -0.5607 -4.2272 -2.5342
 8025SOL     OW35536   0.886   3.660   9.644  0.5853 -0.3168 -0.0953
 8025SOL    HW135537   0.933   3.577   9.647  0.7640 -0.2513 -1.4011
 8025SOL    HW235538   0.950   3.706   9.591  2.5508 -1.1404  1.5602
 8026SOL     OW35539   1.605   2.953  14.916 -0.1554  0.2826 -0.5938
 8026SOL    HW135540   1.523   2.903  14.909  1.4138 -2.1579 -1.5322
 8026SOL    HW235541   1.671   2.888  14.939 -1.1674 -0.6184 -0.2179
 8027SOL     OW35542   1.590   0.817  16.813 -0.1577 -0.4599 -0.1415
 8027SOL    HW135543   1.508   0.775  16.837  1.0966 -2.1708  1.1492
 8027SOL    HW235544   1.576   0.902  16.855 -1.2012 -0.2289 -0.9598
 8028SOL     OW35545   1.609   0.923   7.821 -0.7072 -0.2372 -0.0455
 8028SOL    HW135546   1.575   0.986   7.884  0.9943  0.1316  0.5221
 8028SOL    HW235547   1.602   0.977   7.743 -0.8674 -0.2491 -0.0390
 8029SOL     OW35548   4.321   1.789  15.594  0.1932 -0.0036 -0.6540
 8029SOL    HW135549   4.296   1.861  15.653 -0.5016 -0.1244 -0.7933
 8029SOL    HW235550   4.291   1.841  15.519 -0.6487  0.6688  0.1395
 8030SOL     OW35551   0.060   3.044   6.424 -1.0032 -0.0964 -0.2253
 8030SOL    HW135552   4.688   3.058   6.442 -0.9429 -1.0654  0.8041
 8030SOL    HW235553   0.086   2.987   6.495  1.0102 -1.8424 -2.3535
 8031SOL     OW35554   0.734   3.036   5.134  0.1463  0.2675  0.6924
 8031SOL    HW135555   0.690   3.103   5.187 -0.8851 -1.0073  1.4260
 8031SOL    HW235556   0.767   2.975   5.199  1.2238 -0.0034 -0.1071
 8032SOL     OW35557   2.761   1.466   7.831 -0.1160 -0.2598 -0.2079
 8032SOL    HW135558   2.750   1.416   7.912  0.9884 -2.0237 -1.1401
 8032SOL    HW235559   2.822   1.405   7.789  0.6643  0.5953 -0.2932
 8033SOL     OW35560   3.474   1.997   8.086 -0.5607  0.6119  0.3955
 8033SOL    HW135561   3.480   1.991   7.990  1.7648 -2.2441  0.7103
 8033SOL    HW235562   3.533   1.926   8.112 -0.7112  0.6755  0.9110
 8034SOL     OW35563   0.336   3.260  11.536  0.0503  0.2476  0.8342
 8034SOL    HW135564   0.304   3.185  11.587  1.0154  1.2036  2.8516
 8034SOL    HW235565   0.431   3.256  11.546 -0.0254  2.9762  2.5934
 8035SOL     OW35566   0.386   4.594   0.765 -0.0305 -0.4656  0.3409
 8035SOL    HW135567   0.355   4.655   0.698  1.6494 -2.9370 -2.7144
 8035SOL    HW235568   0.318   4.610   0.830  0.2363 -0.2240  0.5589
 8036SOL     OW35569   4.456   2.819   0.802 -0.3472 -0.2810 -0.0316
 8036SOL    HW135570   4.438   2.876   0.727 -0.8211  0.0173  0.3060
 8036SOL    HW235571   4.452   2.885   0.871  1.8208 -2.9440  2.6375
 8037SOL     OW35572   3.856   2.254   7.869  0.2104 -0.1309 -0.0064
 8037SOL    HW135573   3.813   2.263   7.955 -0.0887 -0.6925 -0.0998
 8037SOL    HW235574   3.851   2.346   7.841  1.7839 -0.4585 -1.3082
 8038SOL     OW35575   0.897   0.799   6.856 -0.0065  0.2400  0.2163
 8038SOL    HW135576   0.906   0.802   6.761 -1.7794 -1.1540  0.0026
 8038SOL    HW235577   0.920   0.890   6.873 -1.1748  0.3656  1.0588
 8039SOL     OW35578   2.828   2.522   8.926  0.1004 -0.7809  0.2513
 8039SOL    HW135579   2.780   2.550   8.848 -1.0031 -1.4942  0.6840
 8039SOL    HW235580   2.802   2.430   8.934  0.2770 -0.7269  1.4337
 8040SOL     OW35581   1.285   1.430   9.057 -0.1360 -0.1506 -0.7707
 8040SOL    HW135582   1.378   1.435   9.032 -0.5998  2.0924 -2.0667
 8040SOL    HW235583   1.250   1.364   8.997 -1.3695 -0.5197  0.3612
 8041SOL     OW35584   2.947   1.691   8.213 -0.2592  0.2680  0.7238
 8041SOL    HW135585   3.034   1.725   8.190  0.3744 -2.1235 -0.4826
 8041SOL    HW235586   2.972   1.603   8.183 -2.8757 -0.3687  0.3858
 8042SOL     OW35587   0.991   2.001   4.774 -0.0206  0.2426  0.2799
 8042SOL    HW135588   0.987   1.965   4.685 -0.8650  1.2898 -0.1111
 8042SOL    HW235589   1.043   1.931   4.815 -0.4940 -0.3315 -0.0930
 8043SOL     OW35590   1.235   4.530   7.025 -0.2435 -0.1796  0.5164
 8043SOL    HW135591   1.202   4.620   7.030  0.8418  0.1238  2.3039
 8043SOL    HW235592   1.148   4.491   7.036 -1.0942  0.4095 -3.9217
 8044SOL     OW35593   0.872   4.251   3.497  0.6220  0.7363  0.1249
 8044SOL    HW135594   0.939   4.253   3.566  1.2008 -1.2870 -0.3899
 8044SOL    HW235595   0.911   4.322   3.446  0.1120 -0.5380 -2.0136
 8045SOL     OW35596   2.885   1.331   4.356  0.3714  0.4187  0.0798
 8045SOL    HW135597   2.853   1.252   4.399 -3.4915  1.7800 -0.3116
 8045SOL    HW235598   2.885   1.306   4.264 -1.3760 -1.4061  0.5882
 8046SOL     OW35599   0.385   4.238   3.344 -0.8356 -0.5671 -0.4443
 8046SOL    HW135600   0.435   4.194   3.275  1.8227 -0.7694  1.6079
 8046SOL    HW235601   0.426   4.208   3.425 -1.7905 -1.2422 -0.2076
 8047SOL     OW35602   1.540   2.499   7.172 -0.2710 -0.0525  0.3734
 8047SOL    HW135603   1.570   2.580   7.212  0.5802 -0.0454 -0.2667
 8047SOL    HW235604   1.613   2.437   7.176 -0.1943 -0.0168 -0.3855
 8048SOL     OW35605   3.466   3.912   7.866 -0.1279  0.0941 -0.5722
 8048SOL    HW135606   3.375   3.883   7.875 -0.0251 -0.1237 -0.2054
 8048SOL    HW235607   3.450   4.003   7.844 -1.2792 -0.0589 -0.3462
 8049SOL     OW35608   1.585   4.621   4.211 -0.5396 -0.2163  0.2058
 8049SOL    HW135609   1.618   4.545   4.162  0.3280  0.0158  0.4150
 8049SOL    HW235610   1.491   4.611   4.197 -0.3763 -0.4182 -0.7231
 8050SOL     OW35611   4.356   3.515   5.166  0.7040  0.3822  0.0173
 8050SOL    HW135612   4.295   3.442   5.174  0.2862  0.7527  0.2232
 8050SOL    HW235613   4.334   3.550   5.080 -2.0870  0.9158  0.9517
 8051SOL     OW35614   2.019   4.597  12.941  0.0107 -0.6783 -0.1932
 8051SOL    HW135615   1.986   4.562  13.024  0.7425  0.0837  0.4143
 8051SOL    HW235616   1.945   4.593  12.881  2.4629 -1.9936 -3.1720
 8052SOL     OW35617   4.083   4.507   7.832  0.0622 -0.2151 -0.3145
 8052SOL    HW135618   4.005   4.537   7.879  0.3418 -0.5911  0.3848
 8052SOL    HW235619   4.049   4.434   7.780  1.5900  0.2118 -1.9301
 8053SOL     OW35620   3.339   4.439   8.851  0.2678 -0.4823  0.3212
 8053SOL    HW135621   3.368   4.525   8.821 -1.1106 -0.5696 -1.2674
 8053SOL    HW235622   3.413   4.408   8.903 -0.8420 -0.4458  1.9179
 8054SOL     OW35623   2.736   3.919  15.012 -0.3499  0.3107  0.3588
 8054SOL    HW135624   2.708   3.889  14.926  3.4523  1.2291 -1.2069
 8054SOL    HW235625   2.829   3.941  14.998  0.4167 -1.3171  2.8100
 8055SOL     OW35626   2.354   3.922   5.260  0.6445  0.5924  0.1612
 8055SOL    HW135627   2.263   3.903   5.285  0.6305  0.2713 -0.1328
 8055SOL    HW235628   2.351   4.017   5.250  1.4516  0.4867 -1.0690
 8056SOL     OW35629   3.468   3.799   3.979 -0.5956  0.0062  0.6421
 8056SOL    HW135630   3.463   3.718   4.029  1.6129 -0.1775  0.5559
 8056SOL    HW235631   3.538   3.838   4.032 -0.2947  1.4913 -0.8435
 8057SOL     OW35632   2.725   2.509   4.897  0.5783 -0.3498  0.2213
 8057SOL    HW135633   2.642   2.556   4.893  1.5590  1.3599 -0.1489
 8057SOL    HW235634   2.771   2.587   4.929 -1.1879  0.1746  1.5288
 8058SOL     OW35635   3.030   3.801   5.837 -0.1058 -0.5422  0.3907
 8058SOL    HW135636   3.078   3.828   5.759  1.4680 -0.2199  1.4743
 8058SOL    HW235637   3.022   3.706   5.824 -1.4136 -0.2000 -1.2197
 8059SOL     OW35638   0.503   3.391   0.626  0.8977  0.1356  0.2890
 8059SOL    HW135639   0.531   3.329   0.558 -2.4921  0.2684 -1.1998
 8059SOL    HW235640   0.450   3.335   0.682  2.3377 -0.3730  1.1540
 8060SOL     OW35641   0.676   1.402  12.001  0.0393  0.1154 -0.0721
 8060SOL    HW135642   0.657   1.309  12.013  1.4489  0.1034  2.0877
 8060SOL    HW235643   0.590   1.436  11.975  0.1658 -0.0069 -0.6499
 8061SOL     OW35644   0.222   2.540   7.871 -0.1059  0.0882  0.8694
 8061SOL    HW135645   0.305   2.586   7.880 -0.5257  1.2046 -0.9003
 8061SOL    HW235646   0.177   2.596   7.807  1.0745  0.7488  0.6231
 8062SOL     OW35647   1.570   0.548  10.133  0.7975  0.0171  0.2122
 8062SOL    HW135648   1.493   0.579  10.179  2.6639  2.8591  1.3823
 8062SOL    HW235649   1.638   0.598  10.177  0.4223 -1.0445  1.9828
 8063SOL     OW35650   0.262   0.215   3.834  0.2382  0.4881  0.0394
 8063SOL    HW135651   0.206   0.138   3.819  0.6994  0.3733 -1.1216
 8063SOL    HW235652   0.345   0.167   3.824  1.2547  2.8891 -2.9837
 8064SOL     OW35653   0.156   3.051  11.590  0.2618 -0.5275 -0.2974
 8064SOL    HW135654   0.093   3.008  11.646 -0.1648 -1.4336 -1.4675
 8064SOL    HW235655   0.212   2.976  11.571  1.2781  0.0135  0.5547
 8065SOL     OW35656   0.687   2.839  12.893  0.6415 -0.0353 -0.6213
 8065SOL    HW135657   0.738   2.884  12.826 -0.8220 -0.5263 -2.0905
 8065SOL    HW235658   0.716   2.894  12.966 -3.0232  0.5523  0.4405
 8066SOL     OW35659   1.435   0.501   3.807  0.7944 -0.6287  0.2392
 8066SOL    HW135660   1.427   0.448   3.886  1.6516  0.4794  1.0613
 8066SOL    HW235661   1.385   0.450   3.744  1.0525  0.2232 -0.6575
 8067SOL     OW35662   4.019   0.016  13.188 -0.0782  0.4672 -0.0079
 8067SOL    HW135663   4.103   4.715  13.147 -1.1715  0.6568 -2.3559
 8067SOL    HW235664   3.985   0.053  13.107 -0.7729  0.4130  0.2650
 8068SOL     OW35665   4.505   1.111   7.025 -0.2167 -0.3304  0.5937
 8068SOL    HW135666   4.503   1.066   6.940 -2.9406  2.6274 -0.8889
 8068SOL    HW235667   4.506   1.032   7.079 -2.3609 -0.6675  0.1109
 8069SOL     OW35668   4.130   3.356  11.083  0.3566 -0.7105 -0.7517
 8069SOL    HW135669   4.183   3.283  11.052  1.5280 -0.2773  0.2170
 8069SOL    HW235670   4.160   3.365  11.173 -0.1686 -2.3802 -0.4104
 8070SOL     OW35671   1.496   1.306   6.206 -0.1080  0.3752 -0.0085
 8070SOL    HW135672   1.560   1.332   6.139  0.2497 -1.1679 -0.2653
 8070SOL    HW235673   1.488   1.385   6.260 -2.6982  0.4937 -0.5760
 8071SOL     OW35674   1.026   2.952   5.076  0.3151  0.0687  0.4936
 8071SOL    HW135675   1.079   2.925   5.000 -1.8774 -0.1852 -0.9374
 8071SOL    HW235676   0.999   3.040   5.051  1.1731  0.0979 -0.3453
 8072SOL     OW35677   1.362   0.018   8.772  0.0632  0.4187 -0.0027
 8072SOL    HW135678   1.412   4.693   8.705 -0.0930 -1.9586  1.5162
 8072SOL    HW235679   1.325   4.665   8.820 -1.8154  0.7866 -0.8829
 8073SOL     OW35680   0.126   3.987  16.654  0.0274 -0.6722 -0.2608
 8073SOL    HW135681   0.140   4.073  16.695  0.8553 -0.6807 -0.5333
 8073SOL    HW235682   0.074   3.999  16.575  1.8863 -0.0580 -1.3878
 8074SOL     OW35683   2.559   3.413   8.846 -0.3976  0.2686  0.0182
 8074SOL    HW135684   2.560   3.496   8.799 -1.0555 -0.9322 -2.1390
 8074SOL    HW235685   2.592   3.352   8.780 -0.3026  1.1321 -0.7339
 8075SOL     OW35686   2.681   3.023   5.900  0.6522 -0.1910 -0.2778
 8075SOL    HW135687   2.675   2.931   5.927 -2.2075  0.3836  0.9737
 8075SOL    HW235688   2.766   3.022   5.856  2.7196 -0.0130  3.6802
 8076SOL     OW35689   0.226   0.150   0.381  0.1037  0.1459  0.3007
 8076SOL    HW135690   0.237   0.230   0.329 -0.8681 -0.9970 -1.6768
 8076SOL    HW235691   0.155   0.111   0.330 -0.4195 -0.7807  1.7333
 8077SOL     OW35692   4.212   3.765   7.460 -0.1074  0.1675  0.0763
 8077SOL    HW135693   4.199   3.706   7.534 -0.1248  0.3107  0.1884
 8077SOL    HW235694   4.230   3.706   7.388  0.0878 -0.3261  0.5268
 8078SOL     OW35695   0.794   2.823   5.313 -0.0873 -0.2171  0.3470
 8078SOL    HW135696   0.740   2.752   5.278  0.8849  0.2982 -2.1900
 8078SOL    HW235697   0.862   2.769   5.353  0.8566  0.2363 -0.6513
 8079SOL     OW35698   1.417   1.214   5.312 -0.2718 -0.8013  0.3948
 8079SOL    HW135699   1.388   1.272   5.241  1.9115 -0.6725 -0.4110
 8079SOL    HW235700   1.471   1.147   5.268  0.6228  1.0086 -1.2868
 8080SOL     OW35701   3.619   2.826   0.852  0.0634 -0.1224 -0.2450
 8080SOL    HW135702   3.691   2.800   0.910 -1.0011 -0.7692  0.7845
 8080SOL    HW235703   3.663   2.859   0.774  0.7005 -1.1232 -0.3038
 8081SOL     OW35704   0.849   2.173  10.288  0.1409  0.2407 -0.0023
 8081SOL    HW135705   0.823   2.223  10.366  0.6538 -0.2683  0.4941
 8081SOL    HW235706   0.764   2.166  10.245  0.3084 -0.5300 -0.2042
 8082SOL     OW35707   0.984   1.631   1.504  0.8113 -0.0327 -0.1336
 8082SOL    HW135708   0.898   1.670   1.521  1.3595  0.4064  1.6501
 8082SOL    HW235709   0.954   1.557   1.451  0.6088 -0.5491  0.7074
 8083SOL     OW35710   4.484   0.637   1.977  0.1653  0.2168  0.1910
 8083SOL    HW135711   4.436   0.678   2.050  2.3171 -2.2881  2.9832
 8083SOL    HW235712   4.424   0.657   1.905  1.0010 -0.2853 -0.6385
 8084SOL     OW35713   1.818   3.516   4.985  0.1731  0.0784  0.6910
 8084SOL    HW135714   1.878   3.474   5.047  1.6914  0.1470 -0.7047
 8084SOL    HW235715   1.816   3.455   4.910  1.5958 -1.0021  1.5367
 8085SOL     OW35716   3.047   0.364  10.507 -0.6764 -0.5329 -0.1281
 8085SOL    HW135717   3.006   0.390  10.590  0.0525 -2.3909  0.8267
 8085SOL    HW235718   3.012   0.276  10.491  0.5785 -0.8204 -1.3032
 8086SOL     OW35719   4.055   4.249   2.513  0.0997 -0.4515 -0.1654
 8086SOL    HW135720   4.059   4.154   2.499  2.6118 -0.3740  0.0231
 8086SOL    HW235721   4.089   4.265   2.602 -0.7736  0.5915 -0.0296
 8087SOL     OW35722   4.638   1.397   1.554  0.0204 -0.0923 -0.5392
 8087SOL    HW135723   0.010   1.419   1.554 -0.0791  0.4243  2.4571
 8087SOL    HW235724   4.605   1.449   1.628  0.3287  1.3460 -1.4086
 8088SOL     OW35725   1.007   3.742   0.847 -0.2429 -0.5128 -0.0665
 8088SOL    HW135726   1.084   3.696   0.815 -0.7181 -0.5032 -1.2175
 8088SOL    HW235727   0.944   3.671   0.860  0.4847 -0.6376  2.7981
 8089SOL     OW35728   0.825   0.993   6.279 -0.2688 -0.3396  0.1871
 8089SOL    HW135729   0.798   1.004   6.370  2.5164 -4.1528  1.4965
 8089SOL    HW235730   0.856   0.902   6.279 -0.1922 -0.3084  2.0998
 8090SOL     OW35731   4.669   0.433   0.271 -0.9579  0.1101  0.2588
 8090SOL    HW135732   4.655   0.485   0.192 -0.5113 -0.9329 -0.5201
 8090SOL    HW235733   4.588   0.382   0.271 -0.4166 -0.7443 -0.6111
 8091SOL     OW35734   4.059   4.367   8.818 -0.1110 -0.2840 -0.2553
 8091SOL    HW135735   3.964   4.369   8.811 -0.1280  0.5025  0.1704
 8091SOL    HW235736   4.074   4.302   8.886  1.7084  2.0024  1.5274
 8092SOL     OW35737   1.398   4.653  14.224  0.0057 -0.1652 -0.0115
 8092SOL    HW135738   1.448   4.697  14.293 -0.0136  2.1763 -1.5096
 8092SOL    HW235739   1.381   0.005  14.164 -1.6440  0.5441  1.2984
 8093SOL     OW35740   0.835   1.890   3.909 -0.1676  0.4328  0.6462
 8093SOL    HW135741   0.831   1.795   3.893 -0.8243  0.6347 -0.3805
 8093SOL    HW235742   0.743   1.905   3.934  0.1902  0.5441  1.8804
 8094SOL     OW35743   3.296   1.816   2.954  0.1640  0.1760 -0.1783
 8094SOL    HW135744   3.271   1.888   3.012 -1.1596 -1.5689  1.3919
 8094SOL    HW235745   3.336   1.866   2.882 -3.5259  1.3464 -1.4376
 8095SOL     OW35746   2.524   0.029   4.419 -0.3725  0.1728 -0.2957
 8095SOL    HW135747   2.497   4.715   4.504  1.2588 -0.8519 -0.1982
 8095SOL    HW235748   2.494   0.118   4.433  0.0409  0.5401 -1.8214
 8096SOL     OW35749   3.807   0.060   4.788 -0.2523  0.0151 -0.4491
 8096SOL    HW135750   3.716   0.090   4.795 -0.0659  0.1276  1.7082
 8096SOL    HW235751   3.802   0.006   4.710 -0.1751 -0.7851  0.0996
 8097SOL     OW35752   3.168   2.152   6.885  0.2264 -0.4951  0.2344
 8097SOL    HW135753   3.206   2.206   6.954 -0.1448  0.1019 -0.0189
 8097SOL    HW235754   3.173   2.064   6.921 -0.3765 -0.7792 -0.3583
 8098SOL     OW35755   2.671   0.606   0.741  0.0421 -0.5671  0.2475
 8098SOL    HW135756   2.648   0.690   0.779  1.5046  0.3747 -0.9726
 8098SOL    HW235757   2.721   0.641   0.668 -0.0985 -0.1711  0.3455
 8099SOL     OW35758   4.447   2.985  16.104  0.5430  0.4307 -0.6841
 8099SOL    HW135759   4.364   2.950  16.137  1.2413 -1.1949 -0.6374
 8099SOL    HW235760   4.505   2.942  16.167  0.4611 -0.4823 -1.2330
 8100SOL     OW35761   1.840   4.045   2.991  0.1738 -0.4117  0.5472
 8100SOL    HW135762   1.909   4.043   3.058  1.9106  1.0544 -1.1749
 8100SOL    HW235763   1.864   4.105   2.920  1.3332 -1.5394 -0.0102
 8101SOL     OW35764   4.472   0.350   5.041  0.4803  0.0259  0.2380
 8101SOL    HW135765   4.496   0.308   5.124 -4.9236 -1.8160  0.8450
 8101SOL    HW235766   4.470   0.268   4.990 -1.5178  0.3173 -0.1232
 8102SOL     OW35767   2.087   2.529  11.771 -0.0451  0.7500  0.0206
 8102SOL    HW135768   2.022   2.480  11.822  0.6778  1.6846  1.8732
 8102SOL    HW235769   2.032   2.569  11.704  0.6897 -0.4227 -1.2598
 8103SOL     OW35770   2.383   0.626  15.954  0.4378 -0.1505 -0.7234
 8103SOL    HW135771   2.307   0.573  15.929 -0.2986  0.6167 -0.0948
 8103SOL    HW235772   2.359   0.703  15.903  0.2662  0.6448  0.5867
 8104SOL     OW35773   0.358   3.557   4.635 -0.5598  0.2221  0.2478
 8104SOL    HW135774   0.348   3.631   4.695  0.1528  0.5716 -0.0746
 8104SOL    HW235775   0.277   3.558   4.584  0.0902  0.3960 -0.7753
 8105SOL     OW35776   0.468   3.131   4.557 -0.0500 -0.1202  0.9081
 8105SOL    HW135777   0.390   3.084   4.528  0.9191 -0.2016 -1.5573
 8105SOL    HW235778   0.494   3.173   4.475 -1.1489  1.0334  1.1512
 8106SOL     OW35779   0.812   0.032  12.058  0.1613  0.1487 -0.3674
 8106SOL    HW135780   0.761   0.034  12.140 -0.6883  0.0327 -0.8944
 8106SOL    HW235781   0.835   4.661  12.059 -0.1807  0.0421 -2.1458
 8107SOL     OW35782   1.261   2.408   4.415 -0.0939 -0.2489  0.0196
 8107SOL    HW135783   1.206   2.337   4.446  1.0393 -0.9040  0.5528
 8107SOL    HW235784   1.253   2.469   4.488  1.2277 -1.2295  0.9754
 8108SOL     OW35785   0.757   4.193   5.615  0.2971  0.0374 -0.3839
 8108SOL    HW135786   0.695   4.146   5.671 -0.4171 -0.3880 -1.5143
 8108SOL    HW235787   0.719   4.192   5.527 -1.4605  1.9326  0.3333
 8109SOL     OW35788   1.151   1.319  15.661 -0.5163  0.1702  0.2430
 8109SOL    HW135789   1.242   1.348  15.669 -0.4305 -0.0469  0.0383
 8109SOL    HW235790   1.134   1.287  15.750 -0.6223  1.1922  0.5921
 8110SOL     OW35791   1.821   2.420   3.096  0.1219  0.6353  0.1275
 8110SOL    HW135792   1.771   2.479   3.153 -1.3446 -1.0063  0.5273
 8110SOL    HW235793   1.793   2.462   3.014  0.4367  0.4450 -0.0814
 8111SOL     OW35794   0.257   4.269   3.683  0.1890 -0.1648  0.4225
 8111SOL    HW135795   0.322   4.201   3.667 -1.6722 -1.7680 -0.3777
 8111SOL    HW235796   0.308   4.344   3.713  0.3000  0.0442 -0.2926
 8112SOL     OW35797   2.142   0.042   1.061 -0.3911  0.5102 -0.1620
 8112SOL    HW135798   2.147   4.680   1.014 -2.7678  0.5271 -0.4920
 8112SOL    HW235799   2.139   0.095   0.981 -0.2919 -1.3456 -1.4136
 8113SOL     OW35800   1.309   0.911   7.701  0.2819 -0.5050  0.0666
 8113SOL    HW135801   1.335   0.982   7.759 -2.4447 -0.4642  1.2055
 8113SOL    HW235802   1.328   0.838   7.760 -0.0363 -2.3806 -2.1064
 8114SOL     OW35803   3.387   4.603  16.271  0.3502 -0.0642 -0.1761
 8114SOL    HW135804   3.332   4.654  16.212  1.9574 -0.9950 -2.4753
 8114SOL    HW235805   3.449   4.667  16.305 -0.9363  1.5844 -0.9155
 8115SOL     OW35806   0.834   3.905  10.040 -0.6533  0.3037 -0.5964
 8115SOL    HW135807   0.780   3.974  10.000 -0.6256  1.0032  0.5682
 8115SOL    HW235808   0.882   3.872   9.964 -0.2802 -0.0755 -0.1976
 8116SOL     OW35809   3.957   4.494  15.342  0.6790  0.1165 -0.1129
 8116SOL    HW135810   4.040   4.538  15.363  1.1185 -1.0313  0.5812
 8116SOL    HW235811   3.976   4.461  15.255  2.4782 -1.8964  1.0338
 8117SOL     OW35812   0.096   2.383  10.302 -0.0306  0.3390  0.0394
 8117SOL    HW135813   0.100   2.295  10.340 -2.0103  0.6814  1.0783
 8117SOL    HW235814   0.176   2.393  10.251  0.2244 -0.3246  0.3189
 8118SOL     OW35815   2.005   2.974  12.260  0.2570 -0.1998 -0.3196
 8118SOL    HW135816   1.930   2.964  12.319 -0.5849 -1.3427 -1.5797
 8118SOL    HW235817   2.001   3.069  12.251  0.4523 -0.1238  0.3503
 8119SOL     OW35818   3.012   3.345   6.568 -0.7174  0.2714 -0.9738
 8119SOL    HW135819   3.048   3.347   6.656 -1.7658  1.4146 -0.5788
 8119SOL    HW235820   2.933   3.291   6.578  0.6076 -1.2069  1.4042
 8120SOL     OW35821   0.793   0.827   6.028  0.2132 -0.0263  0.2263
 8120SOL    HW135822   0.869   0.786   5.986 -0.6062  2.0423 -3.3180
 8120SOL    HW235823   0.765   0.770   6.100 -0.4408 -0.5885 -0.4713
 8121SOL     OW35824   2.835   3.121   8.232  0.3829  0.3032  0.1743
 8121SOL    HW135825   2.821   3.106   8.138 -0.5166  3.8965 -0.2652
 8121SOL    HW235826   2.747   3.094   8.259  0.3490  1.3272  1.1043
 8122SOL     OW35827   0.191   4.691   3.105  0.0746  0.3333  0.2528
 8122SOL    HW135828   0.155   4.610   3.071  0.5681 -0.3602  1.3921
 8122SOL    HW235829   0.259   4.671   3.170  1.0112 -1.9298 -1.4386
 8123SOL     OW35830   3.591   4.685   2.041 -0.6323 -0.3849  0.1850
 8123SOL    HW135831   3.537   4.649   1.971 -1.0901  2.4974 -0.9474
 8123SOL    HW235832   3.634   4.603   2.066  0.5825 -1.2300 -4.6620
 8124SOL     OW35833   3.331   2.424   7.879 -0.0235 -0.4433 -0.0730
 8124SOL    HW135834   3.294   2.441   7.966  1.0478 -3.0965  0.9241
 8124SOL    HW235835   3.331   2.507   7.832  0.9544 -0.8856 -0.8570
 8125SOL     OW35836   0.299   3.166   7.706  0.1108  0.0967 -0.4941
 8125SOL    HW135837   0.346   3.153   7.624  1.3665  0.1024  0.2304
 8125SOL    HW235838   0.351   3.117   7.770  1.3692  1.0254 -0.8120
 8126SOL     OW35839   1.365   0.462  17.354 -0.1071  0.5313 -0.4426
 8126SOL    HW135840   1.407   0.489  17.435  0.9111  1.1696 -1.1717
 8126SOL    HW235841   1.280   0.504  17.366 -1.1007 -1.5384 -0.1712
 8127SOL     OW35842   1.404   1.625   7.731  0.1985 -0.0956 -0.2623
 8127SOL    HW135843   1.376   1.667   7.650  0.1006  0.4816  0.0692
 8127SOL    HW235844   1.325   1.606   7.782  1.8401 -1.5808  1.6756
 8128SOL     OW35845   3.519   1.828   4.122  0.2696  0.5383  0.0584
 8128SOL    HW135846   3.589   1.773   4.087 -2.0326 -1.6977 -0.9972
 8128SOL    HW235847   3.535   1.917   4.089 -0.2416  0.4705 -0.3744
 8129SOL     OW35848   2.484   1.372  12.720  0.2279 -0.0005 -0.0882
 8129SOL    HW135849   2.498   1.377  12.814 -1.2352 -1.8364  0.2108
 8129SOL    HW235850   2.407   1.316  12.722  0.4906 -0.5225 -3.3705
 8130SOL     OW35851   0.875   0.499   3.836  0.3273  0.5909  0.4123
 8130SOL    HW135852   0.879   0.488   3.931 -0.2574  1.5278  0.5488
 8130SOL    HW235853   0.955   0.460   3.800 -1.3452 -3.3857  1.0858
 8131SOL     OW35854   3.275   4.371   3.338 -0.1911  0.2994  0.7899
 8131SOL    HW135855   3.248   4.461   3.319  2.4165  1.0314  0.4954
 8131SOL    HW235856   3.199   4.339   3.386  0.1854 -0.4284  0.8868
 8132SOL     OW35857   3.574   3.340   0.645 -0.4637  0.5707  0.3048
 8132SOL    HW135858   3.572   3.303   0.557  0.6016  1.0102  0.0984
 8132SOL    HW235859   3.610   3.264   0.691  1.3007  0.5393 -1.1255
 8133SOL     OW35860   0.720   2.463   4.295  0.1293  0.8895  0.4427
 8133SOL    HW135861   0.697   2.534   4.356  0.9555  0.1978  1.5585
 8133SOL    HW235862   0.633   2.449   4.257  0.2265  2.1890 -0.2564
 8134SOL     OW35863   0.328   1.747   3.040  0.0644  0.3759  0.1208
 8134SOL    HW135864   0.339   1.825   2.986  0.2034  1.2242  1.3825
 8134SOL    HW235865   0.246   1.711   3.006  0.4439  0.5398 -0.9824
 8135SOL     OW35866   3.031   0.418   1.349 -0.1618 -0.2947  0.3879
 8135SOL    HW135867   2.987   0.372   1.421  1.1259  1.0045  2.0074
 8135SOL    HW235868   3.093   0.470   1.401 -0.0922 -0.5662  0.5718
 8136SOL     OW35869   4.526   3.576   5.410 -0.0501 -0.2671  0.2010
 8136SOL    HW135870   4.472   3.602   5.485 -0.8646  1.3003 -0.9367
 8136SOL    HW235871   4.460   3.585   5.342 -0.3596 -1.9623  0.2824
 8137SOL     OW35872   1.153   0.332  10.022 -0.5445  0.1976 -0.6072
 8137SOL    HW135873   1.158   0.238  10.005  0.8433  0.5531 -2.1459
 8137SOL    HW235874   1.127   0.362   9.935  3.1608  0.7078 -1.5059
 8138SOL     OW35875   2.056   4.606   5.316 -0.0833 -0.6539 -0.1604
 8138SOL    HW135876   2.051   4.516   5.282  0.4598 -1.2637  1.3761
 8138SOL    HW235877   2.092   4.590   5.403 -0.7470  0.9708  0.4160
 8139SOL     OW35878   1.742   0.805  14.122  0.1981  0.2680  0.2568
 8139SOL    HW135879   1.717   0.764  14.039  3.5620  2.5734 -1.8958
 8139SOL    HW235880   1.721   0.739  14.188 -0.9862  1.3026  0.9164
 8140SOL     OW35881   1.498   4.609  17.247  0.5961 -0.6166 -0.1536
 8140SOL    HW135882   1.585   4.581  17.220  1.7320  1.4105  1.3958
 8140SOL    HW235883   1.470   4.674  17.182 -0.9383 -0.7486  0.3606
 8141SOL     OW35884   2.249   0.061  14.396 -0.1288 -0.0968 -0.1153
 8141SOL    HW135885   2.321   0.029  14.450  0.3076  1.9891  0.5281
 8141SOL    HW235886   2.195   4.703  14.395 -0.1571 -0.0581 -2.7650
 8142SOL     OW35887   3.220   3.501  10.303 -0.1063 -0.6346  0.5944
 8142SOL    HW135888   3.159   3.563  10.263  1.8048  0.1490 -1.0842
 8142SOL    HW235889   3.160   3.431  10.329 -1.1663 -0.3507 -1.1088
 8143SOL     OW35890   4.309   0.410  17.173 -0.4095 -0.0757  0.1499
 8143SOL    HW135891   4.271   0.355  17.104 -1.2123  2.2771 -1.2669
 8143SOL    HW235892   4.402   0.402  17.149 -0.4831  0.4627 -0.3081
 8144SOL     OW35893   2.255   0.758   9.925 -0.1019 -0.2876 -0.3248
 8144SOL    HW135894   2.341   0.725   9.898  0.2877  1.7095 -1.6053
 8144SOL    HW235895   2.281   0.850   9.936 -0.0034 -0.0800 -2.3127
 8145SOL     OW35896   2.699   3.821   0.525 -0.3742  0.0798  0.7775
 8145SOL    HW135897   2.630   3.853   0.467  1.8819 -0.0678 -1.9487
 8145SOL    HW235898   2.656   3.792   0.606 -0.8346  0.9042  0.8281
 8146SOL     OW35899   1.896   4.383   0.314 -0.0953 -0.4274 -0.2875
 8146SOL    HW135900   1.946   4.465   0.319 -1.0075  0.1208 -0.2629
 8146SOL    HW235901   1.829   4.398   0.380 -1.1699 -0.1417 -1.4325
 8147SOL     OW35902   3.477   3.899   2.156 -0.2999  0.1937  0.4617
 8147SOL    HW135903   3.528   3.826   2.120  0.2020  0.0717  1.4364
 8147SOL    HW235904   3.479   3.962   2.084 -1.0557 -1.5345 -1.0646
 8148SOL     OW35905   2.238   2.744   3.428 -0.0174  0.1430 -0.4261
 8148SOL    HW135906   2.268   2.833   3.411  1.4525 -0.5893 -1.6145
 8148SOL    HW235907   2.295   2.699   3.366  1.3819  1.4782 -0.1023
 8149SOL     OW35908   4.287   3.880  15.550  0.0656 -0.4037  0.0666
 8149SOL    HW135909   4.298   3.794  15.509 -2.2307 -0.3830 -0.6150
 8149SOL    HW235910   4.257   3.932  15.475 -1.2429 -2.4842 -0.8388
 8150SOL     OW35911   4.625   1.850   1.809 -0.7552  0.5547 -0.2557
 8150SOL    HW135912   4.711   1.890   1.816 -0.3926 -0.5963  2.0134
 8150SOL    HW235913   4.593   1.884   1.726 -0.9396  1.6379  0.2649
 8151SOL     OW35914   4.310   4.523   5.821  0.1287 -0.2416 -0.6418
 8151SOL    HW135915   4.258   4.591   5.864  3.2021  1.3601  0.5122
 8151SOL    HW235916   4.240   4.459   5.808 -0.4270 -0.1386  1.9844
 8152SOL     OW35917   4.009   3.524  10.902 -0.3724 -0.7995  0.1072
 8152SOL    HW135918   3.930   3.528  10.847 -0.5088 -0.6434  0.3128
 8152SOL    HW235919   4.012   3.434  10.935 -1.8167 -1.4590 -1.5845
 8153SOL     OW35920   1.322   4.488  12.819  0.1660  0.2921 -0.0856
 8153SOL    HW135921   1.326   4.483  12.724  1.4036  1.0534 -0.0650
 8153SOL    HW235922   1.319   4.582  12.839  0.1787 -0.0445  1.4709
 8154SOL     OW35923   0.824   1.072   9.173  0.0273  0.0766 -0.2013
 8154SOL    HW135924   0.734   1.039   9.177 -0.1119  0.5513  0.5130
 8154SOL    HW235925   0.817   1.157   9.217  0.2314  0.4381 -0.8588
 8155SOL     OW35926   4.353   1.302   6.270  0.6385 -0.2055  0.4259
 8155SOL    HW135927   4.276   1.259   6.307 -0.3884 -1.4333 -3.1803
 8155SOL    HW235928   4.318   1.347   6.193  0.4929 -2.7086 -0.9697
 8156SOL     OW35929   3.482   3.231  15.318 -0.3696  0.2918  0.0974
 8156SOL    HW135930   3.397   3.197  15.346  0.1890 -0.2794  1.0899
 8156SOL    HW235931   3.505   3.182  15.239  0.7624  0.4456  0.3370
 8157SOL     OW35932   1.370   2.842   3.764 -0.0005  0.1860  0.3053
 8157SOL    HW135933   1.292   2.880   3.724 -0.3552 -0.0353  0.7916
 8157SOL    HW235934   1.336   2.800   3.843 -0.2170 -1.2259 -0.5582
 8158SOL     OW35935   1.933   0.571  12.222 -0.3332 -0.3491 -0.4183
 8158SOL    HW135936   1.955   0.637  12.155  0.9589 -3.0424 -2.6527
 8158SOL    HW235937   1.957   0.492  12.173 -0.9993 -0.7908 -0.0295
 8159SOL     OW35938   3.205   2.153   2.462  0.3145 -0.4538 -0.0077
 8159SOL    HW135939   3.137   2.141   2.528 -0.0600 -1.3088 -0.5606
 8159SOL    HW235940   3.176   2.090   2.396 -1.0136 -0.9434  1.0255
 8160SOL     OW35941   3.750   2.667   9.390 -0.1700 -0.1705 -0.0437
 8160SOL    HW135942   3.808   2.608   9.341  0.3917  0.6556 -0.3691
 8160SOL    HW235943   3.771   2.646   9.481 -0.5997 -1.5068 -0.2565
 8161SOL     OW35944   1.855   3.137   3.780 -0.3942  0.4092 -0.0864
 8161SOL    HW135945   1.767   3.128   3.743 -0.9347 -1.2105  1.6012
 8161SOL    HW235946   1.904   3.150   3.699  0.8840  0.6361  0.7405
 8162SOL     OW35947   4.339   4.480   0.440  0.1394 -0.0748  0.3201
 8162SOL    HW135948   4.273   4.469   0.508  3.5507  1.3061  3.8452
 8162SOL    HW235949   4.318   4.560   0.392  0.7916 -0.2331 -0.2267
 8163SOL     OW35950   2.565   2.615  14.871 -0.2100  0.0331  0.2346
 8163SOL    HW135951   2.550   2.616  14.966 -0.6439 -0.6229  0.1745
 8163SOL    HW235952   2.657   2.587  14.866 -0.0031  0.8643 -0.5831
 8164SOL     OW35953   3.414   0.994   6.163  0.2148 -0.0730 -0.2511
 8164SOL    HW135954   3.407   1.037   6.078 -2.1909  0.2332  0.1032
 8164SOL    HW235955   3.434   1.064   6.226  0.5319 -1.2358  0.9362
 8165SOL     OW35956   3.767   4.079   4.353 -0.1570  0.3405 -0.3063
 8165SOL    HW135957   3.836   4.077   4.419 -0.7241  0.8203  0.3087
 8165SOL    HW235958   3.815   4.099   4.273  0.6424 -0.3391  0.0059
 8166SOL     OW35959   1.981   4.046   1.261 -0.4814  0.6982  0.4013
 8166SOL    HW135960   1.985   4.087   1.175  0.8336  1.0389  0.6230
 8166SOL    HW235961   2.074   4.043   1.281 -1.0227  0.0520  2.8865
 8167SOL     OW35962   0.951   0.276   7.202 -0.4118  0.0820 -0.0734
 8167SOL    HW135963   0.971   0.243   7.289 -2.9470 -3.2113 -0.7443
 8167SOL    HW235964   0.877   0.218   7.185  0.1651 -0.5410 -0.4396
 8168SOL     OW35965   4.563   4.360   3.595 -0.2365  0.3838 -0.3327
 8168SOL    HW135966   4.489   4.387   3.649  0.6350  2.2233 -0.0618
 8168SOL    HW235967   4.614   4.300   3.650 -1.0668  1.4810  1.6420
 8169SOL     OW35968   0.111   3.183  16.101 -0.2601  0.2012  0.2959
 8169SOL    HW135969   0.018   3.197  16.117 -0.6586 -0.6487 -1.2854
 8169SOL    HW235970   0.113   3.128  16.023 -2.8714 -0.1579  0.4751
 8170SOL     OW35971   0.241   3.079   3.414 -0.3277 -0.0522 -0.5607
 8170SOL    HW135972   0.237   3.050   3.323  2.7412  1.1265 -1.0832
 8170SOL    HW235973   0.283   3.165   3.412 -0.6995  0.1142 -1.1396
 8171SOL     OW35974   2.828   4.613  14.477  0.2331  0.7744 -0.7962
 8171SOL    HW135975   2.838   4.531  14.430 -0.6020  0.7185 -0.8713
 8171SOL    HW235976   2.900   4.599  14.538 -0.8134 -1.2680 -0.0445
 8172SOL     OW35977   1.224   0.981  12.554  0.6223  0.2864 -0.3156
 8172SOL    HW135978   1.237   1.036  12.477 -0.2802  0.5224 -0.2890
 8172SOL    HW235979   1.234   1.045  12.624 -0.8084 -1.3429  1.3622
 8173SOL     OW35980   2.238   1.339   7.504  0.0402 -0.2711 -0.6968
 8173SOL    HW135981   2.143   1.348   7.495  0.3740  2.9274 -0.9480
 8173SOL    HW235982   2.244   1.291   7.587  0.1023 -2.1663 -1.8067
 8174SOL     OW35983   3.786   1.323   9.659 -0.6974 -0.1609  0.3922
 8174SOL    HW135984   3.852   1.255   9.643  1.2913  2.3910 -2.2672
 8174SOL    HW235985   3.736   1.272   9.723 -0.8180  2.6505  2.4893
 8175SOL     OW35986   0.195   1.814   2.794 -0.0296 -0.0143  0.7608
 8175SOL    HW135987   0.210   1.738   2.738 -1.8390 -1.1025  1.7467
 8175SOL    HW235988   0.143   1.874   2.740 -0.9741 -0.6651  0.9448
 8176SOL     OW35989   2.458   4.170   7.412 -0.0415 -0.7122  0.1068
 8176SOL    HW135990   2.550   4.194   7.420 -0.2042 -0.0732  0.1083
 8176SOL    HW235991   2.448   4.194   7.320 -0.0001 -0.3161  0.2055
 8177SOL     OW35992   3.130   3.876   0.858  0.8773 -0.0895  0.0649
 8177SOL    HW135993   3.048   3.908   0.822  0.5960 -1.5780 -0.6156
 8177SOL    HW235994   3.189   3.911   0.791  0.6186  1.4298  0.6369
 8178SOL     OW35995   0.333   3.803   7.539 -0.6977 -0.8627  0.6213
 8178SOL    HW135996   0.339   3.742   7.613 -1.0870 -0.6408  0.8404
 8178SOL    HW235997   0.286   3.882   7.567 -0.4224  0.5913 -2.9943
 8179SOL     OW35998   0.007   3.593   7.637 -0.0611 -0.5300 -0.2121
 8179SOL    HW135999   4.705   3.504   7.613  0.8091 -0.9491  0.5096
 8179SOL    HW236000   0.083   3.603   7.580 -0.1884 -0.9602 -0.4545
 8180SOL     OW36001   3.145   2.686   5.205  0.0017 -0.0761 -0.3260
 8180SOL    HW136002   3.219   2.692   5.144  1.6848  0.4023  1.7705
 8180SOL    HW236003   3.079   2.661   5.140 -2.4458  2.6096  1.1791
 8181SOL     OW36004   2.522   3.264   3.207  0.3778 -0.1906  0.4037
 8181SOL    HW136005   2.536   3.306   3.122  1.1190  0.8697  1.0451
 8181SOL    HW236006   2.428   3.280   3.211  0.3649 -0.0792 -0.2023
 8182SOL     OW36007   1.124   2.287  14.473  0.0712  0.1156  0.6310
 8182SOL    HW136008   1.215   2.297  14.501  0.0648  2.0074 -0.0155
 8182SOL    HW236009   1.113   2.195  14.496  2.0276 -0.0738  0.8612
 8183SOL     OW36010   2.111   1.258   9.191 -0.1834 -0.2399  0.1508
 8183SOL    HW136011   2.177   1.251   9.122  0.1607 -0.5765  0.5134
 8183SOL    HW236012   2.104   1.163   9.206 -2.4170  0.2225  2.0296
 8184SOL     OW36013   4.040   2.023   9.498  0.1762 -0.5088  0.5052
 8184SOL    HW136014   4.096   1.947   9.515 -0.3749 -1.3968 -1.7016
 8184SOL    HW236015   3.963   1.992   9.546  0.4070 -0.2628  1.0347
 8185SOL     OW36016   3.845   1.356   6.357  0.1363  0.0476 -0.0377
 8185SOL    HW136017   3.880   1.444   6.366 -0.8946  0.6038 -1.3576
 8185SOL    HW236018   3.822   1.346   6.264  1.2984  1.7612 -0.5002
 8186SOL     OW36019   2.777   1.134  17.565 -0.0505  0.7159 -0.2923
 8186SOL    HW136020   2.737   1.116  17.480 -0.3998 -2.4071  0.5287
 8186SOL    HW236021   2.730   1.215  17.585 -0.4303  0.9956 -2.3079
 8187SOL     OW36022   3.241   2.771   6.992 -0.0335  0.4008  0.1925
 8187SOL    HW136023   3.268   2.849   6.943  1.1026  1.6912  2.8835
 8187SOL    HW236024   3.162   2.802   7.036 -0.5234  1.6345 -1.5385
 8188SOL     OW36025   4.677   1.817   3.566  0.2191 -0.4316 -0.3322
 8188SOL    HW136026   0.011   1.767   3.626 -1.9702 -0.7540  1.4207
 8188SOL    HW236027   0.021   1.833   3.498  0.5134  0.6987  0.2071
 8189SOL     OW36028   2.462   0.002   7.337  0.3339  0.1645 -0.1493
 8189SOL    HW136029   2.412   0.064   7.390 -1.6720 -0.8619 -0.8457
 8189SOL    HW236030   2.392   4.673   7.296 -1.7430  2.6710  0.3092
 8190SOL     OW36031   3.024   3.446   7.364 -0.0254  0.0952  0.1726
 8190SOL    HW136032   2.944   3.498   7.362 -0.8961 -1.2566 -0.0790
 8190SOL    HW236033   3.043   3.443   7.270  0.5429 -1.0123  0.3260
 8191SOL     OW36034   0.139   4.688   3.792  0.5783 -0.0997  0.0760
 8191SOL    HW136035   0.089   4.666   3.870  0.6795 -1.0524 -0.1239
 8191SOL    HW236036   0.117   4.608   3.744  2.2210  0.5671 -1.7793
 8192SOL     OW36037   3.225   3.764   7.941 -0.4559 -0.5565 -0.1561
 8192SOL    HW136038   3.132   3.756   7.962  0.1021 -1.8734  1.8423
 8192SOL    HW236039   3.263   3.777   8.029 -3.9334  0.6470  1.1584
 8193SOL     OW36040   1.203   1.704  17.258  0.8518 -0.0197  0.1012
 8193SOL    HW136041   1.278   1.762  17.245  1.1995 -0.2605  0.9789
 8193SOL    HW236042   1.181   1.727  17.349 -1.5969  0.5497 -0.6284
 8194SOL     OW36043   0.910   4.343   2.018 -0.3325 -0.2206  0.0469
 8194SOL    HW136044   0.851   4.381   1.952  0.4258  0.1910 -0.3836
 8194SOL    HW236045   0.978   4.410   2.021 -0.3655 -0.1220 -1.6237
 8195SOL     OW36046   3.920   3.546   9.164  0.1069 -0.7983  0.4178
 8195SOL    HW136047   3.876   3.604   9.226  1.1559 -1.2635  1.6008
 8195SOL    HW236048   3.959   3.479   9.220  0.0805 -0.8222  0.4075
 8196SOL     OW36049   2.263   3.213   0.680  0.7676 -0.4800 -0.2035
 8196SOL    HW136050   2.321   3.285   0.655  0.7173 -0.6601 -0.8288
 8196SOL    HW236051   2.325   3.144   0.655 -0.5127 -1.3815 -0.8581
 8197SOL     OW36052   3.180   1.713   2.058  0.0664  0.5045 -0.1801
 8197SOL    HW136053   3.126   1.785   2.027  0.4198  2.0848  2.8750
 8197SOL    HW236054   3.126   1.637   2.037 -1.8247  1.3516  1.5861
 8198SOL     OW36055   0.730   3.511   7.332 -0.6576  0.1934 -0.3100
 8198SOL    HW136056   0.723   3.606   7.344  1.4021  0.3627 -0.5078
 8198SOL    HW236057   0.642   3.474   7.326 -0.7879  0.2983  1.0141
 8199SOL     OW36058   0.438   2.496  13.345 -0.9427 -0.3683 -0.4257
 8199SOL    HW136059   0.356   2.544  13.331 -0.8615 -0.2099 -0.3576
 8199SOL    HW236060   0.428   2.478  13.438  1.4289  3.9955  0.7030
 8200SOL     OW36061   2.082   2.056   4.847 -0.1383 -0.0658  0.2031
 8200SOL    HW136062   2.069   2.129   4.786  2.3772 -0.1809 -0.4439
 8200SOL    HW236063   2.128   1.995   4.790  0.2509  1.2219 -0.8684
 8201SOL     OW36064   4.014   2.996   5.311 -0.1163  0.2004  0.1786
 8201SOL    HW136065   4.080   2.961   5.251 -0.2478 -1.2942  0.9109
 8201SOL    HW236066   4.071   3.058   5.356  0.0432  0.8088 -0.8501
 8202SOL     OW36067   3.019   3.045   3.854 -0.5316 -0.0065  0.1532
 8202SOL    HW136068   3.042   3.100   3.928 -1.7723 -0.1944  0.6846
 8202SOL    HW236069   3.037   2.955   3.884  0.8733 -0.2692 -1.4839
 8203SOL     OW36070   1.768   3.099   7.231 -0.2100  0.0869  0.1076
 8203SOL    HW136071   1.694   3.041   7.253 -0.6949  0.4207 -0.6610
 8203SOL    HW236072   1.755   3.151   7.310  1.0775 -0.8526  0.9410
 8204SOL     OW36073   3.318   0.254   7.357 -0.1942 -0.1263 -0.2487
 8204SOL    HW136074   3.313   0.244   7.452  1.0376  1.1773 -0.0367
 8204SOL    HW236075   3.398   0.204   7.341 -0.1941 -0.8029  2.0207
 8205SOL     OW36076   2.100   0.125   3.428  0.1655 -0.5103 -0.6292
 8205SOL    HW136077   2.014   0.106   3.465 -0.4081  0.6235 -1.4149
 8205SOL    HW236078   2.143   0.064   3.489 -0.5908 -1.6464 -1.2535
 8206SOL     OW36079   4.511   1.382   5.542  0.0390 -0.1771 -0.0565
 8206SOL    HW136080   4.513   1.447   5.612 -1.5024  1.6346 -1.6817
 8206SOL    HW236081   4.461   1.426   5.473  1.1631 -0.6188 -1.1503
 8207SOL     OW36082   3.331   4.363  11.228  0.2707 -0.8297 -0.0631
 8207SOL    HW136083   3.255   4.339  11.280  0.9088 -1.7779  0.4444
 8207SOL    HW236084   3.306   4.450  11.197  0.3644 -0.9340 -0.4266
 8208SOL     OW36085   4.709   0.025   0.308  0.1244 -0.0712 -0.8068
 8208SOL    HW136086   4.621   0.050   0.282  0.5373 -0.3972 -2.4831
 8208SOL    HW236087   4.687   4.672   0.365 -0.8640 -1.2430 -2.7046
 8209SOL     OW36088   2.082   4.053  10.546  0.6244 -0.2899  0.1350
 8209SOL    HW136089   2.136   4.011  10.613  0.5508  0.2061  0.5085
 8209SOL    HW236090   2.090   3.993  10.472 -0.3839  1.9526 -1.8221
 8210SOL     OW36091   3.291   0.253   7.622  0.0346 -0.0499 -0.0788
 8210SOL    HW136092   3.353   0.246   7.695  0.6056 -0.5160 -0.6153
 8210SOL    HW236093   3.234   0.325   7.648 -1.3211 -0.4303 -2.0473
 8211SOL     OW36094   0.005   0.245  11.896 -0.6079  0.0257 -0.2152
 8211SOL    HW136095   4.633   0.240  11.914 -0.3583  0.3364  1.1066
 8211SOL    HW236096   0.012   0.224  11.803  1.5156 -1.8340  0.3483
 8212SOL     OW36097   1.465   4.407   4.738 -0.2004  1.0386  0.1374
 8212SOL    HW136098   1.551   4.420   4.780  0.4730 -1.5492 -0.4364
 8212SOL    HW236099   1.470   4.313   4.722  0.8630  1.8118 -4.0854
 8213SOL     OW36100   1.977   2.723   1.687  0.2379 -0.2664  0.1610
 8213SOL    HW136101   2.062   2.694   1.720  0.1473 -1.6718 -0.8612
 8213SOL    HW236102   1.978   2.816   1.709 -0.6597 -0.1221 -0.4268
 8214SOL     OW36103   3.018   2.079   5.753  0.1828  0.3289  0.0637
 8214SOL    HW136104   2.957   2.153   5.747  0.6349  0.7171  0.2664
 8214SOL    HW236105   3.042   2.083   5.846 -0.7151 -1.6801  0.3887
 8215SOL     OW36106   1.595   4.703   4.961 -0.2365  0.8917  0.3722
 8215SOL    HW136107   1.564   4.716   4.872  1.6344 -0.3070 -0.4527
 8215SOL    HW236108   1.519   4.657   4.995 -0.8854  3.5609  2.5389
 8216SOL     OW36109   4.496   0.163   3.607 -0.4090  0.1314  0.2844
 8216SOL    HW136110   4.508   0.254   3.580  0.3425  0.0578  0.3926
 8216SOL    HW236111   4.438   0.131   3.538 -0.6820 -0.5736  0.8445
 8217SOL     OW36112   0.349   2.892  11.463  0.3286 -0.0908 -0.5323
 8217SOL    HW136113   0.443   2.879  11.450  1.1480  2.3279  2.9075
 8217SOL    HW236114   0.320   2.802  11.456 -1.4248  0.5040 -0.8935
 8218SOL     OW36115   2.503   2.159  11.470  0.1667  0.4181 -0.5881
 8218SOL    HW136116   2.595   2.174  11.453  0.5555 -1.4588 -0.2149
 8218SOL    HW236117   2.481   2.092  11.405  0.5431 -0.2621 -0.0173
 8219SOL     OW36118   3.214   1.364  13.646  0.8011 -0.1682 -0.2066
 8219SOL    HW136119   3.157   1.439  13.664 -0.0751 -0.6412 -0.9914
 8219SOL    HW236120   3.152   1.328  13.583  1.4554 -0.3652 -0.7323
 8220SOL     OW36121   3.178   2.579   1.595 -0.3263 -0.1524  0.0343
 8220SOL    HW136122   3.083   2.588   1.581 -0.4191 -0.7215  0.2529
 8220SOL    HW236123   3.215   2.574   1.507  1.8276  0.1881  0.9446
 8221SOL     OW36124   0.625   0.680  11.140 -0.1195  0.2642  0.1185
 8221SOL    HW136125   0.646   0.631  11.219  0.2456  0.2150 -0.0086
 8221SOL    HW236126   0.712   0.716  11.118  0.5266 -0.0271  2.2318
 8222SOL     OW36127   4.585   0.031   2.003 -0.0041 -0.4411  0.1573
 8222SOL    HW136128   4.581   0.084   1.923 -0.1238 -1.4044 -0.4683
 8222SOL    HW236129   4.592   4.664   1.968 -3.4381 -0.1899 -1.1759
 8223SOL     OW36130   1.441   1.936   2.220  0.4147  0.0919  0.3811
 8223SOL    HW136131   1.516   1.904   2.168 -1.4443  0.3804 -2.4962
 8223SOL    HW236132   1.490   1.976   2.292  1.9941  0.4338 -0.8721
 8224SOL     OW36133   3.644   2.366   0.917  0.5844  0.1546  0.0099
 8224SOL    HW136134   3.599   2.442   0.881 -1.2636 -0.9707 -0.0351
 8224SOL    HW236135   3.571   2.306   0.932  0.1344  0.8842  0.6820
 8225SOL     OW36136   2.622   3.078  14.391  0.3540  0.4364 -0.4568
 8225SOL    HW136137   2.545   3.102  14.442  0.8464  0.7465  0.1283
 8225SOL    HW236138   2.673   3.159  14.393  2.7745 -1.1035 -1.0680
 8226SOL     OW36139   1.633   4.431   7.913 -0.0508  0.4632 -0.0080
 8226SOL    HW136140   1.723   4.449   7.884 -0.2056 -1.8336 -1.8999
 8226SOL    HW236141   1.591   4.504   7.867 -0.2535  1.2734  1.4692
 8227SOL     OW36142   2.781   2.599   2.351  0.0942 -0.0753 -0.2842
 8227SOL    HW136143   2.752   2.567   2.437  2.2482  0.5855  0.6928
 8227SOL    HW236144   2.872   2.570   2.346  0.3693  0.3299  2.1306
 8228SOL     OW36145   0.276   1.956   3.687 -0.5954 -0.2743 -0.7629
 8228SOL    HW136146   0.358   1.942   3.640 -0.1335  1.5162 -0.4748
 8228SOL    HW236147   0.244   1.866   3.699 -0.9566 -0.1604 -0.8573
 8229SOL     OW36148   3.485   3.007   5.921  0.1892  0.4752  0.5541
 8229SOL    HW136149   3.575   3.013   5.955  0.4448 -0.7520  0.0912
 8229SOL    HW236150   3.463   3.099   5.935 -1.1493  0.1615  0.4646
 8230SOL     OW36151   0.263   2.528   5.110  0.2072 -0.0215 -0.1131
 8230SOL    HW136152   0.187   2.528   5.052  0.4138  0.2702 -0.3802
 8230SOL    HW236153   0.228   2.504   5.196  1.8727 -0.7583  0.3550
 8231SOL     OW36154   2.382   0.144   7.088  0.7776 -0.5541 -0.3206
 8231SOL    HW136155   2.390   0.083   7.014 -0.3670  0.6472 -1.4522
 8231SOL    HW236156   2.304   0.115   7.134  0.3677  1.7889  0.4444
 8232SOL     OW36157   4.303   4.429   6.088  0.2826 -0.0540  0.0141
 8232SOL    HW136158   4.337   4.512   6.057 -0.6609 -0.7400 -2.7842
 8232SOL    HW236159   4.383   4.379   6.070  0.7153  0.9771 -0.8855
 8233SOL     OW36160   3.501   2.593  15.898  0.5874  0.6048 -0.5915
 8233SOL    HW136161   3.506   2.541  15.979  0.2958  0.2811 -0.7804
 8233SOL    HW236162   3.594   2.592  15.875  0.2122 -1.2358 -2.0672
 8234SOL     OW36163   0.148   0.627   3.929 -0.2697  0.1280 -0.1801
 8234SOL    HW136164   0.114   0.543   3.959  2.6183 -0.2294  2.0584
 8234SOL    HW236165   0.236   0.604   3.901 -0.1519 -1.8720  1.8546
 8235SOL     OW36166   2.137   0.531   9.256 -0.3237  0.3677 -0.0528
 8235SOL    HW136167   2.097   0.511   9.340  0.3241  2.6580  0.7949
 8235SOL    HW236168   2.211   0.582   9.289 -1.4407  1.6545  0.4315
 8236SOL     OW36169   2.321   0.719  14.837  0.5649  0.0485  0.0550
 8236SOL    HW136170   2.258   0.721  14.909  0.9635  1.1164  0.3589
 8236SOL    HW236171   2.275   0.757  14.762  2.3399  0.0119 -1.0567
 8237SOL     OW36172   2.406   4.387   6.181 -0.1961 -0.0990 -0.4782
 8237SOL    HW136173   2.422   4.382   6.275  0.0400  1.0266 -0.4629
 8237SOL    HW236174   2.496   4.382   6.149 -1.0181  1.3151 -3.0575
 8238SOL     OW36175   1.571   3.611   7.911  0.0283  0.2264  0.6909
 8238SOL    HW136176   1.484   3.586   7.880  0.6294  1.1606 -1.7081
 8238SOL    HW236177   1.571   3.540   7.976 -1.2065 -0.0891  0.3576
 8239SOL     OW36178   3.534   1.613  17.142 -0.2362 -0.6521  0.0343
 8239SOL    HW136179   3.553   1.594  17.234 -1.2275 -2.2762 -0.1157
 8239SOL    HW236180   3.539   1.709  17.138  1.0024 -0.7061  0.3357
 8240SOL     OW36181   1.382   3.288  14.793 -0.4590  0.1185  0.7986
 8240SOL    HW136182   1.402   3.194  14.793  0.6685  0.3621 -0.7501
 8240SOL    HW236183   1.401   3.320  14.882  1.5801  1.7634 -0.2187
 8241SOL     OW36184   4.098   2.984   6.565  0.1485 -0.0991 -0.1721
 8241SOL    HW136185   4.003   2.989   6.554 -0.0618 -1.0922  1.1413
 8241SOL    HW236186   4.112   2.994   6.659 -0.3943  1.6847 -0.2924
 8242SOL     OW36187   2.059   1.223   1.012  0.3965 -0.2295 -0.1421
 8242SOL    HW136188   2.140   1.213   0.962  0.4105 -1.3268  0.1178
 8242SOL    HW236189   2.008   1.267   0.943  2.2427 -1.1774 -2.1123
 8243SOL     OW36190   1.074   1.109  16.208  0.4576 -0.4135  0.5495
 8243SOL    HW136191   1.125   1.185  16.181  0.1648 -0.5458 -0.3840
 8243SOL    HW236192   0.989   1.147  16.187  1.0608  0.7839  0.2569
 8244SOL     OW36193   0.053   1.775  15.139  0.2977 -0.3808 -0.1252
 8244SOL    HW136194   0.001   1.834  15.085 -0.6432  0.4629  1.6942
 8244SOL    HW236195   4.720   1.784  15.218  1.5046  1.1844  0.5104
 8245SOL     OW36196   0.435   3.606   9.013 -0.0642 -0.3971 -0.1392
 8245SOL    HW136197   0.497   3.563   9.072  0.4279  0.3287 -0.1322
 8245SOL    HW236198   0.365   3.617   9.078  2.4750  0.7389  2.4033
 8246SOL     OW36199   0.192   1.280   8.934 -0.6432  0.5903  0.3052
 8246SOL    HW136200   0.148   1.291   9.019 -0.3787 -1.4054  0.7034
 8246SOL    HW236201   0.283   1.272   8.962 -1.4615  0.7025  3.0421
 8247SOL     OW36202   0.656   3.843   4.689 -0.7760  0.6856  1.1679
 8247SOL    HW136203   0.715   3.784   4.737 -1.6476 -0.1820  1.1696
 8247SOL    HW236204   0.651   3.802   4.603  1.2755 -0.2904  1.5168
 8248SOL     OW36205   3.650   1.253   6.512 -0.1361 -0.3719 -0.1066
 8248SOL    HW136206   3.668   1.241   6.606 -2.1350 -0.9537  0.1985
 8248SOL    HW236207   3.718   1.318   6.491 -0.1820  0.4546  2.2518
 8249SOL     OW36208   4.206   3.162   1.201  0.1975  0.1319 -0.4933
 8249SOL    HW136209   4.279   3.187   1.258  2.0137 -1.4434 -2.1142
 8249SOL    HW236210   4.222   3.220   1.127 -0.1848  0.5067 -0.2792
 8250SOL     OW36211   3.840   3.299  14.564 -0.1798  0.3441  0.3260
 8250SOL    HW136212   3.809   3.378  14.519  0.4318  1.5860  2.0592
 8250SOL    HW236213   3.864   3.244  14.489  0.3211  0.8783  0.0883
 8251SOL     OW36214   2.260   1.257   1.430 -0.5314  0.6606 -0.3505
 8251SOL    HW136215   2.330   1.223   1.374  0.6047 -1.9203  2.6449
 8251SOL    HW236216   2.224   1.321   1.368  0.8086  0.5403 -1.2529
 8252SOL     OW36217   1.642   2.900   4.989 -0.1179  0.6094 -0.2672
 8252SOL    HW136218   1.681   2.817   5.014 -0.3800  0.8036  0.7850
 8252SOL    HW236219   1.606   2.880   4.903  0.8583 -0.0363 -0.5259
 8253SOL     OW36220   1.908   3.969   0.844 -0.3765  0.0158 -1.0342
 8253SOL    HW136221   1.836   4.027   0.818 -1.0527 -0.0771  0.6471
 8253SOL    HW236222   1.928   3.910   0.771 -4.2384 -0.9072 -1.3391
 8254SOL     OW36223   3.691   3.997  15.569  0.0483  0.1549  0.5360
 8254SOL    HW136224   3.680   3.956  15.484  1.8404  0.1125  0.3249
 8254SOL    HW236225   3.655   3.941  15.638 -0.6757  0.1174  0.1271
 8255SOL     OW36226   4.191   1.761   4.403  0.3031  0.0236 -0.6693
 8255SOL    HW136227   4.268   1.725   4.359  0.5438 -2.3064  1.6308
 8255SOL    HW236228   4.161   1.828   4.341  0.6690  0.6371 -0.1823
 8256SOL     OW36229   2.095   4.209  12.936 -0.3405 -0.0044  0.7746
 8256SOL    HW136230   2.118   4.235  13.026 -2.4635  2.5888  0.5641
 8256SOL    HW236231   2.131   4.277  12.879 -2.6439 -0.9472 -1.7792
 8257SOL     OW36232   1.632   0.779   8.530 -0.0005  0.0606 -0.2404
 8257SOL    HW136233   1.599   0.868   8.543  0.7087  0.2142  0.4363
 8257SOL    HW236234   1.687   0.786   8.452 -2.1338  0.8962 -1.6909
 8258SOL     OW36235   2.092   1.255   2.124 -0.7330  0.4839 -0.7401
 8258SOL    HW136236   2.026   1.323   2.129  0.3751  1.5139 -0.1197
 8258SOL    HW236237   2.043   1.181   2.090 -0.0186 -0.5028  0.3867
 8259SOL     OW36238   4.259   1.835   9.498  0.8780  0.0142 -0.1408
 8259SOL    HW136239   4.344   1.845   9.455  0.3518  1.2663 -0.9083
 8259SOL    HW236240   4.253   1.740   9.504 -2.9792  0.2398 -0.1154
 8260SOL     OW36241   3.746   2.948   2.944 -0.6566 -0.0937  0.5421
 8260SOL    HW136242   3.700   2.956   2.860  0.0987 -0.2287  0.1075
 8260SOL    HW236243   3.807   2.882   2.909 -3.5152 -1.2164 -2.3297
 8261SOL     OW36244   2.742   0.410   4.610 -0.0102 -0.1020 -0.1654
 8261SOL    HW136245   2.664   0.461   4.587  1.0346  2.7341  2.5522
 8261SOL    HW236246   2.786   0.398   4.526 -0.6234  2.9324 -0.9135
 8262SOL     OW36247   1.978   3.198   8.900 -0.3516  0.2002  0.2112
 8262SOL    HW136248   2.036   3.237   8.835  0.9277 -1.0721  0.5787
 8262SOL    HW236249   1.995   3.104   8.892 -1.2991  0.1553 -1.2484
 8263SOL     OW36250   3.331   2.512   0.620  0.1843 -0.7230 -0.2294
 8263SOL    HW136251   3.360   2.602   0.635 -0.2167 -0.3845 -1.4746
 8263SOL    HW236252   3.301   2.488   0.708  0.1041 -0.7073 -0.2528
 8264SOL     OW36253   2.385   1.019  15.954 -0.0062 -0.1176  0.1569
 8264SOL    HW136254   2.343   0.969  16.023 -1.5152 -1.2503 -1.5673
 8264SOL    HW236255   2.406   1.099  16.001 -0.2483 -0.3920  0.7274
 8265SOL     OW36256   4.491   0.421   3.514 -0.1172  0.0899  0.0364
 8265SOL    HW136257   4.436   0.489   3.554  0.4292 -0.6968  2.1201
 8265SOL    HW236258   4.530   0.467   3.440 -0.6774 -1.4432 -1.2081
 8266SOL     OW36259   1.054   3.329   5.979 -0.2496 -0.3493  0.0414
 8266SOL    HW136260   1.033   3.374   5.898 -1.6644 -0.0865  0.5557
 8266SOL    HW236261   1.029   3.402   6.036 -1.7284 -1.8096  1.2659
 8267SOL     OW36262   1.243   0.643  14.802 -0.1556  0.3952  0.5560
 8267SOL    HW136263   1.168   0.689  14.764  0.3579  1.8886  1.4005
 8267SOL    HW236264   1.222   0.550  14.809  2.0930 -0.2980 -1.7039
 8268SOL     OW36265   2.479   1.574   7.815 -0.2681 -0.1814  0.8492
 8268SOL    HW136266   2.569   1.595   7.837  0.1608 -0.3939 -0.7068
 8268SOL    HW236267   2.427   1.631   7.872  0.7950 -0.3469  1.9875
 8269SOL     OW36268   3.002   0.981  15.506 -0.4968 -0.3606 -0.2021
 8269SOL    HW136269   2.929   1.028  15.465 -0.0295  1.5941  1.2125
 8269SOL    HW236270   2.969   0.893  15.523  2.9128 -1.5855  0.1591
 8270SOL     OW36271   4.667   4.068   2.712 -0.4602  0.0065 -0.1122
 8270SOL    HW136272   4.644   4.052   2.620 -2.7079 -0.6399  0.5515
 8270SOL    HW236273   4.649   3.982   2.751 -0.7904  0.6184  1.0774
 8271SOL     OW36274   1.252   1.825  13.415  0.0824  0.2828 -0.3522
 8271SOL    HW136275   1.287   1.750  13.463 -0.1914  0.4215  0.0614
 8271SOL    HW236276   1.159   1.803  13.413 -0.0865  0.8289  1.5874
 8272SOL     OW36277   0.184   1.726   8.655  0.5857  0.2917  0.7602
 8272SOL    HW136278   0.149   1.637   8.663 -1.1049  0.7514 -1.5756
 8272SOL    HW236279   0.118   1.781   8.697 -0.5390  0.1870 -0.9067
 8273SOL     OW36280   1.093   2.676   2.633  0.3253 -0.2696  0.0844
 8273SOL    HW136281   1.095   2.766   2.664 -2.9164 -0.1124 -0.1425
 8273SOL    HW236282   1.003   2.649   2.648  0.4202 -0.6529 -0.0203
 8274SOL     OW36283   3.095   3.949  16.190 -0.4342  0.0715 -0.4053
 8274SOL    HW136284   3.146   3.915  16.117  1.1146  1.6280 -0.0527
 8274SOL    HW236285   3.153   4.021  16.216  0.7199 -0.2858 -2.0292
 8275SOL     OW36286   4.652   2.538  12.752 -0.5356 -0.2840 -0.0539
 8275SOL    HW136287   4.633   2.631  12.753 -2.3404 -0.6577  0.1599
 8275SOL    HW236288   4.567   2.495  12.767 -0.6926  0.4533  1.1468
 8276SOL     OW36289   3.963   1.273   5.101 -0.2236 -0.5169  0.1400
 8276SOL    HW136290   3.917   1.344   5.057  0.1344  0.6615  1.6869
 8276SOL    HW236291   3.990   1.209   5.034 -1.0052 -1.8572  1.1134
 8277SOL     OW36292   1.575   4.562  11.727 -0.3100 -0.3905 -0.0425
 8277SOL    HW136293   1.506   4.573  11.660 -1.9111  0.8140  1.7997
 8277SOL    HW236294   1.649   4.574  11.667 -0.8339 -0.3327 -0.6880
 8278SOL     OW36295   4.364   3.209   3.264 -0.8168  0.1125  0.7245
 8278SOL    HW136296   4.340   3.202   3.356  0.4139  0.8060  1.0964
 8278SOL    HW236297   4.275   3.215   3.228 -0.4729 -1.4203 -0.3625
 8279SOL     OW36298   2.038   0.571   4.077 -0.0400 -0.5832  0.0443
 8279SOL    HW136299   1.988   0.571   3.996  0.1053 -0.4740 -0.0439
 8279SOL    HW236300   2.061   0.478   4.085 -0.1178 -0.4692  1.7791
 8280SOL     OW36301   3.710   0.840   5.873  0.6224 -0.5053  0.4207
 8280SOL    HW136302   3.653   0.894   5.819 -1.4882 -1.6545  1.4868
 8280SOL    HW236303   3.656   0.761   5.881 -0.4873  0.4135  1.9550
 8281SOL     OW36304   3.879   2.796   4.717 -0.0546  0.3145 -0.1454
 8281SOL    HW136305   3.851   2.886   4.729 -2.0278 -0.7666  3.6300
 8281SOL    HW236306   3.797   2.759   4.683 -0.8740  0.4867  1.6010
 8282SOL     OW36307   2.300   1.963   4.206 -0.2123  0.2604 -0.0971
 8282SOL    HW136308   2.331   1.974   4.296  0.2503  0.0381 -0.2276
 8282SOL    HW236309   2.257   2.048   4.197 -1.1092 -0.2316 -0.4797
 8283SOL     OW36310   0.716   3.402   1.367 -0.0054 -0.1794  0.8434
 8283SOL    HW136311   0.667   3.347   1.306  0.1043 -1.5482  1.9995
 8283SOL    HW236312   0.777   3.440   1.303 -2.2052  0.1722 -1.0374
 8284SOL     OW36313   0.814   1.964   8.405 -0.2211  0.0196 -0.1735
 8284SOL    HW136314   0.788   1.875   8.382  2.7203 -0.3430 -2.0121
 8284SOL    HW236315   0.760   2.015   8.345  0.2149 -1.3803 -1.7427
 8285SOL     OW36316   4.501   2.956  10.148 -0.5375  0.3168 -0.2287
 8285SOL    HW136317   4.452   3.005  10.082  0.0775  3.3431  1.5334
 8285SOL    HW236318   4.509   3.016  10.222 -0.0145  3.1169 -2.5502
 8286SOL     OW36319   1.391   4.638   1.202  0.5746 -0.6166  0.3330
 8286SOL    HW136320   1.464   4.699   1.204  1.0966 -1.2444  0.8706
 8286SOL    HW236321   1.426   4.569   1.145  1.0306  2.6100 -3.2805
 8287SOL     OW36322   1.313   4.093   7.354  0.0478  0.1133  0.1088
 8287SOL    HW136323   1.358   4.176   7.369  2.5076 -1.4930  1.7135
 8287SOL    HW236324   1.384   4.030   7.341 -0.0684 -0.1214  0.5847
 8288SOL     OW36325   1.942   0.129   7.413  0.1998 -0.5471  0.3072
 8288SOL    HW136326   1.989   0.206   7.384 -1.1244 -0.0584 -0.5225
 8288SOL    HW236327   1.954   0.144   7.507  2.4274 -0.5449  0.0240
 8289SOL     OW36328   2.612   4.494   7.578  0.2095 -0.1029 -0.0580
 8289SOL    HW136329   2.656   4.566   7.533 -0.1275 -0.8405 -1.5408
 8289SOL    HW236330   2.667   4.419   7.558 -0.9552 -0.7533 -0.8445
 8290SOL     OW36331   0.123   1.866   3.316  0.0543  0.5737  0.1503
 8290SOL    HW136332   0.197   1.924   3.297 -0.2479  1.3909  1.4305
 8290SOL    HW236333   0.061   1.913   3.261  0.4137  0.6187 -0.2163
 8291SOL     OW36334   2.858   0.596   7.830  0.2345 -0.3500 -0.4681
 8291SOL    HW136335   2.861   0.520   7.889  1.1028  0.3011  0.3262
 8291SOL    HW236336   2.824   0.558   7.749 -2.2867 -1.7479  1.2355
 8292SOL     OW36337   1.469   3.155   9.478 -0.0917 -0.3264  0.0827
 8292SOL    HW136338   1.417   3.078   9.502  0.2798 -0.7003 -0.2970
 8292SOL    HW236339   1.420   3.190   9.404  0.6435 -0.2462 -0.3703
 8293SOL     OW36340   1.481   4.363   7.611  0.6988  0.3772  0.2774
 8293SOL    HW136341   1.567   4.362   7.569  0.7252  1.9068  0.3166
 8293SOL    HW236342   1.495   4.437   7.670  0.5856  1.7424 -1.4194
 8294SOL     OW36343   3.204   4.508   6.479 -0.2569 -0.5900  0.5371
 8294SOL    HW136344   3.196   4.598   6.509  0.1274 -0.2800 -0.3117
 8294SOL    HW236345   3.149   4.469   6.547 -0.0316  2.2080  2.3220
 8295SOL     OW36346   3.792   4.091   8.433 -0.3088 -0.4957 -0.5078
 8295SOL    HW136347   3.815   4.007   8.393  1.4322 -0.2050 -0.1082
 8295SOL    HW236348   3.724   4.115   8.369 -2.3163 -1.0546  1.3900
 8296SOL     OW36349   2.761   0.579   5.071 -0.3003  0.6322 -0.0052
 8296SOL    HW136350   2.795   0.599   5.158  0.0491 -0.4108  0.0941
 8296SOL    HW236351   2.695   0.646   5.054  1.1814  2.0916 -0.0033
 8297SOL     OW36352   3.901   3.875   9.053 -0.2761 -0.2413 -0.2026
 8297SOL    HW136353   3.847   3.859   9.131 -0.3986  0.8963 -0.0649
 8297SOL    HW236354   3.892   3.788   9.013  0.7075  0.2012 -1.3934
 8298SOL     OW36355   2.564   2.514  12.722  0.3647 -0.3700 -0.6496
 8298SOL    HW136356   2.653   2.550  12.721  0.2259 -0.0248 -0.0714
 8298SOL    HW236357   2.572   2.424  12.691 -0.3058 -0.1092 -1.5985
 8299SOL     OW36358   4.060   3.156  12.373 -0.6147 -0.5008 -0.1684
 8299SOL    HW136359   4.120   3.226  12.346  1.1205 -0.9165  2.6261
 8299SOL    HW236360   4.108   3.129  12.451 -0.0711  2.5638  0.5560
 8300SOL     OW36361   2.474   1.053   7.746  0.4832  0.0823  0.1035
 8300SOL    HW136362   2.472   1.148   7.761  0.4796  0.1944 -0.5772
 8300SOL    HW236363   2.382   1.026   7.743  0.7896 -0.8456 -0.6620
 8301SOL     OW36364   4.163   1.893  15.395 -0.2026 -0.6663 -0.0124
 8301SOL    HW136365   4.123   1.816  15.354  1.0698 -1.6055  0.5099
 8301SOL    HW236366   4.133   1.971  15.347  1.9817  1.4452  2.0694
 8302SOL     OW36367   3.285   4.708  14.016  0.2509 -0.0357  0.2246
 8302SOL    HW136368   3.277   0.020  13.927  3.0424  0.5195  0.2014
 8302SOL    HW236369   3.339   0.052  14.060 -0.1394 -1.2001  2.4305
 8303SOL     OW36370   3.313   3.653   2.988  0.3249 -0.6703 -0.8561
 8303SOL    HW136371   3.404   3.682   2.982  0.6195 -1.5248 -0.4750
 8303SOL    HW236372   3.281   3.673   3.076  0.5046 -0.7989 -0.7624
 8304SOL     OW36373   2.586   2.845  15.378 -0.4509  0.3913  0.7962
 8304SOL    HW136374   2.541   2.873  15.299 -0.1607 -2.3841 -0.3625
 8304SOL    HW236375   2.580   2.923  15.433  1.6752  0.5169  0.8336
 8305SOL     OW36376   1.314   3.397   4.433 -0.1850  0.6030 -0.3100
 8305SOL    HW136377   1.374   3.449   4.487 -0.5334 -1.5619  2.1537
 8305SOL    HW236378   1.274   3.341   4.500 -0.2651  0.0025 -0.8563
 8306SOL     OW36379   0.580   0.305   4.421 -0.0220  0.1677 -0.2143
 8306SOL    HW136380   0.491   0.292   4.454  0.4982  0.2191  1.2015
 8306SOL    HW236381   0.632   0.234   4.459 -0.7360  0.6803  1.6972
 8307SOL     OW36382   3.612   4.189   7.194  0.1609 -0.4513 -0.0680
 8307SOL    HW136383   3.666   4.260   7.229  0.4455 -0.6337 -0.1392
 8307SOL    HW236384   3.657   4.113   7.231 -0.3018 -0.7608 -0.1424
 8308SOL     OW36385   3.509   4.164   7.741 -0.1028 -0.3693  0.6020
 8308SOL    HW136386   3.526   4.226   7.670 -0.4133  0.7423  1.4869
 8308SOL    HW236387   3.440   4.212   7.787  0.7354  0.6304  0.8086
 8309SOL     OW36388   3.845   2.562  11.012 -0.7159  0.2051 -0.3303
 8309SOL    HW136389   3.895   2.581  10.933 -0.9200 -0.2295 -0.5611
 8309SOL    HW236390   3.906   2.523  11.076 -1.5250 -0.5372 -0.0223
 8310SOL     OW36391   1.906   3.172   5.351  0.2566  0.1672 -0.3991
 8310SOL    HW136392   1.924   3.181   5.444  2.6391 -1.0349 -0.7432
 8310SOL    HW236393   1.844   3.098   5.349 -0.4559  0.7377  0.2533
 8311SOL     OW36394   3.191   4.069   7.804  0.1128  0.4502 -0.1813
 8311SOL    HW136395   3.150   3.984   7.784 -2.3645  1.0516  2.3924
 8311SOL    HW236396   3.157   4.085   7.892  0.9503  1.2441 -0.0052
 8312SOL     OW36397   3.843   2.732  13.633  0.2043 -0.4622 -0.2266
 8312SOL    HW136398   3.887   2.742  13.549 -1.4517  1.0544 -0.9199
 8312SOL    HW236399   3.750   2.735  13.608  0.7055  3.5705 -1.6654
 8313SOL     OW36400   0.329   4.499   9.014 -0.3238 -0.3523 -0.0680
 8313SOL    HW136401   0.420   4.526   9.014 -0.6846  0.8805  1.2827
 8313SOL    HW236402   0.282   4.582   9.003 -0.1150 -0.3347 -0.7802
 8314SOL     OW36403   0.504   1.328   8.049  0.2424  0.2992  0.8675
 8314SOL    HW136404   0.432   1.388   8.068 -0.3428  0.2193 -1.0735
 8314SOL    HW236405   0.468   1.257   8.103 -2.9433 -0.1264 -1.7896
 8315SOL     OW36406   1.569   0.397   4.445 -0.2121  0.6069 -0.3343
 8315SOL    HW136407   1.652   0.348   4.439  0.3641  1.3407  1.8515
 8315SOL    HW236408   1.564   0.440   4.359 -1.4871  0.2552 -0.4343
 8316SOL     OW36409   1.892   0.698  11.064 -0.3891 -0.0295 -0.2467
 8316SOL    HW136410   1.936   0.780  11.043 -1.5355  0.8214  0.7468
 8316SOL    HW236411   1.871   0.717  11.155  1.4133  0.8227  0.0006
 8317SOL     OW36412   1.936   4.522   7.877 -0.5595 -0.6032 -0.3893
 8317SOL    HW136413   1.955   4.495   7.787 -3.2134 -1.5217 -0.6767
 8317SOL    HW236414   2.024   4.513   7.914  0.0207  0.6522 -1.4549
 8318SOL     OW36415   2.375   1.719   5.822  0.0986  0.1333  0.4801
 8318SOL    HW136416   2.465   1.745   5.840  0.2578 -0.6256  0.7773
 8318SOL    HW236417   2.393   1.641   5.771 -0.2978  0.2737  0.1268
 8319SOL     OW36418   0.920   4.251   4.242 -0.9086 -0.6882 -0.0201
 8319SOL    HW136419   1.008   4.265   4.275 -1.6075  0.1490  1.4677
 8319SOL    HW236420   0.868   4.228   4.319  0.4764 -1.9697  0.5239
 8320SOL     OW36421   0.096   1.211   1.294  0.2692 -0.2571 -0.8820
 8320SOL    HW136422   0.154   1.231   1.221  2.7442 -1.2256  0.8074
 8320SOL    HW236423   0.141   1.243   1.373 -2.5000  1.7206 -0.0889
 8321SOL     OW36424   3.339   1.444  16.816 -0.0438 -0.6870  0.1900
 8321SOL    HW136425   3.418   1.417  16.864 -0.8382  0.7621  2.3191
 8321SOL    HW236426   3.384   1.496  16.749  0.2053 -1.1332  0.0095
 8322SOL     OW36427   3.136   2.877   4.831  0.2639  0.0593 -0.4169
 8322SOL    HW136428   3.225   2.872   4.867  0.3452 -0.1934 -0.6547
 8322SOL    HW236429   3.144   2.836   4.745 -0.8595 -0.8012 -0.1099
 8323SOL     OW36430   4.572   2.603   5.010  0.7227  0.0816  0.0315
 8323SOL    HW136431   4.491   2.554   4.995  0.5459 -0.0388  1.4276
 8323SOL    HW236432   4.585   2.575   5.100 -1.5757  0.6099  0.5422
 8324SOL     OW36433   4.242   1.535   3.717  0.1791 -0.0211  0.3575
 8324SOL    HW136434   4.148   1.526   3.704  0.2551 -0.0549 -0.2004
 8324SOL    HW236435   4.277   1.533   3.627 -1.0762 -0.0571 -0.1221
 8325SOL     OW36436   3.434   0.828   8.245  0.0329 -0.3641 -0.3348
 8325SOL    HW136437   3.350   0.781   8.243 -0.8432  1.1580  0.7698
 8325SOL    HW236438   3.400   0.912   8.276 -0.1335 -0.0467 -1.3672
 8326SOL     OW36439   2.630   1.971   3.782 -0.3217 -0.0264  0.1084
 8326SOL    HW136440   2.535   1.967   3.774 -0.4055 -0.4930  1.3112
 8326SOL    HW236441   2.662   1.965   3.692 -1.8320  0.8184 -0.4680
 8327SOL     OW36442   1.435   2.076   5.193  0.1484  0.0382 -0.0181
 8327SOL    HW136443   1.369   2.092   5.126  0.2827  0.3992 -0.0628
 8327SOL    HW236444   1.441   1.980   5.186  0.2462 -0.0311  0.9255
 8328SOL     OW36445   2.428   2.258   7.772  0.1251 -0.7140 -0.0811
 8328SOL    HW136446   2.343   2.290   7.744  0.1490 -0.2229  0.4136
 8328SOL    HW236447   2.416   2.242   7.866  1.2377  1.2171  0.3872
 8329SOL     OW36448   1.673   3.282   1.331 -0.3891 -0.5320  0.8148
 8329SOL    HW136449   1.762   3.293   1.299  0.3822  0.0509  3.1708
 8329SOL    HW236450   1.673   3.341   1.407  0.5521  0.4784  0.0177
 8330SOL     OW36451   3.093   0.301  12.169 -0.3561  0.2408 -0.3155
 8330SOL    HW136452   3.057   0.216  12.146 -2.3474  1.1838 -0.7401
 8330SOL    HW236453   3.106   0.342  12.083 -1.1483  2.5297  0.6444
 8331SOL     OW36454   1.997   4.256   6.795 -0.3323 -0.5212  0.2336
 8331SOL    HW136455   1.977   4.237   6.887 -0.3515  0.3958  0.4169
 8331SOL    HW236456   1.911   4.278   6.758 -0.0376  0.2013 -0.0137
 8332SOL     OW36457   3.756   0.235   3.637  0.6774  0.0002  0.3140
 8332SOL    HW136458   3.820   0.303   3.620 -0.2731  0.6773 -0.5695
 8332SOL    HW236459   3.717   0.214   3.552 -0.4026 -1.6474  1.2112
 8333SOL     OW36460   3.263   1.276   8.598 -0.4715  0.2302  0.3681
 8333SOL    HW136461   3.173   1.301   8.619 -0.7451 -1.1738  0.8982
 8333SOL    HW236462   3.252   1.216   8.524  0.0505  1.4466 -0.6848
 8334SOL     OW36463   1.996   3.358  15.049 -0.3401  0.0088  0.4221
 8334SOL    HW136464   1.943   3.305  15.108 -0.1367  1.2134  1.6801
 8334SOL    HW236465   1.925   3.399  15.000  0.1948  0.3781 -0.0484
 8335SOL     OW36466   2.528   0.790   4.115 -0.0329 -0.6059  0.1325
 8335SOL    HW136467   2.543   0.718   4.054  1.4773 -0.2198  0.0532
 8335SOL    HW236468   2.616   0.822   4.135  1.0080 -2.0561 -2.1036
 8336SOL     OW36469   1.964   3.319   3.229 -0.3748 -0.0173  0.0652
 8336SOL    HW136470   1.920   3.356   3.152  2.3665  0.5707 -1.1936
 8336SOL    HW236471   1.902   3.247   3.243  1.3903 -1.5991 -0.3028
 8337SOL     OW36472   0.453   3.751  10.253  0.2084  0.1818  0.4701
 8337SOL    HW136473   0.475   3.843  10.264  1.2400 -0.0816  0.6912
 8337SOL    HW236474   0.535   3.712  10.285  0.0423 -1.2476 -0.8415
 8338SOL     OW36475   0.826   3.908   1.245 -0.6797 -0.1869 -0.1737
 8338SOL    HW136476   0.890   3.979   1.242 -0.1570 -0.6009  1.2127
 8338SOL    HW236477   0.750   3.936   1.194  0.3088  0.1925 -1.4213
 8339SOL     OW36478   1.326   1.160  14.835 -0.4161  0.0379  0.0361
 8339SOL    HW136479   1.354   1.247  14.806  0.1644  0.4554  1.8535
 8339SOL    HW236480   1.254   1.186  14.892  2.1469  4.3492  1.3088
 8340SOL     OW36481   2.600   3.905   5.171  0.2938  0.3460  0.1284
 8340SOL    HW136482   2.590   3.848   5.095  1.9419 -0.7763  0.7564
 8340SOL    HW236483   2.504   3.913   5.177  0.2396  1.1710 -1.8321
 8341SOL     OW36484   0.393   2.954   2.574 -0.4890  0.4164  0.5398
 8341SOL    HW136485   0.476   2.996   2.595 -0.1053  0.0076 -0.1462
 8341SOL    HW236486   0.336   3.017   2.531  1.7303  1.6849 -0.5177
 8342SOL     OW36487   4.111   0.133  16.700 -0.3538 -0.0552  0.8159
 8342SOL    HW136488   4.057   0.054  16.701  1.3144 -1.1976  1.0212
 8342SOL    HW236489   4.202   0.120  16.727  0.0078  0.1656 -0.2732
 8343SOL     OW36490   4.131   1.601   1.098  0.2203 -1.0528  0.0933
 8343SOL    HW136491   4.204   1.657   1.073  0.0197 -1.6434 -1.8072
 8343SOL    HW236492   4.129   1.613   1.193  0.1494 -1.8208  0.1901
 8344SOL     OW36493   0.769   1.506   6.047 -0.3168  0.5100  0.4111
 8344SOL    HW136494   0.807   1.418   6.047 -1.9783 -0.2089  1.3983
 8344SOL    HW236495   0.833   1.551   6.102  1.8252  1.3658 -2.7829
 8345SOL     OW36496   3.532   0.335   2.373 -0.2046 -0.2886 -0.7802
 8345SOL    HW136497   3.517   0.392   2.298 -0.9612 -0.7563 -0.9853
 8345SOL    HW236498   3.607   0.386   2.404 -1.6624  0.9592  0.7131
 8346SOL     OW36499   1.695   1.288   2.032 -0.4653  0.0536 -0.3091
 8346SOL    HW136500   1.653   1.276   2.117  2.4073  2.0008  1.3708
 8346SOL    HW236501   1.766   1.349   2.051 -0.5430  0.1471 -0.3214
 8347SOL     OW36502   3.371   0.688   7.818 -0.3189  0.1137  0.2468
 8347SOL    HW136503   3.330   0.634   7.887 -2.3241  1.4128  0.0777
 8347SOL    HW236504   3.301   0.751   7.805  0.1981  0.6204 -0.0520
 8348SOL     OW36505   2.223   0.781  16.635 -0.2241  0.0251  0.5076
 8348SOL    HW136506   2.267   0.737  16.562  0.0631 -1.6658  1.7039
 8348SOL    HW236507   2.292   0.786  16.700  2.0189  1.7887 -2.0203
 8349SOL     OW36508   3.817   3.692   2.604  0.3715 -0.0124  0.2390
 8349SOL    HW136509   3.769   3.775   2.611 -0.3789 -0.4392  0.1685
 8349SOL    HW236510   3.845   3.689   2.513 -0.5947 -2.0057  0.0146
 8350SOL     OW36511   2.931   1.696   9.783 -0.2318 -0.1017 -0.0796
 8350SOL    HW136512   2.884   1.627   9.832 -1.2677  0.9042  0.3372
 8350SOL    HW236513   2.923   1.775   9.836  0.6535 -1.5016  2.1789
 8351SOL     OW36514   2.446   1.617   8.344 -0.1890 -0.1536  0.2209
 8351SOL    HW136515   2.502   1.647   8.272  0.4527 -0.9084  0.4071
 8351SOL    HW236516   2.362   1.606   8.302 -0.9289 -1.3380  2.0111
 8352SOL     OW36517   1.937   0.162   8.375  0.1420 -0.0883 -0.5842
 8352SOL    HW136518   1.857   0.121   8.341 -1.1369 -0.6573  2.9978
 8352SOL    HW236519   1.993   0.155   8.299  0.6092  1.0465 -0.3523
 8353SOL     OW36520   2.867   1.618   6.720  0.4839  0.3275  0.0333
 8353SOL    HW136521   2.819   1.679   6.776  1.7114  1.8747 -0.5754
 8353SOL    HW236522   2.960   1.636   6.732  0.7060  0.5818 -2.0139
 8354SOL     OW36523   0.898   3.363   7.700 -0.5943  0.1901  0.2994
 8354SOL    HW136524   0.928   3.441   7.748 -1.2151 -0.1090  1.1633
 8354SOL    HW236525   0.946   3.388   7.621 -0.3895  2.3755  1.1206
 8355SOL     OW36526   0.729   3.872   1.514 -0.3769 -0.5594 -0.2895
 8355SOL    HW136527   0.749   3.891   1.422  0.1156  0.3661  0.0151
 8355SOL    HW236528   0.753   3.780   1.522  0.1992 -0.1390  2.9791
 8356SOL     OW36529   3.258   2.659   7.321  0.1248 -0.2129 -0.0684
 8356SOL    HW136530   3.255   2.712   7.401 -2.2258 -1.0249  0.3841
 8356SOL    HW236531   3.277   2.733   7.263 -0.6471  1.2467  1.5258
 8357SOL     OW36532   3.820   1.339   4.656  0.7803 -0.4434 -0.5070
 8357SOL    HW136533   3.736   1.312   4.694  0.9304 -0.0579  0.0937
 8357SOL    HW236534   3.860   1.375   4.735  0.5803  1.0980 -1.1195
 8358SOL     OW36535   0.042   4.661   6.574 -0.1662  0.1305  0.2678
 8358SOL    HW136536   0.068   4.711   6.496 -0.0995  0.2203  0.3480
 8358SOL    HW236537   0.128   4.648   6.614  0.1717  3.4256  0.5816
 8359SOL     OW36538   2.878   2.778   8.224  0.1641  0.2204 -0.0067
 8359SOL    HW136539   2.947   2.801   8.286 -0.0818 -0.2718  0.4490
 8359SOL    HW236540   2.922   2.709   8.175 -0.5800 -0.9639  0.9945
 8360SOL     OW36541   4.301   3.525   3.020 -0.1624  0.4683 -0.3831
 8360SOL    HW136542   4.372   3.471   3.054 -1.2679  0.7089  2.3158
 8360SOL    HW236543   4.293   3.486   2.933 -2.7396 -0.3370  0.2098
 8361SOL     OW36544   4.423   3.060   0.353 -0.2339 -0.7072  0.7141
 8361SOL    HW136545   4.510   3.094   0.373 -1.8340  2.3702  2.5102
 8361SOL    HW236546   4.422   3.079   0.259 -0.1053 -1.0805  0.6401
 8362SOL     OW36547   2.651   3.442   4.392 -0.3805  0.3395  0.4576
 8362SOL    HW136548   2.667   3.530   4.426  1.2109  0.3251 -0.2637
 8362SOL    HW236549   2.611   3.401   4.469  0.8821  2.4754  2.2307
 8363SOL     OW36550   1.676   0.352   3.578 -0.2534  1.0575 -0.2525
 8363SOL    HW136551   1.709   0.307   3.656 -0.0958 -0.0133 -0.9374
 8363SOL    HW236552   1.737   0.320   3.512  1.5013  1.2124  1.2695
 8364SOL     OW36553   0.449   1.477   4.521  0.2895 -0.3091  0.0842
 8364SOL    HW136554   0.411   1.512   4.601  0.7662 -0.9077  0.5693
 8364SOL    HW236555   0.376   1.438   4.474  0.3614 -1.8738  1.2967
 8365SOL     OW36556   0.131   2.946   4.212  0.1763  0.6063 -0.1475
 8365SOL    HW136557   0.111   2.902   4.129  0.8001 -1.8059  0.9821
 8365SOL    HW236558   0.065   2.896   4.261  2.4575 -3.1974 -1.0081
 8366SOL     OW36559   1.613   1.830   6.310 -0.5218  0.9046  0.5993
 8366SOL    HW136560   1.528   1.865   6.281  0.4601  2.9565  0.2114
 8366SOL    HW236561   1.630   1.880   6.389  0.4983  0.4382  0.6683
 8367SOL     OW36562   2.848   2.464  11.371  0.0241  0.5110 -0.4679
 8367SOL    HW136563   2.941   2.487  11.363  0.1089  0.5394  0.7010
 8367SOL    HW236564   2.819   2.478  11.281  0.7225 -0.4609 -0.8500
 8368SOL     OW36565   1.703   3.382   2.506  0.4911  0.4707 -0.1851
 8368SOL    HW136566   1.644   3.437   2.456 -0.7437 -0.2059  0.5338
 8368SOL    HW236567   1.683   3.297   2.467 -0.6668  1.5395 -1.9228
 8369SOL     OW36568   3.322   0.747   6.011  0.5369  0.4662 -0.2331
 8369SOL    HW136569   3.342   0.653   6.002  0.8884  0.4403  0.8105
 8369SOL    HW236570   3.280   0.747   6.097 -0.0697  0.1389 -0.5280
 8370SOL     OW36571   3.102   2.639  12.729  0.5377 -0.2333  0.5382
 8370SOL    HW136572   3.055   2.716  12.761  1.3076 -1.0871  3.7271
 8370SOL    HW236573   3.030   2.579  12.711  1.2253 -0.9131  0.0749
 8371SOL     OW36574   2.958   4.173   0.399  0.4876 -0.2132 -0.0438
 8371SOL    HW136575   2.891   4.175   0.331  0.4396  0.1601  0.0129
 8371SOL    HW236576   2.942   4.090   0.444  1.5632 -1.1689 -1.4141
 8372SOL     OW36577   4.064   0.247   3.316  0.0484  0.2648  0.1044
 8372SOL    HW136578   4.045   0.189   3.243  0.9718 -1.6750  1.4185
 8372SOL    HW236579   4.158   0.258   3.299  0.1856 -0.0663  0.6467
 8373SOL     OW36580   3.748   1.080  10.999 -0.2041 -0.1043 -0.1167
 8373SOL    HW136581   3.835   1.117  11.012 -1.5582  2.3542  1.9646
 8373SOL    HW236582   3.750   1.013  11.067  1.3364 -0.3559 -0.4062
 8374SOL     OW36583   1.619   2.453   6.553 -0.3398  0.6166 -0.0801
 8374SOL    HW136584   1.639   2.368   6.514  1.5425  1.1428 -0.3057
 8374SOL    HW236585   1.542   2.426   6.604 -0.0664 -2.1160 -1.1215
 8375SOL     OW36586   3.301   2.331   8.695  0.1995  0.0212 -0.2158
 8375SOL    HW136587   3.268   2.254   8.740  0.9906 -0.7827 -0.9983
 8375SOL    HW236588   3.220   2.379   8.681 -1.0157 -2.0263 -0.0861
 8376SOL     OW36589   3.447   3.145   4.630 -0.4587  0.5722 -0.1338
 8376SOL    HW136590   3.439   3.181   4.541 -0.2568  0.8065 -0.0568
 8376SOL    HW236591   3.388   3.204   4.677 -0.3934  0.8614 -0.4107
 8377SOL     OW36592   3.740   0.026  15.192  0.7073  0.3540 -0.2443
 8377SOL    HW136593   3.714   4.665  15.234  2.1375 -0.7532 -1.5208
 8377SOL    HW236594   3.670   0.034  15.127 -1.4587  1.3764  2.2024
 8378SOL     OW36595   4.584   1.658   4.594 -0.1017 -0.3157 -0.5877
 8378SOL    HW136596   4.574   1.573   4.638  2.0926 -0.5175 -0.4762
 8378SOL    HW236597   4.659   1.698   4.638 -1.3018 -0.3926  1.5502
 8379SOL     OW36598   2.419   0.672   2.794 -0.1118  0.9537 -0.3091
 8379SOL    HW136599   2.392   0.763   2.783  0.4723  1.3686  1.8442
 8379SOL    HW236600   2.412   0.665   2.889 -2.0393  1.1099 -0.4543
 8380SOL     OW36601   1.911   1.521   8.195  0.3314 -0.6813  0.6857
 8380SOL    HW136602   1.855   1.591   8.229 -0.4701 -0.9769 -0.0281
 8380SOL    HW236603   1.849   1.452   8.172 -1.1924  1.0005 -0.1849
 8381SOL     OW36604   4.170   2.382  17.415 -0.4691  0.7260  0.2794
 8381SOL    HW136605   4.125   2.438  17.352 -0.3048 -3.0907 -3.2389
 8381SOL    HW236606   4.164   2.293  17.380 -1.2773  1.9548 -2.6786
 8382SOL     OW36607   2.017   1.474   6.516 -0.3273 -0.9508  0.2631
 8382SOL    HW136608   2.031   1.555   6.466 -4.5590 -0.3297  0.0788
 8382SOL    HW236609   2.087   1.491   6.578 -1.0562  2.5234  0.1631
 8383SOL     OW36610   0.799   2.759   3.192 -0.7852 -0.0192 -0.1028
 8383SOL    HW136611   0.819   2.675   3.152  2.0432  0.4347  0.3789
 8383SOL    HW236612   0.726   2.792   3.139 -0.1728  2.9860  0.9237
 8384SOL     OW36613   0.368   2.008   8.212  0.0629 -0.0145  0.2663
 8384SOL    HW136614   0.377   1.994   8.307 -0.9487  1.4633  0.5889
 8384SOL    HW236615   0.459   2.021   8.185 -0.3350  1.2379 -0.4524
 8385SOL     OW36616   4.159   3.863  11.165 -0.6229 -0.6924 -0.7143
 8385SOL    HW136617   4.242   3.820  11.185 -0.0397  0.5444 -0.4759
 8385SOL    HW236618   4.118   3.811  11.095 -2.5766 -1.2236  0.8476
 8386SOL     OW36619   3.392   1.845   8.752  0.2343  0.3873 -0.4252
 8386SOL    HW136620   3.445   1.846   8.832  2.9554  1.8837 -2.2691
 8386SOL    HW236621   3.366   1.937   8.745  0.7918  0.5690 -0.1125
 8387SOL     OW36622   0.987   2.898   9.139 -0.1187  0.2277  0.4463
 8387SOL    HW136623   0.916   2.962   9.147 -0.5443 -0.3820  1.4585
 8387SOL    HW236624   0.929   2.830   9.173  0.5314 -0.9596 -0.8090
 8388SOL     OW36625   3.127   2.264   3.295 -0.7545  0.1956  0.8094
 8388SOL    HW136626   3.182   2.314   3.235 -2.7096  1.8329  0.3951
 8388SOL    HW236627   3.073   2.331   3.336 -1.6129 -0.2616  0.4072
 8389SOL     OW36628   0.928   2.130  15.790  0.4351  0.1565 -0.6821
 8389SOL    HW136629   1.019   2.160  15.786  0.1481  0.9814 -1.1194
 8389SOL    HW236630   0.901   2.140  15.699 -1.0296 -0.8301 -0.3524
 8390SOL     OW36631   2.081   3.767   4.191 -0.0556 -0.5036 -0.1426
 8390SOL    HW136632   2.119   3.679   4.192  0.9501 -0.0534  1.8682
 8390SOL    HW236633   2.152   3.823   4.159 -0.2454 -0.1806  0.0136
 8391SOL     OW36634   3.074   2.695  10.102  0.5734  0.0231  0.0186
 8391SOL    HW136635   3.040   2.730  10.019  0.3479 -3.2821 -1.2571
 8391SOL    HW236636   3.063   2.763  10.169 -0.1981  1.0590 -1.1730
 8392SOL     OW36637   1.492   3.065   6.813  0.3152 -0.0608 -0.2226
 8392SOL    HW136638   1.437   3.104   6.745  0.1537  0.0318 -0.0381
 8392SOL    HW236639   1.570   3.120   6.811 -0.0366  0.5153  1.5966
 8393SOL     OW36640   2.530   3.148   8.614 -0.1043 -0.4065  0.2927
 8393SOL    HW136641   2.491   3.061   8.612  1.2121 -0.9876 -0.3003
 8393SOL    HW236642   2.625   3.134   8.609 -0.1964 -0.9161 -0.0188
 8394SOL     OW36643   0.356   3.175   5.424  0.2848 -0.2414  0.2479
 8394SOL    HW136644   0.288   3.148   5.362 -1.1802  0.5538  1.5246
 8394SOL    HW236645   0.312   3.183   5.508 -0.7345 -1.4410 -0.1741
 8395SOL     OW36646   2.155   0.858  13.233  0.2670 -0.3912 -0.0333
 8395SOL    HW136647   2.116   0.844  13.320 -0.4873  1.1572 -0.1357
 8395SOL    HW236648   2.247   0.873  13.253 -0.0140 -1.4804  2.1558
 8396SOL     OW36649   3.110   2.416   2.556 -0.5529 -0.2085  0.1315
 8396SOL    HW136650   3.125   2.322   2.545  1.8593  0.1535  0.3761
 8396SOL    HW236651   3.159   2.431   2.637  1.4383  0.2010 -1.1599
 8397SOL     OW36652   0.241   3.215   4.200  0.0447 -0.3648 -0.3559
 8397SOL    HW136653   0.180   3.145   4.179 -1.3295  0.6425  0.3130
 8397SOL    HW236654   0.279   3.210   4.112 -1.8847 -1.4020 -1.1201
 8398SOL     OW36655   0.468   2.264   9.025 -0.0933 -0.5368  0.0784
 8398SOL    HW136656   0.542   2.237   9.079  0.5130 -1.0242 -0.9734
 8398SOL    HW236657   0.420   2.305   9.096  1.0243  0.4290  0.2804
 8399SOL     OW36658   2.703   0.947   6.298  0.1598 -0.1910 -0.7449
 8399SOL    HW136659   2.718   0.962   6.205 -0.7865  0.0245 -0.8591
 8399SOL    HW236660   2.681   0.853   6.299  1.2423 -0.4277  0.6956
 8400SOL     OW36661   4.172   4.132   9.314  0.6753  0.0918  0.0430
 8400SOL    HW136662   4.084   4.142   9.278  1.0140 -1.9125 -1.3140
 8400SOL    HW236663   4.208   4.218   9.293  0.7718  0.4252  1.5642
 8401SOL     OW36664   2.550   4.644   0.860 -0.0365 -0.1402  0.0914
 8401SOL    HW136665   2.571   4.691   0.941  1.5756  0.4256 -0.6494
 8401SOL    HW236666   2.627   4.665   0.808  1.4688 -0.3032  2.2455
 8402SOL     OW36667   4.431   4.522   3.033  0.2628 -0.0365 -0.3151
 8402SOL    HW136668   4.520   4.488   3.025  0.6386  0.7182  0.5286
 8402SOL    HW236669   4.411   4.533   2.940  1.6527  1.8554 -0.4055
 8403SOL     OW36670   2.275   1.207   6.149  0.2254  0.3350  0.6023
 8403SOL    HW136671   2.359   1.248   6.132  0.2134 -1.1562 -3.1774
 8403SOL    HW236672   2.237   1.230   6.064  1.2383  3.3734  0.9938
 8404SOL     OW36673   4.684   2.062   1.358 -0.2217 -0.7132 -0.4667
 8404SOL    HW136674   4.644   2.045   1.444  2.4549  1.6001  1.2638
 8404SOL    HW236675   4.647   2.148   1.337  0.7838 -0.0995  0.2609
 8405SOL     OW36676   2.698   4.241   0.256  0.1435 -0.0453 -0.3772
 8405SOL    HW136677   2.602   4.235   0.252  0.1838  0.5678 -2.0858
 8405SOL    HW236678   2.718   4.219   0.165 -1.2990  0.8931 -0.9212
 8406SOL     OW36679   2.173   3.410   1.108  0.4871 -0.8131 -0.1375
 8406SOL    HW136680   2.205   3.497   1.132 -0.3008 -0.4893 -0.2711
 8406SOL    HW236681   2.148   3.429   1.018  3.4726  1.0716 -0.5733
 8407SOL     OW36682   0.470   3.137   4.840  0.3765 -0.3082 -0.0276
 8407SOL    HW136683   0.541   3.200   4.849  0.4412 -0.7171  2.2789
 8407SOL    HW236684   0.476   3.113   4.747 -2.8300  1.6050 -0.7116
 8408SOL     OW36685   1.820   0.994   3.405  0.1493 -0.8270 -0.4603
 8408SOL    HW136686   1.864   0.909   3.396  3.7307  1.0096 -0.6059
 8408SOL    HW236687   1.751   0.994   3.339  0.9409 -0.0320 -1.2901
 8409SOL     OW36688   0.078   3.662   2.605  0.2789 -0.2589  0.5085
 8409SOL    HW136689   0.068   3.576   2.564  1.6237  0.8351 -2.1214
 8409SOL    HW236690   0.164   3.656   2.646  0.1154 -3.0585  0.4315
 8410SOL     OW36691   1.698   0.366  17.448  0.0539  0.6699  0.4266
 8410SOL    HW136692   1.640   0.294  17.473  2.1154 -1.3638 -0.5883
 8410SOL    HW236693   1.682   0.419  17.526  2.0299  1.4524  0.2985
 8411SOL     OW36694   1.553   3.807  10.416  0.6275  0.0165  0.2570
 8411SOL    HW136695   1.520   3.733  10.365  0.9823  0.0107  0.0340
 8411SOL    HW236696   1.468   3.844  10.438  1.7046  0.7525  3.1883
 8412SOL     OW36697   4.406   2.376  17.557 -0.3403 -0.3497 -0.7527
 8412SOL    HW136698   4.358   2.409  17.633  1.9582  0.3200  0.4182
 8412SOL    HW236699   4.337   2.362  17.493 -0.7794  1.8947 -0.7810
 8413SOL     OW36700   3.437   0.479   2.138  0.2199  0.2794 -0.1845
 8413SOL    HW136701   3.422   0.463   2.045 -0.2184  0.3192 -0.1172
 8413SOL    HW236702   3.422   0.574   2.134  0.5360  0.2208 -3.0881
 8414SOL     OW36703   3.132   3.406   8.865  0.1758  0.1337  0.2634
 8414SOL    HW136704   3.118   3.463   8.942 -0.2438  1.1003 -0.5255
 8414SOL    HW236705   3.073   3.332   8.878  1.0737 -0.6852 -0.3768
 8415SOL     OW36706   4.394   4.353   6.773  0.1880 -0.1179 -0.2414
 8415SOL    HW136707   4.463   4.415   6.800  0.4373 -0.4895 -0.0200
 8415SOL    HW236708   4.337   4.408   6.720  0.5822 -0.8991 -1.4658
 8416SOL     OW36709   0.602   2.971   6.305  0.4091  0.0298  0.0901
 8416SOL    HW136710   0.622   2.878   6.304 -1.6667 -0.4168  0.4646
 8416SOL    HW236711   0.528   2.982   6.364 -1.1347  0.1812 -1.8765
 8417SOL     OW36712   3.985   3.663   6.552 -0.2167  0.0327 -0.3074
 8417SOL    HW136713   4.074   3.692   6.535  0.5059 -1.4730  0.8957
 8417SOL    HW236714   4.000   3.617   6.635 -0.3857  0.8472  0.1737
 8418SOL     OW36715   3.278   2.153   4.104 -0.9068  0.0687 -0.6189
 8418SOL    HW136716   3.371   2.129   4.100 -0.4025  1.9804 -0.1654
 8418SOL    HW236717   3.231   2.071   4.116  0.1699 -0.5949 -0.8744
 8419SOL     OW36718   2.424   0.890   3.431 -0.1990  0.0384 -0.4607
 8419SOL    HW136719   2.380   0.976   3.428 -1.2177 -0.5473 -1.9481
 8419SOL    HW236720   2.349   0.833   3.444 -1.2088  1.8578  1.7759
 8420SOL     OW36721   4.438   4.275   8.650 -0.1090  0.6605 -0.3165
 8420SOL    HW136722   4.414   4.302   8.561 -1.2249 -2.3116 -0.9095
 8420SOL    HW236723   4.453   4.180   8.647  2.1957  1.0197 -0.1711
 8421SOL     OW36724   0.347   1.239   3.763  0.5505 -0.6322  0.4878
 8421SOL    HW136725   0.260   1.217   3.730  0.0824 -0.4051  1.5633
 8421SOL    HW236726   0.374   1.316   3.714 -0.6409  1.4882  3.1526
 8422SOL     OW36727   0.084   1.059   2.233  1.1602 -0.5122 -0.7713
 8422SOL    HW136728   4.710   1.048   2.232  0.8571  2.7991 -3.9023
 8422SOL    HW236729   0.093   1.146   2.272 -0.2005 -0.4190 -0.6587
 8423SOL     OW36730   1.273   0.754  11.143 -0.1832  0.1575 -0.3384
 8423SOL    HW136731   1.305   0.717  11.225  0.8287  0.5644 -0.5479
 8423SOL    HW236732   1.284   0.849  11.153 -0.4431 -0.1553  2.7460
 8424SOL     OW36733   1.607   0.948   5.283 -0.7336 -0.3050 -0.4734
 8424SOL    HW136734   1.592   1.000   5.203 -1.7847  0.3348  0.1366
 8424SOL    HW236735   1.574   0.862   5.257 -0.6805 -0.1286 -1.1264
 8425SOL     OW36736   3.564   3.911  14.337 -0.0072 -0.2781  0.2495
 8425SOL    HW136737   3.593   3.925  14.428 -1.3963 -0.4064  0.7182
 8425SOL    HW236738   3.633   3.955  14.289  0.1388  0.5460  1.2262
 8426SOL     OW36739   0.409   2.854  16.798 -0.4069  0.4776  0.4369
 8426SOL    HW136740   0.485   2.911  16.788  0.2712 -0.4403  0.3897
 8426SOL    HW236741   0.340   2.919  16.782 -0.7211  0.3715  1.3462
 8427SOL     OW36742   2.899   2.109  14.382 -0.1859  0.2986 -0.2820
 8427SOL    HW136743   2.901   2.013  14.384 -0.5831  0.2578 -1.4395
 8427SOL    HW236744   2.868   2.125  14.471 -3.4403 -0.4661 -1.2718
 8428SOL     OW36745   1.660   3.395  13.786  0.0229  0.1102  0.0458
 8428SOL    HW136746   1.573   3.359  13.768  0.6039 -0.5467 -1.3709
 8428SOL    HW236747   1.692   3.407  13.697  0.4932  1.1383  0.3604
 8429SOL     OW36748   2.145   4.504   6.176  0.0727  0.1321 -0.2812
 8429SOL    HW136749   2.232   4.471   6.153 -0.0062  0.5035 -1.1216
 8429SOL    HW236750   2.170   4.568   6.242 -0.1872  1.5401 -1.5501
 8430SOL     OW36751   1.319   0.055  12.465 -0.0124 -0.3340 -0.3075
 8430SOL    HW136752   1.283   0.143  12.473 -2.0521 -1.2924  0.8505
 8430SOL    HW236753   1.324   0.025  12.556  0.6221  1.6707  0.3245
 8431SOL     OW36754   2.412   2.661   4.922 -0.1954  0.2552  0.0644
 8431SOL    HW136755   2.376   2.702   5.000 -2.1560 -0.3366 -0.5361
 8431SOL    HW236756   2.378   2.574   4.939 -0.1007  0.2965  0.4558
 8432SOL     OW36757   2.555   3.277   1.501 -0.7019  0.1215 -0.1716
 8432SOL    HW136758   2.642   3.284   1.462 -0.4506  0.0649  0.3768
 8432SOL    HW236759   2.583   3.239   1.585 -3.3029  1.7933  1.4552
 8433SOL     OW36760   4.426   2.417   4.237  0.1628  0.3574 -0.3816
 8433SOL    HW136761   4.372   2.397   4.313  1.2217 -1.4974 -0.1220
 8433SOL    HW236762   4.373   2.374   4.170 -0.5518 -0.9624  1.0164
 8434SOL     OW36763   0.525   0.012   5.833  0.1328 -0.3577 -0.7185
 8434SOL    HW136764   0.574   0.094   5.839 -1.2246  0.2081  3.1851
 8434SOL    HW236765   0.581   4.681   5.776  0.8387  1.1159 -1.3799
 8435SOL     OW36766   4.076   0.008   6.673 -0.5545 -0.3966  0.5211
 8435SOL    HW136767   4.149   0.030   6.731  0.0074  0.2505 -0.4352
 8435SOL    HW236768   4.054   0.095   6.641  3.9282  0.1983 -0.7932
 8436SOL     OW36769   2.778   1.356   2.904 -0.1554 -0.4831 -0.2250
 8436SOL    HW136770   2.723   1.279   2.888 -2.6918  1.2375  0.1105
 8436SOL    HW236771   2.774   1.393   2.816 -1.0459 -0.2249 -0.0861
 8437SOL     OW36772   2.481   2.037  13.270  0.1029 -0.0463 -0.0109
 8437SOL    HW136773   2.476   1.943  13.284 -1.5426 -0.0828 -0.8653
 8437SOL    HW236774   2.455   2.042  13.178  0.1431 -1.3311 -0.0827
 8438SOL     OW36775   0.308   2.738   3.266  0.1218  0.0850 -0.2541
 8438SOL    HW136776   0.331   2.660   3.215 -3.0094 -0.0605 -1.4529
 8438SOL    HW236777   0.226   2.761   3.221  1.7933  0.7337 -2.9785
 8439SOL     OW36778   3.180   3.144  13.598  0.2240  0.1370  0.0171
 8439SOL    HW136779   3.135   3.222  13.630 -2.4547 -1.3493 -0.0335
 8439SOL    HW236780   3.111   3.085  13.565  1.3358 -0.1140 -1.8182
 8440SOL     OW36781   4.387   4.531   0.014  0.8882 -0.3207  0.0889
 8440SOL    HW136782   4.359   4.441   0.031  0.4070  0.0424  1.2237
 8440SOL    HW236783   4.473   4.518  17.662  1.4364 -1.3036  1.6312
 8441SOL     OW36784   4.604   2.128   3.558 -0.1866 -0.2409 -0.6804
 8441SOL    HW136785   4.567   2.053   3.511 -1.3578  0.0481 -0.2186
 8441SOL    HW236786   4.563   2.107   3.642 -1.0257 -0.4890 -1.1551
 8442SOL     OW36787   3.539   3.784   4.602  0.2889  0.7030 -0.3897
 8442SOL    HW136788   3.467   3.843   4.624 -1.0474 -1.3261  0.5414
 8442SOL    HW236789   3.615   3.844   4.601 -0.4811  1.6488 -1.7205
 8443SOL     OW36790   2.391   3.806   3.704 -0.3954  0.0915 -0.1028
 8443SOL    HW136791   2.407   3.712   3.716 -0.4942 -0.4307 -4.1450
 8443SOL    HW236792   2.311   3.810   3.652  0.3121 -1.0764 -1.2803
 8444SOL     OW36793   0.035   4.352   0.244 -0.1001  0.6036  0.2285
 8444SOL    HW136794   0.093   4.378   0.316 -1.6887  1.7147  1.1107
 8444SOL    HW236795   4.685   4.304   0.287 -1.0354  0.1218 -1.8645
 8445SOL     OW36796   4.464   0.267   0.265 -0.3574  0.0252  0.0128
 8445SOL    HW136797   4.445   0.254   0.358 -1.4981  2.5972  0.1284
 8445SOL    HW236798   4.432   0.182   0.234 -1.0605 -0.0671  0.9795
 8446SOL     OW36799   4.057   0.835  12.710 -0.2248  0.2453  0.3988
 8446SOL    HW136800   4.126   0.833  12.776  2.4418  0.7478 -2.3944
 8446SOL    HW236801   4.032   0.927  12.716 -0.1137  0.3245 -0.3421
 8447SOL     OW36802   0.491   0.050   6.281  0.4297 -0.1874 -0.0375
 8447SOL    HW136803   0.526   0.071   6.368 -1.0391 -0.0268  0.5087
 8447SOL    HW236804   0.541   0.107   6.222 -0.1917 -0.4240 -0.7863
 8448SOL     OW36805   3.581   1.454   8.226 -0.8174 -0.6348  0.3844
 8448SOL    HW136806   3.625   1.441   8.310  0.7184  1.7602 -0.0502
 8448SOL    HW236807   3.537   1.539   8.228  0.9701  0.3107 -1.4308
 8449SOL     OW36808   1.442   3.537   5.127  0.0767  0.1858  0.2108
 8449SOL    HW136809   1.498   3.517   5.202 -0.4517  0.0654  0.5705
 8449SOL    HW236810   1.418   3.629   5.137 -0.7727  0.0081 -0.2718
 8450SOL     OW36811   3.820   1.551   8.931 -0.5918 -0.2458  0.3219
 8450SOL    HW136812   3.813   1.573   8.838  0.6013  2.0648  0.7825
 8450SOL    HW236813   3.733   1.575   8.964 -0.6046 -0.8886  0.7402
 8451SOL     OW36814   1.849   1.195  11.195 -0.5010  0.1103 -0.5735
 8451SOL    HW136815   1.884   1.248  11.266 -1.2379 -0.3813  0.1642
 8451SOL    HW236816   1.758   1.225  11.194 -1.7837 -3.5873  0.5535
 8452SOL     OW36817   3.174   2.749   3.735  0.1286  0.2570  0.2879
 8452SOL    HW136818   3.243   2.711   3.789 -0.2177 -2.7739 -1.3718
 8452SOL    HW236819   3.113   2.788   3.798 -1.9545 -0.1341 -1.4793
 8453SOL     OW36820   1.981   0.417   0.299  0.3874  0.1807 -0.5417
 8453SOL    HW136821   1.886   0.426   0.304  0.5872  1.1906  1.4888
 8453SOL    HW236822   2.021   0.501   0.279  2.4628 -1.0579 -1.5179
 8454SOL     OW36823   2.428   3.434   0.627 -0.1729  0.6436  0.5791
 8454SOL    HW136824   2.498   3.440   0.692 -0.4330 -0.9556  1.0107
 8454SOL    HW236825   2.449   3.515   0.580 -1.4126 -0.0212 -1.1277
 8455SOL     OW36826   3.619   3.216   2.976  0.2602 -0.3332 -0.3348
 8455SOL    HW136827   3.534   3.261   2.983  2.2613  3.5901 -1.3552
 8455SOL    HW236828   3.655   3.224   3.064 -1.0892 -2.9164  0.4383
 8456SOL     OW36829   2.594   3.501   8.414  0.2011  0.5693 -0.1247
 8456SOL    HW136830   2.667   3.461   8.367  0.8006  3.3571 -1.5240
 8456SOL    HW236831   2.640   3.563   8.469  0.6837  0.7770 -0.7669
 8457SOL     OW36832   0.298   0.277  16.384 -0.3060 -0.0677 -0.4276
 8457SOL    HW136833   0.344   0.193  16.380  0.4414  0.1901  2.6454
 8457SOL    HW236834   0.308   0.311  16.295  2.4697 -0.4628 -0.2381
 8458SOL     OW36835   4.542   4.124   4.934  0.1556  0.3290  0.2800
 8458SOL    HW136836   4.469   4.185   4.948  1.4261  1.5360  1.5155
 8458SOL    HW236837   4.519   4.053   4.994 -1.6213 -1.7184 -2.7928
 8459SOL     OW36838   1.301   2.844   4.105  0.5620  0.3489 -0.3521
 8459SOL    HW136839   1.228   2.798   4.147 -0.1024  1.0488 -0.7305
 8459SOL    HW236840   1.255   2.918   4.066 -1.1115 -2.3224 -3.4716
 8460SOL     OW36841   3.722   0.450  15.956  0.2535 -0.2976 -0.0638
 8460SOL    HW136842   3.708   0.512  15.884 -0.5003  2.5689  2.5281
 8460SOL    HW236843   3.689   0.378  15.902 -1.1357  0.3700 -0.1014
 8461SOL     OW36844   2.232   4.477   0.767  0.0561 -0.4061  0.0899
 8461SOL    HW136845   2.191   4.492   0.682  1.7179  2.4877 -0.1862
 8461SOL    HW236846   2.158   4.496   0.825 -0.3729  0.5869 -0.7850
 8462SOL     OW36847   2.450   0.165   1.283  0.2598  0.1671  0.0288
 8462SOL    HW136848   2.420   0.075   1.279  3.4068 -0.9347  0.9515
 8462SOL    HW236849   2.366   0.209   1.295 -0.6962 -1.8147  0.4616
 8463SOL     OW36850   3.153   3.897   5.593  0.0895 -0.0439 -0.4819
 8463SOL    HW136851   3.122   3.984   5.568 -1.2687  0.3401  2.5722
 8463SOL    HW236852   3.178   3.881   5.502  0.2338 -0.5777 -0.3467
 8464SOL     OW36853   3.144   1.946   4.193 -0.3270 -0.0649  0.1534
 8464SOL    HW136854   3.067   1.893   4.173  0.0677 -0.7956  0.5746
 8464SOL    HW236855   3.177   1.910   4.275 -0.0874  1.2922  0.6420
 8465SOL     OW36856   2.983   3.712   4.229  0.6639 -0.0349 -0.1048
 8465SOL    HW136857   3.029   3.764   4.163 -0.4297 -0.7172 -1.3979
 8465SOL    HW236858   2.899   3.716   4.183  0.8955  1.1506 -0.4209
 8466SOL     OW36859   0.432   0.458  10.599  0.2342  0.1171 -0.1476
 8466SOL    HW136860   0.373   0.382  10.605  1.2360 -0.5669  0.9840
 8466SOL    HW236861   0.457   0.463  10.691 -1.6883 -0.9284  0.4528
 8467SOL     OW36862   4.376   3.924   9.235  0.3610 -0.0500 -0.6008
 8467SOL    HW136863   4.299   3.964   9.276 -0.2833 -1.7599 -0.1595
 8467SOL    HW236864   4.373   3.961   9.146  0.3884  0.3505 -0.4378
 8468SOL     OW36865   3.845   4.334   6.331  0.1338 -0.5316 -0.1523
 8468SOL    HW136866   3.766   4.370   6.291  0.6269 -1.4830 -2.0106
 8468SOL    HW236867   3.881   4.407   6.381  2.0243 -1.1401 -0.6237
 8469SOL     OW36868   0.416   2.121   4.543 -0.0252  0.5081  0.0800
 8469SOL    HW136869   0.385   2.050   4.599 -1.8114  2.3350  1.3497
 8469SOL    HW236870   0.471   2.165   4.608  3.5162 -1.0188 -1.8388
 8470SOL     OW36871   3.293   3.238   2.676 -0.2333  0.0472 -0.3453
 8470SOL    HW136872   3.198   3.229   2.690 -0.3078  1.6351  0.1974
 8470SOL    HW236873   3.296   3.254   2.582 -1.8135  0.6238 -0.2996
 8471SOL     OW36874   2.742   4.530   4.497 -0.3788 -0.8468  0.3622
 8471SOL    HW136875   2.657   4.528   4.454 -1.1804  0.7768  1.8482
 8471SOL    HW236876   2.802   4.552   4.425 -0.1906  0.2291  0.8403
 8472SOL     OW36877   2.620   2.142   2.962  0.2232 -0.1014 -0.4753
 8472SOL    HW136878   2.639   2.049   2.973  0.2040 -0.2984 -2.1471
 8472SOL    HW236879   2.539   2.148   3.012 -0.8826 -0.8720 -2.2026
 8473SOL     OW36880   4.327   2.329  14.351 -0.2172 -0.1729  0.1519
 8473SOL    HW136881   4.292   2.264  14.291  1.1730 -0.4357 -0.3682
 8473SOL    HW236882   4.352   2.397  14.288 -1.9088  0.5541  0.2680
 8474SOL     OW36883   0.556   3.682  11.713  0.2602 -0.3830 -0.5814
 8474SOL    HW136884   0.605   3.601  11.700  1.3237 -0.1284  1.7471
 8474SOL    HW236885   0.611   3.728  11.649  1.2766 -0.7180  0.0579
 8475SOL     OW36886   3.484   0.325   5.430  0.3059 -0.0188 -0.6864
 8475SOL    HW136887   3.416   0.382   5.396  0.0664  1.0990  1.6595
 8475SOL    HW236888   3.550   0.389   5.458 -0.7324  1.3544 -1.3755
 8476SOL     OW36889   3.906   0.421  11.299  0.3120 -0.3942 -0.4500
 8476SOL    HW136890   3.946   0.353  11.352 -0.4027 -1.1480 -0.8821
 8476SOL    HW236891   3.829   0.444  11.351 -0.0156  1.2282 -1.6225
 8477SOL     OW36892   0.443   0.597   0.224  0.3543  0.0774  0.3017
 8477SOL    HW136893   0.418   0.689   0.215  3.3486  0.7655 -1.0149
 8477SOL    HW236894   0.357   0.557   0.207 -0.3627  0.9324  1.9357
 8478SOL     OW36895   2.282   4.053   6.154  0.7050  0.0847  1.1089
 8478SOL    HW136896   2.377   4.063   6.156  0.5363  1.6908  0.4896
 8478SOL    HW236897   2.258   4.067   6.245 -3.0508 -0.1496  0.1786
 8479SOL     OW36898   3.353   2.655  15.465  0.1002 -0.1054 -0.0850
 8479SOL    HW136899   3.354   2.652  15.561 -0.3644 -0.0634 -0.0781
 8479SOL    HW236900   3.379   2.745  15.444  3.3346 -0.7158  1.3602
 8480SOL     OW36901   4.058   3.084   0.903 -0.8781  0.1883 -0.6271
 8480SOL    HW136902   4.115   3.018   0.863 -2.0624 -0.4204 -1.3063
 8480SOL    HW236903   4.110   3.163   0.889 -1.0793  0.3892 -0.2365
 8481SOL     OW36904   2.172   4.671   6.463  0.2862  0.7109  0.0086
 8481SOL    HW136905   2.164   4.584   6.502  1.9309  1.5520  2.2271
 8481SOL    HW236906   2.206   4.718   6.539  0.1962  0.7260  0.0399
 8482SOL     OW36907   3.319   4.212   2.838  0.4282 -0.1480 -0.3504
 8482SOL    HW136908   3.230   4.179   2.826  0.1559  0.1398  0.9133
 8482SOL    HW236909   3.355   4.161   2.910  0.0724 -0.5819 -0.4811
 8483SOL     OW36910   2.182   3.064   4.302 -0.0017 -0.0914  0.3929
 8483SOL    HW136911   2.094   3.030   4.315 -0.3898  0.0758 -1.8526
 8483SOL    HW236912   2.232   2.990   4.335 -0.2271 -1.2230 -1.7805
 8484SOL     OW36913   1.326   3.936   0.872 -0.3973  0.3212  1.0185
 8484SOL    HW136914   1.307   4.028   0.891 -1.0998  0.5811 -0.9736
 8484SOL    HW236915   1.247   3.909   0.826  1.0927 -0.8929 -0.8485
 8485SOL     OW36916   3.078   1.409  16.763 -0.2058 -0.1854  0.0705
 8485SOL    HW136917   3.125   1.489  16.737 -0.6715  0.6645  1.8447
 8485SOL    HW236918   3.152   1.359  16.798 -0.1454 -0.0886  0.0818
 8486SOL     OW36919   1.763   3.970  10.277  0.0299  0.7351 -0.3557
 8486SOL    HW136920   1.751   3.991  10.370  1.2822 -0.8735  0.1595
 8486SOL    HW236921   1.693   3.905  10.270  1.7418 -0.8869 -2.4523
 8487SOL     OW36922   4.042   4.161  16.406  0.1350 -0.0654 -0.4334
 8487SOL    HW136923   4.100   4.159  16.330  2.2140 -0.4442  1.1787
 8487SOL    HW236924   4.020   4.254  16.414  2.2273  0.2604  1.3017
 8488SOL     OW36925   0.270   0.589   1.909  0.4870 -0.0438  0.3074
 8488SOL    HW136926   0.306   0.500   1.916  0.1023 -0.1743  0.5878
 8488SOL    HW236927   0.331   0.630   1.847  0.1103  0.0211 -0.0190
 8489SOL     OW36928   1.645   4.490  11.967 -0.5139 -0.3268 -0.6089
 8489SOL    HW136929   1.564   4.511  12.013  0.4260  3.6177 -0.7368
 8489SOL    HW236930   1.632   4.530  11.881  0.0298  1.0800 -0.0469
 8490SOL     OW36931   2.044   0.017   4.655 -0.7540  0.1812 -0.0748
 8490SOL    HW136932   2.069   4.650   4.685  0.2292  0.8756  1.1436
 8490SOL    HW236933   2.018   0.055   4.739 -3.4251 -1.6232 -0.0630
 8491SOL     OW36934   4.282   1.587   8.808  0.7901  0.4555 -0.1456
 8491SOL    HW136935   4.210   1.538   8.847 -1.2186  3.1020 -0.5298
 8491SOL    HW236936   4.257   1.572   8.717  0.5754  0.8521 -0.1489
 8492SOL     OW36937   2.130   3.004   9.530 -0.3082  0.7311 -0.0958
 8492SOL    HW136938   2.181   2.923   9.523 -0.8327  0.0334  3.7331
 8492SOL    HW236939   2.125   3.014   9.625  0.9500  1.0388 -0.0605
 8493SOL     OW36940   1.413   2.756  15.708 -0.1930  0.2517  1.4619
 8493SOL    HW136941   1.360   2.745  15.629  0.5068 -0.7972  1.1375
 8493SOL    HW236942   1.367   2.697  15.768 -0.1294 -1.5125 -0.2224
 8494SOL     OW36943   0.023   0.519   7.360 -0.3732  0.5185 -0.1637
 8494SOL    HW136944   0.021   0.594   7.419  2.5594  1.1662 -0.8940
 8494SOL    HW236945   4.653   0.494   7.380  0.3620 -0.8541  1.4826
 8495SOL     OW36946   1.696   1.475   1.464  0.4684  0.5198  0.3949
 8495SOL    HW136947   1.609   1.451   1.494 -0.1729  0.8196 -1.2169
 8495SOL    HW236948   1.686   1.549   1.405 -1.3219 -0.0024  0.0545
 8496SOL     OW36949   0.926   3.762  12.200 -0.0577 -0.4171  0.2278
 8496SOL    HW136950   0.981   3.690  12.231  0.0755 -0.8954 -1.1197
 8496SOL    HW236951   0.917   3.746  12.107  1.6397  0.5955 -0.1198
 8497SOL     OW36952   4.254   3.654   3.818 -0.3561  0.4418 -0.4044
 8497SOL    HW136953   4.184   3.619   3.762  0.2574 -1.5487  0.0502
 8497SOL    HW236954   4.237   3.610   3.901 -0.9138 -0.2496 -0.8806
 8498SOL     OW36955   1.782   0.636  16.413  1.0958 -0.0426 -0.1851
 8498SOL    HW136956   1.857   0.599  16.460  1.0642  0.2701  0.1116
 8498SOL    HW236957   1.710   0.642  16.475  0.8067 -1.2591 -0.4118
 8499SOL     OW36958   2.579   1.167   8.435  0.2447 -0.0473 -0.3762
 8499SOL    HW136959   2.667   1.160   8.474 -0.8142  1.6228  2.3340
 8499SOL    HW236960   2.548   1.080   8.459  0.1654 -0.0046 -0.3217
 8500SOL     OW36961   3.808   3.927  14.910 -0.1377  0.0508 -0.2322
 8500SOL    HW136962   3.887   3.971  14.878  1.4792 -2.1999  0.6741
 8500SOL    HW236963   3.789   3.981  14.987  0.5112 -0.8741  0.5741
 8501SOL     OW36964   1.860   3.973   8.341  0.0406 -0.1970 -0.1666
 8501SOL    HW136965   1.772   3.952   8.308 -0.6398  1.2271  0.7310
 8501SOL    HW236966   1.838   4.007   8.428 -0.5483  0.3503 -0.5306
 8502SOL     OW36967   3.102   0.557   5.600 -0.0182  0.0259 -0.1261
 8502SOL    HW136968   3.025   0.502   5.587  1.0085 -1.2829 -0.6600
 8502SOL    HW236969   3.061   0.628   5.649 -1.8638 -1.0199 -0.1490
 8503SOL     OW36970   3.256   2.332   5.844 -0.3007 -0.1881 -0.3550
 8503SOL    HW136971   3.242   2.271   5.771  1.1785 -1.7887  0.7053
 8503SOL    HW236972   3.171   2.376   5.843 -0.4214 -0.4521 -1.7289
 8504SOL     OW36973   3.366   2.358   5.322 -0.2412  0.2911  0.3790
 8504SOL    HW136974   3.376   2.429   5.258  1.6227 -1.6805 -1.5263
 8504SOL    HW236975   3.278   2.326   5.302 -0.2309 -0.2492  1.2189
 8505SOL     OW36976   1.428   2.291  16.791 -0.4480  0.5449 -0.7485
 8505SOL    HW136977   1.466   2.364  16.742  1.0933 -1.1436 -2.0919
 8505SOL    HW236978   1.342   2.331  16.805  0.9681  2.8345  1.5524
 8506SOL     OW36979   0.612   2.334   5.131 -0.0434 -0.2200 -0.2742
 8506SOL    HW136980   0.677   2.266   5.111 -0.1670 -0.2372 -0.6164
 8506SOL    HW236981   0.539   2.285   5.168  0.2514 -1.2160 -1.0050
 8507SOL     OW36982   3.998   1.061   4.183 -1.0317 -0.3741  0.1180
 8507SOL    HW136983   3.907   1.044   4.205 -1.1101  0.8580  0.8027
 8507SOL    HW236984   4.013   1.155   4.196 -1.6035 -0.2669 -0.0033
 8508SOL     OW36985   3.883   0.422   3.934  0.4873  0.0323 -0.3300
 8508SOL    HW136986   3.874   0.512   3.901  0.5321  0.6313  1.3111
 8508SOL    HW236987   3.937   0.380   3.868 -0.6127 -1.8918 -0.0078
 8509SOL     OW36988   3.332   2.784   4.168 -0.7992  0.3368 -0.1198
 8509SOL    HW136989   3.407   2.791   4.228 -0.9912  0.3606  0.1182
 8509SOL    HW236990   3.380   2.774   4.086  0.6687  2.1407  0.5044
 8510SOL     OW36991   4.573   3.209  16.007  0.0232 -0.5339  0.0209
 8510SOL    HW136992   4.527   3.128  16.028  0.7013 -1.9280 -3.8984
 8510SOL    HW236993   4.549   3.263  16.082  1.6103  0.0262  0.1472
 8511SOL     OW36994   1.031   2.796   7.989 -0.1712  0.7946  0.0376
 8511SOL    HW136995   1.067   2.745   8.061 -0.5099 -1.1566 -1.1521
 8511SOL    HW236996   1.001   2.876   8.031 -0.5376  0.3367  0.6421
 8512SOL     OW36997   1.958   3.595  11.571  0.7599  0.3878  0.1689
 8512SOL    HW136998   1.915   3.536  11.632  1.2410  0.1672  0.2981
 8512SOL    HW236999   1.898   3.666  11.550 -1.7560 -1.4845  1.0404
 8513SOL     OW37000   2.798   0.502  16.432 -0.1454  0.1327  0.1697
 8513SOL    HW137001   2.786   0.407  16.441  0.7006 -0.1930 -2.2382
 8513SOL    HW237002   2.726   0.521  16.373  1.0231  2.8296 -0.4048
 8514SOL     OW37003   1.767   3.378  16.535 -0.2286  0.5727 -0.5062
 8514SOL    HW137004   1.826   3.433  16.483  1.4250 -1.0309 -0.3270
 8514SOL    HW237005   1.827   3.338  16.597 -0.7182  1.0665  0.2798
 8515SOL     OW37006   2.672   2.297  10.939 -0.7118 -0.0107 -0.3420
 8515SOL    HW137007   2.686   2.205  10.918 -0.5267 -0.3338  1.2638
 8515SOL    HW237008   2.596   2.309  10.882  2.4110  2.7088 -4.0094
 8516SOL     OW37009   2.851   3.502   7.010  0.4413 -0.0566  0.2311
 8516SOL    HW137010   2.903   3.424   6.992  0.5496  0.2581 -0.8452
 8516SOL    HW237011   2.915   3.573   7.017  1.4844 -1.0213  0.4770
 8517SOL     OW37012   2.979   1.964  10.949 -0.2176 -0.2736  0.2036
 8517SOL    HW137013   2.949   2.030  11.011 -1.0091  0.3819 -0.8809
 8517SOL    HW237014   3.006   1.892  11.006 -1.1620 -1.5722 -0.9821
 8518SOL     OW37015   3.702   1.050  13.321  0.1658  0.0850  0.3605
 8518SOL    HW137016   3.760   1.097  13.261 -0.4737 -2.1137 -1.9762
 8518SOL    HW237017   3.716   0.957  13.305 -1.5702  0.0257 -0.8685
 8519SOL     OW37018   0.269   1.783   1.187 -0.2933 -0.3871  0.1286
 8519SOL    HW137019   0.184   1.742   1.203  0.0352 -1.2435 -0.3538
 8519SOL    HW237020   0.280   1.830   1.270  1.1150 -2.6449  1.2081
 8520SOL     OW37021   4.255   0.807   8.847 -0.1975 -0.1537  0.2801
 8520SOL    HW137022   4.229   0.859   8.923 -0.5531  3.1954 -2.1569
 8520SOL    HW237023   4.174   0.775   8.807  1.1901 -1.2686 -1.6144
 8521SOL     OW37024   1.097   0.144   2.248  0.2117  0.3088  0.1231
 8521SOL    HW137025   1.163   0.076   2.239 -0.3157 -0.1381 -0.3806
 8521SOL    HW237026   1.042   0.115   2.175  1.7726 -0.3435 -0.7901
 8522SOL     OW37027   1.815   0.792  15.137 -0.0506 -0.6828 -0.4844
 8522SOL    HW137028   1.874   0.816  15.066 -1.9103  2.3071 -1.0068
 8522SOL    HW237029   1.736   0.751  15.101 -1.7232  1.5278  0.6532
 8523SOL     OW37030   4.402   2.767  10.535 -0.5605  0.4677  0.4217
 8523SOL    HW137031   4.491   2.787  10.505 -1.3518  2.0812 -0.8743
 8523SOL    HW237032   4.413   2.725  10.619 -1.9011 -1.2732 -0.2728
 8524SOL     OW37033   4.167   3.895  16.208  0.5215 -0.3464 -0.2838
 8524SOL    HW137034   4.126   3.938  16.133  2.3214 -1.6230 -2.0009
 8524SOL    HW237035   4.239   3.847  16.168  1.3517  0.3519  0.3757
 8525SOL     OW37036   4.379   2.426   5.066 -0.4391  0.6048  0.4760
 8525SOL    HW137037   4.292   2.465   5.066 -0.3477  0.7814 -0.9889
 8525SOL    HW237038   4.386   2.363   5.138  3.0937 -0.5514 -0.9064
 8526SOL     OW37039   2.136   3.719   7.560 -0.0945 -0.3534 -0.5852
 8526SOL    HW137040   2.204   3.785   7.548 -0.2413 -0.1157 -0.1444
 8526SOL    HW237041   2.180   3.650   7.511  1.0679  0.0001 -0.0432
 8527SOL     OW37042   1.538   3.922  14.270 -0.3489  0.3569  0.2917
 8527SOL    HW137043   1.594   3.853  14.233 -0.3229 -0.2345  1.4411
 8527SOL    HW237044   1.561   3.917  14.363 -0.5936  0.8237  0.3755
 8528SOL     OW37045   0.700   0.679   7.917 -0.3407  0.0621 -0.0028
 8528SOL    HW137046   0.646   0.600   7.915  2.7961 -2.0100 -2.1842
 8528SOL    HW237047   0.632   0.746   7.908  0.5816  0.9243 -0.6246
 8529SOL     OW37048   1.553   1.065  14.109 -0.3925 -1.2028  0.1990
 8529SOL    HW137049   1.622   1.012  14.070 -0.6910 -0.7427 -0.9578
 8529SOL    HW237050   1.514   1.009  14.176 -1.2886  0.5640  1.1571
 8530SOL     OW37051   4.674   4.644  12.073  0.5932  0.1809 -0.3550
 8530SOL    HW137052   4.653   4.656  11.980 -1.8461  1.4230  0.3653
 8530SOL    HW237053   0.016   4.574  12.058  0.1464 -0.5648  1.2708
 8531SOL     OW37054   1.476   4.106  14.011  0.4176 -0.1755 -0.5803
 8531SOL    HW137055   1.456   4.180  14.068 -1.0600 -1.0945  0.0906
 8531SOL    HW237056   1.490   4.037  14.076  0.6005 -0.9312 -1.4222
 8532SOL     OW37057   0.245   3.714   8.621 -0.2038 -0.0063  0.1530
 8532SOL    HW137058   0.280   3.802   8.603 -0.4622  0.4759  2.0576
 8532SOL    HW237059   0.190   3.710   8.543  2.8207 -0.2157 -2.0106
 8533SOL     OW37060   0.736   2.770   1.778 -0.0450 -0.3250  0.0431
 8533SOL    HW137061   0.740   2.791   1.871  3.0566  1.7789 -0.5617
 8533SOL    HW237062   0.722   2.859   1.744  1.7355  0.0226  0.2128
 8534SOL     OW37063   1.789   2.527   3.884 -0.3355 -0.0975 -0.0637
 8534SOL    HW137064   1.739   2.584   3.942  1.2711  0.2789  0.9431
 8534SOL    HW237065   1.799   2.574   3.802 -1.1362 -2.1188 -1.3313
 8535SOL     OW37066   2.024   4.532   0.930 -0.3240 -0.0403 -0.0894
 8535SOL    HW137067   1.956   4.597   0.953 -0.1780  0.3578 -0.7852
 8535SOL    HW237068   1.979   4.467   0.983 -0.3898 -0.2114 -0.3569
 8536SOL     OW37069   4.018   2.605   8.803 -0.6653  0.0760 -0.5493
 8536SOL    HW137070   3.941   2.591   8.858  0.6763 -1.7681  0.8426
 8536SOL    HW237071   4.070   2.531   8.833 -0.5762  0.5322  0.4246
 8537SOL     OW37072   1.562   3.373   0.676 -0.4503 -0.1335  0.5782
 8537SOL    HW137073   1.630   3.310   0.651 -1.5244 -1.8797  1.9690
 8537SOL    HW237074   1.593   3.453   0.635  1.0512 -1.7916 -1.5376
 8538SOL     OW37075   2.490   0.896   7.261  0.5483  0.0974 -0.3030
 8538SOL    HW137076   2.576   0.883   7.222  0.2814 -2.4542 -0.0180
 8538SOL    HW237077   2.488   0.992   7.270  1.5749 -0.0550  1.6969
 8539SOL     OW37078   2.804   0.199  15.331 -0.7134 -0.3381  0.3837
 8539SOL    HW137079   2.731   0.208  15.392 -0.9284 -1.0164  0.2300
 8539SOL    HW237080   2.776   0.259  15.261  0.3295 -2.6830 -2.0431
 8540SOL     OW37081   0.723   1.684  10.317 -0.3271 -0.1000  0.1750
 8540SOL    HW137082   0.631   1.679  10.289 -0.4609 -0.1651  0.6136
 8540SOL    HW237083   0.742   1.773  10.291 -1.8015 -0.5951 -2.5203
 8541SOL     OW37084   1.046   0.762  15.921  0.2427 -0.4701  0.2906
 8541SOL    HW137085   0.973   0.823  15.932  0.5344 -0.3925  1.7297
 8541SOL    HW237086   1.100   0.795  15.992  0.2734  1.2507 -0.5233
 8542SOL     OW37087   3.158   3.393   6.147  0.3635  0.0096  0.1152
 8542SOL    HW137088   3.164   3.488   6.144 -1.7272  0.1487  0.2819
 8542SOL    HW237089   3.230   3.353   6.098 -0.5318 -0.6598 -0.6578
 8543SOL     OW37090   1.787   2.278   9.074  0.3425  0.0493  0.8312
 8543SOL    HW137091   1.754   2.238   9.155 -0.6947  0.1598  0.4609
 8543SOL    HW237092   1.714   2.259   9.016  0.6141  2.2467 -0.2441
 8544SOL     OW37093   0.672   1.954   6.993  0.1796  0.5870  0.2286
 8544SOL    HW137094   0.730   1.894   6.947 -0.2168  0.4674 -0.1150
 8544SOL    HW237095   0.621   2.003   6.928  1.8042  0.9407 -0.7845
 8545SOL     OW37096   1.103   1.522   8.601 -0.3137 -0.0217 -0.4150
 8545SOL    HW137097   1.184   1.570   8.619 -0.3331 -0.1691  0.0541
 8545SOL    HW237098   1.121   1.443   8.651  1.9177 -0.2833 -1.6117
 8546SOL     OW37099   3.248   2.820   1.421 -0.4578  0.6369  0.2430
 8546SOL    HW137100   3.291   2.744   1.381  0.3873  2.6019 -2.6096
 8546SOL    HW237101   3.165   2.820   1.374 -0.9085 -3.1921  1.0467
 8547SOL     OW37102   2.657   2.217   2.686  0.5250 -0.6569  0.1016
 8547SOL    HW137103   2.603   2.211   2.765  1.2497 -2.9824  0.4202
 8547SOL    HW237104   2.736   2.185   2.729  0.3276  0.8945  1.6379
 8548SOL     OW37105   2.236   0.705   7.987  0.0969  0.0096  0.4217
 8548SOL    HW137106   2.183   0.762   7.932  1.6752 -0.7665 -1.8963
 8548SOL    HW237107   2.185   0.715   8.068  2.3708  2.8571  1.4949
 8549SOL     OW37108   2.702   4.024   7.141  0.6632 -0.3102  0.2256
 8549SOL    HW137109   2.789   4.055   7.168  0.4460 -0.4417  1.0622
 8549SOL    HW237110   2.723   4.007   7.049  0.2843 -0.5832  0.1910
 8550SOL     OW37111   3.784   2.567  11.748  0.5205  0.2433 -0.2820
 8550SOL    HW137112   3.827   2.622  11.682 -0.3880  0.5202 -0.6322
 8550SOL    HW237113   3.733   2.618  11.810  1.3840  1.1076 -0.2760
 8551SOL     OW37114   2.785   1.698   4.594 -0.1993 -0.2624  0.5079
 8551SOL    HW137115   2.708   1.754   4.581  0.9021  1.3516  0.9659
 8551SOL    HW237116   2.823   1.702   4.506 -0.9109  1.8093  0.2761
 8552SOL     OW37117   1.577   3.861   5.130  0.1653 -0.7013  0.0896
 8552SOL    HW137118   1.490   3.901   5.136  1.7069  2.8638 -1.4086
 8552SOL    HW237119   1.591   3.854   5.224  1.3033 -1.9787 -0.1868
 8553SOL     OW37120   1.496   1.551   5.274  0.4695 -0.7405  0.0924
 8553SOL    HW137121   1.428   1.618   5.272  1.0685 -0.1428  0.0435
 8553SOL    HW237122   1.465   1.495   5.203 -2.2122  1.3668 -0.4037
 8554SOL     OW37123   1.861   1.051   6.405 -0.5937  0.0190 -0.7311
 8554SOL    HW137124   1.827   0.970   6.442 -0.7080 -0.6050 -2.2031
 8554SOL    HW237125   1.904   1.089   6.482 -0.7382 -1.1057 -0.0971
 8555SOL     OW37126   2.923   1.719   9.249  0.3096 -0.6749  0.0179
 8555SOL    HW137127   3.002   1.717   9.303  0.6340 -0.3870 -0.4452
 8555SOL    HW237128   2.915   1.631   9.211  2.1381 -0.3535 -1.1385
 8556SOL     OW37129   2.008   3.544   0.261 -0.1692 -0.2174 -0.1755
 8556SOL    HW137130   2.042   3.472   0.314  1.2105  1.9671  1.9068
 8556SOL    HW237131   2.024   3.521   0.170  2.7507  0.7385  0.1071
 8557SOL     OW37132   0.100   3.328   9.095 -0.1835  0.0648  0.4611
 8557SOL    HW137133   0.099   3.413   9.051  1.1371 -0.0079  0.2818
 8557SOL    HW237134   0.008   3.313   9.116 -0.2325 -2.9424 -1.9598
 8558SOL     OW37135   2.723   2.210   8.704  0.1481  0.2806 -0.5142
 8558SOL    HW137136   2.698   2.224   8.795  0.5115  0.3792 -0.4282
 8558SOL    HW237137   2.647   2.170   8.662  0.0070 -0.8807  0.8250
 8559SOL     OW37138   3.940   0.021   1.903  0.9518 -0.3375 -0.1011
 8559SOL    HW137139   3.933   4.672   1.968 -3.3466  0.2295  0.0758
 8559SOL    HW237140   3.950   4.688   1.825  2.2329 -0.0929 -0.1059
 8560SOL     OW37141   2.268   1.726   1.932 -0.9150 -0.7124 -0.2387
 8560SOL    HW137142   2.307   1.647   1.894  0.9566 -0.5256  1.2993
 8560SOL    HW237143   2.317   1.793   1.885 -1.2076  0.4576  1.1066
 8561SOL     OW37144   4.288   0.888   6.131 -0.0454  0.2192  0.2466
 8561SOL    HW137145   4.367   0.841   6.104 -0.4801 -0.0794 -0.4862
 8561SOL    HW237146   4.312   0.980   6.118 -2.4183  0.7805 -0.1719
 8562SOL     OW37147   1.850   1.435   3.438 -0.2671 -0.1955 -0.4279
 8562SOL    HW137148   1.933   1.466   3.475  0.2192 -0.0852 -1.6173
 8562SOL    HW237149   1.846   1.348   3.479  1.8263 -0.3938 -0.6198
 8563SOL     OW37150   4.667   1.757   9.014  0.6153 -0.0348 -0.1758
 8563SOL    HW137151   4.599   1.795   8.959  1.9815  1.2347 -1.0034
 8563SOL    HW237152   4.672   1.666   8.985  1.4445 -0.0020 -0.1354
 8564SOL     OW37153   2.689   3.751   7.186  0.0964 -0.2838 -0.1923
 8564SOL    HW137154   2.717   3.753   7.094  0.3474  1.3158 -0.0812
 8564SOL    HW237155   2.681   3.846   7.197 -1.5447 -0.1954 -2.1588
 8565SOL     OW37156   1.094   4.164   1.630 -0.1457  0.3055  0.2187
 8565SOL    HW137157   1.176   4.114   1.633 -0.0655  0.4210 -0.0642
 8565SOL    HW237158   1.039   4.092   1.660 -0.0759  0.4770  0.7702
 8566SOL     OW37159   2.338   1.380   9.329  0.2371 -0.0579  0.3245
 8566SOL    HW137160   2.318   1.438   9.256 -1.7106  0.3962  1.2056
 8566SOL    HW237161   2.414   1.424   9.368  0.5155 -0.9645  0.8095
 8567SOL     OW37162   1.396   2.267   4.826  0.1318  0.1065  0.0056
 8567SOL    HW137163   1.332   2.325   4.785 -1.2599 -1.4603 -0.0367
 8567SOL    HW237164   1.361   2.183   4.797  1.3888 -0.9098  1.3966
 8568SOL     OW37165   0.053   4.657  14.231 -0.7548  0.3123 -0.2341
 8568SOL    HW137166   4.698   4.629  14.282  0.2285  0.0904  1.1271
 8568SOL    HW237167   0.053   0.031  14.242 -1.5378  0.4366 -1.2664
 8569SOL     OW37168   2.812   4.711   4.719 -0.2377  0.0072  0.6506
 8569SOL    HW137169   2.889   0.031   4.681  0.2909 -2.2207 -0.6776
 8569SOL    HW237170   2.813   4.624   4.679  1.9950 -0.1667  1.0663
 8570SOL     OW37171   2.838   1.302   8.253 -0.0849 -0.3745 -0.9514
 8570SOL    HW137172   2.898   1.359   8.206 -0.2204  1.7309  1.4529
 8570SOL    HW237173   2.751   1.332   8.226 -0.7624 -0.2863  1.2926
 8571SOL     OW37174   2.691   1.755   2.183 -0.5176  0.3002  0.3809
 8571SOL    HW137175   2.715   1.833   2.232  0.9177  0.3860 -0.4536
 8571SOL    HW237176   2.738   1.754   2.099  0.3089 -1.8340  0.8751
 8572SOL     OW37177   0.949   1.290   1.170  0.7101  0.1497  0.4888
 8572SOL    HW137178   0.927   1.337   1.250  0.2747  0.4551  0.1867
 8572SOL    HW237179   0.912   1.342   1.099 -0.4281  1.8515  2.3133
 8573SOL     OW37180   0.569   4.033   3.232 -0.6342 -0.1920  0.2853
 8573SOL    HW137181   0.656   3.996   3.242 -1.4711 -1.8229  1.4743
 8573SOL    HW237182   0.558   4.021   3.137  0.3379  1.6984 -0.0636
 8574SOL     OW37183   1.731   4.555   0.783  0.0108  0.5917 -0.5675
 8574SOL    HW137184   1.751   4.589   0.870 -2.2272 -1.2141  0.6311
 8574SOL    HW237185   1.692   4.471   0.807  1.4936  0.1434  0.2683
 8575SOL     OW37186   0.270   3.436   8.564  0.3879 -0.4708 -0.0872
 8575SOL    HW137187   0.181   3.425   8.599  0.7591  0.3887  1.1135
 8575SOL    HW237188   0.284   3.529   8.580 -0.1813  0.0777 -2.8039
 8576SOL     OW37189   0.953   4.542   2.405  0.1604 -0.1186  0.0401
 8576SOL    HW137190   1.038   4.525   2.445 -0.3923 -1.4276  0.6279
 8576SOL    HW237191   0.911   4.596   2.472  1.4373  2.2937 -1.0964
 8577SOL     OW37192   0.634   3.301   5.653  0.2926  0.2789 -0.2180
 8577SOL    HW137193   0.706   3.255   5.608  1.7441  0.2036  2.1750
 8577SOL    HW237194   0.677   3.382   5.680 -0.7150  0.1871  1.6517
 8578SOL     OW37195   0.490   0.496   3.071 -0.7809 -0.2021 -0.2067
 8578SOL    HW137196   0.409   0.455   3.103 -1.0819 -0.1039 -0.8420
 8578SOL    HW237197   0.537   0.513   3.153 -1.6697 -1.3917  0.5605
 8579SOL     OW37198   1.895   3.787   3.891  0.1316  0.2106 -0.2494
 8579SOL    HW137199   1.938   3.817   3.971 -2.6334 -0.0197  1.3200
 8579SOL    HW237200   1.825   3.849   3.871  1.0804  0.5737 -2.4531
 8580SOL     OW37201   0.125   2.702  13.075  0.1068  0.2082  0.0892
 8580SOL    HW137202   0.199   2.656  13.036 -1.6953 -1.4466 -1.3662
 8580SOL    HW237203   0.125   2.680  13.168 -0.1128 -1.8868 -0.3966
 8581SOL     OW37204   1.470   3.266   0.937 -0.3406 -1.0491 -0.8883
 8581SOL    HW137205   1.521   3.267   0.856  0.2772  0.6990 -0.4717
 8581SOL    HW237206   1.511   3.198   0.990  1.0169  1.0018  0.6937
 8582SOL     OW37207   1.005   3.683   4.277  0.2205  0.0083 -0.0477
 8582SOL    HW137208   1.082   3.627   4.263  0.4432 -0.1863  1.9787
 8582SOL    HW237209   0.950   3.666   4.200 -0.1154  0.3866  0.1108
 8583SOL     OW37210   2.659   0.442   7.353  0.6757  0.2932 -0.2418
 8583SOL    HW137211   2.584   0.389   7.381  1.2982 -0.3006  0.3382
 8583SOL    HW237212   2.611   0.497   7.292 -2.3566 -1.8796  0.1692
 8584SOL     OW37213   1.858   1.610   5.815 -0.1489  0.2835  0.0678
 8584SOL    HW137214   1.872   1.688   5.870  3.2141 -1.2335  1.3718
 8584SOL    HW237215   1.941   1.601   5.769  0.4938 -1.2484  1.5519
 8585SOL     OW37216   0.635   2.875   5.748  0.2486  0.5328 -0.5895
 8585SOL    HW137217   0.659   2.785   5.727  0.1340  0.9894 -2.7375
 8585SOL    HW237218   0.620   2.910   5.660  1.7111 -1.3006 -1.5674
 8586SOL     OW37219   2.755   0.043   3.501  0.0479 -0.1713  0.1356
 8586SOL    HW137220   2.754   0.064   3.408 -0.3696 -2.3248 -0.3477
 8586SOL    HW237221   2.700   4.686   3.510 -0.6872  0.2061 -1.0218
 8587SOL     OW37222   0.776   0.052  14.199 -0.2652 -0.3691 -0.0457
 8587SOL    HW137223   0.793   4.680  14.187  0.4825 -0.1211 -0.9738
 8587SOL    HW237224   0.682   0.054  14.217 -0.5602  2.0573 -1.7697
 8588SOL     OW37225   2.322   0.792   4.272 -0.2289 -0.1248  0.4348
 8588SOL    HW137226   2.344   0.864   4.331  1.2368 -0.4481  0.3037
 8588SOL    HW237227   2.404   0.785   4.222 -1.9364 -0.6098 -2.3167
 8589SOL     OW37228   2.163   3.261   5.821  0.3719  0.1485 -0.0889
 8589SOL    HW137229   2.236   3.320   5.804  1.6365 -1.5174 -0.5090
 8589SOL    HW237230   2.134   3.277   5.911  2.8951  1.3007  0.5084
 8590SOL     OW37231   0.397   4.289  16.364 -0.0835 -0.6413  0.4196
 8590SOL    HW137232   0.391   4.340  16.445 -1.3693  0.1081 -0.1548
 8590SOL    HW237233   0.484   4.309  16.328 -0.1681 -0.7100  0.1787
 8591SOL     OW37234   3.913   1.351   6.088  0.4962  0.4259  0.1507
 8591SOL    HW137235   3.924   1.442   6.063  0.3148  0.1672 -0.8413
 8591SOL    HW237236   3.918   1.306   6.004 -0.6725 -0.6939  0.6781
 8592SOL     OW37237   0.023   3.846   8.925 -0.3265 -0.0506  0.6437
 8592SOL    HW137238   4.677   3.891   8.977  1.0302  0.3166  2.0573
 8592SOL    HW237239   0.022   3.907   8.851  1.8107 -0.3897  0.3324
 8593SOL     OW37240   3.799   3.248   4.333  0.2355 -0.2255 -0.4279
 8593SOL    HW137241   3.804   3.250   4.238 -2.4054 -1.5225 -0.6119
 8593SOL    HW237242   3.789   3.156   4.357  2.2139 -0.1523  0.6598
 8594SOL     OW37243   1.471   1.742  11.392  0.2284 -0.2892 -0.1294
 8594SOL    HW137244   1.536   1.785  11.336 -1.3377  1.6507 -0.4336
 8594SOL    HW237245   1.489   1.774  11.480  0.1323 -0.0864 -0.1852
 8595SOL     OW37246   2.295   0.287   9.849 -0.0971 -0.1789 -0.1949
 8595SOL    HW137247   2.355   0.315   9.918 -1.8061  1.3721  0.6693
 8595SOL    HW237248   2.207   0.282   9.886 -0.8382 -0.4031 -1.9776
 8596SOL     OW37249   3.804   3.468  13.852  0.1679  0.7465 -0.6840
 8596SOL    HW137250   3.845   3.383  13.864 -0.9344  0.6438  2.3306
 8596SOL    HW237251   3.751   3.463  13.931  0.2587 -0.1663 -0.6829
 8597SOL     OW37252   0.994   0.653   2.283 -0.2567 -0.4767 -0.1675
 8597SOL    HW137253   1.080   0.647   2.242 -0.2249 -1.8528  0.1142
 8597SOL    HW237254   0.967   0.561   2.286 -1.5676 -0.0225  2.4149
 8598SOL     OW37255   2.502   2.613   8.857  0.1885 -0.4792  0.4287
 8598SOL    HW137256   2.450   2.642   8.932 -0.4654  2.3030 -1.1018
 8598SOL    HW237257   2.490   2.518   8.858 -0.2930 -0.4618 -3.7806
 8599SOL     OW37258   2.196   4.142   1.892  0.4185 -0.4007  0.1034
 8599SOL    HW137259   2.205   4.166   1.799 -1.7761  1.6318  0.4368
 8599SOL    HW237260   2.242   4.059   1.905  0.5527 -0.4025 -0.3689
 8600SOL     OW37261   0.645   1.596   4.777  0.1880  0.0032 -0.6192
 8600SOL    HW137262   0.556   1.628   4.789  1.0642  2.6665 -1.1464
 8600SOL    HW237263   0.671   1.647   4.699 -0.0412 -3.6076 -3.0350
 8601SOL     OW37264   2.773   4.692  15.059 -0.4090  0.3757  0.2035
 8601SOL    HW137265   2.827   0.030  15.112 -1.3887  0.7226  0.8229
 8601SOL    HW237266   2.804   4.602  15.068  1.7755  1.1843  0.7475
 8602SOL     OW37267   3.825   1.079   4.568 -0.2178 -0.4551 -0.7755
 8602SOL    HW137268   3.734   1.074   4.538 -0.5445  0.0958  0.1066
 8602SOL    HW237269   3.833   1.171   4.593  1.1465 -1.2065  1.5910
 8603SOL     OW37270   3.037   2.861   9.042 -0.3799 -0.1131 -0.7835
 8603SOL    HW137271   3.081   2.934   9.000 -1.0837  0.5979 -0.2764
 8603SOL    HW237272   3.102   2.793   9.024  1.1227  1.0800  0.2479
 8604SOL     OW37273   1.457   1.828  17.366  0.1130 -0.0075 -0.2427
 8604SOL    HW137274   1.456   1.891  17.438  0.9115  1.0138 -1.1102
 8604SOL    HW237275   1.515   1.863  17.298  1.3830 -0.7389  0.4654
 8605SOL     OW37276   3.378   0.938  12.662  0.1139 -0.0735  1.0096
 8605SOL    HW137277   3.443   0.936  12.591 -1.3375 -1.8347 -0.2505
 8605SOL    HW237278   3.417   0.883  12.730  0.5995  0.8938  1.5362
 8606SOL     OW37279   0.322   1.921   4.765  0.0635 -0.1899  0.0973
 8606SOL    HW137280   0.364   1.835   4.766 -1.9009 -1.1591  0.2364
 8606SOL    HW237281   0.369   1.969   4.833  0.9302 -2.8902  1.4088
 8607SOL     OW37282   0.041   1.603   4.299 -0.6256 -0.1778 -0.2091
 8607SOL    HW137283   0.068   1.517   4.333 -0.2729  0.5178  1.2995
 8607SOL    HW237284   4.681   1.620   4.348 -1.9706 -0.1711 -2.4460
 8608SOL     OW37285   2.528   0.569   7.739 -0.6198  0.2803  1.0282
 8608SOL    HW137286   2.513   0.625   7.663 -0.5819 -1.0539  0.0277
 8608SOL    HW237287   2.585   0.630   7.785  2.0382  1.2095 -3.4327
 8609SOL     OW37288   1.232   4.387  10.131 -0.0447  0.1293 -0.2993
 8609SOL    HW137289   1.281   4.406  10.051  1.4514  0.9388  0.8232
 8609SOL    HW237290   1.144   4.377  10.094  1.4259  2.1833 -4.3951
 8610SOL     OW37291   3.507   0.320   8.305 -0.0314  0.0674 -0.0890
 8610SOL    HW137292   3.573   0.387   8.287 -0.1411  0.3402  0.5031
 8610SOL    HW237293   3.475   0.359   8.387  2.3385  0.4556  0.6623
 8611SOL     OW37294   3.247   1.781  12.365 -0.9423  0.6660  0.3095
 8611SOL    HW137295   3.231   1.801  12.273  0.8448  1.6009  0.1997
 8611SOL    HW237296   3.296   1.700  12.350 -1.0046  1.1655 -2.5430
 8612SOL     OW37297   3.779   4.188   7.876 -0.1240  0.6306 -0.3616
 8612SOL    HW137298   3.847   4.203   7.811  0.1173 -0.5595 -0.3861
 8612SOL    HW237299   3.700   4.180   7.821 -0.9815  1.5577  0.7397
 8613SOL     OW37300   4.140   4.060   5.309 -0.4448  0.0020  0.5339
 8613SOL    HW137301   4.232   4.085   5.300  0.1489 -3.2660 -2.5273
 8613SOL    HW237302   4.088   4.126   5.265 -2.2156  0.1065  2.7762
 8614SOL     OW37303   3.749   2.131   6.093 -1.3648 -0.0261 -0.1939
 8614SOL    HW137304   3.802   2.073   6.038  1.7575  0.4140  2.3542
 8614SOL    HW237305   3.731   2.208   6.039  0.4397  1.9167  1.9892
 8615SOL     OW37306   0.781   2.581   9.882  0.5104  0.3390  0.1102
 8615SOL    HW137307   0.792   2.487   9.896  0.9358  0.6524  1.9273
 8615SOL    HW237308   0.752   2.603   9.970 -0.0325 -0.4572  0.1282
 8616SOL     OW37309   2.681   1.577  14.052  0.0793 -0.1150 -0.3181
 8616SOL    HW137310   2.730   1.579  13.971  2.9426 -1.0836  1.3937
 8616SOL    HW237311   2.627   1.656  14.048 -0.4353 -0.4078  0.7647
 8617SOL     OW37312   3.908   3.636  11.942 -0.0401  0.3123  0.2084
 8617SOL    HW137313   3.879   3.622  12.032 -1.3623  1.8415  0.0056
 8617SOL    HW237314   3.946   3.549  11.930 -0.5405 -0.1863  2.1888
 8618SOL     OW37315   4.628   0.376   6.598 -0.2581 -0.5092  0.1544
 8618SOL    HW137316   4.697   0.326   6.555 -1.1445 -0.2817 -1.5183
 8618SOL    HW237317   4.559   0.363   6.533 -0.9634  1.2922  0.5214
 8619SOL     OW37318   3.302   2.942   4.488 -0.3002  0.0988  0.4733
 8619SOL    HW137319   3.335   3.005   4.552  0.5335  1.7766 -1.6058
 8619SOL    HW237320   3.275   2.994   4.413  0.0426 -1.9173 -1.0315
 8620SOL     OW37321   4.564   4.633  10.698 -0.2278 -0.2811 -0.1583
 8620SOL    HW137322   4.644   4.596  10.660 -0.6185  1.3796 -2.5901
 8620SOL    HW237323   4.535   4.699  10.636  0.7139 -0.7513 -1.0943
 8621SOL     OW37324   4.102   2.193   4.096  0.2866 -0.1277 -0.4040
 8621SOL    HW137325   4.180   2.239   4.064 -0.2535  0.4242 -0.9174
 8621SOL    HW237326   4.059   2.258   4.151  0.0544 -0.5405 -0.0909
 8622SOL     OW37327   0.112   0.087   5.701 -0.2136  0.6633 -0.3948
 8622SOL    HW137328   0.183   0.028   5.726 -1.5970 -0.2217  1.4060
 8622SOL    HW237329   0.055   0.021   5.661 -1.0063  0.4550  1.0688
 8623SOL     OW37330   0.183   0.248   2.435  0.2821  0.3577  0.6469
 8623SOL    HW137331   0.220   0.163   2.414 -1.1604  0.1943 -1.2051
 8623SOL    HW237332   0.107   0.253   2.377  0.0539  0.4757  0.9539
 8624SOL     OW37333   0.218   2.229  14.480  0.4908 -0.6386 -0.8553
 8624SOL    HW137334   0.246   2.276  14.402 -0.6030  3.1508  0.9910
 8624SOL    HW237335   0.142   2.184  14.442 -0.7059  0.5014  0.1815
 8625SOL     OW37336   2.018   0.257   9.866  0.2030  0.0009 -0.2489
 8625SOL    HW137337   1.956   0.252   9.939  1.2264  0.8297  0.6823
 8625SOL    HW237338   1.961   0.237   9.792  2.0864 -0.7587 -1.5011
 8626SOL     OW37339   0.995   2.289   9.085 -0.4397  0.0450 -0.0797
 8626SOL    HW137340   1.080   2.246   9.073 -0.8990 -0.2774 -2.1518
 8626SOL    HW237341   1.011   2.379   9.056 -1.8131 -0.2342 -1.6941
 8627SOL     OW37342   1.088   1.015   9.166 -0.1298  0.1991 -0.0759
 8627SOL    HW137343   0.992   1.019   9.171 -0.1014  1.1391 -0.2836
 8627SOL    HW237344   1.103   0.924   9.190  1.5817  0.4333 -0.2873
 8628SOL     OW37345   3.408   3.588   4.988  0.2020  0.3943  0.2612
 8628SOL    HW137346   3.351   3.665   4.977 -0.3521  0.0732  0.8349
 8628SOL    HW237347   3.363   3.553   5.065 -0.2259 -2.4862 -1.3005
 8629SOL     OW37348   0.308   4.225   8.393  0.0417  0.8474 -0.0614
 8629SOL    HW137349   0.391   4.231   8.441 -0.3191 -0.8017  0.7606
 8629SOL    HW237350   0.330   4.163   8.323 -1.1874  0.1868  0.1342
 8630SOL     OW37351   1.039   0.534   5.289  0.2786 -0.6311  0.1464
 8630SOL    HW137352   0.999   0.468   5.231  0.9109  1.0599 -2.2173
 8630SOL    HW237353   1.006   0.609   5.240 -0.9711 -0.3128  1.5026
 8631SOL     OW37354   3.090   2.830   0.405 -0.1346 -0.7960  0.4288
 8631SOL    HW137355   3.182   2.856   0.415 -0.6811  0.9820  0.8838
 8631SOL    HW237356   3.058   2.869   0.486  3.1728  2.1175  0.3506
 8632SOL     OW37357   3.948   0.545   1.227  0.4887 -0.0189 -0.1139
 8632SOL    HW137358   3.931   0.454   1.199  2.1111  0.1797 -1.7969
 8632SOL    HW237359   3.869   0.559   1.278  0.1691  1.0948 -0.9222
 8633SOL     OW37360   2.687   2.051   2.378  0.5196 -0.5549  0.4881
 8633SOL    HW137361   2.748   2.124   2.386  1.5505 -1.3846  0.2063
 8633SOL    HW237362   2.599   2.077   2.406  0.8123 -0.4284  1.2835
 8634SOL     OW37363   3.222   2.691   6.470 -0.3580 -0.0828  0.1658
 8634SOL    HW137364   3.179   2.614   6.506 -1.8643  0.1354 -1.1554
 8634SOL    HW237365   3.307   2.687   6.512 -1.1945 -2.2153  1.6430
 8635SOL     OW37366   1.456   2.582  17.028 -0.4569  0.0297  0.4030
 8635SOL    HW137367   1.380   2.639  17.041  0.5625  1.6166 -0.5714
 8635SOL    HW237368   1.432   2.523  16.956  1.9190 -0.0824 -0.2902
 8636SOL     OW37369   0.599   1.919   5.649 -0.1465  0.9700 -0.0425
 8636SOL    HW137370   0.581   2.012   5.658 -0.2421  0.9132  0.3684
 8636SOL    HW237371   0.617   1.902   5.741  0.3345  0.7435 -0.1781
 8637SOL     OW37372   0.516   1.368   2.069  0.3177  0.3450  0.4551
 8637SOL    HW137373   0.495   1.331   1.984  0.9379 -0.6115  0.7201
 8637SOL    HW237374   0.525   1.462   2.051 -0.2508  0.3848  0.3818
 8638SOL     OW37375   1.433   4.439   3.903  0.8010  0.7831  0.4365
 8638SOL    HW137376   1.456   4.531   3.911  1.2255  0.5676  1.6907
 8638SOL    HW237377   1.370   4.426   3.831  1.8833  0.1981 -0.4011
 8639SOL     OW37378   0.840   1.606   5.714 -0.1464 -0.7219 -0.3845
 8639SOL    HW137379   0.806   1.668   5.777  2.2284 -0.6832  0.8582
 8639SOL    HW237380   0.846   1.524   5.763 -0.1631 -0.4988 -0.0171
 8640SOL     OW37381   3.824   3.877   9.815 -0.3350  0.5300 -0.6663
 8640SOL    HW137382   3.869   3.796   9.838  0.0987  1.1304  0.5893
 8640SOL    HW237383   3.730   3.859   9.805 -0.8383  2.7064  0.1501
 8641SOL     OW37384   2.394   0.430   2.108  0.1239  0.2261 -0.2695
 8641SOL    HW137385   2.384   0.335   2.117 -3.1193  0.9218  3.4901
 8641SOL    HW237386   2.409   0.446   2.201  3.1180 -0.7703 -0.5927
 8642SOL     OW37387   3.419   0.750  17.424 -0.5664  0.3695  0.5695
 8642SOL    HW137388   3.360   0.717  17.491 -0.5587 -1.3949 -0.3028
 8642SOL    HW237389   3.498   0.697  17.436 -0.4909  0.2557 -0.4453
 8643SOL     OW37390   3.273   3.974   7.123 -0.2250  0.1993 -0.2052
 8643SOL    HW137391   3.281   3.996   7.030 -0.2750 -2.6706 -0.9005
 8643SOL    HW237392   3.319   4.046   7.166 -0.0464 -0.6868  1.0795
 8644SOL     OW37393   2.807   1.039  16.280 -0.3406  0.2109  0.1142
 8644SOL    HW137394   2.762   1.000  16.204  1.0231 -2.2765  0.5977
 8644SOL    HW237395   2.897   1.015  16.261 -0.1794 -0.6388  1.9705
 8645SOL     OW37396   4.061   4.210   4.762  0.2342  0.2401 -0.5177
 8645SOL    HW137397   4.008   4.288   4.775  1.5642  1.1384 -0.3918
 8645SOL    HW237398   4.047   4.157   4.840 -0.2976 -1.1215 -1.5297
 8646SOL     OW37399   4.116   4.244   2.773 -0.1880 -0.5587  0.0783
 8646SOL    HW137400   4.180   4.209   2.835  1.2921 -1.4638 -1.9550
 8646SOL    HW237401   4.038   4.254   2.828 -0.3507 -0.4840 -0.1669
 8647SOL     OW37402   2.718   0.344   0.807  0.1591  0.1316  0.2347
 8647SOL    HW137403   2.708   0.437   0.827  1.2559 -0.1514  2.1425
 8647SOL    HW237404   2.628   0.313   0.821 -0.2250  0.9176 -0.4959
 8648SOL     OW37405   1.506   2.061  10.202 -0.3042 -0.1020  1.0035
 8648SOL    HW137406   1.471   2.143  10.238  1.2839  2.5370 -3.3735
 8648SOL    HW237407   1.578   2.096  10.149  0.0973 -2.0230  0.2830
 8649SOL     OW37408   2.383   1.958   6.674  0.5157 -0.2331  0.2801
 8649SOL    HW137409   2.475   1.984   6.679  1.4242 -3.6560  1.4821
 8649SOL    HW237410   2.348   2.029   6.727  1.3138  1.4490 -1.4406
 8650SOL     OW37411   2.389   3.742   3.121  0.0890  0.2456 -0.1943
 8650SOL    HW137412   2.339   3.660   3.114 -2.3641  1.6988  0.3436
 8650SOL    HW237413   2.323   3.795   3.166  0.7202  0.5698  0.3386
 8651SOL     OW37414   0.419   0.278   4.895 -0.3839  0.5144  0.2573
 8651SOL    HW137415   0.444   0.289   4.987  0.1798 -0.4903  0.2259
 8651SOL    HW237416   0.451   0.363   4.866 -0.8286  0.1883 -1.1879
 8652SOL     OW37417   2.884   2.718   0.268  0.0223 -0.2260  1.2461
 8652SOL    HW137418   2.829   2.791   0.299 -0.3051 -0.3058  0.8596
 8652SOL    HW237419   2.969   2.746   0.301  1.6197 -0.5203 -2.5940
 8653SOL     OW37420   4.555   3.035   3.202 -0.0329 -0.2416  0.0840
 8653SOL    HW137421   4.512   2.950   3.206  1.2336 -0.9101 -0.6769
 8653SOL    HW237422   4.484   3.099   3.213 -0.0745 -0.0095 -1.5355
 8654SOL     OW37423   3.356   4.169   7.477 -0.0478  1.1687  0.0627
 8654SOL    HW137424   3.280   4.147   7.531  0.0942  0.9069  0.1554
 8654SOL    HW237425   3.331   4.261   7.464 -0.5857  1.3057  2.1736
 8655SOL     OW37426   0.589   1.488   3.216  0.2476 -0.0352 -0.2671
 8655SOL    HW137427   0.534   1.561   3.245 -2.7313 -3.1887  2.1001
 8655SOL    HW237428   0.667   1.509   3.267  0.3535  0.5778 -0.6803
 8656SOL     OW37429   2.897   2.837   6.453  0.2139 -0.0534  0.7207
 8656SOL    HW137430   2.928   2.914   6.405 -0.9483 -0.0562 -0.0350
 8656SOL    HW237431   2.832   2.810   6.388 -0.0363  0.9363  0.5607
 8657SOL     OW37432   0.342   0.577   4.190  0.1768 -0.4406  0.2064
 8657SOL    HW137433   0.345   0.525   4.109  0.6325 -1.6894  1.0148
 8657SOL    HW237434   0.427   0.561   4.232 -0.6444 -0.4335  1.8592
 8658SOL     OW37435   2.183   0.964   8.867 -0.1924 -0.4612 -0.2546
 8658SOL    HW137436   2.191   1.007   8.782  0.9498  0.3913  0.2825
 8658SOL    HW237437   2.142   0.884   8.835 -1.5338 -0.0107  0.3515
 8659SOL     OW37438   2.872   3.643   4.874  0.4958  0.3987  0.1619
 8659SOL    HW137439   2.776   3.643   4.869  0.4285  1.5354  1.5519
 8659SOL    HW237440   2.899   3.631   4.965  1.5104 -1.7362 -0.4011
 8660SOL     OW37441   1.162   1.854   1.312 -0.0227  0.1445  0.0480
 8660SOL    HW137442   1.237   1.884   1.363 -0.6952  0.7153  0.6960
 8660SOL    HW237443   1.156   1.769   1.356  1.3196 -0.8122 -1.6311
 8661SOL     OW37444   3.627   0.839   7.906 -0.7024  0.3826  0.7757
 8661SOL    HW137445   3.643   0.873   7.817 -1.8570  1.6771  1.0579
 8661SOL    HW237446   3.534   0.817   7.894  0.2630 -2.2066 -2.0681
 8662SOL     OW37447   3.447   4.114   5.725 -0.5053  0.0758 -0.1776
 8662SOL    HW137448   3.451   4.021   5.707 -0.5529 -0.0100  0.2691
 8662SOL    HW237449   3.391   4.153   5.657 -0.0052  0.2523 -0.4860
 8663SOL     OW37450   0.470   4.324   1.423  0.3539 -0.1188 -0.4285
 8663SOL    HW137451   0.402   4.325   1.490 -0.7387 -0.8208 -1.5506
 8663SOL    HW237452   0.449   4.383   1.351  1.7000  1.1967  0.2401
 8664SOL     OW37453   2.268   1.846   9.364 -0.2925 -0.1671 -0.0821
 8664SOL    HW137454   2.198   1.876   9.422 -0.3469  1.1264 -0.8376
 8664SOL    HW237455   2.290   1.763   9.408  1.7784 -0.2895 -1.3828
 8665SOL     OW37456   2.066   1.431  10.513  0.5038 -0.3310  0.1952
 8665SOL    HW137457   1.971   1.426  10.516  0.6638 -2.4773  1.7840
 8665SOL    HW237458   2.071   1.460  10.604 -0.9090 -1.3226  0.5826
 8666SOL     OW37459   4.008   4.203   3.411 -0.2833  0.2047 -0.1091
 8666SOL    HW137460   4.075   4.215   3.344  0.2843 -0.4082  0.3442
 8666SOL    HW237461   4.064   4.215   3.489  0.8446 -0.8497 -0.7501
 8667SOL     OW37462   2.539   2.824   8.681  0.3767 -0.1071 -0.3587
 8667SOL    HW137463   2.608   2.852   8.741  0.2292 -1.5905  0.4894
 8667SOL    HW237464   2.508   2.764   8.749 -0.4482 -0.6882 -1.2537
 8668SOL     OW37465   4.122   0.322   5.083  0.8679 -0.3194 -0.2222
 8668SOL    HW137466   4.091   0.298   4.995 -2.0791 -0.5007  0.8825
 8668SOL    HW237467   4.037   0.352   5.114  1.1376  0.4342 -0.2222
 8669SOL     OW37468   2.823   0.498   2.585  0.6998 -0.4352  0.0670
 8669SOL    HW137469   2.827   0.590   2.556  0.5521 -1.0635 -1.9380
 8669SOL    HW237470   2.778   0.521   2.666 -1.2783  1.3468 -1.5343
 8670SOL     OW37471   0.211   4.228   0.792 -0.7459 -0.2085 -0.6064
 8670SOL    HW137472   0.194   4.215   0.699 -1.8229  2.0313 -0.7173
 8670SOL    HW237473   0.201   4.136   0.820  1.7730 -0.3092 -0.0627
 8671SOL     OW37474   1.595   3.266  10.140 -0.2685  0.3059 -0.1481
 8671SOL    HW137475   1.574   3.334  10.203  1.6383  0.6258  0.1579
 8671SOL    HW237476   1.535   3.193  10.154 -1.0557  1.0421  0.3143
 8672SOL     OW37477   1.785   0.399   8.436  0.2613  0.1998  0.3816
 8672SOL    HW137478   1.809   0.450   8.358 -0.6609 -1.4085 -0.9664
 8672SOL    HW237479   1.842   0.322   8.428 -0.1879 -0.3380  2.5046
 8673SOL     OW37480   4.066   4.524  13.815  0.0326 -0.8441  0.4264
 8673SOL    HW137481   4.025   4.549  13.898 -1.3553 -0.9604 -0.2150
 8673SOL    HW237482   4.159   4.544  13.818 -0.3872  1.1277  0.1724
 8674SOL     OW37483   0.640   4.264  17.068  0.4776 -0.0757  0.2443
 8674SOL    HW137484   0.676   4.207  17.136 -2.2418 -2.2800 -0.1642
 8674SOL    HW237485   0.550   4.272  17.097  0.1491  1.0521 -1.1122
 8675SOL     OW37486   4.203   2.920  11.580  0.5392 -0.3819  0.1098
 8675SOL    HW137487   4.217   2.977  11.504 -0.2941  0.2442  0.4107
 8675SOL    HW237488   4.287   2.875  11.578  0.0687 -1.1269 -2.0751
 8676SOL     OW37489   0.207   1.266   1.882 -0.3223 -0.0923 -0.3380
 8676SOL    HW137490   0.149   1.217   1.823 -0.4118  0.1239 -0.4301
 8676SOL    HW237491   0.294   1.274   1.843  0.0223  1.6546  0.7861
 8677SOL     OW37492   3.816   1.454  17.173 -0.0914 -0.0113 -0.0718
 8677SOL    HW137493   3.829   1.429  17.264 -0.2511  0.7580  0.1622
 8677SOL    HW237494   3.796   1.546  17.191  0.7206  0.6163 -2.3776
 8678SOL     OW37495   2.144   1.981   9.595  0.0916  0.2832 -0.2431
 8678SOL    HW137496   2.090   1.912   9.632  0.4742 -0.2644 -0.6993
 8678SOL    HW237497   2.191   2.010   9.674  0.1095 -1.4811  0.3989
 8679SOL     OW37498   3.910   3.797   4.102 -0.3977  0.0406  0.0279
 8679SOL    HW137499   3.887   3.862   4.036 -0.3580 -0.8137 -0.8376
 8679SOL    HW237500   4.006   3.804   4.107 -0.5317  2.3858 -1.0183
 8680SOL     OW37501   0.418   4.594   6.055  0.4095  0.2280 -0.3386
 8680SOL    HW137502   0.443   4.627   6.141  0.5307 -0.7217 -0.0010
 8680SOL    HW237503   0.456   4.666   6.006  1.8455 -0.0264  0.3957
 8681SOL     OW37504   1.816   2.427  11.121 -0.2386 -0.3080 -0.0377
 8681SOL    HW137505   1.776   2.379  11.048  1.3520 -0.5286 -0.7675
 8681SOL    HW237506   1.733   2.456  11.160 -1.7014 -2.3731 -1.6618
 8682SOL     OW37507   1.797   3.646  17.433  0.5436 -0.0709 -0.1487
 8682SOL    HW137508   1.765   3.559  17.410  1.7295 -0.5762  0.1285
 8682SOL    HW237509   1.741   3.699  17.377  2.3701  2.1393  0.1341
 8683SOL     OW37510   0.754   4.624  10.916  0.0338  0.7374 -0.0093
 8683SOL    HW137511   0.700   4.630  10.837  0.1178  0.3025 -0.0993
 8683SOL    HW237512   0.785   4.714  10.921 -1.1628  1.0896  1.1619
 8684SOL     OW37513   4.044   1.268   9.371 -0.4464  0.7665  0.0238
 8684SOL    HW137514   4.136   1.285   9.388 -0.1904 -0.6858  0.0771
 8684SOL    HW237515   4.049   1.238   9.280  0.2384 -0.9375  0.6169
 8685SOL     OW37516   2.306   1.613   9.508 -0.2483 -0.1402  0.6331
 8685SOL    HW137517   2.401   1.619   9.499 -0.4144  0.6538 -0.4740
 8685SOL    HW237518   2.319   1.600   9.602 -1.7425  2.2943  1.1747
 8686SOL     OW37519   4.152   1.037   5.484  0.2371 -0.2054  0.0490
 8686SOL    HW137520   4.099   1.102   5.438  0.0592  0.5650  1.3443
 8686SOL    HW237521   4.164   1.093   5.561 -1.6737 -1.1133  1.0135
 8687SOL     OW37522   4.665   2.813   4.383  0.2690  0.0018 -0.6087
 8687SOL    HW137523   4.623   2.845   4.462 -0.4633  0.9172 -1.3626
 8687SOL    HW237524   4.586   2.786   4.334  0.3064 -0.7346 -0.2725
 8688SOL     OW37525   2.533   0.859   9.078 -0.7258 -0.8768 -0.4357
 8688SOL    HW137526   2.552   0.857   9.172  0.7961  0.3240 -0.7180
 8688SOL    HW237527   2.503   0.772   9.054 -3.4525 -0.5598  1.8537
 8689SOL     OW37528   3.704   3.441   1.652 -0.6139  0.2812 -0.9593
 8689SOL    HW137529   3.654   3.406   1.579  0.4227 -1.8158 -0.6829
 8689SOL    HW237530   3.780   3.382   1.644 -2.5908 -2.4778  0.5030
 8690SOL     OW37531   2.195   1.545   6.740  0.5877  0.0749  0.4318
 8690SOL    HW137532   2.203   1.622   6.797  1.8319  0.9223 -0.8783
 8690SOL    HW237533   2.283   1.508   6.741  1.2424  1.6311  0.4402
 8691SOL     OW37534   0.089   1.088   5.139 -0.5722 -0.3694 -0.2695
 8691SOL    HW137535   4.718   1.104   5.117 -0.5411 -1.0508 -0.8954
 8691SOL    HW237536   0.127   1.141   5.070 -1.8163  1.7538  0.6951
 8692SOL     OW37537   3.874   2.140   7.608  0.0030 -0.0359  0.0915
 8692SOL    HW137538   3.857   2.202   7.679 -0.1139 -0.0007  0.0319
 8692SOL    HW237539   3.968   2.122   7.616 -0.0802 -0.1986  0.7414
 8693SOL     OW37540   4.146   2.896   7.987  0.1588 -0.1521  0.4436
 8693SOL    HW137541   4.081   2.923   7.922  0.5568  1.2302  0.6246
 8693SOL    HW237542   4.165   2.981   8.026  0.5850  0.0472 -0.2012
 8694SOL     OW37543   3.001   1.142  12.685  0.2254  0.1640 -0.1245
 8694SOL    HW137544   2.961   1.061  12.653 -0.5998  0.0933  1.0972
 8694SOL    HW237545   2.930   1.199  12.655  0.3991  0.4514  0.0132
 8695SOL     OW37546   1.795   2.150   3.703  0.1111 -0.3611  0.0029
 8695SOL    HW137547   1.854   2.148   3.628 -0.4946  2.5747 -0.5754
 8695SOL    HW237548   1.716   2.174   3.655  0.2051  0.8832  0.4774
 8696SOL     OW37549   1.640   2.856   3.766  0.1499 -0.1372 -0.2449
 8696SOL    HW137550   1.660   2.935   3.715  1.4506 -1.5721 -1.9537
 8696SOL    HW237551   1.546   2.846   3.752 -0.0063 -1.8006  1.9014
 8697SOL     OW37552   0.837   2.282  13.572 -0.1643 -0.4228  0.1282
 8697SOL    HW137553   0.759   2.246  13.615 -1.2618  2.0043  0.1761
 8697SOL    HW237554   0.815   2.371  13.545  0.2690 -0.8484 -1.5927
 8698SOL     OW37555   3.183   1.939   7.936 -0.7349  0.6489 -0.5837
 8698SOL    HW137556   3.247   1.893   7.882 -0.8928 -0.1353 -0.1131
 8698SOL    HW237557   3.149   2.004   7.874 -0.8770  0.4677 -0.6968
 8699SOL     OW37558   0.147   2.244   5.823 -0.5450 -0.1416  0.0276
 8699SOL    HW137559   0.096   2.193   5.886 -0.4097 -1.1890 -0.7294
 8699SOL    HW237560   0.173   2.314   5.884  0.0310 -1.5250  1.3640
 8700SOL     OW37561   1.815   1.031   6.753  0.4115 -0.3201  0.0255
 8700SOL    HW137562   1.824   1.126   6.741  1.5156 -0.3511  0.6315
 8700SOL    HW237563   1.721   1.024   6.770  0.4239 -1.3022 -0.3364
 8701SOL     OW37564   4.544   0.152   1.696  0.2155  0.8118 -0.1663
 8701SOL    HW137565   4.474   0.218   1.702  0.3922  1.0238 -0.4218
 8701SOL    HW237566   4.577   0.177   1.610  1.1702  1.2521  0.3177
 8702SOL     OW37567   0.963   4.133  11.848 -0.0100 -0.0764  0.2472
 8702SOL    HW137568   1.057   4.136  11.865 -0.3363 -0.4427  2.0760
 8702SOL    HW237569   0.967   4.111  11.755 -0.0955  0.2986  0.1520
 8703SOL     OW37570   4.362   3.342   6.468  0.5617 -0.2127  0.0749
 8703SOL    HW137571   4.310   3.391   6.532 -0.5992  0.9842 -1.8012
 8703SOL    HW237572   4.318   3.380   6.392  0.7974 -1.3452 -0.6165
 8704SOL     OW37573   3.354   2.519   3.589  0.7433  0.3521 -0.3307
 8704SOL    HW137574   3.435   2.569   3.583  0.9630  0.1477  0.9514
 8704SOL    HW237575   3.321   2.523   3.679  2.0514  3.7166 -0.0107
 8705SOL     OW37576   3.990   1.505   3.678  0.1746 -0.4370 -0.0517
 8705SOL    HW137577   3.981   1.416   3.644  0.4210 -1.3518  2.3106
 8705SOL    HW237578   3.899   1.527   3.701 -0.6714  0.6385 -4.3804
 8706SOL     OW37579   1.596   0.759  11.235  0.5303 -0.8781  0.1155
 8706SOL    HW137580   1.555   0.673  11.228 -1.0523 -0.0819 -0.3445
 8706SOL    HW237581   1.601   0.791  11.145  1.8026  3.5321  1.7441
 8707SOL     OW37582   0.038   3.382   5.666  0.0691  0.6353  0.6862
 8707SOL    HW137583   0.021   3.386   5.572  0.1167  0.2159  0.6620
 8707SOL    HW237584   0.033   3.476   5.686  0.1361  0.9084 -0.6315
 8708SOL     OW37585   1.526   3.949   3.931 -0.2394  0.4131  0.1711
 8708SOL    HW137586   1.480   4.013   3.986  0.4227 -0.4759  1.7577
 8708SOL    HW237587   1.619   3.972   3.933 -0.2964  0.6529  0.0869
 8709SOL     OW37588   1.309   1.461   4.371 -0.2229  0.0101  0.1713
 8709SOL    HW137589   1.301   1.411   4.290  1.4408 -1.8128  1.1446
 8709SOL    HW237590   1.309   1.551   4.338  1.1140 -0.2199 -0.4895
 8710SOL     OW37591   0.093   3.592   4.532  0.4077  0.4338  0.0683
 8710SOL    HW137592   0.066   3.667   4.479  2.4917  1.0029 -0.1841
 8710SOL    HW237593   0.136   3.543   4.462  0.5290 -0.5623  0.8490
 8711SOL     OW37594   2.942   4.702   1.554  0.4336 -0.9586  0.7024
 8711SOL    HW137595   3.036   4.703   1.573  0.3652  0.6509  1.0039
 8711SOL    HW237596   2.946   4.684   1.461 -1.6670  1.7876  0.0752
 8712SOL     OW37597   1.311   3.352   2.527  0.2237  0.3444 -0.1548
 8712SOL    HW137598   1.284   3.376   2.616  1.2832  0.4471  0.1409
 8712SOL    HW237599   1.238   3.314   2.478  2.4471 -2.1137 -1.5765
 8713SOL     OW37600   0.625   0.484   4.227  0.5492 -0.1694  0.0149
 8713SOL    HW137601   0.655   0.425   4.157  5.2755  0.1816  1.7467
 8713SOL    HW237602   0.602   0.430   4.302 -0.8507  0.8841  0.3558
 8714SOL     OW37603   2.726   1.378   3.924  0.3596 -0.1288  0.4723
 8714SOL    HW137604   2.648   1.337   3.887  0.7408 -0.6081  0.1880
 8714SOL    HW237605   2.725   1.333   4.009  0.6376 -0.1902  0.4439
 8715SOL     OW37606   2.812   2.135  12.803 -0.0876  0.0216  0.0321
 8715SOL    HW137607   2.798   2.046  12.835 -0.2804 -0.3980 -1.2139
 8715SOL    HW237608   2.766   2.177  12.875  0.4406 -0.9849  0.9613
 8716SOL     OW37609   3.066   1.845   8.474  0.5889 -0.0584 -0.0676
 8716SOL    HW137610   3.002   1.774   8.470  1.8090 -1.0194 -2.1108
 8716SOL    HW237611   3.084   1.849   8.568 -0.4262  2.3418  0.0211
 8717SOL     OW37612   4.683   4.380   6.271  0.2126 -0.1795 -0.1209
 8717SOL    HW137613   0.039   4.394   6.217 -0.4292  0.9883 -0.7288
 8717SOL    HW237614   4.644   4.466   6.287  0.2168 -0.1437 -0.3079
 8718SOL     OW37615   0.600   0.733   9.940 -0.0701 -0.1114  0.5217
 8718SOL    HW137616   0.505   0.726   9.935 -0.3080  3.9516 -0.4912
 8718SOL    HW237617   0.625   0.644   9.963 -0.8508 -0.7715 -1.1568
 8719SOL     OW37618   3.006   2.041   2.681 -0.0171  0.4420 -0.0217
 8719SOL    HW137619   2.972   2.038   2.771  0.0030  0.3405 -0.0184
 8719SOL    HW237620   2.942   1.983   2.641 -2.2565  1.8672  1.4831
 8720SOL     OW37621   4.494   0.828   3.228  0.6688 -0.0586  0.2824
 8720SOL    HW137622   4.428   0.871   3.174  2.7477  3.6564  0.7413
 8720SOL    HW237623   4.565   0.891   3.238  0.1289  0.8055 -1.4111
 8721SOL     OW37624   3.289   4.715  14.496 -0.0479 -0.1903  0.2229
 8721SOL    HW137625   3.301   4.689  14.588 -2.0020  1.3691  0.9070
 8721SOL    HW237626   3.336   0.077  14.503 -1.8147  0.7698  0.7062
 8722SOL     OW37627   0.241   4.290   4.564  0.2373 -0.7229 -0.4322
 8722SOL    HW137628   0.188   4.344   4.506 -0.6014 -0.4538  0.5863
 8722SOL    HW237629   0.172   4.258   4.623 -0.4742  3.3068  0.9018
 8723SOL     OW37630   0.655   1.299  11.404 -0.0948  0.0106  0.1167
 8723SOL    HW137631   0.615   1.224  11.449 -2.0859  1.1447  0.2322
 8723SOL    HW237632   0.599   1.330  11.333  1.4092 -0.3590 -1.2334
 8724SOL     OW37633   3.543   2.940   3.143 -0.5483 -0.1280  0.3535
 8724SOL    HW137634   3.560   3.031   3.167 -0.7942 -0.3418  1.3348
 8724SOL    HW237635   3.542   2.939   3.047 -0.4962  0.7426  0.3413
 8725SOL     OW37636   2.671   2.980  14.967 -0.5684  0.0949  0.5016
 8725SOL    HW137637   2.728   2.973  15.043 -0.8718 -0.0866  0.7084
 8725SOL    HW237638   2.698   3.066  14.935  2.2726 -1.0266 -0.1645
 8726SOL     OW37639   3.613   4.398  13.627  0.1849 -0.1997  0.1731
 8726SOL    HW137640   3.538   4.451  13.652 -0.7675 -1.1005 -0.7476
 8726SOL    HW237641   3.684   4.463  13.626 -1.2668  1.3801 -0.0960
 8727SOL     OW37642   4.261   1.179   8.681  0.3766 -0.0138 -0.3778
 8727SOL    HW137643   4.178   1.227   8.675 -0.6329 -2.0110 -2.2155
 8727SOL    HW237644   4.252   1.109   8.617  1.2387 -0.2755 -0.2114
 8728SOL     OW37645   3.200   2.780   2.701  0.0940  0.2395 -0.1096
 8728SOL    HW137646   3.272   2.740   2.653 -0.2128 -0.8285  0.3237
 8728SOL    HW237647   3.137   2.713   2.674 -1.2888  1.9585 -1.1665
 8729SOL     OW37648   4.365   0.393   3.798 -0.1368 -0.4013 -0.3149
 8729SOL    HW137649   4.293   0.446   3.763  0.6342  0.4562 -0.6127
 8729SOL    HW237650   4.382   0.362   3.709 -0.5224 -0.8118 -0.2431
 8730SOL     OW37651   2.115   0.793   9.692  0.0732  0.1076  0.3560
 8730SOL    HW137652   2.053   0.721   9.693  1.4550 -1.1031 -1.3556
 8730SOL    HW237653   2.174   0.787   9.768 -0.6819 -0.5416  0.8853
 8731SOL     OW37654   3.343   0.656   6.555 -0.0975 -0.0237  0.0247
 8731SOL    HW137655   3.400   0.694   6.488 -0.3997 -2.1118 -1.4368
 8731SOL    HW237656   3.298   0.737   6.579  0.0921  0.0996 -0.0343
 8732SOL     OW37657   0.773   3.120   6.817 -0.0351  0.2422  0.0891
 8732SOL    HW137658   0.825   3.083   6.745 -0.9235  0.3921 -0.6284
 8732SOL    HW237659   0.829   3.189   6.852 -0.5781  1.5367 -1.6100
 8733SOL     OW37660   0.689   0.471  15.366 -0.2890 -0.1784 -0.6787
 8733SOL    HW137661   0.639   0.390  15.376  1.6117 -1.2869 -0.3014
 8733SOL    HW237662   0.756   0.451  15.430 -1.9133 -1.0988  0.7265
 8734SOL     OW37663   3.688   0.237   2.134  0.4221 -0.0583 -0.0394
 8734SOL    HW137664   3.692   0.152   2.090 -0.6628  1.4565 -3.0451
 8734SOL    HW237665   3.635   0.213   2.211  1.6279  0.6340  1.0145
 8735SOL     OW37666   0.062   0.912   8.560  0.2700  0.0506 -0.6021
 8735SOL    HW137667   0.107   0.856   8.497  0.9066  0.8754 -0.8739
 8735SOL    HW237668   0.087   0.996   8.522 -2.1654  0.6283 -0.8936
 8736SOL     OW37669   1.657   3.889   6.068  0.1205 -0.4070 -0.1293
 8736SOL    HW137670   1.697   3.963   6.024 -1.2649  1.1399  1.1835
 8736SOL    HW237671   1.717   3.876   6.141  0.1141 -0.1428 -0.0757
 8737SOL     OW37672   1.013   2.428   5.078  0.2344 -1.4413  0.0575
 8737SOL    HW137673   1.045   2.345   5.043 -1.0391 -0.6304 -3.0255
 8737SOL    HW237674   0.920   2.426   5.056  0.5404  0.5679 -1.3788
 8738SOL     OW37675   4.344   2.924   3.640 -0.2895  0.2822  0.4085
 8738SOL    HW137676   4.431   2.964   3.640 -0.5768  0.9256 -1.8539
 8738SOL    HW237677   4.346   2.855   3.573  0.6726  1.4791 -0.7884
 8739SOL     OW37678   1.789   1.594  10.030  0.0393  0.6838 -0.0508
 8739SOL    HW137679   1.699   1.609  10.062  0.0117 -0.1362  0.2469
 8739SOL    HW237680   1.775   1.504  10.002 -2.5683  1.2655 -0.6878
 8740SOL     OW37681   2.538   2.274   5.174 -0.1094 -0.7864  0.2827
 8740SOL    HW137682   2.482   2.287   5.098 -1.7810  1.8404  1.9499
 8740SOL    HW237683   2.540   2.364   5.207 -3.3636 -0.0838 -1.4834
 8741SOL     OW37684   2.107   2.482  14.820  0.3380 -0.3489  0.5035
 8741SOL    HW137685   2.137   2.553  14.877  1.3551  0.8952 -1.5961
 8741SOL    HW237686   2.182   2.494  14.762 -1.4890  0.8379 -1.6671
 8742SOL     OW37687   1.748   0.422  10.426 -0.2309 -0.2136  0.3309
 8742SOL    HW137688   1.763   0.396  10.517 -0.9915 -1.2944  0.1423
 8742SOL    HW237689   1.653   0.425  10.417 -0.0734  2.3843 -0.3560
 8743SOL     OW37690   2.128   2.829  15.449  0.0644  0.4323 -0.0950
 8743SOL    HW137691   2.063   2.831  15.520 -1.1348  0.4491 -1.1831
 8743SOL    HW237692   2.145   2.921  15.430  3.0069 -0.1542 -0.2494
 8744SOL     OW37693   1.915   4.102   0.228  0.1579  0.1992 -0.0670
 8744SOL    HW137694   2.002   4.107   0.188  0.1877 -0.6859 -0.1064
 8744SOL    HW237695   1.922   4.190   0.266 -0.0285  0.6468 -1.0645
 8745SOL     OW37696   3.984   3.939   3.593 -0.2370 -0.4177 -0.3532
 8745SOL    HW137697   3.994   4.025   3.633  1.3669  0.2504 -2.1879
 8745SOL    HW237698   3.899   3.913   3.628 -0.8223 -0.8167 -2.0739
 8746SOL     OW37699   0.850   3.484   1.129 -0.0652 -0.3842  0.5117
 8746SOL    HW137700   0.886   3.565   1.167 -2.3075  1.5920 -1.5518
 8746SOL    HW237701   0.840   3.502   1.036  0.5535  3.6859  1.2087
 8747SOL     OW37702   0.941   3.109   2.510 -0.1918 -0.9288 -0.4295
 8747SOL    HW137703   1.004   3.146   2.447  1.5451 -1.4630  0.9878
 8747SOL    HW237704   0.885   3.185   2.525  1.4833  0.2347 -0.0341
 8748SOL     OW37705   0.849   3.381   2.180 -0.0467  0.2448 -0.0515
 8748SOL    HW137706   0.774   3.349   2.130 -0.0969  1.5250 -0.8107
 8748SOL    HW237707   0.846   3.473   2.152 -0.7924 -0.0832 -1.0524
 8749SOL     OW37708   1.928   1.106   1.992 -0.2203  0.4715 -0.3539
 8749SOL    HW137709   1.842   1.144   1.975 -0.5533 -0.5609 -1.0181
 8749SOL    HW237710   1.972   1.096   1.907 -0.0674  3.5041 -0.6127
 8750SOL     OW37711   4.441   2.581   8.521  0.1341 -0.2627  0.0553
 8750SOL    HW137712   4.384   2.510   8.489  0.7549 -0.8889  0.3508
 8750SOL    HW237713   4.516   2.523   8.534  1.2056  0.6271 -2.2764
 8751SOL     OW37714   1.739   0.613  11.940 -0.0656  0.2136 -0.0925
 8751SOL    HW137715   1.809   0.549  11.947 -0.4372 -0.3860 -1.9777
 8751SOL    HW237716   1.670   0.556  11.975 -0.9615  0.4601 -1.4454
 8752SOL     OW37717   2.668   3.192   1.753 -0.0954 -0.2446  0.4908
 8752SOL    HW137718   2.700   3.103   1.765  2.2504  0.4668 -0.5311
 8752SOL    HW237719   2.637   3.222   1.839 -2.0402  1.2401 -0.7037
 8753SOL     OW37720   0.575   0.972   9.159 -0.1809  0.0878  0.0375
 8753SOL    HW137721   0.501   1.012   9.114 -0.2365  0.7382  0.7255
 8753SOL    HW237722   0.562   0.975   9.253 -0.6753  0.0115 -0.0302
 8754SOL     OW37723   2.117   3.506   6.487  0.4207  0.2603  0.4540
 8754SOL    HW137724   2.187   3.493   6.552  1.0915 -1.4216 -0.5987
 8754SOL    HW237725   2.087   3.594   6.509  0.5740 -0.0878  2.0745
 8755SOL     OW37726   3.226   2.236  12.051  0.2858  0.2916  0.1065
 8755SOL    HW137727   3.205   2.299  12.120 -0.7403  0.6397 -0.5225
 8755SOL    HW237728   3.197   2.154  12.092 -1.8432  1.8518  1.6742
 8756SOL     OW37729   1.198   3.105   5.965  0.1939  0.5050  0.4125
 8756SOL    HW137730   1.157   3.189   5.987  1.1727  0.4420  2.4630
 8756SOL    HW237731   1.220   3.061   6.047  0.5053 -1.0878 -0.5197
 8757SOL     OW37732   4.586   3.671   0.328  0.0431  1.0076  0.8063
 8757SOL    HW137733   4.676   3.691   0.301  0.1341 -0.5623 -0.0420
 8757SOL    HW237734   4.573   3.747   0.384 -3.7722  1.0383 -0.1480
 8758SOL     OW37735   3.362   3.476   1.353 -0.3069 -0.5781 -0.0721
 8758SOL    HW137736   3.387   3.523   1.432 -1.4930  0.0449 -0.0710
 8758SOL    HW237737   3.268   3.480   1.365 -0.4168  0.0763 -1.1451
 8759SOL     OW37738   3.162   3.764   9.315  0.0970  0.5050  0.7540
 8759SOL    HW137739   3.135   3.703   9.384 -2.0683  0.7256  0.0699
 8759SOL    HW237740   3.085   3.819   9.306  0.5814  1.9061  5.0921
 8760SOL     OW37741   0.183   3.569  17.432  0.3561  0.3288  0.2236
 8760SOL    HW137742   0.218   3.482  17.417 -1.6597 -0.4520 -0.0238
 8760SOL    HW237743   0.252   3.634  17.417 -1.4338  2.0856 -0.4620
 8761SOL     OW37744   2.084   0.125   0.811  0.4897 -0.3781 -0.4439
 8761SOL    HW137745   2.061   0.052   0.754 -0.6126 -1.0315  0.8469
 8761SOL    HW237746   2.129   0.185   0.752 -4.2130  1.2216 -2.3360
 8762SOL     OW37747   0.504   4.082   4.524 -0.2199 -0.0021 -0.2238
 8762SOL    HW137748   0.472   4.108   4.610  2.3972  2.5938 -0.0238
 8762SOL    HW237749   0.553   4.003   4.546  0.7387  0.9352  0.9864
 8763SOL     OW37750   4.672   0.129  17.658 -0.0003 -0.2281 -1.0782
 8763SOL    HW137751   4.658   0.089   0.056  3.2032  0.5529 -0.1725
 8763SOL    HW237752   4.707   0.053  17.611  1.8272  0.7549 -1.3228
 8764SOL     OW37753   4.025   3.204   9.808  0.5995  0.6332 -0.5451
 8764SOL    HW137754   3.959   3.261   9.768 -1.3878 -1.3462 -0.0263
 8764SOL    HW237755   3.985   3.118   9.798 -2.2354  1.9489 -0.6253
 8765SOL     OW37756   1.779   0.694   7.323  0.1694 -1.1061  0.1249
 8765SOL    HW137757   1.696   0.685   7.370 -0.0962 -0.9142 -0.3059
 8765SOL    HW237758   1.747   0.678   7.235 -1.9491  0.7416  0.5559
 8766SOL     OW37759   4.451   3.211  16.641  0.6753  0.1388  0.0748
 8766SOL    HW137760   4.392   3.210  16.716 -0.3165 -0.7860 -0.7138
 8766SOL    HW237761   4.515   3.144  16.664  0.9456 -0.0067 -1.0747
 8767SOL     OW37762   0.341   3.852  11.739 -0.3640  1.0076  0.2124
 8767SOL    HW137763   0.366   3.865  11.648  2.3535  0.4274  0.8593
 8767SOL    HW237764   0.384   3.766  11.739 -1.5525  0.4273 -3.1798
 8768SOL     OW37765   3.982   0.672   1.613  0.2537 -0.1950 -0.3180
 8768SOL    HW137766   3.916   0.665   1.682  1.1575 -1.2117  0.4427
 8768SOL    HW237767   3.985   0.768   1.608 -0.8635 -0.0734  1.4996
 8769SOL     OW37768   4.014   2.549   5.781 -0.1716  0.3672  0.3611
 8769SOL    HW137769   3.957   2.512   5.714  1.0534 -0.1474 -0.3921
 8769SOL    HW237770   4.053   2.632   5.751 -0.0319 -0.0442 -0.5913
 8770SOL     OW37771   0.815   1.201   3.569  0.3825  0.3124 -0.6930
 8770SOL    HW137772   0.855   1.276   3.524  2.4502 -1.3600 -1.5999
 8770SOL    HW237773   0.880   1.182   3.636 -1.1294 -0.4930  0.5643
 8771SOL     OW37774   2.883   0.673   2.278 -0.1627 -0.4382  0.0509
 8771SOL    HW137775   2.919   0.638   2.197  1.3308 -1.0488  0.9825
 8771SOL    HW237776   2.800   0.627   2.271  0.6833 -1.6844 -1.8017
 8772SOL     OW37777   4.672   3.296  13.893  0.0396  0.1916 -0.0361
 8772SOL    HW137778   0.025   3.273  13.950 -0.6241  0.6440  1.0117
 8772SOL    HW237779   4.620   3.352  13.952  0.7030  0.8225 -0.0464
 8773SOL     OW37780   4.448   3.152   8.834  0.2166  1.2442 -0.3741
 8773SOL    HW137781   4.355   3.130   8.839  0.3091  1.3359  1.6390
 8773SOL    HW237782   4.441   3.246   8.818 -3.5338  0.9145 -0.5315
 8774SOL     OW37783   0.005   0.207  14.294 -0.0792 -0.0499  0.3647
 8774SOL    HW137784   4.657   0.224  14.230 -0.2832 -2.3837 -0.0481
 8774SOL    HW237785   0.072   0.265  14.259 -0.9521  1.3530  1.0024
 8775SOL     OW37786   1.000   1.354   5.810  0.4814 -0.6239  0.4118
 8775SOL    HW137787   1.015   1.419   5.741 -2.7996  0.6498  0.8572
 8775SOL    HW237788   1.057   1.285   5.776 -0.6943 -0.0414 -2.7544
 8776SOL     OW37789   1.589   0.233   5.600 -0.3133 -0.0817 -0.2482
 8776SOL    HW137790   1.666   0.235   5.543 -1.3900  0.6274 -1.6897
 8776SOL    HW237791   1.581   0.140   5.620  2.1526 -0.1798  0.2475
 8777SOL     OW37792   2.048   2.460   3.617 -0.7215 -0.1144  0.4191
 8777SOL    HW137793   2.026   2.424   3.703 -0.2667  2.0302  1.4451
 8777SOL    HW237794   1.966   2.454   3.568  1.2443  0.1572 -2.8514
 8778SOL     OW37795   0.694   1.740   2.281 -0.3416  0.1416 -0.0719
 8778SOL    HW137796   0.733   1.696   2.355  0.3716 -0.8835 -1.0624
 8778SOL    HW237797   0.775   1.766   2.237  0.0163 -2.2854 -0.8107
 8779SOL     OW37798   3.971   0.408   7.532 -0.1800  0.0731 -0.4315
 8779SOL    HW137799   4.023   0.400   7.452  1.0381 -0.6294  0.4456
 8779SOL    HW237800   3.975   0.318   7.563 -1.1898 -0.7327 -2.6685
 8780SOL     OW37801   2.310   4.651  12.646 -0.5817  0.3801  0.1099
 8780SOL    HW137802   2.326   0.012  12.692  0.6082 -1.1238  2.3908
 8780SOL    HW237803   2.356   4.668  12.563  0.1746 -2.1112 -0.0035
 8781SOL     OW37804   0.886   3.332   6.592 -0.5887 -0.2010  0.1145
 8781SOL    HW137805   0.842   3.395   6.649  2.3139  1.8481  0.0887
 8781SOL    HW237806   0.876   3.374   6.506  0.0601  0.9985  0.6304
 8782SOL     OW37807   1.359   1.942  15.358 -0.1285 -0.4977 -0.0313
 8782SOL    HW137808   1.430   1.997  15.391  0.4927  0.3135 -2.7174
 8782SOL    HW237809   1.286   1.992  15.393  0.6137  1.2635 -0.9953
 8783SOL     OW37810   3.554   4.651   8.729 -0.5258 -0.1725 -0.3077
 8783SOL    HW137811   3.526   4.693   8.647  2.0884 -0.5055 -1.3465
 8783SOL    HW237812   3.646   4.630   8.719 -0.7022 -0.0345 -2.1505
 8784SOL     OW37813   1.727   3.702   1.637 -0.4197 -0.1156 -0.1043
 8784SOL    HW137814   1.746   3.776   1.695  0.2109  1.0880 -1.8652
 8784SOL    HW237815   1.793   3.727   1.573  0.4239 -2.1745 -0.0512
 8785SOL     OW37816   3.854   3.987   2.510 -0.2075  0.1135 -0.5531
 8785SOL    HW137817   3.945   3.980   2.481 -0.7738 -3.0722 -1.5571
 8785SOL    HW237818   3.796   3.988   2.434 -0.5308 -3.1206 -0.3285
 8786SOL     OW37819   4.614   0.767   2.316 -0.2189 -0.1022 -0.1176
 8786SOL    HW137820   4.550   0.837   2.326  0.3315  0.4638 -0.4809
 8786SOL    HW237821   4.639   0.772   2.224  1.1062  0.6061  0.2789
 8787SOL     OW37822   2.526   1.136  10.981 -0.8461  0.1100  0.5132
 8787SOL    HW137823   2.436   1.109  10.964 -0.8478  0.8534 -0.6581
 8787SOL    HW237824   2.523   1.157  11.074  0.1064  0.1070  0.5535
 8788SOL     OW37825   3.160   0.847  11.226 -0.0037  0.0212 -0.2193
 8788SOL    HW137826   3.135   0.922  11.173  0.9937 -0.8125 -1.8670
 8788SOL    HW237827   3.180   0.890  11.308  1.4519  0.9427 -1.0638
 8789SOL     OW37828   1.817   1.957   5.243 -0.1384 -0.4308 -0.1618
 8789SOL    HW137829   1.815   1.927   5.334  0.8163 -1.2720 -0.4187
 8789SOL    HW237830   1.905   1.932   5.215  0.5369  1.2675  0.4542
 8790SOL     OW37831   0.441   3.144   8.799 -0.5295 -0.5157 -0.2127
 8790SOL    HW137832   0.515   3.146   8.859 -0.3097  1.2388 -0.5543
 8790SOL    HW237833   0.374   3.101   8.852 -2.1703  0.6339 -1.3592
 8791SOL     OW37834   1.218   4.162  10.489  0.0685  0.2521 -1.0260
 8791SOL    HW137835   1.238   4.167  10.583 -0.4818 -0.6357 -0.8689
 8791SOL    HW237836   1.132   4.122  10.496 -0.0109  0.3952 -1.1719
 8792SOL     OW37837   0.845   1.445   5.196  0.2381 -0.3147 -0.1809
 8792SOL    HW137838   0.797   1.514   5.244  2.3671  1.9434 -1.3386
 8792SOL    HW237839   0.790   1.435   5.118 -0.9663 -1.3689  0.7988
 8793SOL     OW37840   0.505   2.495   4.877  0.0290  0.5318  0.0447
 8793SOL    HW137841   0.480   2.582   4.908 -3.6618 -1.0242  1.3457
 8793SOL    HW237842   0.452   2.438   4.933 -1.2851  0.8702 -0.8527
 8794SOL     OW37843   4.624   3.788   7.457  0.2364 -0.0172 -0.3389
 8794SOL    HW137844   4.663   3.858   7.510 -1.3134  0.5062  0.1063
 8794SOL    HW237845   4.637   3.710   7.511  1.6096  0.5264  0.1366
 8795SOL     OW37846   0.194   3.280   6.299  0.3723 -0.5039 -0.3762
 8795SOL    HW137847   0.276   3.282   6.349 -0.4234 -0.2008  0.9275
 8795SOL    HW237848   0.157   3.204   6.342  1.0828 -0.7833 -0.2533
 8796SOL     OW37849   4.641   2.403   2.679  0.0960 -0.1247 -0.2377
 8796SOL    HW137850   4.610   2.320   2.644  0.8756 -1.1081  1.3620
 8796SOL    HW237851   4.597   2.429   2.760  0.4696 -0.4946  0.0831
 8797SOL     OW37852   2.168   3.168  11.648 -0.3020 -0.6436  0.7859
 8797SOL    HW137853   2.161   3.094  11.708 -2.9818 -0.3770  0.7947
 8797SOL    HW237854   2.237   3.224  11.682  0.4160  0.6739 -2.8553
 8798SOL     OW37855   0.187   0.668   6.641 -0.9199 -0.0677  0.5398
 8798SOL    HW137856   0.216   0.716   6.719 -2.6030  2.1109 -0.1631
 8798SOL    HW237857   0.095   0.656   6.663 -1.4649  0.0302 -1.7439
 8799SOL     OW37858   2.638   1.258   8.026 -0.8129  0.1713 -0.1394
 8799SOL    HW137859   2.567   1.288   7.969 -1.7330 -0.5671  0.6289
 8799SOL    HW237860   2.658   1.176   7.980  3.2029  0.4493  1.0907
 8800SOL     OW37861   2.712   2.991   7.559  0.2120 -0.1137  0.2704
 8800SOL    HW137862   2.676   2.956   7.641  0.9234  1.8524  1.4372
 8800SOL    HW237863   2.708   3.087   7.560  0.5022 -0.0944 -1.3418
 8801SOL     OW37864   0.389   3.712   4.272 -0.2282  0.4459 -0.2743
 8801SOL    HW137865   0.319   3.647   4.267  0.5524 -0.4181 -0.0255
 8801SOL    HW237866   0.472   3.667   4.256 -0.9549 -1.0661  0.2563
 8802SOL     OW37867   2.717   0.694   8.575 -0.5185 -0.0087 -0.0845
 8802SOL    HW137868   2.722   0.685   8.670  0.9849 -0.2302 -0.1841
 8802SOL    HW237869   2.671   0.613   8.557  0.9343 -1.2844  1.8945
 8803SOL     OW37870   3.062   4.104   7.372 -0.0884  0.4173  0.3718
 8803SOL    HW137871   3.063   4.008   7.365 -2.1873  0.3308  1.4817
 8803SOL    HW237872   3.025   4.124   7.286  1.0592  1.9479  0.2429
 8804SOL     OW37873   4.292   2.960  16.729  0.4823  0.4183 -0.5099
 8804SOL    HW137874   4.253   2.896  16.788  0.1816  0.5016 -0.6202
 8804SOL    HW237875   4.283   3.045  16.774  1.9334 -0.2147  1.0103
 8805SOL     OW37876   0.947   4.589   6.812 -0.1660 -0.6192 -0.0933
 8805SOL    HW137877   0.875   4.653   6.812  1.1395  0.8304 -1.3925
 8805SOL    HW237878   0.935   4.547   6.897 -1.0881 -0.6689 -0.2409
 8806SOL     OW37879   2.794   3.934   0.245 -0.0762 -0.1132 -0.1378
 8806SOL    HW137880   2.819   4.010   0.194  1.5642  0.9128  2.2060
 8806SOL    HW237881   2.839   3.863   0.200 -0.3959 -1.6553  1.9382
 8807SOL     OW37882   1.592   3.142  15.106  0.1681  0.7258  0.5105
 8807SOL    HW137883   1.676   3.127  15.150  0.7394 -0.6596 -1.0372
 8807SOL    HW237884   1.588   3.066  15.048  3.3694  1.7949 -1.1524
 8808SOL     OW37885   1.105   0.893   1.014 -0.2230  0.1839 -0.7769
 8808SOL    HW137886   1.123   0.813   1.063 -1.5298  0.8679  0.7971
 8808SOL    HW237887   1.061   0.860   0.936  0.3021 -0.5241 -0.7744
 8809SOL     OW37888   0.039   1.504   6.880  0.4078  0.2797  0.1893
 8809SOL    HW137889   0.044   1.512   6.785 -0.6395 -1.6848 -0.0395
 8809SOL    HW237890   0.030   1.409   6.885  2.3114  0.0393 -0.8946
 8810SOL     OW37891   2.761   2.962   0.650 -0.1434 -0.3303 -0.8902
 8810SOL    HW137892   2.775   3.053   0.676 -1.0122 -1.0067  2.0068
 8810SOL    HW237893   2.855   2.947   0.648 -0.5355 -2.7620 -1.1223
 8811SOL     OW37894   0.384   3.547  12.703  0.0928 -1.0963 -0.3626
 8811SOL    HW137895   0.354   3.482  12.639 -0.1383 -1.9949  0.6519
 8811SOL    HW237896   0.477   3.561  12.684  0.0675  1.9120  1.8506
 8812SOL     OW37897   3.056   0.630  11.123  0.1481 -0.2865  0.5492
 8812SOL    HW137898   3.086   0.576  11.197  0.2755  0.0609  0.7500
 8812SOL    HW237899   3.070   0.720  11.153  0.9266 -0.2954  0.2308
 8813SOL     OW37900   0.404   0.839   3.447  0.5859 -0.4720 -0.4835
 8813SOL    HW137901   0.484   0.802   3.484  0.6383 -0.3339 -0.4593
 8813SOL    HW237902   0.351   0.833   3.526  1.7375 -0.4610  0.3004
 8814SOL     OW37903   2.951   1.777   5.881 -0.3407  0.1728 -0.6232
 8814SOL    HW137904   2.981   1.787   5.791  3.3586 -0.1076  0.5487
 8814SOL    HW237905   3.005   1.841   5.928  1.8849 -1.5260 -0.8733
 8815SOL     OW37906   4.663   3.831  10.633  0.4870 -0.5132 -0.1858
 8815SOL    HW137907   4.685   3.878  10.553 -0.6609 -0.7745 -0.6532
 8815SOL    HW237908   4.655   3.740  10.605  0.1288 -0.5707  0.1033
 8816SOL     OW37909   3.916   4.147   2.965 -0.2593 -0.0221  0.4993
 8816SOL    HW137910   3.966   4.068   2.947 -1.1379 -0.4318 -0.1163
 8816SOL    HW237911   3.838   4.144   2.909  0.6546  0.4926 -0.7929
 8817SOL     OW37912   2.315   0.942  13.678  0.2884 -0.8232  0.6129
 8817SOL    HW137913   2.327   0.853  13.645 -1.6397 -0.2084 -1.7677
 8817SOL    HW237914   2.233   0.924  13.723 -0.5568  1.1353 -0.1660
 8818SOL     OW37915   4.119   1.434   7.317  0.0793 -0.8666  0.1359
 8818SOL    HW137916   4.208   1.468   7.322 -0.2351  0.0158 -0.1809
 8818SOL    HW237917   4.069   1.514   7.335  1.4431  0.1903 -0.7829
 8819SOL     OW37918   1.775   0.014   3.926  0.1679 -0.4427  0.2920
 8819SOL    HW137919   1.820   4.700   4.002 -3.3687  0.3618  2.7836
 8819SOL    HW237920   1.846   0.074   3.904 -0.5714 -0.0794 -1.1061
 8820SOL     OW37921   3.420   3.228  11.134 -0.3493  0.0148 -0.9600
 8820SOL    HW137922   3.503   3.269  11.110  0.0731 -0.6959 -0.7167
 8820SOL    HW237923   3.438   3.134  11.129 -0.9325  0.0079 -2.7809
 8821SOL     OW37924   2.501   4.000   4.224  0.1716  0.9798  0.1669
 8821SOL    HW137925   2.488   3.950   4.304  1.9855  0.9836  0.4727
 8821SOL    HW237926   2.588   4.039   4.227  0.0129  1.3258  0.3039
 8822SOL     OW37927   0.256   2.428   0.077  0.3997  0.4421  0.1336
 8822SOL    HW137928   0.217   2.487   0.142 -1.3895  0.5042 -1.0082
 8822SOL    HW237929   0.266   2.492   0.007 -0.5277  0.1962 -0.2113
 8823SOL     OW37930   4.277   1.203  17.571 -0.1176  0.3223  0.4025
 8823SOL    HW137931   4.245   1.243  17.491 -1.6437  0.2167  0.9677
 8823SOL    HW237932   4.355   1.152  17.547 -0.1182  1.7383 -2.6778
 8824SOL     OW37933   3.739   3.638   9.346  0.1489 -0.9648  0.4171
 8824SOL    HW137934   3.765   3.699   9.414 -0.1848 -1.0109  0.5857
 8824SOL    HW237935   3.644   3.649   9.349  0.5019  2.6066 -1.0475
 8825SOL     OW37936   0.149   3.405   6.657 -0.6568 -0.1599 -0.1994
 8825SOL    HW137937   0.096   3.477   6.624 -0.2353  0.4600  0.4788
 8825SOL    HW237938   0.109   3.320   6.637  2.3110 -1.6496  0.1952
 8826SOL     OW37939   4.255   0.269   5.885 -0.6031 -0.3277 -0.1069
 8826SOL    HW137940   4.263   0.260   5.790 -0.0683 -0.8958 -0.0127
 8826SOL    HW237941   4.282   0.359   5.901 -1.0929 -0.0127 -1.0569
 8827SOL     OW37942   4.161   1.954  11.141  0.2438 -0.5536  0.1200
 8827SOL    HW137943   4.101   1.941  11.214  0.2517 -0.1758  0.1937
 8827SOL    HW237944   4.100   1.991  11.077  0.2786  1.7872  1.4630
 8828SOL     OW37945   0.651   2.228  13.835 -0.1152 -0.1058  0.2483
 8828SOL    HW137946   0.583   2.216  13.901 -1.4161 -0.0988 -1.1051
 8828SOL    HW237947   0.657   2.323  13.835 -2.5155  0.0511  0.2532
 8829SOL     OW37948   3.164   1.045   5.511 -0.5773  0.0317 -0.5230
 8829SOL    HW137949   3.134   1.077   5.426 -0.5171  1.3095 -0.0586
 8829SOL    HW237950   3.107   0.969   5.527 -0.2661 -0.5375 -2.0585
 8830SOL     OW37951   0.504   0.299   5.158 -0.3724  0.2551 -0.2303
 8830SOL    HW137952   0.439   0.266   5.220 -1.6769  1.4736 -0.9332
 8830SOL    HW237953   0.494   0.394   5.164  0.4327  0.3233  0.0029
 8831SOL     OW37954   3.626   0.616   3.810 -0.3173 -0.0186 -0.0118
 8831SOL    HW137955   3.637   0.536   3.861  1.1970 -0.4742 -1.0545
 8831SOL    HW237956   3.626   0.676   3.884  0.0150  1.6208 -1.3379
 8832SOL     OW37957   0.641   1.206   4.346 -0.1632 -0.6119  0.1450
 8832SOL    HW137958   0.591   1.191   4.266 -0.9332 -0.2781  0.5632
 8832SOL    HW237959   0.694   1.126   4.355  0.2081 -0.0335  3.2607
 8833SOL     OW37960   4.170   0.768   2.896  0.6931 -0.0481 -0.0561
 8833SOL    HW137961   4.235   0.797   2.833 -1.2800  1.1120 -1.5436
 8833SOL    HW237962   4.174   0.673   2.883 -0.0469 -0.0217 -0.4771
 8834SOL     OW37963   4.155   4.160   6.284 -0.1867  0.2699 -0.1970
 8834SOL    HW137964   4.135   4.201   6.199  1.8395  1.5994 -0.0369
 8834SOL    HW237965   4.153   4.242   6.334 -0.2754  0.8454 -1.1203
 8835SOL     OW37966   2.333   3.941   9.906 -0.3929 -0.2785 -0.6283
 8835SOL    HW137967   2.365   3.984   9.827 -0.5856 -0.0141 -0.5646
 8835SOL    HW237968   2.349   3.851   9.880  1.7267  0.2004 -0.9530
 8836SOL     OW37969   2.342   4.227   5.219 -0.3968  0.6295  0.0012
 8836SOL    HW137970   2.339   4.250   5.312 -0.8756  2.2938 -0.4109
 8836SOL    HW237971   2.275   4.285   5.181 -0.4625  0.3463 -0.3146
 8837SOL     OW37972   1.984   4.072   5.047  0.0164 -0.1890  0.6665
 8837SOL    HW137973   2.047   4.123   4.997  1.7653 -2.4421  0.5814
 8837SOL    HW237974   1.999   3.985   5.012 -0.5855 -0.3682  0.8607
 8838SOL     OW37975   0.072   2.049   5.457  0.0125 -0.0140 -0.1253
 8838SOL    HW137976   0.146   1.998   5.424 -1.3142 -0.9107 -1.7234
 8838SOL    HW237977   0.121   2.128   5.479  0.9706 -0.6449  0.0013
 8839SOL     OW37978   3.073   0.996   7.353 -0.0864 -0.2633 -0.1401
 8839SOL    HW137979   2.998   1.034   7.307 -0.5244  1.1550  1.7561
 8839SOL    HW237980   3.032   0.924   7.401 -1.2721  0.5596  0.0682
 8840SOL     OW37981   3.526   1.137  10.872 -0.2216  0.1930 -0.0761
 8840SOL    HW137982   3.605   1.133  10.926 -0.3704  0.5504  0.1724
 8840SOL    HW237983   3.456   1.153  10.936 -0.3221  0.2072 -0.1899
 8841SOL     OW37984   0.922   3.075  16.395  0.2149 -0.1659 -0.2944
 8841SOL    HW137985   0.992   3.123  16.352  0.8324  0.2575  1.1719
 8841SOL    HW237986   0.863   3.052  16.323  1.4055 -1.3220 -0.8889
 8842SOL     OW37987   3.669   3.459  10.367 -0.5632  0.2461 -0.5221
 8842SOL    HW137988   3.587   3.481  10.411 -0.0323  0.2013  0.5150
 8842SOL    HW237989   3.649   3.370  10.337 -0.1414 -0.0464  0.0505
 8843SOL     OW37990   1.313   0.745   4.897  0.7877 -0.0981 -0.1611
 8843SOL    HW137991   1.275   0.734   4.809 -2.5834  2.2867  0.9957
 8843SOL    HW237992   1.323   0.652   4.919 -3.2027 -0.5525 -0.2323
 8844SOL     OW37993   2.070   4.343  14.052 -0.2102 -0.0823 -0.0015
 8844SOL    HW137994   1.980   4.362  14.079 -0.4087 -2.0909  0.7273
 8844SOL    HW237995   2.122   4.403  14.106  1.9421  0.5575 -2.8231
 8845SOL     OW37996   1.191   2.859   5.544  0.0430  0.1179 -0.2521
 8845SOL    HW137997   1.096   2.846   5.549 -0.1699  1.1821 -1.7982
 8845SOL    HW237998   1.207   2.765   5.550 -0.5820 -0.0224 -0.8233
 8846SOL     OW37999   0.781   0.714  15.806  0.0823 -0.4308 -0.4051
 8846SOL    HW138000   0.795   0.796  15.758  2.1744  0.6583  2.0530
 8846SOL    HW238001   0.688   0.727  15.823  0.0962 -0.9342  0.0307
 8847SOL     OW38002   1.659   2.734  13.820 -0.0681 -0.1903  0.1813
 8847SOL    HW138003   1.736   2.790  13.810 -2.1018  2.8655  1.7091
 8847SOL    HW238004   1.706   2.653  13.798  0.6256  0.5828 -1.1914
 8848SOL     OW38005   1.804   0.883  15.400  0.2838  0.2625 -0.4809
 8848SOL    HW138006   1.817   0.817  15.333  1.3103 -0.1973  0.1732
 8848SOL    HW238007   1.791   0.960  15.345 -0.2770 -1.4646 -2.7285
 8849SOL     OW38008   2.869   3.069   4.374  0.3623 -0.6296  0.3529
 8849SOL    HW138009   2.869   3.157   4.335  1.1035 -0.7145  0.1680
 8849SOL    HW238010   2.781   3.058   4.409 -0.5871 -0.8110 -2.0509
 8850SOL     OW38011   1.334   4.610  14.922  0.1521  0.2885 -0.4573
 8850SOL    HW138012   1.429   4.605  14.911  0.2027 -0.4065  0.3304
 8850SOL    HW238013   1.305   4.531  14.877 -2.8416  0.1524  1.7418
 8851SOL     OW38014   4.150   2.153  17.297  0.3332 -0.7119 -0.2709
 8851SOL    HW138015   4.216   2.149  17.228  0.1222  0.0282 -0.5171
 8851SOL    HW238016   4.072   2.135  17.245 -0.0138  1.7628 -0.6007
 8852SOL     OW38017   4.190   2.956   4.253  0.1045  0.3599  0.5077
 8852SOL    HW138018   4.122   2.945   4.318 -1.0393  0.3277 -0.6947
 8852SOL    HW238019   4.132   2.964   4.177  1.7928  0.5185 -0.7868
 8853SOL     OW38020   3.299   2.391   0.871 -0.0333 -0.0778  0.0492
 8853SOL    HW138021   3.339   2.477   0.872 -0.2172  0.0329 -1.7895
 8853SOL    HW238022   3.318   2.343   0.952  3.3985 -0.4484 -0.9935
 8854SOL     OW38023   1.203   0.077   3.122 -0.4032  0.2980  0.3384
 8854SOL    HW138024   1.135   0.125   3.075 -0.8546  0.1028  0.7810
 8854SOL    HW238025   1.250   0.035   3.050  0.0272 -0.8994  1.3254
 8855SOL     OW38026   2.617   0.258   2.574 -0.1220 -0.0797 -0.2651
 8855SOL    HW138027   2.540   0.263   2.630 -0.4048 -0.8575 -0.5794
 8855SOL    HW238028   2.604   0.333   2.516 -2.1431  1.5964  2.3912
 8856SOL     OW38029   1.783   2.018   4.545  0.4611  0.3088  0.3014
 8856SOL    HW138030   1.720   2.026   4.616 -0.2943  0.5202 -0.4001
 8856SOL    HW238031   1.720   2.022   4.473  0.8919 -2.4348 -0.2122
 8857SOL     OW38032   4.043   3.917  16.521  0.3335  0.0808 -0.3372
 8857SOL    HW138033   4.032   3.997  16.469  2.0577 -1.0129 -2.4089
 8857SOL    HW238034   4.008   3.860  16.452 -2.2525  2.7461 -1.2147
 8858SOL     OW38035   3.560   3.926   3.217  0.3248  0.4760 -0.4295
 8858SOL    HW138036   3.637   3.966   3.257 -1.0513  1.1060  1.5915
 8858SOL    HW238037   3.487   3.981   3.244 -0.3052 -0.7896  0.4356
 8859SOL     OW38038   2.369   1.360   2.047 -0.5362  0.3944  0.0089
 8859SOL    HW138039   2.387   1.447   2.083  0.5665  0.2039 -0.0588
 8859SOL    HW238040   2.274   1.352   2.056 -0.3714 -1.2973  0.3473
 8860SOL     OW38041   1.211   3.585   2.346 -0.2174 -0.2142  0.3388
 8860SOL    HW138042   1.276   3.530   2.391  0.6957  1.6286  1.2466
 8860SOL    HW238043   1.262   3.665   2.340 -2.1498  0.9002 -1.2373
 8861SOL     OW38044   3.993   0.810   0.523  0.6387 -0.5870  0.7574
 8861SOL    HW138045   4.047   0.747   0.475  1.4370  1.1155 -0.5835
 8861SOL    HW238046   4.062   0.854   0.572  2.0225 -2.4908  0.5291
 8862SOL     OW38047   2.848   1.849   7.923  0.0156 -0.0560 -0.2539
 8862SOL    HW138048   2.853   1.762   7.883 -0.6446 -0.2545  0.1011
 8862SOL    HW238049   2.942   1.868   7.920 -0.6062  3.2577  0.5882
 8863SOL     OW38050   4.588   0.883  10.538 -0.1324  0.2256  0.1710
 8863SOL    HW138051   4.617   0.881  10.629 -0.2130 -1.8246  0.1630
 8863SOL    HW238052   4.551   0.796  10.522 -0.4378  0.2747  0.6173
 8864SOL     OW38053   3.652   0.021   6.325  0.5809  0.4350 -0.4100
 8864SOL    HW138054   3.591   0.091   6.304  0.0988  0.3491  0.7442
 8864SOL    HW238055   3.681   0.049   6.411 -1.8001 -0.5396  0.7167
 8865SOL     OW38056   1.576   1.821  15.881  0.6901 -0.0581 -0.2689
 8865SOL    HW138057   1.647   1.824  15.816  1.8345 -1.0045  0.9589
 8865SOL    HW238058   1.527   1.887  15.830  2.5961  0.7660 -1.0565
 8866SOL     OW38059   3.103   1.300  14.125  0.3473 -0.4946 -0.0703
 8866SOL    HW138060   3.069   1.286  14.036  0.3385  1.2293 -0.3369
 8866SOL    HW238061   3.030   1.346  14.167  2.0491  1.7065  0.4914
 8867SOL     OW38062   0.890   0.416   5.082  0.3183 -0.2981 -0.2356
 8867SOL    HW138063   0.843   0.339   5.049 -0.3178 -0.1911  0.4334
 8867SOL    HW238064   0.819   0.478   5.097  0.8268 -0.5299  3.0726
 8868SOL     OW38065   0.053   3.728   5.402 -0.0285 -0.6281  0.2480
 8868SOL    HW138066   0.075   3.707   5.493  0.7352 -0.1382  0.1790
 8868SOL    HW238067   4.710   3.659   5.386  0.2993 -0.7098 -0.6930
 8869SOL     OW38068   4.694   0.516   6.949  0.0771 -0.1227  0.8116
 8869SOL    HW138069   0.045   0.554   6.998 -0.6388  2.2466  0.0170
 8869SOL    HW238070   4.668   0.439   7.000  2.0409 -1.5981 -0.4372
 8870SOL     OW38071   1.225   2.096   8.332 -0.1032  0.5380 -0.0974
 8870SOL    HW138072   1.240   2.004   8.353  0.6432  0.2692 -1.8265
 8870SOL    HW238073   1.168   2.084   8.256 -1.3946 -2.2947  1.3032
 8871SOL     OW38074   1.788   2.306   7.261 -0.3230  0.5349  0.5289
 8871SOL    HW138075   1.841   2.341   7.189 -1.6050  0.5766 -0.3909
 8871SOL    HW238076   1.850   2.306   7.334 -3.8757 -0.5947  3.5669
 8872SOL     OW38077   0.808   2.285   9.895  0.2402 -0.0850 -0.1266
 8872SOL    HW138078   0.772   2.284   9.984 -1.0202 -1.0472 -0.6469
 8872SOL    HW238079   0.787   2.200   9.856  0.6631  0.5327 -1.7120
 8873SOL     OW38080   1.717   4.120   5.921  0.6092 -0.5217 -0.1207
 8873SOL    HW138081   1.796   4.159   5.958  0.0448  0.1088  0.4309
 8873SOL    HW238082   1.674   4.194   5.880  1.1109  0.4046  1.0298
 8874SOL     OW38083   4.150   0.837   1.944 -0.1400 -0.2709 -0.8448
 8874SOL    HW138084   4.211   0.809   1.875 -2.5254 -0.9582 -2.6789
 8874SOL    HW238085   4.142   0.756   1.995  0.6002 -1.0629 -1.9669
 8875SOL     OW38086   3.660   1.973   4.652  1.0405  0.0131  0.1983
 8875SOL    HW138087   3.662   2.041   4.720  3.1857  0.0121  0.1329
 8875SOL    HW238088   3.746   2.002   4.621  1.1501 -2.3751 -1.7181
 8876SOL     OW38089   0.537   0.856   7.551 -0.1652  0.3094 -0.3377
 8876SOL    HW138090   0.547   0.796   7.624 -2.4621 -0.7736 -0.9453
 8876SOL    HW238091   0.617   0.908   7.566 -1.0310  1.6448 -0.3443
 8877SOL     OW38092   4.158   4.543   7.046 -0.2328 -0.0128  0.3018
 8877SOL    HW138093   4.065   4.560   7.033 -0.1718 -0.7739 -1.0951
 8877SOL    HW238094   4.169   4.449   7.062  0.6718 -0.3236 -2.0735
 8878SOL     OW38095   4.563   3.165  11.376  0.3628  0.0994 -0.1897
 8878SOL    HW138096   4.609   3.121  11.305 -0.1240  0.4822 -0.7430
 8878SOL    HW238097   4.606   3.251  11.378 -1.9105  1.1323  2.9260
 8879SOL     OW38098   3.202   4.008   9.535 -0.2292  0.0223 -0.1147
 8879SOL    HW138099   3.123   3.971   9.575 -1.9015  3.2777 -0.4110
 8879SOL    HW238100   3.259   3.932   9.546  0.8832  0.9281  0.3534
 8880SOL     OW38101   3.577   0.772   6.113 -0.0180  0.2622 -0.0413
 8880SOL    HW138102   3.613   0.860   6.099 -1.0662  0.4555 -1.5466
 8880SOL    HW238103   3.484   0.789   6.100 -0.0426 -1.1850 -1.8702
 8881SOL     OW38104   0.367   1.158   8.226  0.2011  0.4575 -0.6852
 8881SOL    HW138105   0.295   1.100   8.203 -1.0839  2.6814 -2.2393
 8881SOL    HW238106   0.377   1.138   8.319 -2.1255 -0.2248 -0.5991
 8882SOL     OW38107   1.964   1.886  13.542 -0.0563 -0.2444  0.1849
 8882SOL    HW138108   1.971   1.807  13.595 -0.6359 -0.4225 -0.0094
 8882SOL    HW238109   1.868   1.889  13.538 -0.0308 -1.0365 -0.7084
 8883SOL     OW38110   1.710   3.746   7.397 -0.1277  0.3107  0.2491
 8883SOL    HW138111   1.730   3.656   7.422 -2.1132 -0.8223 -2.2453
 8883SOL    HW238112   1.750   3.789   7.473 -0.3208 -0.3000  0.6950
 8884SOL     OW38113   1.121   1.329   7.697 -0.4365 -0.3385 -0.4440
 8884SOL    HW138114   1.134   1.421   7.716  1.5680 -0.0737 -3.0764
 8884SOL    HW238115   1.029   1.319   7.723  0.0634 -3.2376  0.2724
 8885SOL     OW38116   1.691   2.654   7.700 -0.4600 -0.2116 -0.0278
 8885SOL    HW138117   1.721   2.662   7.790 -2.5325 -1.0816  0.7400
 8885SOL    HW238118   1.744   2.716   7.650 -1.3742 -0.6427 -1.5449
 8886SOL     OW38119   1.516   4.074   5.637 -0.1588 -0.0351 -0.3969
 8886SOL    HW138120   1.540   4.163   5.663 -0.2087  0.2041 -1.1505
 8886SOL    HW238121   1.544   4.064   5.546  0.2388 -0.1520 -0.2646
 8887SOL     OW38122   1.350   1.133   3.120 -0.0245  0.0210  0.2204
 8887SOL    HW138123   1.289   1.060   3.112  0.9656 -0.5908 -1.6465
 8887SOL    HW238124   1.339   1.165   3.030 -0.8336  0.8827  0.6289
 8888SOL     OW38125   2.319   0.229  13.009  0.3810  0.2691 -0.0496
 8888SOL    HW138126   2.325   0.138  12.979  0.2117  0.0153  0.7015
 8888SOL    HW238127   2.290   0.267  12.926 -0.7335  1.9812  1.1426
 8889SOL     OW38128   2.632   3.712  15.165 -0.5249  0.8594  0.2448
 8889SOL    HW138129   2.652   3.802  15.138  0.5340 -0.4094 -3.1357
 8889SOL    HW238130   2.695   3.659  15.117 -0.9650  0.4763  0.0910
 8890SOL     OW38131   2.829   1.852  16.953 -0.0603  0.2919  0.0132
 8890SOL    HW138132   2.837   1.823  16.862 -0.9645 -0.6336  0.2287
 8890SOL    HW238133   2.910   1.813  16.988 -0.7677  0.5781  1.9532
 8891SOL     OW38134   1.012   4.330  10.922  0.4038 -0.3660  0.0203
 8891SOL    HW138135   1.012   4.384  10.842 -0.9978 -1.0477 -0.4307
 8891SOL    HW238136   0.920   4.309  10.936 -0.2659  2.4926 -0.0070
 8892SOL     OW38137   2.710   3.870  12.500 -0.1247  0.4234  0.6413
 8892SOL    HW138138   2.717   3.963  12.477 -1.9777  0.2528 -0.6071
 8892SOL    HW238139   2.778   3.874  12.567  0.2876  0.3297  0.2277
 8893SOL     OW38140   1.274   3.836  13.038 -0.2383 -0.1145  0.4842
 8893SOL    HW138141   1.341   3.863  13.101  1.6205 -1.3033 -0.9977
 8893SOL    HW238142   1.211   3.794  13.097  0.2077 -1.1139  0.2593
 8894SOL     OW38143   3.728   3.685   5.973  0.5656 -0.2995 -0.3639
 8894SOL    HW138144   3.770   3.609   5.933  0.8135  0.6692 -1.9653
 8894SOL    HW238145   3.728   3.654   6.063  0.0220 -0.3031 -0.3671
 8895SOL     OW38146   0.306   2.077   0.184  0.2373  0.4495 -0.0032
 8895SOL    HW138147   0.336   2.136   0.253 -2.1283  0.1077  1.3286
 8895SOL    HW238148   0.215   2.103   0.166 -0.1711 -0.9433  0.0308
 8896SOL     OW38149   3.888   2.458   0.972  0.0218  0.0786 -0.3119
 8896SOL    HW138150   3.933   2.392   0.920 -1.7603  0.3211 -2.1243
 8896SOL    HW238151   3.797   2.431   0.962  0.4741 -1.5563  0.0530
 8897SOL     OW38152   0.438   0.349   7.673 -0.1006  0.0566  0.0165
 8897SOL    HW138153   0.397   0.399   7.743 -1.2034  0.0048 -0.6068
 8897SOL    HW238154   0.363   0.327   7.618 -0.3698 -1.0008  0.7945
 8898SOL     OW38155   3.815   1.442   4.926  1.1132 -0.0587  0.0102
 8898SOL    HW138156   3.806   1.537   4.918 -1.4990 -0.4859 -2.0357
 8898SOL    HW238157   3.728   1.411   4.950  1.9239 -1.9347  0.4857
 8899SOL     OW38158   2.960   3.252  11.080  0.3780  0.5436 -0.3745
 8899SOL    HW138159   2.956   3.339  11.039 -2.6207 -0.2528 -1.7520
 8899SOL    HW238160   2.870   3.221  11.070  0.4153  0.3221 -0.0071
 8900SOL     OW38161   4.627   4.015   0.932 -0.7252 -0.0979  0.8632
 8900SOL    HW138162   4.591   3.934   0.968 -2.1022 -0.0047 -0.2877
 8900SOL    HW238163   4.641   4.067   1.011 -2.9910  1.9597 -0.0706
 8901SOL     OW38164   3.134   2.186   7.804  0.1985  0.3319 -0.1646
 8901SOL    HW138165   3.110   2.225   7.720 -0.6771  1.4140  0.5855
 8901SOL    HW238166   3.208   2.235   7.841 -0.8415  2.2662 -0.6320
 8902SOL     OW38167   3.937   2.195   2.990 -0.0508  0.8278  0.2640
 8902SOL    HW138168   3.842   2.204   2.999 -0.1044 -0.1611  0.6337
 8902SOL    HW238169   3.957   2.224   2.901  0.1541  0.1115  0.0773
 8903SOL     OW38170   4.083   3.054  14.956  0.5749  0.2800 -0.2582
 8903SOL    HW138171   4.007   3.014  14.997 -0.8611  1.8101 -1.4077
 8903SOL    HW238172   4.066   3.051  14.861 -0.0422  0.4602 -0.1571
 8904SOL     OW38173   2.530   3.866   4.473 -0.4190 -0.1825 -0.5742
 8904SOL    HW138174   2.556   3.926   4.543  0.6485 -1.0651 -0.2114
 8904SOL    HW238175   2.439   3.847   4.495 -0.6487  0.6524 -0.8077
 8905SOL     OW38176   3.971   1.234   0.815 -0.3614 -0.2619  1.6996
 8905SOL    HW138177   3.953   1.202   0.903 -1.9858 -1.3718  0.9818
 8905SOL    HW238178   4.012   1.316   0.840 -0.4092  1.1754 -2.8106
 8906SOL     OW38179   1.305   3.290   3.417 -0.0328  0.2955  0.2052
 8906SOL    HW138180   1.242   3.284   3.488 -1.4976  1.4471 -0.9881
 8906SOL    HW238181   1.280   3.213   3.367 -0.6223  0.1225  0.7770
 8907SOL     OW38182   0.868   1.311   8.653 -0.2482  0.0983 -0.0718
 8907SOL    HW138183   0.864   1.219   8.682 -0.5703  0.0885 -0.1497
 8907SOL    HW238184   0.929   1.353   8.713 -1.3544 -0.3908  1.4035
 8908SOL     OW38185   2.273   1.884   0.533  0.7907 -0.0244  0.1538
 8908SOL    HW138186   2.240   1.864   0.620  0.3970 -0.8936 -0.1877
 8908SOL    HW238187   2.332   1.813   0.509  1.8332  1.9329 -3.1963
 8909SOL     OW38188   2.448   3.367   2.732  0.1153  0.0963  0.1667
 8909SOL    HW138189   2.373   3.363   2.790  1.1608  1.3938  1.6137
 8909SOL    HW238190   2.407   3.322   2.658 -2.1934  2.5753 -0.0291
 8910SOL     OW38191   2.900   4.612   9.558  0.5670 -0.6347 -0.0867
 8910SOL    HW138192   2.850   4.618   9.640 -0.4698 -1.8062 -0.6390
 8910SOL    HW238193   2.848   4.667   9.500  0.7224  0.8064  1.1238
 8911SOL     OW38194   1.815   4.595   6.158 -0.1814 -0.2451 -0.5716
 8911SOL    HW138195   1.860   4.678   6.174  0.2665 -0.5763 -0.0984
 8911SOL    HW238196   1.739   4.636   6.118  0.6843  0.9462 -0.9980
 8912SOL     OW38197   0.648   2.718   9.025  0.7384 -0.4062 -0.8837
 8912SOL    HW138198   0.604   2.651   8.973 -0.6479 -0.4018  0.2821
 8912SOL    HW238199   0.669   2.778   8.953 -2.9919  1.4098 -0.4554
 8913SOL     OW38200   3.402   0.183   6.914 -0.2693 -0.2045  0.8513
 8913SOL    HW138201   3.350   0.238   6.971 -0.6609 -0.1977  0.4904
 8913SOL    HW238202   3.440   0.246   6.852 -0.2098 -1.8166 -0.7728
 8914SOL     OW38203   0.460   3.138  15.459 -0.1280  0.0488  0.1274
 8914SOL    HW138204   0.485   3.046  15.455  3.1725  0.9835 -0.9369
 8914SOL    HW238205   0.517   3.168  15.388 -0.2128  0.4977  0.2517
 8915SOL     OW38206   0.808   3.369   2.460 -0.4953  0.2517  1.0871
 8915SOL    HW138207   0.825   3.363   2.366  0.9076 -0.7058  1.4071
 8915SOL    HW238208   0.734   3.429   2.452 -0.0667  0.4953 -1.1099
 8916SOL     OW38209   4.441   1.103  13.639  0.3668 -0.4243 -0.1675
 8916SOL    HW138210   4.392   1.027  13.670 -0.4270  0.8914  1.8101
 8916SOL    HW238211   4.442   1.098  13.544 -2.1684 -0.9950 -0.1725
 8917SOL     OW38212   4.497   2.472   6.569 -0.4315 -0.1567 -0.1636
 8917SOL    HW138213   4.514   2.396   6.624  1.8300  0.1253 -0.4583
 8917SOL    HW238214   4.577   2.525   6.571 -0.2449 -0.4552  0.1459
 8918SOL     OW38215   0.533   0.348   1.694  0.0248  0.2956  0.4552
 8918SOL    HW138216   0.482   0.268   1.683 -2.2324  1.5478  1.7511
 8918SOL    HW238217   0.538   0.356   1.790  0.7934  3.4970  0.1498
 8919SOL     OW38218   3.546   3.033   6.817  0.5030 -0.6000 -0.3272
 8919SOL    HW138219   3.522   3.026   6.724 -1.0325  1.2846 -0.0848
 8919SOL    HW238220   3.640   3.048   6.810  0.5879  0.1731  2.4160
 8920SOL     OW38221   4.235   3.191   1.838  0.3841  0.0318 -0.0458
 8920SOL    HW138222   4.206   3.132   1.908  0.4364 -2.1118 -1.8276
 8920SOL    HW238223   4.180   3.166   1.763  0.5855 -0.0351 -0.1720
 8921SOL     OW38224   4.304   0.841  13.702 -0.2305 -0.3280  0.4420
 8921SOL    HW138225   4.297   0.761  13.754 -1.2598  0.4108  1.4418
 8921SOL    HW238226   4.231   0.894  13.733 -0.3478  0.3344 -0.9676
 8922SOL     OW38227   4.459   1.318   5.838  0.7403  0.7737  0.7428
 8922SOL    HW138228   4.546   1.281   5.819 -1.1080 -1.5528 -3.1945
 8922SOL    HW238229   4.488   1.406   5.815 -0.3440  1.1225  0.7308
 8923SOL     OW38230   2.055   4.470   8.154  0.1556  0.5061 -0.4514
 8923SOL    HW138231   1.981   4.425   8.113  1.1478  0.5703 -2.3115
 8923SOL    HW238232   2.029   4.468   8.246  2.8781  0.8336  0.3249
 8924SOL     OW38233   4.073   2.023   4.328 -0.5150  0.2148 -0.1693
 8924SOL    HW138234   4.131   2.072   4.270  1.6851 -2.7495 -0.4891
 8924SOL    HW238235   4.008   1.988   4.267 -1.8867  0.9922  0.8383
 8925SOL     OW38236   2.300   4.297   3.797 -0.1049 -0.1284  0.2033
 8925SOL    HW138237   2.324   4.381   3.837  0.9755  0.4027 -1.5396
 8925SOL    HW238238   2.223   4.318   3.744 -1.6504 -2.8771  1.3593
 8926SOL     OW38239   4.589   1.633   2.804 -0.1579  0.6379  0.1505
 8926SOL    HW138240   4.647   1.609   2.876  0.7203  3.5276  0.3885
 8926SOL    HW238241   4.521   1.675   2.858 -0.7348  1.1674 -0.9851
 8927SOL     OW38242   0.417   0.472   1.466  0.0395  0.4703 -0.1198
 8927SOL    HW138243   0.352   0.404   1.446 -0.8779  0.9406  1.2786
 8927SOL    HW238244   0.470   0.427   1.532  0.7290  1.1238 -0.2264
 8928SOL     OW38245   3.939   3.863   7.760  0.2749  0.0856 -0.1522
 8928SOL    HW138246   3.907   3.785   7.714  0.1873 -1.0628  1.8457
 8928SOL    HW238247   3.864   3.921   7.751  0.3704  0.0346 -1.2700
 8929SOL     OW38248   4.026   1.999  15.165 -0.2319  0.4802  0.3249
 8929SOL    HW138249   4.092   2.023  15.100  0.5065  0.5292  1.1090
 8929SOL    HW238250   3.951   2.051  15.135 -0.1614 -0.3012 -1.2147
 8930SOL     OW38251   3.380   4.547  12.494 -0.8265  0.5292 -0.3245
 8930SOL    HW138252   3.367   4.639  12.515  2.4642  0.9603 -0.2015
 8930SOL    HW238253   3.442   4.517  12.560  0.3016  3.6551  0.0138
 8931SOL     OW38254   0.422   0.974   2.353  0.5122 -0.2534 -1.0008
 8931SOL    HW138255   0.507   0.932   2.367  0.6623  0.1413 -0.7461
 8931SOL    HW238256   0.444   1.064   2.377  1.1814 -0.7322  0.2032
 8932SOL     OW38257   1.769   4.394   8.155 -0.0851 -0.5641  0.6109
 8932SOL    HW138258   1.733   4.367   8.069 -3.3613 -0.5453  1.9602
 8932SOL    HW238259   1.692   4.436   8.194  0.1320  0.9322 -0.5650
 8933SOL     OW38260   0.264   1.283  11.472 -0.0745 -0.1155 -0.4618
 8933SOL    HW138261   0.319   1.357  11.498  0.1158 -0.9732  1.5229
 8933SOL    HW238262   0.181   1.294  11.519  0.3991  0.3214  0.2661
 8934SOL     OW38263   1.639   2.055   7.508 -0.0269 -0.3093 -0.5655
 8934SOL    HW138264   1.691   2.081   7.584 -0.5784 -1.0890  0.0831
 8934SOL    HW238265   1.683   1.976   7.476 -0.2683 -1.1953  1.2552
 8935SOL     OW38266   3.085   4.358   6.072 -0.1138  0.3276  0.3874
 8935SOL    HW138267   3.070   4.330   6.162 -0.9135  1.1656  0.5259
 8935SOL    HW238268   2.999   4.332   6.039  0.0256  0.2673  0.0710
 8936SOL     OW38269   1.147   1.118  15.071  0.3006 -0.0740 -0.1494
 8936SOL    HW138270   1.136   1.211  15.086 -0.9898 -0.9681  4.7177
 8936SOL    HW238271   1.220   1.113  15.134 -0.6457 -2.1361  0.7868
 8937SOL     OW38272   0.272   3.921   2.158  0.3028 -0.1664 -0.3012
 8937SOL    HW138273   0.239   3.979   2.089  0.9992  1.2416  0.5388
 8937SOL    HW238274   0.240   3.833   2.139 -1.4316  0.6008 -0.9713
 8938SOL     OW38275   2.683   4.515  12.384 -0.0687 -0.0380 -0.1139
 8938SOL    HW138276   2.733   4.597  12.385 -0.7530  0.3927 -0.7240
 8938SOL    HW238277   2.722   4.476  12.462  3.3034  0.7688 -1.3683
 8939SOL     OW38278   1.860   0.095   3.576  0.2059  0.0023 -0.2636
 8939SOL    HW138279   1.888   0.089   3.668 -1.6854  3.3733  0.5341
 8939SOL    HW238280   1.798   0.022   3.567  1.2321 -0.9678  0.4550
 8940SOL     OW38281   3.022   4.538  12.432 -0.1776 -0.5305 -0.4084
 8940SOL    HW138282   3.113   4.533  12.404 -0.8426 -0.6583 -2.5690
 8940SOL    HW238283   2.979   4.510  12.351  1.2011  1.3152 -1.7609
 8941SOL     OW38284   2.471   3.573   5.549  0.8736 -0.3793 -0.3641
 8941SOL    HW138285   2.388   3.603   5.587  3.1940  2.0709  2.7166
 8941SOL    HW238286   2.495   3.512   5.619 -0.2107  0.0211  0.3651
 8942SOL     OW38287   3.090   2.087  12.284  0.0927 -0.0908 -1.0162
 8942SOL    HW138288   3.047   2.001  12.282 -0.1756  0.0289 -0.4876
 8942SOL    HW238289   3.024   2.144  12.245 -0.6914 -0.3754 -0.0985
 8943SOL     OW38290   3.666   3.947   7.703  0.1244  0.0876 -0.3689
 8943SOL    HW138291   3.616   4.024   7.676  0.7543 -0.0883 -2.0715
 8943SOL    HW238292   3.603   3.922   7.770 -0.1311 -0.7745 -0.9346
 8944SOL     OW38293   4.343   3.254   5.984  0.1209 -0.3459 -0.3881
 8944SOL    HW138294   4.350   3.335   6.034 -0.0021 -2.1237  2.4857
 8944SOL    HW238295   4.430   3.216   5.993 -0.3814 -1.3869 -0.0228
 8945SOL     OW38296   2.891   3.945   8.787 -0.0268  0.4599  0.5174
 8945SOL    HW138297   2.849   3.965   8.871 -1.0321 -1.1438  0.3920
 8945SOL    HW238298   2.934   4.028   8.769  1.5888 -0.4010  0.4294
 8946SOL     OW38299   3.935   0.677   3.497  0.1066  0.8037  0.8977
 8946SOL    HW138300   3.978   0.698   3.414  0.1123 -0.5225  0.5660
 8946SOL    HW238301   3.883   0.756   3.512 -1.5463  0.3661 -2.4756
 8947SOL     OW38302   3.259   1.056   2.172 -0.2807  0.1524 -0.1903
 8947SOL    HW138303   3.205   1.059   2.251 -0.1055 -0.5974 -0.0466
 8947SOL    HW238304   3.341   1.076   2.217  1.5925 -1.3254 -2.9974
 8948SOL     OW38305   3.273   0.155  16.869 -0.4210  0.0738 -0.1732
 8948SOL    HW138306   3.304   0.244  16.851 -0.3231  0.4189  1.7054
 8948SOL    HW238307   3.276   0.120  16.779 -0.4132  0.6037 -0.3782
 8949SOL     OW38308   3.745   2.602   4.293  0.0775  0.2695  0.2485
 8949SOL    HW138309   3.670   2.661   4.303 -0.6059 -0.0186 -3.3919
 8949SOL    HW238310   3.708   2.547   4.224 -1.3668  2.0304 -0.3832
 8950SOL     OW38311   3.941   2.737   3.805  0.3564 -0.7601 -0.4184
 8950SOL    HW138312   3.902   2.825   3.809  1.1657 -0.5697  2.8507
 8950SOL    HW238313   3.864   2.684   3.784 -1.7480  1.2928  1.9915
 8951SOL     OW38314   3.191   4.045  10.446 -0.0766 -0.7073 -0.4084
 8951SOL    HW138315   3.259   4.109  10.427 -0.1573 -0.1899  1.0069
 8951SOL    HW238316   3.111   4.094  10.428  1.4902  2.5982  1.5768
 8952SOL     OW38317   2.904   4.633  12.667  0.3563  0.1129  0.3535
 8952SOL    HW138318   2.873   4.555  12.714  0.6843 -0.8363 -1.0052
 8952SOL    HW238319   2.920   4.596  12.580 -0.5645  0.1171  0.1856
 8953SOL     OW38320   0.478   0.652   3.676  0.0688  0.0662  0.0901
 8953SOL    HW138321   0.453   0.564   3.650  1.1644 -0.2165  0.0035
 8953SOL    HW238322   0.392   0.693   3.683 -0.4549 -0.8714 -0.9542
 8954SOL     OW38323   1.704   1.265   7.449 -0.5408 -0.5066 -0.3138
 8954SOL    HW138324   1.624   1.234   7.491 -0.7571  3.0465  1.9737
 8954SOL    HW238325   1.705   1.205   7.375 -1.0827  1.8359 -2.2515
 8955SOL     OW38326   1.129   3.134   4.213  0.1324  0.0782 -0.3797
 8955SOL    HW138327   1.070   3.191   4.262 -0.1240 -1.1203  0.7075
 8955SOL    HW238328   1.086   3.078   4.147  0.0728  0.8745 -1.0135
 8956SOL     OW38329   3.439   3.449  10.499 -0.3215  0.0868 -0.7187
 8956SOL    HW138330   3.395   3.428  10.581 -0.3059  0.3639 -0.6408
 8956SOL    HW238331   3.359   3.463  10.448 -0.3360 -1.6294 -1.1761
 8957SOL     OW38332   3.766   2.490   2.773  0.3335  0.1140  0.1673
 8957SOL    HW138333   3.737   2.513   2.860 -2.1119 -0.4346 -0.5098
 8957SOL    HW238334   3.693   2.510   2.715  0.1883  0.9794  0.6546
 8958SOL     OW38335   2.883   2.554   9.335 -0.6013  0.4334 -0.1119
 8958SOL    HW138336   2.920   2.467   9.324  0.8893  1.2594 -1.7457
 8958SOL    HW238337   2.878   2.560   9.430  0.0591  1.0678 -0.1123
 8959SOL     OW38338   4.717   2.649   9.109 -0.5977 -0.0424  0.2864
 8959SOL    HW138339   4.652   2.699   9.159  0.1444  0.6953  0.5220
 8959SOL    HW238340   0.038   2.588   9.169  2.3926  2.0856  0.3573
 8960SOL     OW38341   1.682   4.691  10.117 -0.0902  0.0731 -0.4788
 8960SOL    HW138342   1.753   4.634  10.146  2.0831  1.9659 -2.1389
 8960SOL    HW238343   1.726   4.721  10.037 -1.9758  0.8545 -1.2244
 8961SOL     OW38344   3.877   3.591  12.199 -0.4523  0.0688  0.3004
 8961SOL    HW138345   3.919   3.554  12.276  1.6853 -3.1705 -2.4067
 8961SOL    HW238346   3.798   3.614  12.248  1.0884 -0.1981  2.8699
 8962SOL     OW38347   1.355   2.544   5.816 -0.7855  0.0968 -0.2512
 8962SOL    HW138348   1.371   2.451   5.801  1.2149  0.4449 -0.2064
 8962SOL    HW238349   1.322   2.562   5.728  0.6216 -1.1543 -1.0205
 8963SOL     OW38350   0.360   1.711   5.408 -0.0259  0.2304  0.2547
 8963SOL    HW138351   0.302   1.635   5.404  0.5905 -0.1544 -1.3300
 8963SOL    HW238352   0.442   1.664   5.426 -1.0899 -2.0065 -0.8452
 8964SOL     OW38353   3.440   4.066   6.643 -0.5845  0.2631 -0.4769
 8964SOL    HW138354   3.469   4.116   6.566 -0.5406  0.0433 -0.6037
 8964SOL    HW238355   3.450   3.975   6.617 -1.1398 -0.6740  2.6383
 8965SOL     OW38356   1.761   1.616   8.946 -0.3435  0.1840  0.2569
 8965SOL    HW138357   1.676   1.651   8.970 -0.6956 -1.5548  1.5555
 8965SOL    HW238358   1.776   1.548   9.012  3.1775 -0.7838 -1.5047
 8966SOL     OW38359   3.584   0.885   0.544 -0.4458 -0.0996 -0.3653
 8966SOL    HW138360   3.645   0.954   0.519  0.7050 -0.9351  0.1230
 8966SOL    HW238361   3.633   0.840   0.613  0.8256  0.8953 -0.6215
 8967SOL     OW38362   2.299   3.652   0.998  0.0504  0.3627 -0.0749
 8967SOL    HW138363   2.386   3.684   1.021  0.3566 -1.2039  0.9691
 8967SOL    HW238364   2.300   3.659   0.903  2.7053  2.3059  0.1055
 8968SOL     OW38365   2.756   2.767  15.627  0.2061  0.3305  0.0181
 8968SOL    HW138366   2.850   2.757  15.646  0.5611  2.0170 -0.9042
 8968SOL    HW238367   2.720   2.786  15.714  0.1437  0.3639 -0.0160
 8969SOL     OW38368   2.128   3.524   2.778 -0.0611 -0.3402 -0.1045
 8969SOL    HW138369   2.171   3.583   2.715  1.3329 -1.5584 -0.2998
 8969SOL    HW238370   2.064   3.492   2.714 -1.0222 -0.2977  0.8353
 8970SOL     OW38371   2.912   4.109   6.792 -0.0987  0.0362 -0.1240
 8970SOL    HW138372   2.844   4.099   6.725 -0.8973  1.0452  0.5447
 8970SOL    HW238373   2.990   4.101   6.736 -0.0232 -1.7886  0.2495
 8971SOL     OW38374   0.839   1.845   9.222  0.7630 -0.4435 -0.5359
 8971SOL    HW138375   0.840   1.940   9.235 -0.1141 -0.3183 -1.3241
 8971SOL    HW238376   0.870   1.823   9.310  0.5677 -0.8940 -0.5788
 8972SOL     OW38377   2.684   3.321  11.691  0.0953 -0.2905  0.0563
 8972SOL    HW138378   2.688   3.274  11.774 -0.6557 -0.5276 -0.0469
 8972SOL    HW238379   2.760   3.380  11.694  0.6843 -0.8652 -2.8709
 8973SOL     OW38380   2.603   2.970   7.085 -0.3624  0.3871  0.3070
 8973SOL    HW138381   2.615   2.925   7.169  0.1430 -2.2750 -1.1883
 8973SOL    HW238382   2.510   2.972   7.065 -0.1040  0.8025 -0.8793
 8974SOL     OW38383   2.601   2.076   6.755 -0.0507 -0.0389  0.2301
 8974SOL    HW138384   2.553   2.136   6.811 -0.7710  0.2610 -0.7069
 8974SOL    HW238385   2.677   2.132   6.741 -0.8730  1.3223  1.2862
 8975SOL     OW38386   3.052   0.414   7.615 -0.3060  0.0189  0.2015
 8975SOL    HW138387   2.998   0.394   7.691  1.4157 -0.7978  1.1961
 8975SOL    HW238388   3.012   0.350   7.555 -0.0485  0.1700 -0.1345
 8976SOL     OW38389   3.189   1.423   3.747  0.2739 -0.4523 -0.4045
 8976SOL    HW138390   3.204   1.389   3.835  3.2146  2.0370  0.0391
 8976SOL    HW238391   3.272   1.392   3.709  0.6969 -0.8881  0.8822
 8977SOL     OW38392   1.452   0.777  15.208  0.0358 -0.6591  0.3487
 8977SOL    HW138393   1.478   0.867  15.186  0.8306 -1.2217 -1.0355
 8977SOL    HW238394   1.522   0.718  15.181  1.9596  1.5622  0.5193
 8978SOL     OW38395   0.532   0.537  16.078  0.0603  0.0944 -0.3038
 8978SOL    HW138396   0.512   0.631  16.082  1.2410  0.3685 -1.0193
 8978SOL    HW238397   0.559   0.519  16.168  4.0014  0.5506 -1.4210
 8979SOL     OW38398   1.838   3.613   3.673 -0.2976  0.1530 -0.2139
 8979SOL    HW138399   1.883   3.533   3.699 -0.2800  0.2776  0.1379
 8979SOL    HW238400   1.859   3.675   3.743  0.8943  1.2603 -1.5370
 8980SOL     OW38401   3.513   3.231   5.057 -0.6551  0.1417 -0.0653
 8980SOL    HW138402   3.607   3.243   5.045 -0.4945  0.4822  1.5526
 8980SOL    HW238403   3.495   3.312   5.106  0.6559  0.0196  0.6121
 8981SOL     OW38404   2.572   2.431   9.657 -0.1173  0.2676 -0.0131
 8981SOL    HW138405   2.577   2.348   9.610  3.1279  0.6902 -0.3602
 8981SOL    HW238406   2.496   2.403   9.708 -0.6617 -0.4351 -1.2159
 8982SOL     OW38407   3.223   2.968   6.807 -0.3478 -0.0097 -0.2075
 8982SOL    HW138408   3.131   2.951   6.785 -0.6018 -0.5687  1.2981
 8982SOL    HW238409   3.251   3.020   6.732 -0.6825  0.0046 -0.3249
 8983SOL     OW38410   1.295   4.141   3.340  0.9964  0.0196  0.2933
 8983SOL    HW138411   1.272   4.056   3.303 -1.2570  1.1119 -0.7994
 8983SOL    HW238412   1.281   4.198   3.265 -2.0038 -0.3892  0.5662
 8984SOL     OW38413   2.777   1.653  13.800  0.3549 -0.2667 -0.0036
 8984SOL    HW138414   2.690   1.668  13.762  0.4910 -0.6114 -0.4623
 8984SOL    HW238415   2.821   1.677  13.718 -0.0239  1.3111  0.2616
 8985SOL     OW38416   4.368   3.519   6.073 -0.3248 -0.3243  0.4636
 8985SOL    HW138417   4.320   3.581   6.018 -2.1922  0.8332  3.3814
 8985SOL    HW238418   4.456   3.555   6.065  0.1405 -1.1517  1.8149
 8986SOL     OW38419   0.350   4.686   8.504 -0.2181  0.2256 -0.0395
 8986SOL    HW138420   0.423   4.663   8.561  1.0000  0.5505 -1.4628
 8986SOL    HW238421   0.365   4.626   8.431  0.8699  1.4613 -0.8411
 8987SOL     OW38422   2.012   4.260   1.095 -0.0855 -0.5619 -0.0621
 8987SOL    HW138423   2.104   4.261   1.069 -0.0770  0.9559 -0.0013
 8987SOL    HW238424   2.012   4.320   1.170  1.5222 -1.0386  0.3347
 8988SOL     OW38425   1.703   1.265   7.146 -0.0084 -0.7554  0.1857
 8988SOL    HW138426   1.795   1.291   7.158  0.3080 -0.7710 -2.0945
 8988SOL    HW238427   1.664   1.344   7.182  1.7692 -0.1591  0.8258
 8989SOL     OW38428   4.494   1.309   4.298  0.2185  0.0121  0.4208
 8989SOL    HW138429   4.426   1.344   4.242 -0.6515 -1.2305  0.7027
 8989SOL    HW238430   4.458   1.302   4.386  1.6134 -3.7988  0.7236
 8990SOL     OW38431   3.675   0.879   7.420 -0.6804  0.6564  0.5800
 8990SOL    HW138432   3.640   0.836   7.342  1.5841 -2.5842  1.3292
 8990SOL    HW238433   3.740   0.813   7.447  0.2852  1.5190  0.3486
 8991SOL     OW38434   2.806   0.439  12.661  0.4729  0.4095 -0.4763
 8991SOL    HW138435   2.891   0.449  12.704 -0.0128  2.7171 -0.0692
 8991SOL    HW238436   2.816   0.349  12.629 -2.2156  0.6694 -2.0359
 8992SOL     OW38437   3.923   0.824   9.524 -0.1285 -0.5980 -0.1456
 8992SOL    HW138438   3.892   0.739   9.554 -0.8337 -0.2278  0.1852
 8992SOL    HW238439   3.858   0.880   9.566  1.4913 -0.3263  1.9369
 8993SOL     OW38440   2.126   1.899  11.350 -0.5565  0.4608 -0.6794
 8993SOL    HW138441   2.171   1.852  11.421  0.7998 -0.1729 -1.9546
 8993SOL    HW238442   2.059   1.836  11.324  0.4360 -1.8362  2.3181
 8994SOL     OW38443   3.577   2.841   5.276 -0.1420 -0.3514  1.0004
 8994SOL    HW138444   3.541   2.924   5.308  0.5762 -0.2474  1.5324
 8994SOL    HW238445   3.650   2.889   5.237 -2.1901  2.7066  0.9272
 8995SOL     OW38446   0.089   4.593   0.859  0.0296  0.8575 -0.0301
 8995SOL    HW138447   0.066   4.534   0.788 -0.5194  2.0129 -0.8224
 8995SOL    HW238448   0.026   4.664   0.844  1.7678  2.0657 -1.5430
 8996SOL     OW38449   3.295   4.071  15.634 -0.1280 -0.7236 -0.3361
 8996SOL    HW138450   3.291   4.155  15.680 -1.7741 -0.5617 -0.7756
 8996SOL    HW238451   3.315   4.110  15.549 -1.4082 -1.4030 -0.9518
 8997SOL     OW38452   0.472   1.119  15.453 -0.5435  0.0591 -0.3020
 8997SOL    HW138453   0.462   1.091  15.544 -2.7429  1.3632 -0.1589
 8997SOL    HW238454   0.501   1.036  15.415 -0.9662  0.1399 -0.8127
 8998SOL     OW38455   1.695   1.083  17.288 -0.3899  0.3035 -0.7647
 8998SOL    HW138456   1.616   1.058  17.336  0.8739 -3.7138 -0.8034
 8998SOL    HW238457   1.669   1.155  17.231 -0.2900  1.2220  0.3562
 8999SOL     OW38458   3.280   3.491  15.615 -0.6742 -0.2891 -0.0614
 8999SOL    HW138459   3.267   3.474  15.522  0.1521  0.7409 -0.3687
 8999SOL    HW238460   3.202   3.546  15.627 -1.4376 -0.8745 -2.3883
 9000SOL     OW38461   1.365   2.201   1.630  0.7884  0.7855  0.5339
 9000SOL    HW138462   1.337   2.288   1.603 -0.7256 -0.0482 -0.6581
 9000SOL    HW238463   1.454   2.219   1.658  0.2503  0.6877  2.2895
 9001SOL     OW38464   0.745   2.577  13.618 -0.0428 -0.5754  0.1818
 9001SOL    HW138465   0.774   2.635  13.689 -1.0565  0.7186 -0.4612
 9001SOL    HW238466   0.831   2.571  13.576 -0.0723  0.4747 -0.0275
 9002SOL     OW38467   2.565   2.478   9.191 -0.7579  0.5925 -0.2369
 9002SOL    HW138468   2.506   2.402   9.191  0.2403 -0.1782 -0.4547
 9002SOL    HW238469   2.649   2.432   9.190 -0.9293  0.2478  1.6237
 9003SOL     OW38470   3.056   1.026  13.094 -0.4781 -0.0780  0.1313
 9003SOL    HW138471   3.101   1.107  13.120  2.9113 -1.6642 -0.8237
 9003SOL    HW238472   3.094   1.027  13.007  0.4833 -1.1206  0.5467
 9004SOL     OW38473   4.336   0.228  13.933  0.2939  0.2833 -0.2480
 9004SOL    HW138474   4.421   0.248  13.896  0.8729 -2.8642 -0.6050
 9004SOL    HW238475   4.325   0.133  13.946  0.3279  0.1792 -0.9960
 9005SOL     OW38476   4.206   1.974  15.743 -0.1701  0.4648  0.0885
 9005SOL    HW138477   4.244   2.017  15.820 -0.1003  1.1896 -0.3581
 9005SOL    HW238478   4.144   2.042  15.717  1.3689  1.4170 -1.0906
 9006SOL     OW38479   0.629   3.611   4.231 -0.0640 -0.0603 -0.3419
 9006SOL    HW138480   0.701   3.622   4.169  1.8609 -0.9391  1.7281
 9006SOL    HW238481   0.606   3.519   4.219 -0.8981  0.1801 -0.5964
 9007SOL     OW38482   0.008   0.704  13.320  0.4223  0.2486 -0.3213
 9007SOL    HW138483   0.021   0.754  13.240 -2.3872  0.9224 -0.3740
 9007SOL    HW238484   0.069   0.630  13.311  1.4222  1.0123  0.2039
 9008SOL     OW38485   3.596   2.342   8.718  0.3816 -0.1888 -0.1441
 9008SOL    HW138486   3.504   2.367   8.717  0.7363  1.1975  2.6631
 9008SOL    HW238487   3.628   2.371   8.632 -0.4361  2.0451  0.3088
 9009SOL     OW38488   1.164   0.070   6.924  0.2507  0.2389  0.8068
 9009SOL    HW138489   1.113   0.076   6.844  0.4801  2.4541  0.8296
 9009SOL    HW238490   1.138   0.153   6.966 -1.2963 -1.1163  2.5553
 9010SOL     OW38491   2.734   4.628   8.247  0.1288  0.2276  0.0962
 9010SOL    HW138492   2.666   4.695   8.235  0.6842  0.3331 -2.5013
 9010SOL    HW238493   2.712   4.570   8.174  1.3331  1.0375 -0.9238
 9011SOL     OW38494   4.479   0.792   5.605  0.0309  0.6672 -0.0330
 9011SOL    HW138495   4.437   0.849   5.669  0.0213  1.0224 -0.3613
 9011SOL    HW238496   4.526   0.731   5.662  0.2093 -0.6198 -1.5562
 9012SOL     OW38497   2.707   3.982   2.669  0.3907 -0.0617  0.6440
 9012SOL    HW138498   2.720   3.901   2.619  0.7604 -0.4444  1.3613
 9012SOL    HW238499   2.711   3.955   2.761  2.3804  0.4515  0.7116
 9013SOL     OW38500   2.869   3.707  13.872  0.5147  0.0331  0.0038
 9013SOL    HW138501   2.815   3.634  13.903 -0.4555  1.2249  1.0813
 9013SOL    HW238502   2.919   3.671  13.798 -1.5281 -0.8379 -0.9421
 9014SOL     OW38503   4.074   0.812   6.275 -0.0355  0.2719 -0.0494
 9014SOL    HW138504   4.033   0.874   6.215 -0.6863  0.2215  0.3415
 9014SOL    HW238505   4.160   0.817   6.234 -0.0587  0.6298 -0.0570
 9015SOL     OW38506   2.338   1.689  12.801 -0.4319 -0.4848 -0.7213
 9015SOL    HW138507   2.343   1.614  12.742  0.9035 -0.2738 -0.8817
 9015SOL    HW238508   2.311   1.761  12.743 -2.0554  0.8597  1.7246
 9016SOL     OW38509   1.900   2.705   4.367 -0.3543  0.8740  0.0912
 9016SOL    HW138510   1.929   2.771   4.430 -0.7091  1.8545 -0.7669
 9016SOL    HW238511   1.892   2.751   4.283 -0.3887 -1.0980 -0.9895
 9017SOL     OW38512   0.714   1.869  10.090 -0.1794 -0.2401  0.1281
 9017SOL    HW138513   0.800   1.909  10.080 -0.6082  1.2681  2.4969
 9017SOL    HW238514   0.710   1.800  10.024  0.9973  0.3794 -0.5857
 9018SOL     OW38515   2.331   3.899   7.107 -0.0253  0.9226 -0.6563
 9018SOL    HW138516   2.352   3.854   7.189 -0.9972 -2.0060 -1.9909
 9018SOL    HW238517   2.323   3.829   7.042 -2.4063  1.7163 -1.2315
 9019SOL     OW38518   1.554   3.678   2.551  0.3033  0.2166  0.8626
 9019SOL    HW138519   1.578   3.744   2.486 -0.2530  0.9526  1.4082
 9019SOL    HW238520   1.511   3.623   2.486  0.0148  1.7954 -0.2726
 9020SOL     OW38521   4.284   4.591  14.351  0.2187  0.4837  0.3777
 9020SOL    HW138522   4.245   4.563  14.434  1.3975  1.0189  1.1120
 9020SOL    HW238523   4.372   4.608  14.386  1.1715 -1.6123 -0.9906
 9021SOL     OW38524   2.273   1.855   6.270  0.0572 -0.2169  0.5515
 9021SOL    HW138525   2.326   1.797   6.325 -0.1843 -1.3642 -0.4072
 9021SOL    HW238526   2.327   1.928   6.241  0.2108 -0.5172  0.0828
 9022SOL     OW38527   1.518   0.262   9.332 -0.1124  0.1868  0.4147
 9022SOL    HW138528   1.546   0.304   9.250 -0.3144 -1.3300 -0.4372
 9022SOL    HW238529   1.444   0.320   9.346 -0.5048  0.1718 -1.5322
 9023SOL     OW38530   4.528   3.387   3.123  0.1030 -0.0796 -0.3394
 9023SOL    HW138531   4.615   3.361   3.153 -1.1459 -1.3495  2.1893
 9023SOL    HW238532   4.484   3.337   3.192 -0.3763  0.4029 -0.2959
 9024SOL     OW38533   3.768   2.235   5.043  0.2424 -0.0484 -0.1673
 9024SOL    HW138534   3.717   2.315   5.055  0.7919  0.2672  0.0571
 9024SOL    HW238535   3.786   2.206   5.132  1.3378  3.1867  0.6347
 9025SOL     OW38536   4.360   1.467   9.112  0.6370  0.0372  0.1509
 9025SOL    HW138537   4.451   1.446   9.132 -0.0198 -2.0932  0.8469
 9025SOL    HW238538   4.346   1.423   9.028 -1.0155  2.1263 -0.6773
 9026SOL     OW38539   0.053   3.284   4.447 -0.1694 -0.2858 -0.2055
 9026SOL    HW138540   0.090   3.238   4.371  0.0347  1.6082 -1.2364
 9026SOL    HW238541   4.704   3.328   4.399  1.2851 -0.9556 -2.9541
 9027SOL     OW38542   2.660   2.049   5.841  0.1993 -0.0518  0.6444
 9027SOL    HW138543   2.633   1.958   5.829  4.0048 -0.8821 -1.5921
 9027SOL    HW238544   2.679   2.079   5.752 -2.7694  0.5161  0.2187
 9028SOL     OW38545   4.000   4.610   4.189  0.1288 -0.0266 -0.5692
 9028SOL    HW138546   4.044   4.689   4.157 -1.0440 -0.0014 -2.1082
 9028SOL    HW238547   3.919   4.607   4.137 -0.3206  0.8260  0.0843
 9029SOL     OW38548   0.591   3.569   2.427 -0.0244  0.1263 -0.0286
 9029SOL    HW138549   0.594   3.615   2.511 -1.6400 -1.3370  0.8365
 9029SOL    HW238550   0.609   3.638   2.363  1.4132 -1.0552 -0.9022
 9030SOL     OW38551   2.232   2.672  14.973  0.1937 -0.2974  0.1541
 9030SOL    HW138552   2.214   2.631  15.058  3.0155  0.2181  0.9849
 9030SOL    HW238553   2.261   2.759  15.001  0.1004  0.1222 -1.0662
 9031SOL     OW38554   2.764   0.784   4.488  0.0236 -0.8613  0.0472
 9031SOL    HW138555   2.729   0.740   4.565 -0.5727  1.3270  1.0305
 9031SOL    HW238556   2.801   0.712   4.437 -1.9265 -0.3347 -2.1536
 9032SOL     OW38557   1.758   4.086   7.981 -0.0209  0.0834  0.3077
 9032SOL    HW138558   1.778   4.151   7.914  0.0224 -0.4394 -0.1791
 9032SOL    HW238559   1.830   4.088   8.043  2.4065 -1.3800 -2.4908
 9033SOL     OW38560   4.493   0.492   1.365 -1.0352 -0.5364 -0.3521
 9033SOL    HW138561   4.430   0.425   1.391 -0.5794 -1.4711 -1.6634
 9033SOL    HW238562   4.497   0.551   1.440  0.5282 -2.6412  1.1934
 9034SOL     OW38563   2.677   0.325   0.111  0.9580  0.4491 -0.5024
 9034SOL    HW138564   2.763   0.312   0.071  0.1841  0.0737 -2.0605
 9034SOL    HW238565   2.641   0.384   0.044  1.9522  2.0166  0.3282
 9035SOL     OW38566   3.479   0.400   2.947 -0.4476 -0.8780 -0.5576
 9035SOL    HW138567   3.456   0.308   2.961  2.4442 -1.5433 -0.2121
 9035SOL    HW238568   3.553   0.386   2.887 -0.7552  0.7070 -1.3236
 9036SOL     OW38569   2.176   1.369  15.198  0.2277 -0.1821  0.0863
 9036SOL    HW138570   2.172   1.281  15.161  1.0857  0.5893 -1.8597
 9036SOL    HW238571   2.237   1.411  15.137 -2.7519  1.7305 -1.5727
 9037SOL     OW38572   3.488   1.711   6.092  0.7008 -0.1606  0.1513
 9037SOL    HW138573   3.522   1.750   6.012 -2.1026  2.0248 -0.0243
 9037SOL    HW238574   3.531   1.764   6.159  0.0923 -0.1344  0.5303
 9038SOL     OW38575   2.131   0.870   0.189  0.5962 -0.1878  0.6575
 9038SOL    HW138576   2.202   0.915   0.145 -0.0757 -0.2861 -0.5455
 9038SOL    HW238577   2.118   0.791   0.135  0.6905  0.3610 -0.1652
 9039SOL     OW38578   0.852   0.868   2.205  0.2658 -0.5642  0.3127
 9039SOL    HW138579   0.787   0.872   2.275 -0.4880  1.0370 -0.4894
 9039SOL    HW238580   0.898   0.789   2.233  0.3072  0.3921  2.9087
 9040SOL     OW38581   4.666   4.525   1.111  0.3743 -0.5395  0.3131
 9040SOL    HW138582   0.007   4.540   1.040 -1.0818 -0.2061 -0.8876
 9040SOL    HW238583   4.597   4.578   1.071  1.6140 -1.0059 -2.4332
 9041SOL     OW38584   4.296   2.870   5.884  0.0885 -0.2347  0.0808
 9041SOL    HW138585   4.383   2.903   5.906 -0.1833  2.4867 -2.9523
 9041SOL    HW238586   4.238   2.916   5.945 -0.1978  1.7511 -1.6929
 9042SOL     OW38587   2.017   3.338   8.092 -0.7090 -0.1420  0.4267
 9042SOL    HW138588   2.093   3.296   8.132  0.2092  1.0703 -0.0408
 9042SOL    HW238589   2.024   3.298   8.006  2.4079  3.0847 -0.8550
 9043SOL     OW38590   2.426   2.516   6.646  0.3464  0.7301 -0.0924
 9043SOL    HW138591   2.331   2.501   6.651  0.0557  2.3296 -1.0661
 9043SOL    HW238592   2.453   2.468   6.725 -0.6523  1.8972  0.9642
 9044SOL     OW38593   0.048   3.405   3.842 -0.1227  0.3088 -0.0119
 9044SOL    HW138594   4.683   3.427   3.808 -1.3916 -0.2985  2.7395
 9044SOL    HW238595   0.022   3.321   3.880  1.1964 -1.5594 -3.2303
 9045SOL     OW38596   0.670   2.364   5.764 -0.1609  0.0423  0.8100
 9045SOL    HW138597   0.608   2.410   5.820 -1.1843  0.6835 -0.8523
 9045SOL    HW238598   0.652   2.275   5.794  2.5951 -0.8368 -0.0970
 9046SOL     OW38599   3.805   2.264  11.139 -0.6838  0.4666  0.7490
 9046SOL    HW138600   3.737   2.319  11.099  0.3251  1.0070 -0.2325
 9046SOL    HW238601   3.767   2.177  11.138  1.3432 -0.4184  0.0890
 9047SOL     OW38602   1.121   2.279   4.749 -0.0574 -0.2006 -0.2781
 9047SOL    HW138603   1.129   2.217   4.676  0.6457  1.5369 -1.6970
 9047SOL    HW238604   1.032   2.312   4.733 -0.2670 -1.0545 -0.8776
 9048SOL     OW38605   3.992   2.222  16.722  0.2304 -0.1773  0.0133
 9048SOL    HW138606   3.954   2.265  16.799 -0.0055 -0.9474  0.3277
 9048SOL    HW238607   4.022   2.300  16.677 -0.2651 -0.4233 -0.7474
 9049SOL     OW38608   2.560   1.842  14.290  0.1668  0.0881 -0.5174
 9049SOL    HW138609   2.582   1.829  14.198 -1.7740  0.4244 -1.0240
 9049SOL    HW238610   2.516   1.927  14.279 -0.8750 -0.2444  1.1663
 9050SOL     OW38611   0.934   0.282   5.992  0.3870 -0.1359 -0.1753
 9050SOL    HW138612   0.991   0.325   5.928 -0.1216 -0.5433 -0.9040
 9050SOL    HW238613   0.902   0.355   6.045  0.4846 -0.3873  0.2281
 9051SOL     OW38614   3.102   0.859   7.745 -0.5472 -0.6174  0.3259
 9051SOL    HW138615   3.064   0.808   7.674 -0.8944 -1.3387  1.0356
 9051SOL    HW238616   3.161   0.909   7.689 -0.9636  1.3870  1.6804
 9052SOL     OW38617   4.059   3.539   1.348 -0.6786 -0.3891 -0.3466
 9052SOL    HW138618   3.970   3.546   1.313 -0.5669 -2.5532 -1.0609
 9052SOL    HW238619   4.070   3.617   1.402 -1.1880 -0.3866 -0.2501
 9053SOL     OW38620   0.130   0.857  13.122  0.3381 -0.1387  0.0608
 9053SOL    HW138621   0.168   0.937  13.159 -0.7071 -0.1841  1.2564
 9053SOL    HW238622   0.149   0.873  13.030  0.0080 -0.1096 -0.0026
 9054SOL     OW38623   3.350   3.721   0.968  0.4919  0.2113 -0.1449
 9054SOL    HW138624   3.380   3.670   0.893 -0.6997 -0.0100 -0.4553
 9054SOL    HW238625   3.275   3.766   0.930  0.3935 -0.6847 -1.0151
 9055SOL     OW38626   2.561   3.388   1.234  0.1888 -0.1622 -0.1359
 9055SOL    HW138627   2.507   3.341   1.297  0.7468  2.1447  2.0533
 9055SOL    HW238628   2.626   3.436   1.286 -0.0458 -1.7781  1.6352
 9056SOL     OW38629   3.052   1.885   5.077  0.7024 -0.0951  0.5408
 9056SOL    HW138630   3.051   1.795   5.045 -0.9108  0.5264 -1.1286
 9056SOL    HW238631   3.122   1.922   5.025  0.3634  1.3633  1.1365
 9057SOL     OW38632   4.163   2.943  13.963 -0.0511  0.4326 -0.2251
 9057SOL    HW138633   4.259   2.939  13.963 -0.0891 -0.3237  0.3529
 9057SOL    HW238634   4.153   3.002  14.038 -1.5265 -1.8306  1.3482
 9058SOL     OW38635   0.660   2.650   5.621  0.2947  0.3487 -0.1464
 9058SOL    HW138636   0.664   2.589   5.547 -0.1691  0.4972 -0.2967
 9058SOL    HW238637   0.564   2.652   5.628  0.2840  1.0749 -0.4275
 9059SOL     OW38638   2.982   4.389  12.837 -0.1011  0.5610 -0.2009
 9059SOL    HW138639   2.935   4.306  12.845  1.4256 -0.3169 -0.1634
 9059SOL    HW238640   3.009   4.408  12.927 -0.3452  0.7656 -0.1722
 9060SOL     OW38641   2.566   3.424   3.412 -0.1226  0.2921  0.3324
 9060SOL    HW138642   2.546   3.348   3.358  0.0119  1.5792 -1.5407
 9060SOL    HW238643   2.477   3.460   3.412 -0.1305  0.2902  1.4633
 9061SOL     OW38644   3.084   3.944   6.394 -0.5043  0.4622 -0.2499
 9061SOL    HW138645   3.035   3.866   6.420 -2.7930  1.3838 -1.7057
 9061SOL    HW238646   3.041   3.971   6.313 -2.5013  0.4463  0.8038
 9062SOL     OW38647   1.183   2.386   8.812  0.3297 -0.1111 -0.2565
 9062SOL    HW138648   1.147   2.380   8.901  0.1280  1.5737 -0.2228
 9062SOL    HW238649   1.161   2.477   8.794 -0.4359 -0.7012 -2.2450
 9063SOL     OW38650   3.971   2.249   8.779 -0.1754  0.2984 -0.1585
 9063SOL    HW138651   3.990   2.319   8.716  1.4787 -0.9993 -1.1044
 9063SOL    HW238652   3.964   2.181   8.713 -0.2262  1.6277 -1.5277
 9064SOL     OW38653   1.888   0.944   6.168 -0.2804  0.0688 -0.2826
 9064SOL    HW138654   1.884   0.984   6.255 -0.4305 -0.4191 -0.0646
 9064SOL    HW238655   1.981   0.956   6.148  0.3730 -0.5848  2.4104
 9065SOL     OW38656   3.113   4.542  10.088 -0.3377  0.1599  0.1675
 9065SOL    HW138657   3.019   4.527  10.095 -0.1011 -0.7252  1.5318
 9065SOL    HW238658   3.154   4.457  10.104 -2.0630 -0.5982  0.5542
 9066SOL     OW38659   3.888   1.549   8.397  0.3710  0.0455  0.0337
 9066SOL    HW138660   3.944   1.498   8.339  0.8214 -0.6610  1.0913
 9066SOL    HW238661   3.831   1.479   8.428  1.4758 -0.5326  0.7331
 9067SOL     OW38662   4.311   0.917   4.895 -0.6057  0.1155  0.5241
 9067SOL    HW138663   4.273   0.923   4.982 -0.1031 -0.5696  0.7934
 9067SOL    HW238664   4.285   1.002   4.859 -2.9410 -0.7122  0.2151
 9068SOL     OW38665   0.227   0.661   3.281  0.8979  0.1871 -0.3714
 9068SOL    HW138666   0.210   0.753   3.263  2.0462  0.3629 -0.5550
 9068SOL    HW238667   0.289   0.672   3.354 -0.7841 -1.9683  1.3993
 9069SOL     OW38668   4.375   3.612   8.505  0.7181 -0.3308  0.3416
 9069SOL    HW138669   4.283   3.626   8.483  0.5403 -0.1118  1.2200
 9069SOL    HW238670   4.389   3.521   8.480  1.0420 -0.1499 -0.1361
 9070SOL     OW38671   4.332   0.578   2.773 -0.1502 -0.4020  0.0366
 9070SOL    HW138672   4.310   0.629   2.694  3.0322  0.4064 -0.3190
 9070SOL    HW238673   4.422   0.606   2.791 -0.1591 -1.5018  1.7189
 9071SOL     OW38674   1.490   2.740   3.517 -0.9218 -0.1904 -0.3958
 9071SOL    HW138675   1.475   2.824   3.472 -3.9777 -0.8988 -0.7243
 9071SOL    HW238676   1.449   2.771   3.599 -0.1472 -1.6828  0.5470
 9072SOL     OW38677   0.633   2.224   7.763  0.2895 -0.2985  0.3590
 9072SOL    HW138678   0.574   2.179   7.822 -0.3422 -2.6259 -2.0622
 9072SOL    HW238679   0.672   2.288   7.823  0.9171  0.5124 -0.8929
 9073SOL     OW38680   1.981   0.973  12.096 -0.2241  0.3121  0.4539
 9073SOL    HW138681   1.977   0.877  12.099  0.7055  0.2228 -1.1235
 9073SOL    HW238682   1.985   0.989  12.001 -0.8025 -0.3035  0.3251
 9074SOL     OW38683   3.428   1.105   6.591  0.3383  0.2756 -0.7261
 9074SOL    HW138684   3.508   1.129   6.544  0.9866  0.5978  0.5461
 9074SOL    HW238685   3.451   1.022   6.632  0.0202  0.5768  0.0579
 9075SOL     OW38686   4.658   0.113   9.966  1.0074  0.2425  0.3653
 9075SOL    HW138687   4.676   0.207   9.956 -3.9318  0.8396 -2.8910
 9075SOL    HW238688   4.611   0.098   9.884  0.1101  0.6523  0.8081
 9076SOL     OW38689   1.810   3.619   1.330  0.8962 -0.1143  0.0548
 9076SOL    HW138690   1.802   3.544   1.272  1.1293 -0.4096  0.4017
 9076SOL    HW238691   1.848   3.580   1.409 -1.0674  1.2070  1.6946
 9077SOL     OW38692   2.482   0.109   5.165 -0.5143  0.0065 -0.7060
 9077SOL    HW138693   2.545   0.181   5.169  1.0392 -1.3772  0.0601
 9077SOL    HW238694   2.488   0.077   5.075  0.1566  0.0247 -0.6686
 9078SOL     OW38695   4.532   1.895   0.108 -0.1586 -0.0794 -0.1919
 9078SOL    HW138696   4.549   1.868   0.017 -0.0340  0.7512 -0.4119
 9078SOL    HW238697   4.606   1.859   0.156  0.8152  3.0468  0.6673
 9079SOL     OW38698   0.704   3.204   9.437 -0.3513 -0.0841  0.4238
 9079SOL    HW138699   0.737   3.291   9.417  2.0057 -0.6228  1.9085
 9079SOL    HW238700   0.681   3.223   9.528 -1.9612 -0.6111  0.1207
 9080SOL     OW38701   1.436   4.138   6.091 -0.3970  0.2975 -0.0935
 9080SOL    HW138702   1.402   4.225   6.074  0.5664  0.8058  0.5867
 9080SOL    HW238703   1.518   4.142   6.043  0.2852 -0.6929  0.9767
 9081SOL     OW38704   1.903   0.621  13.455 -0.1910 -0.4609 -0.5400
 9081SOL    HW138705   1.988   0.596  13.419  0.1754  1.1601 -0.8033
 9081SOL    HW238706   1.861   0.538  13.478 -0.4971  0.2131  1.2979
 9082SOL     OW38707   0.010   3.648   3.193  0.6729 -0.2448 -0.0451
 9082SOL    HW138708   0.063   3.632   3.115 -0.9868  1.3540 -1.5162
 9082SOL    HW238709   0.030   3.570   3.245  0.9464  1.1825  1.9865
 9083SOL     OW38710   2.568   3.377  17.537  0.1329 -0.5477 -0.3681
 9083SOL    HW138711   2.496   3.395  17.598  0.0317 -1.7693 -0.1344
 9083SOL    HW238712   2.548   3.285  17.525  1.3556 -0.7310 -0.9891
 9084SOL     OW38713   0.868   1.324   9.472 -0.0036 -0.4591  0.2479
 9084SOL    HW138714   0.944   1.328   9.530 -0.5849 -2.1833  1.1410
 9084SOL    HW238715   0.792   1.338   9.529  0.9001 -0.2836  1.3997
 9085SOL     OW38716   2.665   0.741  15.069  0.5126 -0.4214 -0.0176
 9085SOL    HW138717   2.608   0.677  15.112  0.9222 -2.1729 -2.1193
 9085SOL    HW238718   2.742   0.738  15.126  1.5255 -1.0573 -1.4036
 9086SOL     OW38719   3.308   3.118  15.650  0.3456 -0.0116  0.1296
 9086SOL    HW138720   3.221   3.158  15.651  0.0054 -0.7167 -0.3305
 9086SOL    HW238721   3.342   3.181  15.713  0.0163 -0.1696  0.4665
 9087SOL     OW38722   0.609   3.391   9.698 -0.4100 -0.1394  0.9157
 9087SOL    HW138723   0.526   3.435   9.679 -0.3696 -0.5349 -0.2162
 9087SOL    HW238724   0.579   3.315   9.748  0.3667  0.2255  1.9191
 9088SOL     OW38725   4.099   3.828   2.664 -0.8033  0.3646 -0.2454
 9088SOL    HW138726   4.049   3.752   2.635  0.5251 -0.9156  0.8998
 9088SOL    HW238727   4.078   3.895   2.598 -1.4745 -1.3598 -1.7719
 9089SOL     OW38728   2.001   2.834   9.119  0.4668  0.1945  0.2525
 9089SOL    HW138729   2.070   2.882   9.165 -0.4023 -0.2052  1.9698
 9089SOL    HW238730   1.925   2.837   9.176 -1.4186 -0.2617 -2.2226
 9090SOL     OW38731   4.000   2.994   4.078 -0.1841 -0.3096 -1.1470
 9090SOL    HW138732   3.999   3.081   4.038 -1.1721  0.4011  0.4204
 9090SOL    HW238733   3.981   2.943   3.998 -3.6205  1.1436 -1.2802
 9091SOL     OW38734   1.491   2.204   7.312  0.0062 -0.1849  0.3138
 9091SOL    HW138735   1.564   2.265   7.298 -2.8125  2.7766 -1.3846
 9091SOL    HW238736   1.540   2.139   7.363 -2.2128 -1.2316  1.1091
 9092SOL     OW38737   1.923   1.217   5.375 -0.1983 -0.1791 -0.0328
 9092SOL    HW138738   1.905   1.125   5.390  0.4673 -0.0697  1.4602
 9092SOL    HW238739   1.839   1.252   5.405 -0.9688  1.1240 -3.7031
 9093SOL     OW38740   0.740   2.664   6.115  0.0155 -0.2433  0.2316
 9093SOL    HW138741   0.658   2.676   6.069  0.5411  3.0423  0.1762
 9093SOL    HW238742   0.718   2.587   6.168  0.7575  0.3579  1.4390
 9094SOL     OW38743   0.254   4.263   2.972 -0.4534 -0.2533 -0.3353
 9094SOL    HW138744   0.275   4.185   2.921 -0.2817 -0.7090  0.4136
 9094SOL    HW238745   0.212   4.322   2.910  0.6019  0.3235 -0.4995
 9095SOL     OW38746   1.054   1.465   6.831 -0.3714  0.3374  0.1127
 9095SOL    HW138747   0.970   1.419   6.823  0.3098 -0.8622 -0.1305
 9095SOL    HW238748   1.116   1.435   6.765 -0.4946  2.0858 -0.8193
 9096SOL     OW38749   0.006   0.570   3.408  0.0042 -0.4608  0.5440
 9096SOL    HW138750   0.093   0.588   3.372 -0.1174 -0.6766  0.1319
 9096SOL    HW238751   0.009   0.631   3.480 -0.2598 -0.6579  0.7197
 9097SOL     OW38752   2.979   1.281  12.327 -0.7953  0.6365  0.1330
 9097SOL    HW138753   2.987   1.284  12.422  2.5368  0.5976 -0.1608
 9097SOL    HW238754   3.071   1.286  12.300 -0.9623 -0.7668 -0.6978
 9098SOL     OW38755   0.753   1.771   4.576  0.2909 -0.7707 -0.4668
 9098SOL    HW138756   0.844   1.796   4.587 -0.5517  0.4439  3.8758
 9098SOL    HW238757   0.752   1.753   4.482  1.9683  0.0227 -0.6316
 9099SOL     OW38758   4.273   0.053   5.611 -0.1597  0.1550 -0.4579
 9099SOL    HW138759   4.349   0.031   5.558  0.1335 -0.1785  0.1030
 9099SOL    HW238760   4.262   0.148   5.604 -2.9338 -0.2284 -1.2525
 9100SOL     OW38761   3.544   4.489  17.378 -0.7134  0.0279  0.7496
 9100SOL    HW138762   3.494   4.570  17.363  1.8818  1.5741  0.3751
 9100SOL    HW238763   3.598   4.511  17.453  1.0621 -1.0782 -0.2114
 9101SOL     OW38764   1.494   3.340   3.066  0.2241  0.0313  0.1321
 9101SOL    HW138765   1.408   3.336   3.024  1.6321  0.4861 -2.8667
 9101SOL    HW238766   1.508   3.431   3.039  1.2704  0.0411  0.6987
 9102SOL     OW38767   0.053   2.713   3.150  0.4662 -0.4425 -0.0569
 9102SOL    HW138768   4.719   2.654   3.201 -0.9384  0.4875 -0.4928
 9102SOL    HW238769   0.033   2.681   3.062 -0.4263  0.3582 -0.1372
 9103SOL     OW38770   2.004   2.063   4.034 -0.0853 -0.1865 -0.1886
 9103SOL    HW138771   2.076   2.103   4.082  0.6258 -0.5635 -0.9515
 9103SOL    HW238772   1.932   2.118   4.065  0.5478  0.1379  0.6904
 9104SOL     OW38773   0.857   4.141   7.720  0.0238  0.2922  0.3436
 9104SOL    HW138774   0.805   4.157   7.799 -1.4187 -0.4050 -0.4723
 9104SOL    HW238775   0.802   4.132   7.643  1.5570  0.9586 -0.8365
 9105SOL     OW38776   1.475   3.381  15.040  0.2120  0.8393  0.6003
 9105SOL    HW138777   1.418   3.422  15.104 -1.0722  0.1580 -0.1211
 9105SOL    HW238778   1.492   3.295  15.079 -0.5404  1.1009  1.4954
 9106SOL     OW38779   1.361   2.603   6.443 -0.3847  0.3572 -0.1166
 9106SOL    HW138780   1.445   2.570   6.476 -0.5261 -0.8160 -0.9196
 9106SOL    HW238781   1.337   2.523   6.397 -0.0987  0.3343 -0.2223
 9107SOL     OW38782   2.714   0.889  12.382  0.4379  0.4901 -0.0300
 9107SOL    HW138783   2.648   0.921  12.321 -0.7390 -2.0706 -0.1209
 9107SOL    HW238784   2.728   0.797  12.358 -0.6386  0.5856 -1.0346
 9108SOL     OW38785   0.994   1.696   7.229 -0.3963  0.1965  0.5084
 9108SOL    HW138786   0.965   1.786   7.220 -1.2839 -0.0710  0.7030
 9108SOL    HW238787   1.012   1.699   7.323  1.3042  1.0826  0.1618
 9109SOL     OW38788   0.568   3.685   2.689  0.4567 -0.0857 -0.0091
 9109SOL    HW138789   0.526   3.771   2.695  1.2159  0.3164 -0.5670
 9109SOL    HW238790   0.642   3.688   2.749  0.7396  3.1004 -0.4982
 9110SOL     OW38791   4.696   1.096   4.562  0.7719  0.0802 -0.6399
 9110SOL    HW138792   4.620   1.070   4.614  0.7116 -0.5594 -1.0434
 9110SOL    HW238793   4.698   1.016   4.510 -1.8926 -0.7744  0.5424
 9111SOL     OW38794   1.075   3.324   1.610  0.1842 -0.4810 -0.3280
 9111SOL    HW138795   1.097   3.400   1.555  0.0843 -1.1307 -1.2700
 9111SOL    HW238796   1.095   3.253   1.549 -0.8701 -1.2216  0.1886
 9112SOL     OW38797   4.532   1.295   7.240  0.3325  0.7609  0.1708
 9112SOL    HW138798   4.555   1.254   7.157 -1.3224  1.6182 -0.7111
 9112SOL    HW238799   4.529   1.220   7.300  0.2404  1.1346  0.6377
 9113SOL     OW38800   4.159   2.392   3.714  0.1933  0.3323 -0.2284
 9113SOL    HW138801   4.199   2.478   3.728  1.3732 -0.3948  0.8792
 9113SOL    HW238802   4.104   2.407   3.637 -0.3412 -0.0488  0.0812
 9114SOL     OW38803   0.324   4.473   7.040  0.2845 -0.4253  0.1141
 9114SOL    HW138804   0.234   4.501   7.058  0.8317  1.7444 -0.5616
 9114SOL    HW238805   0.315   4.380   7.061  1.1942 -0.5332  0.0270
 9115SOL     OW38806   4.553   0.966   3.741 -0.0575  0.0455 -0.0204
 9115SOL    HW138807   4.618   0.937   3.805 -0.2247 -2.6376 -1.0859
 9115SOL    HW238808   4.473   0.949   3.790  1.1381 -0.6851  1.6833
 9116SOL     OW38809   1.156   4.117   3.994  0.2163  0.3130  0.0378
 9116SOL    HW138810   1.161   4.022   4.005  3.4524  0.5192  0.5005
 9116SOL    HW238811   1.063   4.120   4.016  0.4494  0.6546  0.9931
 9117SOL     OW38812   3.814   3.684   5.626  0.2840 -0.3281 -0.0742
 9117SOL    HW138813   3.906   3.686   5.598 -0.1295 -0.0137 -1.4433
 9117SOL    HW238814   3.815   3.687   5.721 -1.3740  2.3252 -0.1170
 9118SOL     OW38815   1.575   1.492   8.229  0.3095 -0.1621  0.3607
 9118SOL    HW138816   1.503   1.477   8.290  1.6243 -0.2849  1.9135
 9118SOL    HW238817   1.609   1.403   8.241 -2.9453 -1.3560  0.4557
 9119SOL     OW38818   1.966   1.662  13.657  0.0792 -0.2417  0.6924
 9119SOL    HW138819   2.004   1.597  13.598 -2.6883 -0.2421 -1.1078
 9119SOL    HW238820   2.004   1.636  13.741  0.9566  0.1532  0.4209
 9120SOL     OW38821   2.356   0.677   9.297 -0.3517  0.3338  0.0919
 9120SOL    HW138822   2.443   0.646   9.270 -0.7575 -1.6324  1.0516
 9120SOL    HW238823   2.372   0.736   9.371  1.9100 -1.0900  0.7709
 9121SOL     OW38824   4.403   4.662   9.196  0.6838  0.0605 -0.1811
 9121SOL    HW138825   4.482   4.681   9.247 -0.0667  1.0662  0.6060
 9121SOL    HW238826   4.354   4.641   9.275  0.3213 -3.5231 -1.3450
 9122SOL     OW38827   2.155   2.851   6.098 -0.4405 -0.3404 -0.0826
 9122SOL    HW138828   2.080   2.906   6.121 -0.4645 -0.4835  0.1857
 9122SOL    HW238829   2.187   2.813   6.180 -0.5169 -0.6205 -0.1808
 9123SOL     OW38830   0.823   4.099   4.728 -0.7615  0.2099 -0.0887
 9123SOL    HW138831   0.916   4.096   4.704 -0.4851 -1.8698  1.2288
 9123SOL    HW238832   0.789   4.059   4.649 -0.1433 -1.8451  0.6690
 9124SOL     OW38833   3.813   0.638   1.814  0.0477  0.3914  0.4567
 9124SOL    HW138834   3.750   0.696   1.856  0.6686  1.1230  0.3634
 9124SOL    HW238835   3.849   0.595   1.892 -1.8295  0.0920  1.1596
 9125SOL     OW38836   2.583   3.592  10.685  0.4992 -0.4024  0.1535
 9125SOL    HW138837   2.621   3.599  10.772  1.6942  0.5157 -0.4495
 9125SOL    HW238838   2.510   3.531  10.699  1.0324 -1.2800 -0.8772
 9126SOL     OW38839   4.677   0.279   2.880 -0.1411  0.4705  0.2648
 9126SOL    HW138840   4.719   0.246   2.960  2.5739  2.2114 -0.4556
 9126SOL    HW238841   0.023   0.268   2.813 -1.0152 -1.9842 -0.2358
 9127SOL     OW38842   2.585   1.649   9.391  0.2243 -0.1150 -0.2049
 9127SOL    HW138843   2.597   1.554   9.401  1.6217 -0.1360 -2.1576
 9127SOL    HW238844   2.672   1.673   9.360  0.1640  1.5292  0.9402
 9128SOL     OW38845   1.066   4.642   8.564  0.0278 -0.1476 -0.4046
 9128SOL    HW138846   0.976   4.612   8.575 -0.4265  0.7483 -1.6672
 9128SOL    HW238847   1.118   4.600   8.632  0.4474 -0.0516 -0.6643
 9129SOL     OW38848   1.424   2.161   5.534 -0.1592 -0.1429  0.3091
 9129SOL    HW138849   1.457   2.089   5.480  0.1557 -0.0757  0.4104
 9129SOL    HW238850   1.441   2.234   5.475 -0.1818  0.7783  1.4376
 9130SOL     OW38851   1.109   2.738   4.321  0.5686  0.5735  0.5275
 9130SOL    HW138852   1.191   2.726   4.370 -0.1800 -1.5635  1.2365
 9130SOL    HW238853   1.075   2.653   4.296 -0.1975  1.1016 -0.2482
 9131SOL     OW38854   0.337   1.283   7.488 -0.3979  0.1368 -0.2437
 9131SOL    HW138855   0.427   1.285   7.456 -0.8845 -1.3557 -1.7063
 9131SOL    HW238856   0.321   1.357   7.547 -0.0434  0.3302 -0.3872
 9132SOL     OW38857   2.083   4.249   3.604  0.5944 -0.8736 -0.0273
 9132SOL    HW138858   2.084   4.315   3.536 -0.4747 -0.2310  0.5851
 9132SOL    HW238859   1.990   4.228   3.601  0.5024 -0.2975 -0.9653
 9133SOL     OW38860   4.607   2.661  17.238  0.7192  0.0150  0.4680
 9133SOL    HW138861   4.524   2.706  17.221  1.2376  1.8483  2.7702
 9133SOL    HW238862   4.667   2.724  17.199  0.8755 -0.6991 -0.4480
 9134SOL     OW38863   3.881   4.476   6.985  0.3129 -0.4660  0.2226
 9134SOL    HW138864   3.877   4.553   6.928  0.0836  1.0313  2.2458
 9134SOL    HW238865   3.912   4.416   6.917  0.8398  0.0848 -0.0224
 9135SOL     OW38866   3.363   0.938   5.232  0.4587  0.0138 -0.0399
 9135SOL    HW138867   3.280   0.983   5.246 -0.0898 -1.3998  1.1748
 9135SOL    HW238868   3.340   0.855   5.191  0.0104  0.2275 -0.2252
 9136SOL     OW38869   0.821   3.052   5.583  0.1143  0.1705  0.0872
 9136SOL    HW138870   0.842   3.042   5.676 -0.5084  1.6124  0.3837
 9136SOL    HW238871   0.814   2.961   5.551  2.4631 -0.1680  0.5449
 9137SOL     OW38872   2.797   3.954  15.551 -0.2902  0.1980  0.1143
 9137SOL    HW138873   2.889   3.937  15.534  0.3826  1.0888  2.9409
 9137SOL    HW238874   2.787   4.034  15.499 -2.4126 -0.6364 -0.7726
 9138SOL     OW38875   4.233   1.360  17.343 -0.5006  0.5421  0.0433
 9138SOL    HW138876   4.165   1.368  17.277 -1.3402  2.6140  1.1587
 9138SOL    HW238877   4.311   1.380  17.290 -0.4247 -0.0002 -0.0525
 9139SOL     OW38878   4.559   1.491   8.836 -0.2765  0.2142  0.0707
 9139SOL    HW138879   4.583   1.471   8.926 -0.4695  0.0418  0.0835
 9139SOL    HW238880   4.467   1.519   8.841  0.0990  1.5568 -0.4393
 9140SOL     OW38881   4.342   2.182   3.387 -0.1054 -0.6906 -0.0509
 9140SOL    HW138882   4.402   2.108   3.395 -0.1745 -0.6506  0.8799
 9140SOL    HW238883   4.257   2.142   3.407 -0.8594  2.0403  2.2705
 9141SOL     OW38884   2.470   2.798   4.221 -0.2246 -0.7856 -0.8566
 9141SOL    HW138885   2.390   2.780   4.271  0.4770 -0.8934  0.2355
 9141SOL    HW238886   2.447   2.765   4.134  0.3095 -1.4888 -0.7285
 9142SOL     OW38887   3.924   1.679   9.632  0.6727 -0.4277  0.5660
 9142SOL    HW138888   3.858   1.640   9.574  1.2220 -0.9890  0.3255
 9142SOL    HW238889   3.893   1.762   9.669  0.9971 -0.4568  0.9009
 9143SOL     OW38890   4.510   4.275   5.983  0.3274  0.0216  0.2348
 9143SOL    HW138891   4.573   4.325   5.932  0.8865 -0.3414  0.5672
 9143SOL    HW238892   4.451   4.242   5.915  2.0334 -0.7952 -0.8685
 9144SOL     OW38893   0.213   2.778  17.183 -0.1353  0.6343 -0.1739
 9144SOL    HW138894   0.308   2.783  17.180 -0.1974  0.6619 -1.8663
 9144SOL    HW238895   0.179   2.842  17.121  1.3768  1.2916 -0.3271
 9145SOL     OW38896   0.021   0.476   1.439  0.2868 -0.9378  0.2350
 9145SOL    HW138897   4.654   0.468   1.401 -0.8137 -3.1485  3.2815
 9145SOL    HW238898   0.040   0.568   1.421 -0.2041 -0.7141  0.8557
 9146SOL     OW38899   2.103   3.465   0.840 -0.1545  0.7658 -0.5053
 9146SOL    HW138900   2.168   3.402   0.809  0.3426  1.3372 -0.6197
 9146SOL    HW238901   2.044   3.476   0.765  0.4994  2.0244 -0.8433
 9147SOL     OW38902   1.194   3.514   5.368  0.1617  0.0026 -0.5361
 9147SOL    HW138903   1.151   3.482   5.448  0.4670  3.2289  0.8958
 9147SOL    HW238904   1.233   3.434   5.333  0.2519  0.3787 -1.2845
 9148SOL     OW38905   1.670   3.527   6.430  0.2898 -0.1384 -0.0059
 9148SOL    HW138906   1.714   3.444   6.411  0.8519  0.5310 -1.5776
 9148SOL    HW238907   1.716   3.559   6.508 -1.6452 -0.6776  1.3571
 9149SOL     OW38908   0.284   3.535  17.045  0.4919 -0.9097  0.3927
 9149SOL    HW138909   0.272   3.497  16.958  3.6462  1.7271 -1.2047
 9149SOL    HW238910   0.353   3.598  17.022 -1.5019  0.9165 -0.6341
 9150SOL     OW38911   3.972   1.304  16.291 -0.6354  0.0798 -0.8538
 9150SOL    HW138912   4.050   1.357  16.275 -1.0756  0.6140 -1.2609
 9150SOL    HW238913   3.904   1.348  16.239 -1.2293  1.4729  1.1294
 9151SOL     OW38914   0.013   4.017  16.396 -0.0808 -0.1342 -0.0988
 9151SOL    HW138915   0.036   4.110  16.396  1.6348 -0.5670  1.8162
 9151SOL    HW238916   0.032   3.994  16.305  3.6687  0.9503  0.4404
 9152SOL     OW38917   4.228   3.648   9.129 -0.0375  0.1533 -0.0919
 9152SOL    HW138918   4.249   3.643   9.223 -1.2538 -1.1354  0.1177
 9152SOL    HW238919   4.196   3.558   9.121 -0.1976  0.0814  1.3257
 9153SOL     OW38920   3.049   1.582   2.960 -0.2152  0.1457 -0.4550
 9153SOL    HW138921   3.117   1.573   2.893  0.4013 -0.0724  0.1995
 9153SOL    HW238922   2.972   1.593   2.904 -1.1795  0.0079  0.8210
 9154SOL     OW38923   1.479   0.214   9.032 -0.3893  0.2084  0.2574
 9154SOL    HW138924   1.550   0.178   8.979 -1.2620 -3.2634  1.4367
 9154SOL    HW238925   1.461   0.141   9.091  1.1767 -0.0613  0.3965
 9155SOL     OW38926   3.830   0.287   6.836 -0.0308 -0.4652 -0.3047
 9155SOL    HW138927   3.832   0.366   6.781  0.8357  1.3980  2.3981
 9155SOL    HW238928   3.833   0.319   6.926 -0.1381 -0.2720 -0.3684
 9156SOL     OW38929   1.013   0.553   7.519 -0.3579 -0.3280  0.3928
 9156SOL    HW138930   0.973   0.568   7.605  2.2716  1.6371  1.2656
 9156SOL    HW238931   0.939   0.554   7.457  1.3167 -0.7809 -1.6271
 9157SOL     OW38932   0.240   2.339  16.705 -0.0611  0.3652  0.3054
 9157SOL    HW138933   0.315   2.395  16.687 -0.4520  0.0415 -2.2351
 9157SOL    HW238934   0.176   2.404  16.731  1.7337  2.2398  0.0148
 9158SOL     OW38935   1.744   1.318  16.513 -0.6115  0.5996  0.4669
 9158SOL    HW138936   1.735   1.224  16.498 -0.6150  0.4715  1.2804
 9158SOL    HW238937   1.839   1.326  16.511 -0.8532  3.6563  1.6888
 9159SOL     OW38938   2.287   1.553  13.859 -0.0000 -0.1185  0.1023
 9159SOL    HW138939   2.259   1.557  13.950 -0.2829 -1.1317  0.0588
 9159SOL    HW238940   2.226   1.488  13.824 -2.3379  1.1176  1.9022
 9160SOL     OW38941   4.587   2.881  17.076  0.1200 -0.0539 -0.3597
 9160SOL    HW138942   4.572   2.966  17.033  1.4411  0.1980 -0.3112
 9160SOL    HW238943   4.543   2.901  17.159  0.7671  0.2700 -0.0920
 9161SOL     OW38944   0.947   0.377   8.020  0.2130  0.0039  0.1569
 9161SOL    HW138945   0.913   0.291   8.045  0.8098 -0.0475  0.8159
 9161SOL    HW238946   0.922   0.425   8.100 -1.3278  0.1251 -0.3907
 9162SOL     OW38947   1.743   0.894   2.802  0.2916 -0.3860 -0.2211
 9162SOL    HW138948   1.656   0.856   2.790 -1.1417  2.9229 -0.1218
 9162SOL    HW238949   1.741   0.989   2.814  1.6359 -0.2914 -0.6597
 9163SOL     OW38950   2.671   3.444  16.127 -0.1943  0.3540  0.3727
 9163SOL    HW138951   2.591   3.488  16.097  0.1794  0.8633  0.1236
 9163SOL    HW238952   2.713   3.521  16.167 -0.4494  0.3309  0.6850
 9164SOL     OW38953   1.642   1.782   4.916  0.0544  0.6181 -0.6488
 9164SOL    HW138954   1.589   1.858   4.894 -1.9540 -0.6165 -0.0667
 9164SOL    HW238955   1.731   1.812   4.897 -0.1736  0.9531 -1.1823
 9165SOL     OW38956   2.051   2.799   4.082 -0.8560 -0.0813 -0.5929
 9165SOL    HW138957   2.117   2.834   4.022  1.4841 -2.0626  0.8389
 9165SOL    HW238958   1.970   2.820   4.035  0.0737  0.2873 -2.0297
 9166SOL     OW38959   0.851   4.544   4.834 -0.7021 -0.1013 -0.0207
 9166SOL    HW138960   0.804   4.463   4.814  0.7543 -0.9595  0.0496
 9166SOL    HW238961   0.768   4.591   4.843 -1.1436 -0.7829 -0.5152
 9167SOL     OW38962   3.010   1.852   5.614  0.5561  0.5690 -0.3761
 9167SOL    HW138963   3.006   1.937   5.659 -2.1088  0.2165  0.0871
 9167SOL    HW238964   3.027   1.882   5.525  0.5055  2.1192  0.1211
 9168SOL     OW38965   2.642   0.308   5.389 -0.2421 -0.3714  0.1312
 9168SOL    HW138966   2.650   0.331   5.297  2.2181  0.3200  0.5252
 9168SOL    HW238967   2.626   0.214   5.377  3.8129 -1.0051 -0.2972
 9169SOL     OW38968   2.281   0.751   5.905 -0.1812  0.1242 -0.4005
 9169SOL    HW138969   2.314   0.811   5.839  0.9046  0.3411  0.3321
 9169SOL    HW238970   2.270   0.671   5.854 -4.2430  0.3063  0.1939
 9170SOL     OW38971   3.364   2.032   6.005 -1.0139 -0.5037 -0.1379
 9170SOL    HW138972   3.413   1.991   6.077  0.7597 -1.1536 -1.7139
 9170SOL    HW238973   3.412   2.011   5.925 -1.8023 -0.9823 -0.4913
 9171SOL     OW38974   1.580   1.425   7.736  0.1977  0.0333 -0.5254
 9171SOL    HW138975   1.565   1.374   7.816 -1.3413  1.2956 -0.0140
 9171SOL    HW238976   1.512   1.493   7.743 -0.5301 -0.7217 -0.1596
 9172SOL     OW38977   0.955   4.143   9.246 -0.2454 -0.2254  0.0192
 9172SOL    HW138978   0.870   4.144   9.291 -1.6873 -0.5494 -2.7286
 9172SOL    HW238979   0.927   4.194   9.171 -1.5040 -0.6461  0.2113
 9173SOL     OW38980   0.736   1.180   7.350  0.7033  0.2922  0.3327
 9173SOL    HW138981   0.741   1.096   7.395  0.7395  0.5382  0.7914
 9173SOL    HW238982   0.714   1.227   7.431 -3.4241 -0.0537 -0.5994
 9174SOL     OW38983   2.722   2.885   4.726 -0.4454 -0.1884  0.3713
 9174SOL    HW138984   2.645   2.889   4.670  0.3063  0.4823 -0.6009
 9174SOL    HW238985   2.714   2.970   4.770 -0.8809  0.8915 -1.8130
 9175SOL     OW38986   0.856   3.049   0.601 -0.3277 -0.6852 -0.3844
 9175SOL    HW138987   0.768   3.062   0.635 -0.3488  2.6769 -1.7061
 9175SOL    HW238988   0.912   3.087   0.669 -0.9415  1.6702 -1.1832
 9176SOL     OW38989   0.268   0.788   8.068 -0.1310  0.1228 -0.1148
 9176SOL    HW138990   0.344   0.777   8.011 -1.2217 -2.2076 -1.1057
 9176SOL    HW238991   0.208   0.843   8.018  0.5098  0.9932  0.0709
 9177SOL     OW38992   1.181   3.086   3.291 -0.2134 -0.0456  0.3773
 9177SOL    HW138993   1.093   3.115   3.313 -0.5356  0.0611 -1.0059
 9177SOL    HW238994   1.164   3.013   3.231  1.0762  0.0356 -0.0938
 9178SOL     OW38995   0.844   3.381   4.934  0.0606  0.3463  0.3510
 9178SOL    HW138996   0.854   3.314   4.866  0.6736  2.2739 -1.4339
 9178SOL    HW238997   0.907   3.344   4.995 -0.1552  1.0933  1.0229
 9179SOL     OW38998   3.216   2.218   5.589 -0.1088  0.1681 -0.6621
 9179SOL    HW138999   3.243   2.126   5.597 -0.1406  0.1213 -1.0651
 9179SOL    HW239000   3.124   2.201   5.568  0.3682  0.0153 -2.6559
 9180SOL     OW39001   1.954   0.098   4.911 -0.3359 -0.1460 -0.0184
 9180SOL    HW139002   1.911   0.046   4.979 -0.7358 -0.8854 -0.8423
 9180SOL    HW239003   1.894   0.173   4.910 -1.6067 -1.1796 -1.2603
 9181SOL     OW39004   3.178   4.141   4.147 -0.2828 -0.0726 -0.5384
 9181SOL    HW139005   3.222   4.226   4.139 -1.4383  0.5341 -0.3206
 9181SOL    HW239006   3.108   4.149   4.083 -0.1294 -0.0957 -0.7087
 9182SOL     OW39007   2.371   2.687   4.638  0.1587  0.3021  0.0477
 9182SOL    HW139008   2.410   2.602   4.620 -2.0349 -0.4003 -1.5091
 9182SOL    HW239009   2.387   2.689   4.732  1.1344  0.2477 -0.1196
 9183SOL     OW39010   0.137   1.457   4.746  0.4716  0.8977 -0.1222
 9183SOL    HW139011   0.168   1.369   4.726 -0.8671  0.4754 -0.3651
 9183SOL    HW239012   0.054   1.458   4.699  0.6586 -1.0197 -0.4890
 9184SOL     OW39013   1.344   1.464   8.386 -0.6510  0.4170  0.3163
 9184SOL    HW139014   1.253   1.453   8.413 -0.3109  0.7178  1.5676
 9184SOL    HW239015   1.377   1.381   8.421 -1.0556 -0.0413 -0.3818
 9185SOL     OW39016   4.685   0.486  11.282  0.5365 -0.3329  0.3725
 9185SOL    HW139017   4.698   0.403  11.237  1.4735 -0.7609  1.4480
 9185SOL    HW239018   0.051   0.500  11.318  0.9141 -0.5059 -0.4695
 9186SOL     OW39019   3.792   4.692  13.348 -0.0813  0.2435  0.1160
 9186SOL    HW139020   3.774   4.598  13.340  1.0063 -0.0855  1.5738
 9186SOL    HW239021   3.874   4.690  13.298 -1.0069 -1.5414 -1.3201
 9187SOL     OW39022   4.333   1.078   7.441  0.6447  0.6080 -0.5985
 9187SOL    HW139023   4.278   1.022   7.495  1.0568  1.3648  0.6252
 9187SOL    HW239024   4.296   1.060   7.354  0.9193  1.3071 -0.8606
 9188SOL     OW39025   3.840   4.600  13.681  0.0238 -0.6639  0.0451
 9188SOL    HW139026   3.921   4.575  13.725  0.0991 -0.7575 -0.1493
 9188SOL    HW239027   3.855   4.678  13.627 -0.0295  1.9693  3.8177
 9189SOL     OW39028   1.988   0.573   2.008 -0.4195 -0.0851 -0.2257
 9189SOL    HW139029   2.073   0.616   2.003  0.4783 -1.9798 -1.3528
 9189SOL    HW239030   1.939   0.607   1.933 -0.0442 -1.0879 -0.9232
 9190SOL     OW39031   0.089   1.566   3.299  0.2856  0.1340  0.8576
 9190SOL    HW139032   0.084   1.659   3.279  1.7645  0.3962  1.7186
 9190SOL    HW239033   4.721   1.546   3.327 -0.1864 -1.1210 -1.5521
 9191SOL     OW39034   2.096   0.369  17.641 -0.3023  0.0972 -0.1424
 9191SOL    HW139035   2.174   0.314  17.636  1.2377  2.4008 -1.3140
 9191SOL    HW239036   2.134   0.428   0.019 -1.5380 -1.2939  1.8364
 9192SOL     OW39037   2.293   0.935   2.782 -0.5520 -0.2046  0.1994
 9192SOL    HW139038   2.214   0.910   2.733 -1.1192  1.6529  0.1716
 9192SOL    HW239039   2.306   1.020   2.741 -0.1043  0.2552  1.3057
 9193SOL     OW39040   2.290   2.016   4.510 -0.2120  0.7717 -0.8476
 9193SOL    HW139041   2.317   1.972   4.590 -0.6816 -0.9324 -1.6282
 9193SOL    HW239042   2.347   2.092   4.505  0.9350 -0.1473 -1.6939
 9194SOL     OW39043   2.958   2.889   4.179 -0.2898  0.6906 -0.0895
 9194SOL    HW139044   2.936   2.945   4.252 -2.7808  1.9081 -1.7797
 9194SOL    HW239045   2.877   2.838   4.182  0.4933 -0.5102  0.5536
 9195SOL     OW39046   0.910   4.539   4.270  0.6067 -0.0730  0.1277
 9195SOL    HW139047   0.905   4.455   4.223  1.3261  0.0432 -0.1562
 9195SOL    HW239048   0.899   4.501   4.357 -0.0972  1.1036  0.5589
 9196SOL     OW39049   3.632   3.049  12.043  0.0329 -0.0988 -0.1119
 9196SOL    HW139050   3.710   3.106  12.037  0.3501 -0.5335 -0.1249
 9196SOL    HW239051   3.600   3.066  12.132  2.1420  0.8810  0.4648
 9197SOL     OW39052   3.050   2.449   6.465 -0.1908 -0.5070  0.6348
 9197SOL    HW139053   3.086   2.401   6.539 -1.3897 -0.1038  1.4624
 9197SOL    HW239054   3.112   2.424   6.396 -1.6845 -0.2543 -0.8016
 9198SOL     OW39055   0.233   4.521   7.553 -0.1806 -0.0021 -0.1603
 9198SOL    HW139056   0.212   4.456   7.486 -1.1134 -0.3201  0.4378
 9198SOL    HW239057   0.188   4.593   7.510 -1.7699 -1.2311 -0.5779
 9199SOL     OW39058   3.457   4.526  14.828  0.0176  0.0397  0.3076
 9199SOL    HW139059   3.480   4.608  14.784  0.6368 -1.6621 -2.5007
 9199SOL    HW239060   3.487   4.456  14.770 -0.1289  0.5481 -0.3791
 9200SOL     OW39061   1.195   2.625  13.300 -0.3059  0.0059 -0.8033
 9200SOL    HW139062   1.250   2.578  13.236  1.0773  2.0390 -1.0870
 9200SOL    HW239063   1.234   2.590  13.380 -0.4478  0.5571 -0.5004
 9201SOL     OW39064   1.895   0.898   7.626 -0.3991 -0.0794 -0.2998
 9201SOL    HW139065   1.899   0.990   7.650 -0.7838 -0.0688 -0.2720
 9201SOL    HW239066   1.815   0.898   7.574 -0.0867  0.8613 -0.7703
 9202SOL     OW39067   3.712   4.452   2.088 -0.5594 -0.2272 -0.0493
 9202SOL    HW139068   3.797   4.493   2.072 -1.1641  2.1959  2.8327
 9202SOL    HW239069   3.747   4.391   2.153 -0.9319 -2.1336 -1.6565
 9203SOL     OW39070   1.388   0.643   8.620  0.1502  0.5993  0.0696
 9203SOL    HW139071   1.430   0.559   8.639 -0.8499  0.1676  0.3874
 9203SOL    HW239072   1.453   0.690   8.568 -0.2889  1.4015  0.2473
 9204SOL     OW39073   3.030   1.202   4.745 -0.1816 -0.4332 -0.2746
 9204SOL    HW139074   3.093   1.253   4.695  0.1781 -0.9573 -0.3609
 9204SOL    HW239075   2.959   1.266   4.740  1.6918  1.5678 -1.4943
 9205SOL     OW39076   3.155   4.361   0.509  0.1172 -0.2422  0.0080
 9205SOL    HW139077   3.120   4.410   0.583 -0.5184 -0.7058  0.0101
 9205SOL    HW239078   3.079   4.308   0.485  1.0211 -1.3327 -0.4312
 9206SOL     OW39079   3.088   2.070   3.802  0.3689  0.5280 -0.2602
 9206SOL    HW139080   3.103   2.156   3.841  0.2829  0.6597 -0.5177
 9206SOL    HW239081   3.095   2.082   3.707  0.8864  0.6618 -0.2060
 9207SOL     OW39082   1.464   0.425   6.244 -0.5322 -0.3540  0.2991
 9207SOL    HW139083   1.438   0.405   6.333 -1.6309  2.0866  0.5109
 9207SOL    HW239084   1.387   0.392   6.199 -0.3499 -2.8909  1.8551
 9208SOL     OW39085   2.394   1.400  15.503  0.2978  0.1716 -0.5181
 9208SOL    HW139086   2.489   1.399  15.492  0.2428  1.3077 -1.0393
 9208SOL    HW239087   2.371   1.310  15.477 -1.3864 -0.0774  1.8315
 9209SOL     OW39088   1.146   3.188  12.992 -0.0900  0.3026 -0.3300
 9209SOL    HW139089   1.185   3.198  13.079  1.9150 -1.4841 -1.0312
 9209SOL    HW239090   1.184   3.104  12.970 -0.1316  0.1855  0.0446
 9210SOL     OW39091   0.136   0.287   2.686 -0.3543 -0.0293  0.4202
 9210SOL    HW139092   0.155   0.283   2.593 -0.3817 -2.0501  0.5032
 9210SOL    HW239093   0.212   0.327   2.729 -1.0992  0.8738  0.8905
 9211SOL     OW39094   1.421   1.378  15.679 -0.3003 -0.4012  0.2766
 9211SOL    HW139095   1.460   1.291  15.692 -0.3325 -0.7613 -2.0379
 9211SOL    HW239096   1.436   1.420  15.763 -1.6029  0.2108  0.2052
 9212SOL     OW39097   4.221   1.119   0.136  0.0883  0.2685  0.1479
 9212SOL    HW139098   4.253   1.170   0.062 -0.8500  0.9134  0.1909
 9212SOL    HW239099   4.236   1.028   0.112  0.6291  1.2138 -3.0352
 9213SOL     OW39100   0.383   2.555  16.679 -0.9618  0.2262 -0.0975
 9213SOL    HW139101   0.349   2.578  16.593  0.8592 -0.0526 -0.9061
 9213SOL    HW239102   0.349   2.633  16.722 -1.6978  2.5407 -4.8861
 9214SOL     OW39103   3.486   4.111   3.818  0.4277 -0.2519  0.3767
 9214SOL    HW139104   3.546   4.176   3.857  0.2132  1.1651 -1.6514
 9214SOL    HW239105   3.518   4.127   3.729  1.0880  0.7086  0.7763
 9215SOL     OW39106   0.557   2.521   8.876  0.1005 -0.1458  0.1904
 9215SOL    HW139107   0.574   2.441   8.925  1.5386 -0.4509 -0.8232
 9215SOL    HW239108   0.619   2.501   8.806 -1.2000 -0.3243 -0.8992
 9216SOL     OW39109   4.368   0.014  17.070 -0.4164  0.4729  0.1947
 9216SOL    HW139110   4.298   4.694  17.121  1.8765 -3.0554  0.5092
 9216SOL    HW239111   4.395   0.084  17.129  0.6076  2.6718 -2.9427
 9217SOL     OW39112   3.215   1.815   8.171  0.6006  0.0823  0.8958
 9217SOL    HW139113   3.154   1.881   8.204  0.5984 -0.0553  1.1637
 9217SOL    HW239114   3.233   1.844   8.082 -1.0747  0.3495  0.6497
 9218SOL     OW39115   1.235   2.635  15.887 -0.8093 -0.3670  0.0440
 9218SOL    HW139116   1.156   2.644  15.834 -2.1107  2.3268  2.4333
 9218SOL    HW239117   1.225   2.545  15.918  2.5286 -1.2567 -1.4899
 9219SOL     OW39118   2.699   0.615  13.559 -0.4632  0.0299 -0.0835
 9219SOL    HW139119   2.779   0.571  13.531 -0.5056 -0.0816 -0.0290
 9219SOL    HW239120   2.675   0.663  13.479 -0.6575  0.9665  0.5376
 9220SOL     OW39121   4.264   3.305  15.074 -0.5056  0.1816  0.3701
 9220SOL    HW139122   4.278   3.397  15.095 -0.1002  0.0217  0.8106
 9220SOL    HW239123   4.313   3.269  15.149  0.2147  1.3987  0.4806
 9221SOL     OW39124   0.487   3.775  17.161  0.1277 -0.1633  0.2981
 9221SOL    HW139125   0.491   3.712  17.234 -1.8104 -0.0285  0.5011
 9221SOL    HW239126   0.521   3.719  17.091  0.2655 -0.0929  0.3074
 9222SOL     OW39127   3.516   3.450   7.131 -0.4632 -0.8394  0.2414
 9222SOL    HW139128   3.594   3.455   7.186 -0.7198 -1.5153  0.6729
 9222SOL    HW239129   3.457   3.389   7.176 -1.3714  0.6571  1.0871
 9223SOL     OW39130   4.002   0.368   6.083 -0.3658 -0.3352  0.5242
 9223SOL    HW139131   3.985   0.304   6.013 -0.9580  0.8064 -0.3885
 9223SOL    HW239132   4.003   0.451   6.034  1.4296 -0.5944  0.1410
 9224SOL     OW39133   0.510   3.540   6.020 -0.2355  0.3797 -0.3444
 9224SOL    HW139134   0.440   3.581   6.071  0.1003  0.0616  0.3684
 9224SOL    HW239135   0.584   3.573   6.071  1.0082 -2.2536 -0.4536
 9225SOL     OW39136   3.443   2.223   9.023 -0.0236 -0.2634 -0.1267
 9225SOL    HW139137   3.364   2.176   9.049  0.7461  0.3788  3.3925
 9225SOL    HW239138   3.414   2.249   8.936  0.0659 -1.1857 -0.4335
 9226SOL     OW39139   2.918   4.274  15.780  0.5244  0.1387 -0.1518
 9226SOL    HW139140   2.832   4.315  15.771  0.4336  0.3050  1.4652
 9226SOL    HW239141   2.969   4.341  15.734  1.4813 -0.2207  0.3825
 9227SOL     OW39142   0.747   0.358  13.733  1.0942 -0.1388  0.0888
 9227SOL    HW139143   0.705   0.281  13.770  1.9984  0.1860  1.7708
 9227SOL    HW239144   0.680   0.413  13.693  1.1759  0.2402  0.4776
 9228SOL     OW39145   0.812   1.309   5.477 -0.2135  0.3753  0.4626
 9228SOL    HW139146   0.905   1.285   5.471 -0.4944 -0.3879 -0.8380
 9228SOL    HW239147   0.797   1.361   5.399  1.8176 -2.6687 -1.9761
 9229SOL     OW39148   1.783   0.578   5.101 -0.0795  0.1224 -0.1526
 9229SOL    HW139149   1.717   0.609   5.039  0.6768  0.8167 -0.6062
 9229SOL    HW239150   1.861   0.612   5.056  1.3337 -2.7005  0.1852
 9230SOL     OW39151   4.134   3.821   4.690  0.5206 -0.7859 -0.1872
 9230SOL    HW139152   4.066   3.756   4.706 -0.0362  0.2129  1.5139
 9230SOL    HW239153   4.158   3.789   4.603 -1.1737 -0.7806 -0.6559
 9231SOL     OW39154   2.677   0.909  16.795  0.4250 -0.1702 -0.1853
 9231SOL    HW139155   2.659   0.987  16.846  0.7724  0.2634 -0.7341
 9231SOL    HW239156   2.692   0.949  16.710  1.8231  0.0741  0.1779
 9232SOL     OW39157   2.723   2.147   6.153  0.1337 -0.4740 -0.6622
 9232SOL    HW139158   2.720   2.132   6.247 -1.8427 -5.0082 -1.4573
 9232SOL    HW239159   2.744   2.060   6.117 -2.8845 -0.0233 -3.4634
 9233SOL     OW39160   0.231   0.823   2.853 -0.3939 -0.3503 -0.3498
 9233SOL    HW139161   0.225   0.899   2.794  0.2759 -1.1077 -1.3953
 9233SOL    HW239162   0.322   0.804   2.875  0.2075  1.0573 -1.6206
 9234SOL     OW39163   2.033   2.095  16.757 -0.0653  0.4252 -0.2466
 9234SOL    HW139164   2.057   2.069  16.668 -0.0518  0.1483 -0.1609
 9234SOL    HW239165   1.948   2.054  16.746  0.2780  0.0717 -1.5551
 9235SOL     OW39166   1.236   1.055  10.728  0.1441  0.3355  0.2498
 9235SOL    HW139167   1.169   1.109  10.686 -0.8350 -1.2991 -0.3373
 9235SOL    HW239168   1.205   0.967  10.706 -1.0243  0.2364  2.3097
 9236SOL     OW39169   2.788   3.134  16.388  1.0020 -0.6918  0.3685
 9236SOL    HW139170   2.747   3.132  16.301  1.1112  1.9444  0.2451
 9236SOL    HW239171   2.721   3.175  16.443  1.7732  1.5868 -0.4062
 9237SOL     OW39172   0.380   0.816   5.034  0.2451  0.3818 -0.1546
 9237SOL    HW139173   0.454   0.860   4.993 -0.5326 -0.4856 -2.4560
 9237SOL    HW239174   0.341   0.751   4.975  2.9896  0.4523 -2.0326
 9238SOL     OW39175   3.857   1.533  13.056  0.1022 -0.5690  0.0334
 9238SOL    HW139176   3.769   1.570  13.048 -0.1513 -0.7670  1.9345
 9238SOL    HW239177   3.911   1.608  13.031 -1.1251  0.5100  0.6388
 9239SOL     OW39178   0.368   2.507   9.462  0.1203 -0.0114  0.2086
 9239SOL    HW139179   0.363   2.435   9.526  1.6415 -0.3433 -0.0408
 9239SOL    HW239180   0.421   2.578   9.498 -0.6892  1.8436 -2.2694
 9240SOL     OW39181   1.572   2.145   3.543 -0.1626 -0.2117 -0.1230
 9240SOL    HW139182   1.575   2.240   3.539 -0.9108 -0.1809 -0.0351
 9240SOL    HW239183   1.525   2.133   3.460 -2.1104 -1.8381  1.2064
 9241SOL     OW39184   0.914   0.139   1.758  0.4295  0.7216 -0.1708
 9241SOL    HW139185   0.914   0.067   1.695 -1.2555  1.0008 -0.4958
 9241SOL    HW239186   0.962   0.097   1.829  0.7214 -2.2088 -2.1162
 9242SOL     OW39187   2.291   1.801  11.764 -0.0767 -0.8102 -0.1212
 9242SOL    HW139188   2.352   1.870  11.738  0.7250 -0.0872  3.6481
 9242SOL    HW239189   2.261   1.774  11.677  3.3301 -0.0160 -1.5044
 9243SOL     OW39190   2.473   2.252   5.904  0.2213 -0.1759 -0.1768
 9243SOL    HW139191   2.435   2.274   5.819  1.3106 -2.8323 -1.3348
 9243SOL    HW239192   2.519   2.169   5.891  1.7528  0.7546 -0.7403
 9244SOL     OW39193   2.022   3.827   5.769 -0.7818  0.0140 -0.5453
 9244SOL    HW139194   1.946   3.776   5.793 -0.1935 -0.2236  0.7893
 9244SOL    HW239195   2.064   3.851   5.851 -0.7535  1.7177 -1.0395
 9245SOL     OW39196   3.861   4.227  15.385  0.1796 -0.4007 -0.0542
 9245SOL    HW139197   3.785   4.248  15.440 -0.6030 -0.8405 -0.9576
 9245SOL    HW239198   3.879   4.318  15.360  0.1261 -0.5007 -0.4512
 9246SOL     OW39199   1.849   4.467  15.013  0.0610 -0.0013  0.4471
 9246SOL    HW139200   1.920   4.526  15.038  0.2591 -0.0195 -0.0718
 9246SOL    HW239201   1.870   4.477  14.920 -0.7861 -1.8704  0.0482
 9247SOL     OW39202   1.794   3.653   5.477  0.0361 -0.4811  0.2064
 9247SOL    HW139203   1.878   3.638   5.434  0.0059 -1.8552  0.6367
 9247SOL    HW239204   1.759   3.565   5.493  0.1732 -0.0165  3.0285
 9248SOL     OW39205   3.920   0.378   0.112 -0.3437  0.0252  0.0499
 9248SOL    HW139206   3.998   0.352   0.161 -2.4584 -2.3505  2.1738
 9248SOL    HW239207   3.941   0.470   0.102 -0.5180  0.3744  3.0642
 9249SOL     OW39208   2.164   3.965   8.531 -0.3331  0.6236 -0.3990
 9249SOL    HW139209   2.090   4.023   8.548 -0.0490  0.8474  0.0622
 9249SOL    HW239210   2.121   3.905   8.470  0.4475 -0.1132 -0.2178
 9250SOL     OW39211   1.449   0.001   9.429 -0.0876 -0.4872  0.4458
 9250SOL    HW139212   1.528   4.671   9.441  0.6283  1.0659  2.3023
 9250SOL    HW239213   1.475   0.064   9.362  0.8937  1.2136  2.4304
 9251SOL     OW39214   1.525   0.477  11.122 -0.0051 -0.5172  0.3784
 9251SOL    HW139215   1.596   0.487  11.058  0.0983 -2.5196  0.1801
 9251SOL    HW239216   1.452   0.507  11.067 -0.3001  1.8208  2.0588
 9252SOL     OW39217   1.342   3.525  13.261  0.0921  0.2009 -0.5134
 9252SOL    HW139218   1.334   3.455  13.325 -0.5098  0.3588 -0.4115
 9252SOL    HW239219   1.420   3.572  13.288 -0.8374  2.1908 -1.2796
 9253SOL     OW39220   2.908   2.808   2.575  0.8744 -0.1889 -0.3219
 9253SOL    HW139221   2.899   2.729   2.629 -0.4876 -0.2362 -0.6202
 9253SOL    HW239222   2.827   2.807   2.524  0.9727  1.3537 -0.5105
 9254SOL     OW39223   4.110   3.630   1.941 -0.0497 -0.3554 -0.2410
 9254SOL    HW139224   4.075   3.704   1.990 -0.7682 -1.3241  0.7220
 9254SOL    HW239225   4.027   3.603   1.902  0.3049 -0.9939 -0.5614
 9255SOL     OW39226   3.933   1.007   8.061  0.2675  0.1526  0.2772
 9255SOL    HW139227   3.999   0.942   8.084 -0.2083 -0.3295  0.2742
 9255SOL    HW239228   3.856   0.977   8.110 -0.4595  0.7185 -0.5161
 9256SOL     OW39229   4.711   2.391   8.733  0.0440 -0.2370 -0.0633
 9256SOL    HW139230   0.003   2.486   8.736 -0.0239 -0.2149 -0.5062
 9256SOL    HW239231   4.686   2.376   8.642  1.8922  0.8062 -0.7308
 9257SOL     OW39232   3.642   3.455   5.530 -0.3437 -0.1425  0.7440
 9257SOL    HW139233   3.732   3.474   5.555  0.3376 -0.0872 -1.7434
 9257SOL    HW239234   3.605   3.542   5.543  1.4302  0.1580  3.7365
 9258SOL     OW39235   0.968   0.492   9.851  0.0924 -0.0076 -0.2692
 9258SOL    HW139236   1.002   0.580   9.837  0.3206  0.2505  1.9237
 9258SOL    HW239237   1.002   0.449   9.773  1.5164 -0.4374  0.5795
 9259SOL     OW39238   3.355   3.569   4.107 -0.3502 -0.0219 -0.0958
 9259SOL    HW139239   3.349   3.475   4.123  3.1108 -0.6572 -2.5116
 9259SOL    HW239240   3.400   3.604   4.185 -1.1426  0.5279  0.1168
 9260SOL     OW39241   0.639   3.408   7.726 -0.0442  0.3383  0.5634
 9260SOL    HW139242   0.631   3.324   7.772 -0.2701 -0.3950 -0.8091
 9260SOL    HW239243   0.733   3.420   7.719  0.0641 -0.1388  1.1973
 9261SOL     OW39244   4.503   1.429   3.124 -0.0194  0.4085 -0.6011
 9261SOL    HW139245   4.513   1.335   3.141 -2.1812  0.1789 -0.6552
 9261SOL    HW239246   4.447   1.437   3.047  0.8025 -0.9280 -1.3412
 9262SOL     OW39247   0.909   3.729   6.449 -0.3336 -0.0010  0.0451
 9262SOL    HW139248   0.965   3.662   6.408 -1.5075 -0.1071 -1.3728
 9262SOL    HW239249   0.869   3.692   6.527  0.8863  0.6925  1.0076
 9263SOL     OW39250   4.486   3.880   8.333  0.1899 -0.1065 -0.5509
 9263SOL    HW139251   4.460   3.814   8.269  0.4155 -0.3659 -0.3753
 9263SOL    HW239252   4.473   3.963   8.287 -1.5746 -0.6250 -0.9869
 9264SOL     OW39253   3.705   1.490   3.775 -0.0504  0.1212  0.0682
 9264SOL    HW139254   3.681   1.406   3.736  1.6468  0.3752 -1.5308
 9264SOL    HW239255   3.629   1.545   3.753 -1.1413 -2.1324 -1.7259
 9265SOL     OW39256   2.479   0.408   8.677  0.5246 -0.5751 -0.2870
 9265SOL    HW139257   2.559   0.384   8.630  0.1393  1.4454 -1.9676
 9265SOL    HW239258   2.430   0.458   8.612  2.2502  0.8732 -0.4976
 9266SOL     OW39259   2.196   0.975   9.171  0.4411  0.0560 -0.2190
 9266SOL    HW139260   2.176   0.971   9.078  2.1876 -0.7981 -0.5474
 9266SOL    HW239261   2.275   1.029   9.169  1.3090 -1.1608  0.9355
 9267SOL     OW39262   1.344   0.265  10.278  0.2698 -0.0494 -0.1116
 9267SOL    HW139263   1.256   0.276  10.242 -0.2244 -0.2486  1.0300
 9267SOL    HW239264   1.340   0.169  10.278  0.3158 -0.0472 -1.0074
 9268SOL     OW39265   3.797   4.644  14.825  0.5692 -0.1263  1.0223
 9268SOL    HW139266   3.733   4.669  14.891 -0.7763  2.0725 -1.1273
 9268SOL    HW239267   3.801   4.548  14.830  0.0213 -0.2022  0.1006
 9269SOL     OW39268   0.694   0.465   9.936 -0.1596 -0.0937  0.0791
 9269SOL    HW139269   0.783   0.493   9.912  0.2280 -0.8151  0.6907
 9269SOL    HW239270   0.705   0.371   9.928  0.6329  0.0289 -0.3115
 9270SOL     OW39271   2.060   2.359   6.356  0.1424  0.1239  0.3492
 9270SOL    HW139272   2.052   2.436   6.300 -3.3427 -0.1220  0.4564
 9270SOL    HW239273   2.035   2.281   6.307  0.7631  0.1367  0.0187
 9271SOL     OW39274   0.961   2.758   5.678 -0.4303  0.1430  0.1851
 9271SOL    HW139275   0.997   2.692   5.737 -1.6347 -0.5111  0.2050
 9271SOL    HW239276   0.870   2.728   5.676 -0.2285 -0.4002 -0.8701
 9272SOL     OW39277   0.121   1.435   5.781 -0.3698  0.3755 -0.0660
 9272SOL    HW139278   0.212   1.462   5.766 -0.2341  0.2790  0.5626
 9272SOL    HW239279   0.087   1.523   5.799 -1.6187  0.0563 -0.8749
 9273SOL     OW39280   1.391   1.825   1.661 -0.3059  0.8045 -0.4086
 9273SOL    HW139281   1.372   1.763   1.591  2.1752 -2.3602  1.7116
 9273SOL    HW239282   1.427   1.764   1.726  0.3902  2.7851  1.0655
 9274SOL     OW39283   2.020   0.505   4.379  0.3694 -1.1949 -0.0936
 9274SOL    HW139284   1.958   0.531   4.311  1.8081  0.0795 -0.9254
 9274SOL    HW239285   1.959   0.505   4.453  1.3000  0.7647  0.6763
 9275SOL     OW39286   3.161   0.997  11.455 -0.0589 -0.2474 -0.0518
 9275SOL    HW139287   3.151   1.056  11.529  0.2413  0.8153 -0.8501
 9275SOL    HW239288   3.248   0.969  11.481  1.0245  1.4882 -1.8238
 9276SOL     OW39289   4.708   4.596   5.401  0.5768  0.1970 -0.1093
 9276SOL    HW139290   4.632   4.565   5.450  0.4877  1.0304  0.2940
 9276SOL    HW239291   4.662   4.607   5.318  0.6151  1.6831  0.0552
 9277SOL     OW39292   4.465   2.948   5.191 -0.0163 -0.4062  0.2032
 9277SOL    HW139293   4.534   2.983   5.135 -1.2301  3.0826  0.8863
 9277SOL    HW239294   4.513   2.921   5.269  0.0336 -2.3190 -0.5001
 9278SOL     OW39295   0.819   2.807   8.515  0.2226 -0.4518 -0.0231
 9278SOL    HW139296   0.776   2.782   8.433 -0.0828 -1.7022  0.5219
 9278SOL    HW239297   0.774   2.750   8.578 -1.4001 -2.1759 -2.7282
 9279SOL     OW39298   4.276   1.566   9.514 -0.3315  0.0922  0.1332
 9279SOL    HW139299   4.329   1.486   9.517 -0.4669 -0.1248 -2.5481
 9279SOL    HW239300   4.219   1.558   9.437 -0.5328 -0.3961  0.3275
 9280SOL     OW39301   0.288   0.697   6.402 -0.3877 -0.1987  0.0333
 9280SOL    HW139302   0.259   0.679   6.492  0.0492  1.1168  0.4414
 9280SOL    HW239303   0.218   0.646   6.362 -0.8537  1.2785 -1.0339
 9281SOL     OW39304   4.062   3.761   1.462 -0.1738  0.1060 -0.2918
 9281SOL    HW139305   4.139   3.800   1.502 -1.6588  0.7438  1.9895
 9281SOL    HW239306   4.081   3.778   1.370 -2.1572 -1.5684 -1.0212
 9282SOL     OW39307   1.224   4.332   3.143 -0.0954  0.1669  0.1175
 9282SOL    HW139308   1.171   4.406   3.174  0.6403 -0.3686  2.6910
 9282SOL    HW239309   1.160   4.283   3.091 -1.7837 -0.4834  2.8220
 9283SOL     OW39310   0.497   2.172   4.274  0.7330  0.3545  0.2612
 9283SOL    HW139311   0.409   2.187   4.239  1.2828 -2.2095 -2.2140
 9283SOL    HW239312   0.483   2.142   4.364  0.3977 -0.8461 -0.1920
 9284SOL     OW39313   3.335   0.124   2.884 -0.6289 -0.4805 -0.0855
 9284SOL    HW139314   3.428   0.100   2.883 -0.9011 -1.5273 -0.2961
 9284SOL    HW239315   3.290   0.064   2.825 -0.6505 -0.8027  0.2555
 9285SOL     OW39316   0.830   4.322   6.587 -0.3433  0.6645  0.4252
 9285SOL    HW139317   0.786   4.397   6.627  1.2277  0.5370  2.3861
 9285SOL    HW239318   0.760   4.271   6.546  0.4417 -0.9658  1.1228
 9286SOL     OW39319   3.714   2.650  16.406 -0.2087 -0.1709 -0.0773
 9286SOL    HW139320   3.691   2.696  16.325 -0.1591 -2.6310 -1.4869
 9286SOL    HW239321   3.684   2.716  16.470  0.5653 -1.3218  1.4704
 9287SOL     OW39322   1.212   2.545  14.697 -0.2351  0.3770 -0.3816
 9287SOL    HW139323   1.133   2.598  14.712 -0.8506 -0.4222 -0.8372
 9287SOL    HW239324   1.228   2.515  14.786 -2.7556  1.3274  0.4094
 9288SOL     OW39325   0.971   1.637   9.850  0.2120  0.0128 -0.3089
 9288SOL    HW139326   1.052   1.586   9.849  0.1164 -0.2253  2.7293
 9288SOL    HW239327   0.911   1.577   9.806 -1.3651  0.5060  1.1367
 9289SOL     OW39328   0.148   1.195   5.691 -0.3093  0.0857 -0.3886
 9289SOL    HW139329   0.110   1.208   5.604 -1.1850 -0.7046 -0.1180
 9289SOL    HW239330   0.125   1.279   5.731  0.9722  0.3975 -0.3108
 9290SOL     OW39331   0.082   0.021  16.160 -0.3170 -0.0698  0.0589
 9290SOL    HW139332   0.121   0.088  16.216  0.2952 -0.0611 -0.3877
 9290SOL    HW239333   0.152   4.719  16.100 -0.0356  0.9894 -0.0104
 9291SOL     OW39334   1.537   3.458  10.972  0.2357 -0.0280  0.8270
 9291SOL    HW139335   1.461   3.403  10.955  1.1850 -0.5543 -1.6103
 9291SOL    HW239336   1.603   3.401  11.012  0.0166 -0.0918  1.0975
 9292SOL     OW39337   4.590   1.733  16.766  0.4336 -0.0703 -0.1134
 9292SOL    HW139338   4.559   1.763  16.681  1.3278 -0.7789 -0.6952
 9292SOL    HW239339   4.561   1.810  16.814 -1.2582  0.0225 -1.3341
 9293SOL     OW39340   0.954   1.932   6.565 -0.5362 -0.1393 -0.1309
 9293SOL    HW139341   0.951   1.837   6.569  1.1708 -0.2937 -2.6682
 9293SOL    HW239342   1.033   1.955   6.616  0.5584 -1.2914 -1.3228
 9294SOL     OW39343   2.707   0.307   3.602  0.1619 -0.5881 -0.4040
 9294SOL    HW139344   2.613   0.300   3.619  0.2458 -0.5896  0.0628
 9294SOL    HW239345   2.728   0.215   3.588  2.9816  0.1674 -1.1072
 9295SOL     OW39346   4.444   3.230  14.149 -0.0309  0.2816  0.5642
 9295SOL    HW139347   4.465   3.313  14.106  0.8483 -0.8440 -1.1742
 9295SOL    HW239348   4.401   3.272  14.224 -0.7749 -0.5660  0.6207
 9296SOL     OW39349   3.881   3.637   4.760 -0.0618 -0.2622 -0.2059
 9296SOL    HW139350   3.819   3.652   4.831 -0.6511 -1.8078 -0.3947
 9296SOL    HW239351   3.858   3.551   4.724  0.8267 -1.1252  1.3148
 9297SOL     OW39352   0.804   3.936   0.662 -0.2721  0.5568 -0.1141
 9297SOL    HW139353   0.761   3.856   0.633  0.0038  1.0606 -1.8940
 9297SOL    HW239354   0.823   3.979   0.579 -1.2686  1.4679  0.1151
 9298SOL     OW39355   4.127   4.371  15.136  0.4417  0.8492  0.6639
 9298SOL    HW139356   4.182   4.449  15.130  1.3402  0.1666 -0.0001
 9298SOL    HW239357   4.191   4.308  15.172  1.6627  2.0842  0.6676
 9299SOL     OW39358   2.500   2.729  11.769  0.3077  0.5283 -0.7559
 9299SOL    HW139359   2.580   2.726  11.717  0.0034 -1.1298 -1.1502
 9299SOL    HW239360   2.498   2.818  11.804  0.3048  0.4668 -0.5975
 9300SOL     OW39361   0.153   4.379   9.508  0.2981 -0.3755 -0.0442
 9300SOL    HW139362   0.069   4.408   9.472 -1.4880  0.0717  4.4894
 9300SOL    HW239363   0.216   4.391   9.436  0.0435 -0.7222 -0.3261
 9301SOL     OW39364   3.037   2.305  16.305 -0.2847 -0.0319  0.1166
 9301SOL    HW139365   2.947   2.272  16.297 -0.1842 -0.2239 -0.2139
 9301SOL    HW239366   3.091   2.228  16.290  0.2356  0.2642  0.4584
 9302SOL     OW39367   1.530   3.340   3.551 -0.2463  0.6391 -0.2887
 9302SOL    HW139368   1.444   3.320   3.515 -0.0487  0.0429 -0.4423
 9302SOL    HW239369   1.567   3.371   3.468  0.0700  0.9452 -0.0350
 9303SOL     OW39370   1.196   0.916  14.517 -0.1676 -0.0928  0.0594
 9303SOL    HW139371   1.211   0.826  14.546  0.2872  0.0557  0.2769
 9303SOL    HW239372   1.129   0.904  14.449  1.3705 -0.9309 -1.3169
 9304SOL     OW39373   3.655   3.587  13.502 -0.0062 -0.0010  0.6748
 9304SOL    HW139374   3.607   3.664  13.472 -0.3972 -0.7039 -0.4828
 9304SOL    HW239375   3.690   3.557  13.419 -1.3147 -1.4428  0.6276
 9305SOL     OW39376   0.770   2.898  11.558 -0.4463  0.2606  0.3654
 9305SOL    HW139377   0.814   2.983  11.555 -1.1963  0.5456 -2.4389
 9305SOL    HW239378   0.766   2.880  11.652  0.3621  0.2912  0.4104
 9306SOL     OW39379   4.051   2.296   5.270 -0.7774 -0.3975 -0.0071
 9306SOL    HW139380   4.041   2.287   5.175 -3.5950 -1.3108  0.3847
 9306SOL    HW239381   3.982   2.359   5.290  0.8028  1.1980  0.4067
 9307SOL     OW39382   4.528   1.595   0.978  0.0528  0.1117 -0.5198
 9307SOL    HW139383   4.513   1.531   1.048  1.5937 -0.3501 -0.6219
 9307SOL    HW239384   4.488   1.673   1.016 -1.5157 -0.7801 -0.3453
 9308SOL     OW39385   0.748   2.055   2.857 -0.0513 -0.2744 -0.3844
 9308SOL    HW139386   0.662   2.019   2.836  0.3233 -0.7374 -1.1086
 9308SOL    HW239387   0.762   2.087   2.768 -0.8110  1.6655  0.1983
 9309SOL     OW39388   0.286   0.067   8.774 -0.0439 -0.2780 -0.3955
 9309SOL    HW139389   0.320   0.061   8.685  0.0064 -1.7718 -0.2850
 9309SOL    HW239390   0.280   0.162   8.784  0.0621 -0.5186  1.9770
 9310SOL     OW39391   1.155   1.832  10.131  0.6786  0.5470 -0.4731
 9310SOL    HW139392   1.157   1.758  10.191  0.4982 -0.4510 -1.6877
 9310SOL    HW239393   1.248   1.826  10.111  0.8527  0.5082  0.3675
 9311SOL     OW39394   2.003   4.704   2.859 -0.9671 -0.2055  0.1202
 9311SOL    HW139395   2.088   4.673   2.892 -0.1883  0.8331 -0.9104
 9311SOL    HW239396   1.971   4.619   2.828 -1.4489  0.0672 -0.1271
 9312SOL     OW39397   4.657   0.886   4.974 -0.1424 -0.5395  0.0180
 9312SOL    HW139398   0.007   0.899   5.036 -0.3772  1.2748 -0.0812
 9312SOL    HW239399   4.695   0.818   4.918  0.7181  1.3317 -1.6656
 9313SOL     OW39400   2.134   2.751   3.678 -0.3493  0.0757  0.1397
 9313SOL    HW139401   2.181   2.751   3.595  1.5335 -0.5974  1.2115
 9313SOL    HW239402   2.111   2.658   3.673 -1.5993  0.4231 -0.4442
 9314SOL     OW39403   1.640   1.800   7.832  0.1830 -0.1692 -0.9195
 9314SOL    HW139404   1.564   1.835   7.878  0.9593  3.6406 -2.5088
 9314SOL    HW239405   1.594   1.741   7.772 -0.7655 -0.7231  0.3586
 9315SOL     OW39406   3.200   1.840  12.051  0.5172  0.3340 -0.6359
 9315SOL    HW139407   3.109   1.841  12.079  0.9734  0.7824  0.8580
 9315SOL    HW239408   3.189   1.819  11.958 -1.8442 -1.7684  0.1410
 9316SOL     OW39409   0.192   0.263   4.236 -0.3099 -0.1752  0.0706
 9316SOL    HW139410   0.251   0.206   4.186  1.1070 -1.0137  2.6782
 9316SOL    HW239411   0.142   0.297   4.162 -1.6822 -3.2267 -0.4102
 9317SOL     OW39412   4.016   4.252   5.156  0.2942  0.4298 -0.3119
 9317SOL    HW139413   4.051   4.340   5.142  1.3449  0.2268  1.0331
 9317SOL    HW239414   3.929   4.268   5.192  0.1162  0.4411 -0.7453
 9318SOL     OW39415   2.778   3.452   1.388 -0.2616  0.1224  0.3810
 9318SOL    HW139416   2.853   3.503   1.360  0.0296 -0.1257  0.7091
 9318SOL    HW239417   2.798   3.449   1.482  0.3464  0.1819  0.2506
 9319SOL     OW39418   2.590   1.351   7.186 -0.8832  0.7523  0.0787
 9319SOL    HW139419   2.571   1.438   7.150  1.3326  1.1321 -0.1829
 9319SOL    HW239420   2.511   1.323   7.232 -1.3439 -0.8898 -1.7088
 9320SOL     OW39421   1.291   0.243   4.295 -0.2981  0.1688 -0.3449
 9320SOL    HW139422   1.372   0.204   4.263 -0.6688 -0.7295 -0.1856
 9320SOL    HW239423   1.225   0.184   4.259  1.7317 -3.2563  1.5845
 9321SOL     OW39424   4.409   2.133  15.557 -0.2811 -0.6183 -0.2402
 9321SOL    HW139425   4.408   2.038  15.562 -0.7381 -0.6688 -1.2177
 9321SOL    HW239426   4.455   2.152  15.475 -1.1617  1.4047 -0.2792
 9322SOL     OW39427   4.517   2.106   4.507 -0.5138  0.3700  0.0484
 9322SOL    HW139428   4.492   2.083   4.597  0.0919 -0.1821  0.0818
 9322SOL    HW239429   4.528   2.022   4.461  1.5468  0.0597  1.0883
 9323SOL     OW39430   2.438   2.006  11.699  0.3514 -0.3219  0.2159
 9323SOL    HW139431   2.459   2.074  11.636 -2.6743 -0.3054 -0.7589
 9323SOL    HW239432   2.511   2.031  11.756 -0.4926 -0.5473  1.3980
 9324SOL     OW39433   3.665   4.316  15.110 -1.1171  0.1147 -0.4119
 9324SOL    HW139434   3.652   4.387  15.172  1.2403 -0.1197  0.3650
 9324SOL    HW239435   3.588   4.259  15.114 -1.1410  0.2606  1.5206
 9325SOL     OW39436   2.516   0.830   7.912  0.5473  0.0899  0.2845
 9325SOL    HW139437   2.489   0.897   7.850  0.7263  0.9068  1.0883
 9325SOL    HW239438   2.442   0.838   7.972  0.6257  0.1939  0.3663
 9326SOL     OW39439   3.499   3.954   7.393 -0.5607  0.0721 -0.2538
 9326SOL    HW139440   3.428   4.018   7.387  0.4349  1.3865  1.9832
 9326SOL    HW239441   3.532   3.950   7.483  0.5106 -1.0977 -0.6960
 9327SOL     OW39442   0.290   4.329   5.887  0.3766 -0.0659 -0.0638
 9327SOL    HW139443   0.267   4.238   5.871  2.6224 -0.8265  1.0404
 9327SOL    HW239444   0.357   4.339   5.819 -0.1099 -1.2434 -0.7091
 9328SOL     OW39445   4.640   0.921   1.595 -0.2583  0.0542 -0.3160
 9328SOL    HW139446   4.695   0.999   1.597 -0.4814  0.2529 -1.8810
 9328SOL    HW239447   4.557   0.952   1.559 -0.2863  1.2541  0.8189
 9329SOL     OW39448   4.494   0.811   2.665  0.0459 -0.2177 -0.0717
 9329SOL    HW139449   4.502   0.902   2.635 -1.2068  0.0925  0.5314
 9329SOL    HW239450   4.561   0.794   2.731 -0.8260 -0.9734  0.6241
 9330SOL     OW39451   0.509   0.829  12.618 -0.0815 -0.6465  0.1049
 9330SOL    HW139452   0.460   0.747  12.628 -0.1653 -0.5243  0.7420
 9330SOL    HW239453   0.461   0.886  12.678 -2.0143 -0.7306 -1.3753
 9331SOL     OW39454   1.673   1.274   6.850  0.2523 -0.2186  0.2779
 9331SOL    HW139455   1.674   1.271   6.946  0.1792 -1.8650  0.2277
 9331SOL    HW239456   1.578   1.270   6.841  0.1450 -0.8954  1.7803
 9332SOL     OW39457   2.471   4.355   0.839  0.4849  0.7117  0.0088
 9332SOL    HW139458   2.508   4.440   0.865  0.4084  1.2944 -1.7813
 9332SOL    HW239459   2.384   4.373   0.805 -0.3438 -0.6590  1.4214
 9333SOL     OW39460   4.002   0.640   0.159 -0.4639 -1.0754 -0.1068
 9333SOL    HW139461   3.943   0.618   0.231 -1.3297 -1.6757 -1.0011
 9333SOL    HW239462   3.996   0.735   0.154 -0.1060 -0.9540  1.8221
 9334SOL     OW39463   0.189   4.720  15.860 -0.0542  0.2339 -0.2423
 9334SOL    HW139464   0.127   0.071  15.867 -0.8016 -0.4079 -0.1901
 9334SOL    HW239465   0.263   0.025  15.913 -1.1363 -0.7539  1.7830
 9335SOL     OW39466   3.527   2.903   7.475  0.4483 -0.1842 -0.0462
 9335SOL    HW139467   3.463   2.918   7.405  0.0510 -0.6010  0.2199
 9335SOL    HW239468   3.507   2.977   7.532  0.5371 -0.8261  0.8286
 9336SOL     OW39469   0.378   0.996  12.811 -0.5285 -0.5879 -0.3734
 9336SOL    HW139470   0.459   0.996  12.863 -2.9385 -3.3333  3.4165
 9336SOL    HW239471   0.325   1.062  12.856  1.1979 -0.0854  0.9480
 9337SOL     OW39472   3.249   0.615  10.689 -0.0164 -0.2379 -0.1742
 9337SOL    HW139473   3.234   0.664  10.770  1.5806 -1.3624  0.8166
 9337SOL    HW239474   3.283   0.533  10.724  0.4973 -0.5749 -1.4801
 9338SOL     OW39475   1.513   2.570  13.579 -0.2548  0.2640  0.2283
 9338SOL    HW139476   1.592   2.517  13.573 -0.0515  0.4856  0.9651
 9338SOL    HW239477   1.542   2.642  13.635  0.7854  0.0978 -0.1079
 9339SOL     OW39478   2.873   0.421   8.021  0.0807  0.5379  0.0540
 9339SOL    HW139479   2.941   0.364   8.056  0.1933  0.1196 -0.8627
 9339SOL    HW239480   2.795   0.383   8.062 -0.8914  1.6755 -0.7182
 9340SOL     OW39481   1.552   4.626  12.671  0.6786 -0.2939 -0.5225
 9340SOL    HW139482   1.647   4.634  12.684  0.4454 -0.3622  1.2200
 9340SOL    HW239483   1.533   4.532  12.666 -1.7111  0.0475  2.0889
 9341SOL     OW39484   0.769   0.561   7.390  0.1127 -0.1992 -0.3974
 9341SOL    HW139485   0.762   0.632   7.326 -0.0618 -0.1780 -0.3559
 9341SOL    HW239486   0.710   0.495   7.352 -0.7738  0.2610  0.1677
 9342SOL     OW39487   1.110   3.024  10.584 -0.2466 -0.3629  0.0399
 9342SOL    HW139488   1.092   2.952  10.643  1.6204 -1.4717 -0.7648
 9342SOL    HW239489   1.023   3.063  10.595  0.3475  1.2571 -0.9808
 9343SOL     OW39490   3.689   3.038   4.638 -0.0442 -0.2550 -0.2118
 9343SOL    HW139491   3.606   3.084   4.647 -0.1113 -0.1743 -1.3086
 9343SOL    HW239492   3.750   3.099   4.681  0.2564 -0.6787 -0.0369
 9344SOL     OW39493   1.899   0.187  17.452 -0.2441 -0.3087  0.5996
 9344SOL    HW139494   1.833   0.256  17.462  1.9561  1.6685  1.3222
 9344SOL    HW239495   1.974   0.232  17.490 -0.4440  1.1308 -0.7170
 9345SOL     OW39496   3.933   3.348  12.676  0.1258 -0.5131 -0.1273
 9345SOL    HW139497   3.916   3.302  12.758  0.9204  0.9152  0.8533
 9345SOL    HW239498   4.028   3.359  12.670  0.1335 -0.3315  0.3183
 9346SOL     OW39499   4.542   1.416   5.083  0.0440  0.1262  0.1364
 9346SOL    HW139500   4.580   1.468   5.012 -1.4909  1.3599  0.2180
 9346SOL    HW239501   4.584   1.331   5.070  0.5764  0.7899 -2.3833
 9347SOL     OW39502   3.411   0.616   2.610 -0.5965 -0.3887  0.3511
 9347SOL    HW139503   3.317   0.633   2.614 -0.2950  1.2553  0.5796
 9347SOL    HW239504   3.416   0.520   2.609 -2.0771 -0.4657 -0.8341
 9348SOL     OW39505   4.255   4.233  13.583 -0.4714 -0.3543  0.4565
 9348SOL    HW139506   4.248   4.269  13.672  0.4868 -0.4587  0.5684
 9348SOL    HW239507   4.217   4.149  13.611 -1.2851 -0.7257 -1.7471
 9349SOL     OW39508   3.851   3.261  12.203 -0.5440  0.7630  0.0883
 9349SOL    HW139509   3.775   3.239  12.257 -1.1501  0.5797 -0.8253
 9349SOL    HW239510   3.913   3.222  12.264 -0.8124  2.1762  1.2593
 9350SOL     OW39511   2.445   2.454   6.929 -0.2277 -0.1102  0.0072
 9350SOL    HW139512   2.404   2.377   6.969  0.3450 -1.1625 -1.4580
 9350SOL    HW239513   2.454   2.503   7.011 -2.9575  0.9080 -0.3340
 9351SOL     OW39514   0.737   2.699  13.859  0.3624 -0.5586  0.3735
 9351SOL    HW139515   0.759   2.790  13.842 -0.7754 -0.2748  0.4046
 9351SOL    HW239516   0.746   2.686  13.953 -0.0759  0.3808  0.5398
 9352SOL     OW39517   2.200   1.319   4.913  0.1342 -0.1891 -0.0171
 9352SOL    HW139518   2.163   1.280   4.834  0.6618 -0.7283 -0.0041
 9352SOL    HW239519   2.115   1.321   4.957  0.5391 -0.5918  0.7925
 9353SOL     OW39520   0.367   1.034   8.981 -0.1853  0.0451 -0.7553
 9353SOL    HW139521   0.374   0.963   8.918 -1.0269  0.3230 -1.1634
 9353SOL    HW239522   0.273   1.033   8.998 -0.2588  1.8162 -1.0125
 9354SOL     OW39523   4.092   1.045  13.787 -0.0855 -0.0489 -0.1939
 9354SOL    HW139524   4.018   1.008  13.835  0.4509 -0.8374  0.0062
 9354SOL    HW239525   4.061   1.135  13.770  1.2116  0.2060 -1.2234
 9355SOL     OW39526   3.265   2.362  15.312  0.3833  0.4826 -0.0630
 9355SOL    HW139527   3.359   2.370  15.297  0.5780 -2.0132 -0.0648
 9355SOL    HW239528   3.225   2.432  15.261  1.8409  1.4285  0.1058
 9356SOL     OW39529   1.456   2.160  11.314  0.1649  0.3356 -0.1158
 9356SOL    HW139530   1.439   2.252  11.337  2.2414  0.9876 -1.2223
 9356SOL    HW239531   1.535   2.165  11.261  1.0895  0.0851  1.2239
 9357SOL     OW39532   3.536   2.354   5.564  0.3398  0.4297  0.2495
 9357SOL    HW139533   3.473   2.360   5.492 -0.1758  0.4838  0.7115
 9357SOL    HW239534   3.485   2.334   5.642  0.8877 -1.0118  0.2338
 9358SOL     OW39535   1.141   3.626   5.117  0.0524  0.0495  0.1449
 9358SOL    HW139536   1.046   3.638   5.114  0.3362  2.4933  1.2703
 9358SOL    HW239537   1.168   3.601   5.206 -0.7383  1.2963  0.7254
 9359SOL     OW39538   1.956   4.120  13.649  0.4921  0.2156 -0.0414
 9359SOL    HW139539   2.028   4.130  13.711  1.1131 -2.1188 -0.3837
 9359SOL    HW239540   1.944   4.028  13.671 -0.5232  0.5629  0.8614
 9360SOL     OW39541   0.912   3.133   3.326  0.2167 -0.8045 -0.4527
 9360SOL    HW139542   0.860   3.081   3.387  0.7791 -2.0586 -1.0378
 9360SOL    HW239543   0.842   3.142   3.261  0.2772 -4.2960 -1.0204
 9361SOL     OW39544   1.564   1.894   6.804 -0.3366  0.0892 -0.2143
 9361SOL    HW139545   1.630   1.829   6.826 -0.0117  1.1756  2.0535
 9361SOL    HW239546   1.495   1.885   6.870 -0.2562  1.9078  0.1318
 9362SOL     OW39547   4.080   1.033  11.882  0.2269  0.1953 -0.2488
 9362SOL    HW139548   4.072   1.125  11.855 -3.4124 -0.6686 -2.1191
 9362SOL    HW239549   4.024   0.990  11.817 -0.7820 -0.9075  1.3580
 9363SOL     OW39550   1.200   4.473   4.810  0.3662 -0.3689  0.1783
 9363SOL    HW139551   1.149   4.546   4.776 -2.8605 -2.3055  0.8483
 9363SOL    HW239552   1.284   4.473   4.765 -0.5273 -1.5167 -1.4745
 9364SOL     OW39553   3.192   0.506   2.358 -0.3108  0.0787 -0.1294
 9364SOL    HW139554   3.170   0.579   2.417  1.4193 -0.2988  0.9762
 9364SOL    HW239555   3.265   0.542   2.308  0.8616 -1.6975  0.3431
 9365SOL     OW39556   0.476   4.021  13.506 -0.0520  0.2111  0.5972
 9365SOL    HW139557   0.497   4.086  13.438 -0.1459  1.0197  1.3541
 9365SOL    HW239558   0.551   3.962  13.495 -0.7187 -0.8463  1.7379
 9366SOL     OW39559   2.426   4.064   6.821  0.0827  0.6443  0.2249
 9366SOL    HW139560   2.473   4.147   6.823  0.8273  0.2216  0.6724
 9366SOL    HW239561   2.448   4.033   6.909  3.7354  2.4168 -0.0364
 9367SOL     OW39562   2.993   0.767  17.522  0.4590  0.2004 -0.4147
 9367SOL    HW139563   2.980   0.785  17.428  3.6917  3.4604 -0.2267
 9367SOL    HW239564   3.002   0.860  17.539  1.6133  0.3601 -1.9440
 9368SOL     OW39565   1.499   1.279   3.769 -0.4458 -0.7367  0.3834
 9368SOL    HW139566   1.458   1.356   3.728  0.2483 -1.1277 -1.0486
 9368SOL    HW239567   1.572   1.317   3.818 -0.7358 -0.4753  0.6180
 9369SOL     OW39568   0.231   4.105   2.759 -0.1484  0.5018  0.2293
 9369SOL    HW139569   0.254   4.018   2.726 -1.5395 -0.0814  0.7709
 9369SOL    HW239570   0.139   4.092   2.782  0.3031 -0.2915  1.5966
 9370SOL     OW39571   0.123   3.089   8.512  0.1208 -0.2212 -0.3476
 9370SOL    HW139572   0.156   3.001   8.530 -1.3564 -0.5909  0.5368
 9370SOL    HW239573   0.075   3.109   8.592  1.2410  0.6190  0.1092
 9371SOL     OW39574   3.786   3.491   3.025 -0.5941  0.0372 -0.1556
 9371SOL    HW139575   3.818   3.579   3.008 -0.2856  0.0192  0.3462
 9371SOL    HW239576   3.770   3.469   2.933  1.5168 -2.4316  0.0651
 9372SOL     OW39577   1.675   0.627   7.067 -0.4729 -0.1768  0.2620
 9372SOL    HW139578   1.711   0.584   6.990 -2.4116 -0.6852 -0.3748
 9372SOL    HW239579   1.602   0.566   7.078 -0.1129 -0.3471  1.7574
 9373SOL     OW39580   0.503   3.260   4.319  0.2771 -0.1880  0.5601
 9373SOL    HW139581   0.523   3.311   4.240 -0.0887  1.2724  1.4031
 9373SOL    HW239582   0.412   3.236   4.302 -0.2169  1.0917  1.4065
 9374SOL     OW39583   1.993   1.670   1.995 -0.3529  0.3767  0.3276
 9374SOL    HW139584   2.086   1.687   1.986 -0.7711  2.8198  0.6024
 9374SOL    HW239585   1.963   1.758   2.020  0.8272  0.7311  0.4737
 9375SOL     OW39586   2.352   4.465   2.353  0.5514  0.1623  0.5833
 9375SOL    HW139587   2.303   4.527   2.408 -0.1329  0.6086 -0.5366
 9375SOL    HW239588   2.430   4.457   2.410  1.1487 -1.1577 -0.4383
 9376SOL     OW39589   1.782   2.022   7.778  0.0577 -0.1243  0.4610
 9376SOL    HW139590   1.724   1.949   7.799 -2.2968  1.6920  0.2479
 9376SOL    HW239591   1.790   2.054   7.868 -2.5340 -0.2267  0.7132
 9377SOL     OW39592   2.332   0.465   7.888 -0.4380  0.0394  0.1811
 9377SOL    HW139593   2.420   0.477   7.853  0.6757 -0.4284  2.8319
 9377SOL    HW239594   2.311   0.545   7.936  1.8426  0.4822  0.4400
 9378SOL     OW39595   0.486   4.346   7.588  0.1218 -0.2558  0.1153
 9378SOL    HW139596   0.447   4.293   7.658 -0.5886  2.1170  1.5122
 9378SOL    HW239597   0.412   4.401   7.561 -0.3390  0.7003  3.3436
 9379SOL     OW39598   3.984   4.153  14.867  0.1417 -0.7370  0.4629
 9379SOL    HW139599   4.054   4.218  14.857 -1.4500  0.9874  0.4364
 9379SOL    HW239600   3.912   4.217  14.871 -1.1893 -2.1294 -1.3744
 9380SOL     OW39601   2.798   3.547  15.915 -0.2698 -0.3657 -0.1843
 9380SOL    HW139602   2.730   3.602  15.878 -1.2446 -0.4102  1.5251
 9380SOL    HW239603   2.752   3.502  15.986 -0.9337  2.5638  1.2588
 9381SOL     OW39604   4.593   2.886   7.843  0.1940 -0.2443  0.4749
 9381SOL    HW139605   4.523   2.836   7.884 -1.8276  1.1534 -1.3160
 9381SOL    HW239606   4.657   2.902   7.912  0.1969  0.9218  0.1996
 9382SOL     OW39607   2.133   0.630   2.503 -0.1280 -0.4734  0.4957
 9382SOL    HW139608   2.050   0.672   2.523  0.2897 -0.1409  1.5065
 9382SOL    HW239609   2.128   0.594   2.414 -0.4105 -1.7624  1.0222
 9383SOL     OW39610   4.294   0.457   0.928  0.1813  0.1649  0.4740
 9383SOL    HW139611   4.324   0.522   0.991  1.6206  1.0816 -1.1733
 9383SOL    HW239612   4.202   0.482   0.941 -0.6232 -2.8746  0.7700
 9384SOL     OW39613   2.460   0.142  12.750 -0.1867 -0.3415  0.4722
 9384SOL    HW139614   2.511   0.129  12.829 -1.8689  1.2562  1.8195
 9384SOL    HW239615   2.523   0.157  12.680 -0.5755 -0.5881  0.0650
 9385SOL     OW39616   4.074   3.352   5.991  0.2289  0.5400 -0.4221
 9385SOL    HW139617   4.169   3.359   5.976  0.4767 -2.1729 -0.2099
 9385SOL    HW239618   4.066   3.344   6.086 -3.5229 -1.5590 -0.9474
 9386SOL     OW39619   1.649   3.072   7.887  0.1272 -0.0559 -0.4327
 9386SOL    HW139620   1.615   3.036   7.806 -0.9466 -1.2306  0.5317
 9386SOL    HW239621   1.726   3.018   7.905 -0.1329 -0.2457  0.1338
 9387SOL     OW39622   1.390   0.264  14.237 -0.0087  0.1210  0.1879
 9387SOL    HW139623   1.335   0.342  14.227  0.3097  0.3590  0.2756
 9387SOL    HW239624   1.479   0.294  14.220 -0.6858  0.2302 -3.2597
 9388SOL     OW39625   2.164   4.719  13.199  0.2094 -0.0162 -0.1219
 9388SOL    HW139626   2.091   0.058  13.182 -0.1908 -0.2023  0.9411
 9388SOL    HW239627   2.105   4.671  13.258  0.2336  0.0138 -0.0739
 9389SOL     OW39628   0.683   2.678  13.349  0.3528  0.1683 -0.1755
 9389SOL    HW139629   0.624   2.612  13.313  1.2058  0.7442 -2.6465
 9389SOL    HW239630   0.707   2.644  13.435  2.1901  0.4268 -0.5850
 9390SOL     OW39631   2.841   4.442  15.127  0.1366  0.5675  0.1741
 9390SOL    HW139632   2.822   4.352  15.100 -0.3944  0.6601  0.2506
 9390SOL    HW239633   2.928   4.438  15.166 -0.5450 -1.8104  1.3995
 9391SOL     OW39634   4.577   4.064   1.247  0.1487 -0.2646 -0.1244
 9391SOL    HW139635   4.635   4.139   1.233  0.7564 -0.5247  0.9539
 9391SOL    HW239636   4.562   4.087   1.339  1.2429  0.6086 -0.1613
 9392SOL     OW39637   1.779   1.059  16.504  0.9536 -0.5826  0.3967
 9392SOL    HW139638   1.761   0.984  16.560 -0.9464 -0.5002 -0.1125
 9392SOL    HW239639   1.843   1.029  16.440 -0.0518 -0.5027 -0.6527
 9393SOL     OW39640   4.376   0.221   2.138  0.4557  0.8145 -1.1832
 9393SOL    HW139641   4.463   0.198   2.106  0.3811 -0.5052 -0.4351
 9393SOL    HW239642   4.336   0.256   2.058 -1.8774  0.8056 -0.0251
 9394SOL     OW39643   3.677   3.666   7.376 -0.3264 -0.6032  0.1307
 9394SOL    HW139644   3.606   3.603   7.389 -0.4682 -0.6350 -0.8013
 9394SOL    HW239645   3.747   3.622   7.425  0.5966 -0.3881 -0.9919
 9395SOL     OW39646   4.608   2.931   5.414 -0.7268 -0.1872 -0.0848
 9395SOL    HW139647   4.589   3.013   5.458  1.6164  0.2807  0.0883
 9395SOL    HW239648   4.704   2.928   5.414 -0.7219  0.2965 -2.2341
 9396SOL     OW39649   2.871   4.712   2.022  0.4131  0.3048  0.2747
 9396SOL    HW139650   2.941   0.053   2.043  0.9666 -0.3857  0.4563
 9396SOL    HW239651   2.797   0.043   1.989  0.5338  1.3826  1.7419
 9397SOL     OW39652   0.489   4.578  13.948 -0.5198 -0.6253 -0.0880
 9397SOL    HW139653   0.512   4.503  14.003 -0.6541  0.2696  1.1831
 9397SOL    HW239654   0.570   4.612  13.910 -1.8935  0.7021 -1.8431
 9398SOL     OW39655   2.845   2.467   0.166 -0.5090  0.1735 -0.1369
 9398SOL    HW139656   2.821   2.557   0.187 -0.2355  0.5738 -1.5453
 9398SOL    HW239657   2.935   2.475   0.196 -1.8517  2.2856  3.2616
 9399SOL     OW39658   0.946   3.076   8.782 -0.4841 -0.0301 -0.1550
 9399SOL    HW139659   1.005   3.004   8.806  1.1635  1.4257  0.1633
 9399SOL    HW239660   0.951   3.075   8.686 -1.9097  0.4265 -0.2338
 9400SOL     OW39661   0.549   2.953   8.592  0.0086  0.5287 -0.1550
 9400SOL    HW139662   0.575   2.901   8.669 -0.5279  0.4187 -0.0486
 9400SOL    HW239663   0.488   3.005   8.643 -1.3240 -1.0025 -0.1743
 9401SOL     OW39664   4.620   0.664   4.622 -0.0882 -0.2973 -0.2149
 9401SOL    HW139665   4.614   0.585   4.676  0.9321 -0.1361  0.1335
 9401SOL    HW239666   4.586   0.731   4.681  1.0235  1.9457 -2.0757
 9402SOL     OW39667   1.068   0.073   8.957 -0.0069 -0.1201  0.1618
 9402SOL    HW139668   1.106   0.031   8.880 -2.7698  0.7988 -1.7072
 9402SOL    HW239669   1.120   0.042   9.031  1.7155 -1.1053 -1.4404
 9403SOL     OW39670   1.855   2.011  16.994 -0.0108  0.2499 -0.3788
 9403SOL    HW139671   1.933   2.053  16.958  0.5749 -0.2223  0.3282
 9403SOL    HW239672   1.820   2.001  16.905  0.7800 -0.0861 -0.6519
 9404SOL     OW39673   1.499   4.288   7.293 -0.5093  0.2200 -0.2354
 9404SOL    HW139674   1.513   4.312   7.385  0.9658 -0.2208 -0.3361
 9404SOL    HW239675   1.489   4.376   7.257  1.6096  0.8257  0.6653
 9405SOL     OW39676   0.462   4.386  16.846  0.1328  0.0786  0.0638
 9405SOL    HW139677   0.388   4.385  16.906  1.2480 -2.2813  1.4020
 9405SOL    HW239678   0.491   4.474  16.871  1.3397 -0.7579  1.5690
 9406SOL     OW39679   4.666   2.077   0.683  0.0192  0.3751 -0.0187
 9406SOL    HW139680   4.672   2.165   0.645 -1.1766  0.7854  0.7307
 9406SOL    HW239681   4.709   2.032   0.611 -1.8359 -0.2450 -0.7468
 9407SOL     OW39682   1.370   0.925   2.477 -0.1280 -0.7604 -0.0579
 9407SOL    HW139683   1.421   0.972   2.412  0.0503 -1.5804 -0.5152
 9407SOL    HW239684   1.356   0.837   2.442 -0.2139 -0.4829 -0.7099
 9408SOL     OW39685   1.689   2.958   9.638 -0.2816 -0.3219 -0.0513
 9408SOL    HW139686   1.624   2.891   9.658  0.4369 -1.0246 -0.0488
 9408SOL    HW239687   1.768   2.906   9.622  0.1752  0.1383  0.7275
 9409SOL     OW39688   3.742   3.321   6.152  0.0911  0.0842 -0.1240
 9409SOL    HW139689   3.683   3.264   6.201 -1.6294 -0.4042 -2.8282
 9409SOL    HW239690   3.702   3.408   6.149  1.1386  0.6599  2.0688
 9410SOL     OW39691   2.875   4.360   6.911  0.5218  0.0524  0.0757
 9410SOL    HW139692   2.781   4.348   6.908  0.1778  2.3014  1.8112
 9410SOL    HW239693   2.908   4.279   6.871 -2.5800  0.5260 -3.3580
 9411SOL     OW39694   2.519   1.502  16.562 -0.0260 -0.2332  0.2286
 9411SOL    HW139695   2.588   1.525  16.501  0.4548  1.2758  1.3405
 9411SOL    HW239696   2.570   1.501  16.643 -1.1155 -0.4276  0.9187
 9412SOL     OW39697   0.395   0.989   6.398  0.4196  0.0719  0.3691
 9412SOL    HW139698   0.473   0.960   6.351 -0.3434 -0.4743 -0.5672
 9412SOL    HW239699   0.357   0.907   6.430 -2.2382  0.8415 -0.7419
 9413SOL     OW39700   3.915   1.940  11.283  0.5372 -0.3681  0.3662
 9413SOL    HW139701   3.870   1.954  11.199  2.5510  1.8502 -0.3350
 9413SOL    HW239702   3.877   1.996  11.350  2.1577 -0.7566  1.6071
 9414SOL     OW39703   1.524   3.814   6.495  0.0490  0.4628  0.0753
 9414SOL    HW139704   1.494   3.891   6.447  0.9225  1.3906  1.0390
 9414SOL    HW239705   1.575   3.856   6.564 -0.0720 -0.1467  0.5397
 9415SOL     OW39706   4.397   1.944  17.145 -0.1574  0.6675  0.3639
 9415SOL    HW139707   4.341   1.957  17.222  0.1833 -3.1795  1.2553
 9415SOL    HW239708   4.483   1.931  17.184  0.4082  1.3357 -0.6508
 9416SOL     OW39709   0.037   4.528   8.166  0.1361 -0.3559  0.1895
 9416SOL    HW139710   0.045   4.446   8.215 -1.7695  0.2562  1.5254
 9416SOL    HW239711   0.054   4.594   8.233  0.5772 -0.0147 -0.2619
 9417SOL     OW39712   2.452   1.759   6.479 -0.3886  0.2312 -0.3803
 9417SOL    HW139713   2.543   1.765   6.509 -0.2980 -0.6552 -0.4837
 9417SOL    HW239714   2.414   1.825   6.536  0.1720  0.0560  0.1920
 9418SOL     OW39715   2.347   2.618   5.743  0.0976  0.3660  0.0929
 9418SOL    HW139716   2.374   2.631   5.834 -3.7529 -1.5364  1.5384
 9418SOL    HW239717   2.252   2.605   5.744  0.2152 -0.5905 -0.3508
 9419SOL     OW39718   1.880   4.446  10.511  0.5267  0.4766 -0.4339
 9419SOL    HW139719   1.941   4.510  10.473 -1.9999  2.1044 -1.7383
 9419SOL    HW239720   1.948   4.390  10.548  1.3333  1.2729 -0.7052
 9420SOL     OW39721   4.518   0.176   5.254  0.1104  0.3614 -0.6579
 9420SOL    HW139722   4.530   0.217   5.339 -1.4737  0.6487 -0.5759
 9420SOL    HW239723   4.595   0.121   5.239  0.6718  0.5245  1.6946
 9421SOL     OW39724   4.504   2.030   8.103  0.1357 -0.1240 -0.6194
 9421SOL    HW139725   4.518   1.935   8.096  0.3017 -0.1958  0.8193
 9421SOL    HW239726   4.543   2.054   8.187 -0.1918  0.0207 -0.5076
 9422SOL     OW39727   3.421   1.152   3.179  0.2455  0.0958  0.0467
 9422SOL    HW139728   3.328   1.173   3.185 -0.0136 -0.9631 -0.2619
 9422SOL    HW239729   3.451   1.127   3.267  0.5343  1.4307  0.3230
 9423SOL     OW39730   4.675   2.432   8.442  0.0380 -0.9092  0.5222
 9423SOL    HW139731   4.655   2.383   8.361 -1.6555 -0.1124  0.4754
 9423SOL    HW239732   4.707   2.516   8.410 -0.7794 -0.7185  0.2191
 9424SOL     OW39733   2.905   1.914  12.462  0.1633  0.4195  0.3914
 9424SOL    HW139734   2.969   1.876  12.522 -0.1036 -0.3068  0.2203
 9424SOL    HW239735   2.841   1.843  12.450  1.4583 -0.8130  0.7512
 9425SOL     OW39736   1.792   1.859   3.507  0.0715 -0.0180  0.5811
 9425SOL    HW139737   1.795   1.953   3.491  1.9455  0.1429  1.8154
 9425SOL    HW239738   1.886   1.849   3.521  0.0781  1.4449  1.6437
 9426SOL     OW39739   2.771   4.664   0.682  0.4381 -0.0653  0.2240
 9426SOL    HW139740   2.730   0.022   0.648  0.7771 -0.3304 -0.7883
 9426SOL    HW239741   2.753   4.606   0.609 -1.7287  1.1461 -0.1898
 9427SOL     OW39742   0.867   1.645  17.559  0.0588  0.4053 -0.3247
 9427SOL    HW139743   0.799   1.685  17.505  3.2329  2.5623 -2.6842
 9427SOL    HW239744   0.833   1.555  17.558 -0.1172  0.4461  1.6127
 9428SOL     OW39745   1.383   2.763  16.070  0.2148 -0.0052 -0.1805
 9428SOL    HW139746   1.332   2.838  16.100 -2.0541 -1.5255 -0.2451
 9428SOL    HW239747   1.319   2.727  16.009 -1.0081  3.0604 -0.7073
 9429SOL     OW39748   1.814   4.232   4.391 -0.1297 -0.4995 -0.4987
 9429SOL    HW139749   1.728   4.208   4.359  0.0058 -1.8329  0.1114
 9429SOL    HW239750   1.847   4.142   4.383 -1.4391 -1.0833  0.6646
 9430SOL     OW39751   0.182   4.103   2.436  0.2663 -0.4811 -0.0292
 9430SOL    HW139752   0.122   4.067   2.371  0.2060  1.9054 -1.3163
 9430SOL    HW239753   0.256   4.042   2.437 -0.0666 -0.9057 -0.9590
 9431SOL     OW39754   1.097   1.486   5.271  0.4198 -0.0636 -0.4185
 9431SOL    HW139755   1.095   1.412   5.332 -0.8665 -1.9433 -2.7734
 9431SOL    HW239756   1.021   1.469   5.215  0.7163  0.7466 -1.0603
 9432SOL     OW39757   1.822   0.168   7.086 -0.0789 -0.5468  0.4263
 9432SOL    HW139758   1.750   0.115   7.053 -0.2016  1.5546 -2.6937
 9432SOL    HW239759   1.821   0.146   7.179 -0.8530  2.6396  1.1854
 9433SOL     OW39760   1.494   3.211  11.952 -0.0610  0.4396 -0.0271
 9433SOL    HW139761   1.479   3.241  11.862 -0.3587  0.8517  0.1616
 9433SOL    HW239762   1.585   3.226  11.977  0.3100  0.2535 -1.2622
 9434SOL     OW39763   1.827   1.951   3.865  0.3535 -0.5172  0.6690
 9434SOL    HW139764   1.886   1.999   3.923  1.4261 -1.1551  0.1148
 9434SOL    HW239765   1.791   2.020   3.810 -1.1821 -0.8580  1.2476
 9435SOL     OW39766   0.118   2.568   1.366 -0.6022  0.2187 -0.3799
 9435SOL    HW139767   0.181   2.614   1.421  0.9636 -0.8489 -1.2782
 9435SOL    HW239768   0.042   2.625   1.377  0.2283  1.0334  1.1655
 9436SOL     OW39769   4.388   1.371  14.931  0.1065 -0.2059 -0.0020
 9436SOL    HW139770   4.361   1.409  14.847 -0.6611 -1.0252 -0.1285
 9436SOL    HW239771   4.448   1.440  14.959 -3.4448  3.1846 -0.8152
 9437SOL     OW39772   1.131   4.544   5.774  0.3445 -0.6333 -0.3553
 9437SOL    HW139773   1.146   4.575   5.684 -1.4525  0.0672 -0.4010
 9437SOL    HW239774   1.093   4.457   5.761 -1.0005 -0.0250 -0.4056
 9438SOL     OW39775   0.903   3.488  14.680  0.5959  0.1180 -0.5431
 9438SOL    HW139776   0.975   3.479  14.618  2.1840 -1.0126  1.4762
 9438SOL    HW239777   0.950   3.456  14.757  0.5458  1.2798 -0.0337
 9439SOL     OW39778   2.864   0.398   3.804  0.0074  0.1135 -0.0579
 9439SOL    HW139779   2.789   0.370   3.753 -0.2376  0.0300  0.3469
 9439SOL    HW239780   2.887   0.312   3.840  1.3114  0.2526 -0.5627
 9440SOL     OW39781   4.465   3.584   4.185 -0.2682  0.2950  0.5891
 9440SOL    HW139782   4.544   3.530   4.187 -0.2911  0.2631  0.6547
 9440SOL    HW239783   4.479   3.640   4.262 -2.6609  0.0937  1.1699
 9441SOL     OW39784   4.679   4.079   8.764  0.1383 -0.3803  0.0689
 9441SOL    HW139785   4.618   4.095   8.836 -1.1718  2.3716 -1.6510
 9441SOL    HW239786   4.698   4.168   8.735 -1.3158 -0.3734 -0.8831
 9442SOL     OW39787   1.509   1.433   9.991  1.0448 -0.8074 -0.3961
 9442SOL    HW139788   1.469   1.375   9.927  1.3274 -0.6150 -0.7504
 9442SOL    HW239789   1.599   1.403   9.984  0.5148 -2.7856  1.4746
 9443SOL     OW39790   4.709   0.936   3.388  0.5184 -0.3085  0.0928
 9443SOL    HW139791   4.658   1.000   3.437  0.4284  0.0941 -0.5287
 9443SOL    HW239792   0.021   0.888   3.463  2.3096 -2.2596 -1.9528
 9444SOL     OW39793   2.619   2.283  17.374 -0.3319 -0.4917  0.3209
 9444SOL    HW139794   2.586   2.231  17.447  1.0201  0.8285  1.8701
 9444SOL    HW239795   2.661   2.346  17.432 -0.3020  0.3538 -0.6075
 9445SOL     OW39796   3.345   1.745   3.233 -0.4772  0.6277 -0.1908
 9445SOL    HW139797   3.345   1.695   3.151  0.4911 -0.8979  0.7444
 9445SOL    HW239798   3.281   1.812   3.208  0.2962  0.5698 -2.3075
 9446SOL     OW39799   4.156   1.793   3.778  0.0615 -0.7253  0.3026
 9446SOL    HW139800   4.155   1.698   3.765  2.9918 -0.5687 -1.0874
 9446SOL    HW239801   4.181   1.812   3.688  0.7349 -1.7815  0.2718
 9447SOL     OW39802   3.789   4.162  16.284  0.3320  0.1221 -0.1903
 9447SOL    HW139803   3.883   4.148  16.293  0.0461 -0.4266  2.0451
 9447SOL    HW239804   3.791   4.250  16.246 -1.1350 -0.7371 -2.2376
 9448SOL     OW39805   0.061   0.226   1.808  0.0206 -0.2365  0.0268
 9448SOL    HW139806   0.009   0.148   1.787  0.4918 -0.4810 -0.2399
 9448SOL    HW239807   0.112   0.191   1.881 -0.6401 -1.1931  0.0255
 9449SOL     OW39808   2.005   3.210   5.604  0.6130 -0.3394 -0.2022
 9449SOL    HW139809   2.064   3.220   5.679  0.8906 -0.9115 -0.3421
 9449SOL    HW239810   1.920   3.217   5.648  0.7931 -1.7000  0.3521
 9450SOL     OW39811   1.902   0.379  10.671 -0.7034 -0.2164  0.1196
 9450SOL    HW139812   1.914   0.432  10.749 -0.7707  1.6733 -1.1479
 9450SOL    HW239813   1.942   0.428  10.599  1.6462  1.5910  2.6538
 9451SOL     OW39814   3.386   3.767  12.747  0.8905 -0.1541 -0.1646
 9451SOL    HW139815   3.372   3.859  12.723  1.3633  0.3709  1.6514
 9451SOL    HW239816   3.472   3.767  12.788 -0.4484 -1.5759  2.5788
 9452SOL     OW39817   0.933   0.788   0.220  0.0220  0.1485 -0.2271
 9452SOL    HW139818   0.874   0.763   0.291 -2.0894  1.3734 -1.5448
 9452SOL    HW239819   1.010   0.804   0.274 -1.1029  0.5783  1.2398
 9453SOL     OW39820   0.804   4.425   3.785  0.7841  0.2961  0.1124
 9453SOL    HW139821   0.754   4.344   3.799  1.1323 -0.2576 -1.8153
 9453SOL    HW239822   0.872   4.398   3.724  3.6091  0.5739  3.1306
 9454SOL     OW39823   2.936   2.973   7.788  0.0918  0.9035 -0.3199
 9454SOL    HW139824   2.901   3.034   7.853  0.3098 -1.3429  1.8747
 9454SOL    HW239825   2.854   2.924   7.781  0.9635 -0.4354 -1.0968
 9455SOL     OW39826   0.883   1.512  11.646  0.0083  1.0906  0.2248
 9455SOL    HW139827   0.925   1.579  11.591  2.1994 -0.9068 -0.5182
 9455SOL    HW239828   0.922   1.505  11.733  0.1031 -2.7604 -0.1580
 9456SOL     OW39829   1.919   1.024  15.586  0.2301  0.0767 -0.2752
 9456SOL    HW139830   1.835   1.068  15.603 -0.2518 -1.2702  0.8398
 9456SOL    HW239831   1.886   0.969  15.515 -0.9621 -0.2233  0.5102
 9457SOL     OW39832   0.098   4.700   7.084 -0.5502 -0.1675 -0.0609
 9457SOL    HW139833   0.077   4.607   7.088  0.4015 -0.2619  3.5058
 9457SOL    HW239834   0.042   0.005   7.011  0.2116 -0.1931 -0.6468
 9458SOL     OW39835   0.372   0.472   3.921 -0.1106  0.0039  0.3136
 9458SOL    HW139836   0.455   0.458   3.875  1.1313  0.8946  2.3123
 9458SOL    HW239837   0.317   0.401   3.889  1.6646 -1.3444  0.2672
 9459SOL     OW39838   1.062   3.216  15.372 -0.6378 -0.4095  0.0266
 9459SOL    HW139839   0.976   3.174  15.366 -0.3103 -1.4159  2.0298
 9459SOL    HW239840   1.090   3.183  15.458 -0.1110 -2.1335 -0.8104
 9460SOL     OW39841   4.453   2.301   3.150  0.1199  0.1086  0.4937
 9460SOL    HW139842   4.506   2.238   3.198  0.3112  0.5558  0.8619
 9460SOL    HW239843   4.375   2.259   3.186  1.2183 -2.3721  0.0211
 9461SOL     OW39844   1.150   2.906   8.933 -0.1433  0.0732 -0.2421
 9461SOL    HW139845   1.082   2.880   8.995 -0.3692 -1.1293 -1.0149
 9461SOL    HW239846   1.150   2.999   8.958  1.4740 -0.3901  1.5133
 9462SOL     OW39847   3.789   2.706   2.248  0.1240 -0.2691 -0.6534
 9462SOL    HW139848   3.812   2.641   2.315 -0.2291  1.0366  0.7325
 9462SOL    HW239849   3.863   2.688   2.189  0.1363 -2.3109 -0.0310
 9463SOL     OW39850   2.214   3.396  15.514  0.6640  0.6154  0.0001
 9463SOL    HW139851   2.292   3.373  15.563  0.0704  0.6371  0.9586
 9463SOL    HW239852   2.252   3.410  15.427 -2.5824  3.5657 -0.9394
 9464SOL     OW39853   1.684   3.969   0.416  0.2405 -0.3161  0.2706
 9464SOL    HW139854   1.622   3.959   0.489 -0.9881 -0.4053 -0.7848
 9464SOL    HW239855   1.645   3.919   0.345  1.9369 -0.4543 -0.5701
 9465SOL     OW39856   0.857   0.012   7.941  0.2601 -0.0318  0.3290
 9465SOL    HW139857   0.822   0.099   7.959 -0.9134  0.1379 -2.8588
 9465SOL    HW239858   0.778   4.679   7.944  1.6412 -1.8949  3.1594
 9466SOL     OW39859   0.209   1.922  11.936  0.2588 -0.2338 -0.4161
 9466SOL    HW139860   0.291   1.874  11.924  1.8074  1.9112  1.5257
 9466SOL    HW239861   0.185   1.887  12.022  1.3098 -0.4649 -0.2190
 9467SOL     OW39862   0.433   3.656   4.920 -0.1464  0.1260 -0.6168
 9467SOL    HW139863   0.356   3.607   4.948  1.7760 -1.5993  1.6932
 9467SOL    HW239864   0.499   3.604   4.965  0.7976  0.7946 -1.2146
 9468SOL     OW39865   3.531   2.747   2.833 -0.3457  0.6418  0.1150
 9468SOL    HW139866   3.527   2.840   2.813  0.6766  0.4081 -1.1549
 9468SOL    HW239867   3.471   2.707   2.769  2.2748 -1.9820 -0.6942
 9469SOL     OW39868   4.558   2.298   6.375  0.3223 -0.0996 -0.4205
 9469SOL    HW139869   4.531   2.370   6.432 -0.1365 -0.7752  0.2150
 9469SOL    HW239870   4.528   2.334   6.292 -0.2060  0.1356 -0.1272
 9470SOL     OW39871   2.465   0.802   7.543 -0.6083 -0.0327 -0.1739
 9470SOL    HW139872   2.412   0.866   7.591  0.4044 -0.5817  1.7100
 9470SOL    HW239873   2.458   0.820   7.450 -1.6325  0.2539 -0.0389
 9471SOL     OW39874   2.367   1.554   8.920  0.2510  0.0095  0.5540
 9471SOL    HW139875   2.365   1.643   8.885 -0.2345 -0.4184 -0.5223
 9471SOL    HW239876   2.349   1.565   9.013 -0.6398  1.4466  0.2100
 9472SOL     OW39877   1.921   0.059   0.017 -0.3642  0.2264 -0.2997
 9472SOL    HW139878   1.858   4.708   0.010 -0.1216  0.2538 -2.5271
 9472SOL    HW239879   1.935   0.086  17.614  1.5387  1.4834  0.3769
 9473SOL     OW39880   3.341   0.429   7.172 -0.4421 -0.0660 -0.3925
 9473SOL    HW139881   3.326   0.384   7.254  1.7158  0.7121  0.4240
 9473SOL    HW239882   3.255   0.450   7.135 -0.6054 -0.2451 -0.1097
 9474SOL     OW39883   0.559   0.540  13.648 -0.1115 -0.0477  0.0317
 9474SOL    HW139884   0.474   0.524  13.606  0.3631  1.1120 -1.3866
 9474SOL    HW239885   0.590   0.621  13.607 -1.7561  0.7422  0.3560
 9475SOL     OW39886   1.046   3.878  10.293  0.1481  0.0657  0.1086
 9475SOL    HW139887   1.019   3.905  10.205 -1.6868  0.3710  0.7796
 9475SOL    HW239888   0.975   3.918  10.342  0.2032  1.4681 -0.9619
 9476SOL     OW39889   0.210   2.996  17.400  0.0319 -0.5942  0.0157
 9476SOL    HW139890   0.232   2.960  17.314  1.2345 -1.8063  0.8311
 9476SOL    HW239891   0.137   2.940  17.426 -0.5120 -0.5498 -1.4017
 9477SOL     OW39892   1.669   2.780  15.840  0.1132  0.2879  0.0865
 9477SOL    HW139893   1.577   2.759  15.820  0.7121 -1.4477 -0.8127
 9477SOL    HW239894   1.687   2.849  15.777  1.3848  0.3998  0.5749
 9478SOL     OW39895   2.877   4.266   7.202  0.8371 -0.5383 -0.7411
 9478SOL    HW139896   2.885   4.359   7.180  1.9895  0.2226  2.7368
 9478SOL    HW239897   2.915   4.214   7.132  0.3979 -2.3536  0.3723
 9479SOL     OW39898   0.623   1.459  11.714 -0.2296 -0.2907  0.2336
 9479SOL    HW139899   0.662   1.518  11.778  0.5967 -0.9169  0.2960
 9479SOL    HW239900   0.699   1.422  11.670 -0.6495 -0.8630 -0.0133
 9480SOL     OW39901   3.001   1.490   1.998  0.1472 -0.1086  0.0595
 9480SOL    HW139902   2.908   1.496   1.980 -0.1844  0.4604  2.0003
 9480SOL    HW239903   3.024   1.403   1.963 -0.9426  0.6053 -2.3755
 9481SOL     OW39904   2.793   4.463   0.021 -0.1999 -0.3658  1.0433
 9481SOL    HW139905   2.736   4.396   0.058  1.1908 -2.3939 -0.4343
 9481SOL    HW239906   2.880   4.423   0.012  1.0926  2.8525 -0.7742
 9482SOL     OW39907   1.364   4.660   2.285  0.1714 -0.1841  0.5210
 9482SOL    HW139908   1.350   4.690   2.374 -0.2878  1.8752 -0.2416
 9482SOL    HW239909   1.330   4.571   2.288  1.1691 -0.6031 -0.8352
 9483SOL     OW39910   2.375   0.379   4.170  0.3276  0.0488  0.1624
 9483SOL    HW139911   2.368   0.457   4.225 -1.0001 -1.0198  1.5227
 9483SOL    HW239912   2.287   0.340   4.174  0.5006 -0.3186  0.3927
 9484SOL     OW39913   4.371   0.622   9.217 -0.4646 -0.6565 -0.5326
 9484SOL    HW139914   4.425   0.701   9.209 -0.6218 -0.4368  0.6637
 9484SOL    HW239915   4.294   0.665   9.254 -0.3566 -1.8581  1.1088
 9485SOL     OW39916   3.462   1.966   2.533  0.0143  0.2598  0.4615
 9485SOL    HW139917   3.493   2.014   2.456 -0.4056  0.6937  0.5650
 9485SOL    HW239918   3.400   2.032   2.563 -1.0183 -0.4349 -0.1544
 9486SOL     OW39919   0.821   2.115   5.078  0.2593 -0.3824  0.4703
 9486SOL    HW139920   0.902   2.162   5.058 -0.4180  0.7539  0.4556
 9486SOL    HW239921   0.832   2.035   5.026 -0.2396 -0.1664  0.0280
 9487SOL     OW39922   3.444   1.138  13.431  0.6010  0.1807 -0.7383
 9487SOL    HW139923   3.364   1.087  13.449  0.0139  1.3363 -0.0218
 9487SOL    HW239924   3.510   1.077  13.398  0.5407  0.0336 -0.5878
 9488SOL     OW39925   1.919   1.334   8.622 -0.5931 -0.4548 -0.7585
 9488SOL    HW139926   1.951   1.376   8.542 -0.3981 -4.1575 -2.5752
 9488SOL    HW239927   1.865   1.405   8.658 -1.4855 -1.5521  0.0560
 9489SOL     OW39928   1.546   2.355   7.927  0.4235 -0.2229 -0.7812
 9489SOL    HW139929   1.514   2.276   7.970 -0.1978 -0.1440 -1.0981
 9489SOL    HW239930   1.489   2.366   7.850 -0.3840  0.8720 -0.0141
 9490SOL     OW39931   3.715   3.915   9.242  0.0513  0.9436  0.0269
 9490SOL    HW139932   3.740   3.908   9.334 -1.7061  1.1833  0.5145
 9490SOL    HW239933   3.629   3.955   9.248  0.2425  1.2959  0.4140
 9491SOL     OW39934   2.592   1.519   4.238  0.5620 -0.2356 -0.1274
 9491SOL    HW139935   2.566   1.459   4.308  2.0448  0.1107  0.7287
 9491SOL    HW239936   2.553   1.472   4.165  3.6741  0.7099 -2.3949
 9492SOL     OW39937   0.137   1.306   3.403  0.5167 -0.0521 -0.4470
 9492SOL    HW139938   0.225   1.275   3.380  0.8877  0.9322 -0.3781
 9492SOL    HW239939   0.140   1.381   3.344 -0.1878  0.7385  0.5189
 9493SOL     OW39940   1.146   0.792  10.608 -0.1645  0.0684  0.0925
 9493SOL    HW139941   1.092   0.721  10.575 -4.0196  1.9925  2.2719
 9493SOL    HW239942   1.136   0.854  10.536 -0.8545 -0.2737 -0.1022
 9494SOL     OW39943   3.600   0.021  11.801  0.0718  0.2025  0.6898
 9494SOL    HW139944   3.543   4.667  11.815 -1.7386  1.2512 -0.9791
 9494SOL    HW239945   3.634   0.038  11.889  0.6590  0.3733  0.4229
 9495SOL     OW39946   0.629   4.086  12.093  0.3112 -0.2410  0.5236
 9495SOL    HW139947   0.564   4.047  12.034  0.4965 -1.9256  1.4147
 9495SOL    HW239948   0.628   4.179  12.071  2.3329  0.0282  1.5808
 9496SOL     OW39949   3.544   4.463  16.097 -0.0141 -0.1918 -0.2635
 9496SOL    HW139950   3.521   4.515  16.020 -1.7324  0.2947  0.5829
 9496SOL    HW239951   3.487   4.507  16.161 -1.4140 -0.2603 -1.4554
 9497SOL     OW39952   2.998   3.751  15.124  0.0189 -0.1159 -0.6019
 9497SOL    HW139953   3.012   3.811  15.051 -0.4163 -0.3211 -0.8538
 9497SOL    HW239954   3.025   3.813  15.192  0.5294  0.1278 -1.0247
 9498SOL     OW39955   0.311   2.543  12.960  0.5022 -0.3970 -0.3683
 9498SOL    HW139956   0.228   2.503  12.935  0.1278  1.0405 -1.4005
 9498SOL    HW239957   0.369   2.469  12.939 -2.3264 -2.4764 -0.8658
 9499SOL     OW39958   4.288   0.447   4.589  0.1280  0.6215 -0.1106
 9499SOL    HW139959   4.338   0.482   4.515  0.0582  1.4315  0.2277
 9499SOL    HW239960   4.260   0.535   4.616  2.2486  1.4679 -0.7123
 9500SOL     OW39961   3.206   1.690   2.348 -0.1598  0.3796 -0.6411
 9500SOL    HW139962   3.153   1.770   2.350  0.0110  0.4816 -0.1098
 9500SOL    HW239963   3.241   1.685   2.259  0.3295 -1.0445 -0.3672
 9501SOL     OW39964   3.745   0.439   1.621  0.3063 -0.3622 -0.5973
 9501SOL    HW139965   3.737   0.491   1.701 -1.9810 -1.7444  0.0672
 9501SOL    HW239966   3.768   0.350   1.647 -0.7093 -0.6984 -0.8576
 9502SOL     OW39967   0.855   2.899  13.211  0.6344  0.3629 -0.1341
 9502SOL    HW139968   0.804   2.828  13.250  0.8444  0.3798  0.1773
 9502SOL    HW239969   0.840   2.984  13.253  1.2381  0.1087  0.5998
 9503SOL     OW39970   1.094   0.939  13.253  0.0789 -0.1726 -0.0643
 9503SOL    HW139971   1.187   0.958  13.237  0.0158  1.3049  1.3021
 9503SOL    HW239972   1.067   0.944  13.162 -3.5403  0.4954  1.0557
 9504SOL     OW39973   0.606   4.685   1.409  0.1329 -0.1229 -0.4853
 9504SOL    HW139974   0.631   4.648   1.324 -2.0048 -0.1924 -1.0922
 9504SOL    HW239975   0.664   0.038   1.426  0.4184 -0.1673 -1.2697
 9505SOL     OW39976   0.640   0.834  16.099  0.3152  0.5327 -0.7409
 9505SOL    HW139977   0.591   0.811  16.020  1.4955 -1.5878 -0.8342
 9505SOL    HW239978   0.720   0.857  16.051  1.4549 -0.5527  0.6735
 9506SOL     OW39979   0.279   3.401   2.685  0.7387  0.5898  0.3087
 9506SOL    HW139980   0.359   3.378   2.638  2.2532  1.7588  2.2627
 9506SOL    HW239981   0.205   3.384   2.627 -1.9155  0.1480  3.8234
 9507SOL     OW39982   3.140   0.148  12.723  0.2151 -0.2160 -0.1003
 9507SOL    HW139983   3.098   0.233  12.708 -0.1198 -0.2139  0.8241
 9507SOL    HW239984   3.064   0.093  12.707 -0.1159  0.6246 -1.3551
 9508SOL     OW39985   0.587   4.467  14.376  0.2563  0.2320  0.3045
 9508SOL    HW139986   0.491   4.469  14.378  0.1883 -0.4436 -1.7143
 9508SOL    HW239987   0.631   4.521  14.441  0.2046  1.0084 -0.2988
 9509SOL     OW39988   3.407   3.621   5.442 -0.3683  0.0147  0.6174
 9509SOL    HW139989   3.462   3.637   5.365  0.0548 -1.0694  0.7046
 9509SOL    HW239990   3.337   3.571   5.400  0.4648 -1.1698  0.6469
 9510SOL     OW39991   0.242   3.485   4.328  0.0532  0.6109  0.5659
 9510SOL    HW139992   0.255   3.450   4.241  0.8607 -0.7176  1.2240
 9510SOL    HW239993   0.293   3.423   4.380  2.2369  0.7512 -1.4582
 9511SOL     OW39994   0.805   4.525   8.586  0.0381  0.0496 -0.1182
 9511SOL    HW139995   0.815   4.449   8.528 -1.8072  0.3388 -0.7977
 9511SOL    HW239996   0.748   4.487   8.652  0.0515 -0.1965 -0.2461
 9512SOL     OW39997   4.716   2.287   5.027 -0.4946 -0.4882 -0.0818
 9512SOL    HW139998   4.659   2.334   4.967 -0.4951  1.3773  1.4019
 9512SOL    HW239999   4.682   2.316   5.112 -0.0462 -1.8550  0.5743
 9513SOL     OW40000   0.155   3.846  10.216  0.6099  0.1981  0.0795
 9513SOL    HW140001   0.229   3.881  10.266  0.4417  0.4416  0.1594
 9513SOL    HW240002   0.168   3.751  10.213 -0.4763  0.0443  0.2772
 9514SOL     OW40003   4.015   0.774  15.367 -0.2692 -0.2659  0.7087
 9514SOL    HW140004   3.932   0.746  15.330  0.1701 -0.9474  0.2391
 9514SOL    HW240005   3.997   0.853  15.417 -0.1416  0.5434 -0.5215
 9515SOL     OW40006   2.867   2.773  15.322  0.1453 -0.1472 -0.1418
 9515SOL    HW140007   2.863   2.689  15.276  0.0910  2.3362 -4.6459
 9515SOL    HW240008   2.777   2.778  15.354 -0.0175 -0.5050 -0.5435
 9516SOL     OW40009   2.062   0.505  10.491  0.6245  0.1232 -0.0265
 9516SOL    HW140010   2.121   0.451  10.544 -0.1126 -2.0268 -1.4155
 9516SOL    HW240011   2.099   0.495  10.403  1.6581  2.2727  0.1688
 9517SOL     OW40012   1.632   1.717   3.680 -0.5425  0.0238 -0.2214
 9517SOL    HW140013   1.691   1.778   3.636 -0.2329 -1.1242 -1.4144
 9517SOL    HW240014   1.638   1.650   3.613  0.6108  1.5963 -1.6886
 9518SOL     OW40015   4.517   2.426   9.348 -0.1235  0.2255 -0.3611
 9518SOL    HW140016   4.445   2.483   9.376 -1.3216 -0.9999 -0.9480
 9518SOL    HW240017   4.572   2.446   9.424  2.2784  0.3828 -2.1843
 9519SOL     OW40018   4.165   1.841   8.899  0.2976 -0.2550 -0.5189
 9519SOL    HW140019   4.116   1.837   8.817  0.1708 -1.5408 -0.3957
 9519SOL    HW240020   4.165   1.748   8.925  1.3073  0.2987  1.4875
 9520SOL     OW40021   3.575   3.328   1.454  0.2063 -0.2131  0.3220
 9520SOL    HW140022   3.498   3.366   1.411  0.5681  0.4455  0.2709
 9520SOL    HW240023   3.534   3.241   1.463 -1.9805  0.9309  1.5101
 9521SOL     OW40024   4.695   3.778   8.132  0.0171 -0.5868 -0.4991
 9521SOL    HW140025   4.671   3.687   8.114  0.0159 -0.2302 -2.2668
 9521SOL    HW240026   0.006   3.800   8.045  0.3578  3.4274  0.6464
 9522SOL     OW40027   0.137   4.303   8.929 -0.3911 -0.2878 -0.1865
 9522SOL    HW140028   0.116   4.370   8.864  1.6692  2.0509  1.5754
 9522SOL    HW240029   0.212   4.345   8.971  1.3511 -2.7334 -0.8472
 9523SOL     OW40030   0.687   3.374  10.916  0.4204 -0.0876 -0.5469
 9523SOL    HW140031   0.643   3.417  10.843  1.7246  3.0056  0.5042
 9523SOL    HW240032   0.683   3.281  10.894  0.7894 -0.4825  1.0206
 9524SOL     OW40033   4.097   0.633  12.528 -0.2942  0.2328 -0.0812
 9524SOL    HW140034   4.167   0.610  12.588  0.0841 -0.1419 -0.6630
 9524SOL    HW240035   4.073   0.716  12.569  0.5374  0.5902 -0.3217
 9525SOL     OW40036   4.114   2.051   7.694 -0.0680  0.2795 -0.5786
 9525SOL    HW140037   4.167   1.976   7.665 -0.7220 -1.6928  3.3284
 9525SOL    HW240038   4.167   2.130   7.692  1.9149 -1.0295  0.1782
 9526SOL     OW40039   2.997   4.480   5.331 -0.2728  0.4146 -0.1613
 9526SOL    HW140040   2.916   4.447   5.292 -1.2267  1.3630  0.9734
 9526SOL    HW240041   3.055   4.490   5.256  2.2680  1.7635  1.9647
 9527SOL     OW40042   1.903   0.783   2.322  0.1641  0.2910 -0.1089
 9527SOL    HW140043   1.858   0.752   2.401 -0.6988  2.5072  0.2534
 9527SOL    HW240044   1.943   0.704   2.285  0.6830  0.2316  0.5635
 9528SOL     OW40045   2.558   2.721   3.245  0.0473 -0.2803  0.3022
 9528SOL    HW140046   2.475   2.708   3.199  1.0865 -2.5869 -0.9340
 9528SOL    HW240047   2.572   2.816   3.240  0.4079 -0.3037  0.8499
 9529SOL     OW40048   4.442   0.525  11.918 -0.6350 -0.3420  0.0303
 9529SOL    HW140049   4.383   0.491  11.850 -0.1042 -1.7195  0.2459
 9529SOL    HW240050   4.511   0.459  11.928 -1.2661 -1.4638 -2.8354
 9530SOL     OW40051   3.458   4.419   4.806 -0.3857  0.7748 -0.0574
 9530SOL    HW140052   3.438   4.341   4.754 -0.8422  1.6174 -1.1457
 9530SOL    HW240053   3.472   4.486   4.739  2.2944  0.0409 -0.2078
 9531SOL     OW40054   1.641   4.356   8.653 -0.3030  0.2480  0.1495
 9531SOL    HW140055   1.598   4.340   8.737 -0.5189 -2.1199 -0.3923
 9531SOL    HW240056   1.647   4.264   8.626  0.9020 -0.0056  1.3177
 9532SOL     OW40057   3.883   0.710   5.501 -0.7676  0.3041  0.2207
 9532SOL    HW140058   3.793   0.740   5.496 -0.0840  2.5700  1.5327
 9532SOL    HW240059   3.910   0.710   5.409 -1.0022 -0.9786  0.1475
 9533SOL     OW40060   0.046   1.613   7.997  0.4723  0.0618 -0.4068
 9533SOL    HW140061   4.679   1.631   8.031  1.0687  0.5491  0.8852
 9533SOL    HW240062   0.091   1.576   8.072  0.1719  0.6685  0.0707
 9534SOL     OW40063   1.382   0.264   6.985 -0.2015  0.3547  0.0849
 9534SOL    HW140064   1.428   0.190   7.025 -3.5397 -1.5284  0.4123
 9534SOL    HW240065   1.315   0.278   7.051 -0.9518 -0.4873 -0.4915
 9535SOL     OW40066   1.282   3.972   5.476  0.3103  0.7680 -0.6850
 9535SOL    HW140067   1.336   4.024   5.535  0.4196 -0.4620  0.2926
 9535SOL    HW240068   1.258   4.039   5.412 -0.0120  0.3468 -1.0035
 9536SOL     OW40069   3.253   4.686   8.582  0.0894  0.2909 -0.4667
 9536SOL    HW140070   3.319   0.018   8.538  0.2639 -2.3801 -3.4222
 9536SOL    HW240071   3.305   4.666   8.660 -0.6583 -0.6064 -0.1999
 9537SOL     OW40072   0.984   4.452   7.083 -0.0743 -0.1733 -0.4146
 9537SOL    HW140073   0.908   4.429   7.031  0.0253  2.0971 -1.5855
 9537SOL    HW240074   0.936   4.452   7.166 -1.0628  1.0003 -0.9859
 9538SOL     OW40075   2.116   2.072   6.274  0.0180  0.1677 -0.0655
 9538SOL    HW140076   2.145   1.981   6.286  1.4639  0.2519 -2.9131
 9538SOL    HW240077   2.169   2.092   6.197 -1.0845  2.3288 -0.2607
 9539SOL     OW40078   0.189   3.169   2.346  0.2629  0.1823  0.0815
 9539SOL    HW140079   0.253   3.240   2.353  0.2792  0.1108  0.7040
 9539SOL    HW240080   0.115   3.214   2.305  1.0304  0.9533 -0.4685
 9540SOL     OW40081   0.134   3.104  12.207  0.6789  0.0600  0.1348
 9540SOL    HW140082   0.148   3.013  12.183 -1.2212  0.2030 -1.4955
 9540SOL    HW240083   0.215   3.150  12.183  1.1505 -1.7157 -1.6591
 9541SOL     OW40084   2.461   4.143   0.448  0.1914  0.0591 -0.4200
 9541SOL    HW140085   2.525   4.199   0.492 -0.2279  0.8001 -0.7427
 9541SOL    HW240086   2.442   4.180   0.362 -1.9828 -0.0706  0.0096
 9542SOL     OW40087   1.571   3.914   8.400  0.1694 -0.3763 -0.4285
 9542SOL    HW140088   1.557   3.841   8.339 -0.0133 -0.4547 -0.2928
 9542SOL    HW240089   1.504   3.969   8.360 -0.3392 -0.2427  0.6222
 9543SOL     OW40090   3.910   1.981   5.579  0.1258 -0.2504 -0.2126
 9543SOL    HW140091   3.995   2.005   5.541 -0.3928  0.0647 -1.1682
 9543SOL    HW240092   3.874   2.069   5.585  2.1994  0.7560 -2.4047
 9544SOL     OW40093   1.431   2.363   8.660 -0.2807  0.8040  0.6404
 9544SOL    HW140094   1.371   2.401   8.724 -0.7465 -1.1083  1.3307
 9544SOL    HW240095   1.396   2.402   8.579 -2.3310 -0.1183  1.0773
 9545SOL     OW40096   4.695   3.940   4.317 -0.0763 -0.0286  0.3035
 9545SOL    HW140097   0.028   3.895   4.252  0.2512  2.1279 -0.9406
 9545SOL    HW240098   4.714   4.031   4.292 -0.0401  0.4977  2.2736
 9546SOL     OW40099   1.462   2.841   5.948  0.1416 -0.4969 -0.8199
 9546SOL    HW140100   1.370   2.835   5.924 -0.0018  0.9499 -0.6692
 9546SOL    HW240101   1.461   2.830   6.043  0.6302 -1.7539 -0.9602
 9547SOL     OW40102   0.616   4.277   8.999 -0.1980 -0.0002  0.1503
 9547SOL    HW140103   0.577   4.190   9.003 -0.8570  0.5043  4.7469
 9547SOL    HW240104   0.571   4.335   9.061 -0.3262  0.4413 -0.3498
 9548SOL     OW40105   2.326   3.261  14.767 -0.2768 -0.0502 -0.0108
 9548SOL    HW140106   2.381   3.337  14.749 -0.4693  0.1023  0.0418
 9548SOL    HW240107   2.243   3.302  14.743 -0.4095  0.6015  1.5527
 9549SOL     OW40108   3.439   2.736   5.895 -0.2786  0.5941 -0.0656
 9549SOL    HW140109   3.457   2.822   5.858  1.1292  1.3856  2.3985
 9549SOL    HW240110   3.350   2.733   5.930 -0.5031  0.2442 -0.6708
 9550SOL     OW40111   3.775   4.557   7.525 -0.6134  0.2457 -0.9967
 9550SOL    HW140112   3.799   4.607   7.603  1.7591  0.1712 -1.6892
 9550SOL    HW240113   3.790   4.625   7.459  1.2930  0.3554 -0.4609
 9551SOL     OW40114   4.032   4.520   7.360  0.7522 -0.6834 -0.2630
 9551SOL    HW140115   4.089   4.534   7.435  2.3482 -0.8773 -1.4333
 9551SOL    HW240116   3.981   4.600   7.351  1.5241 -0.2301 -0.5807
 9552SOL     OW40117   4.090   0.362   2.177  0.0867  0.4036  0.1843
 9552SOL    HW140118   4.034   0.377   2.252 -0.4390 -1.4194  0.1322
 9552SOL    HW240119   4.174   0.341   2.217  0.0400 -3.4023 -1.7529
 9553SOL     OW40120   3.530   2.063   2.833  0.6933  0.3597  0.1412
 9553SOL    HW140121   3.438   2.050   2.813  1.3372 -1.2161 -1.8261
 9553SOL    HW240122   3.540   2.146   2.786  1.0980 -0.4983 -1.3071
 9554SOL     OW40123   3.014   3.254   2.829 -0.4034 -0.3626  0.1755
 9554SOL    HW140124   3.016   3.173   2.778  1.5483  0.8786 -1.7459
 9554SOL    HW240125   2.925   3.246   2.862 -0.5253 -0.3790 -0.1541
 9555SOL     OW40126   4.160   1.737   2.811  0.1121 -0.8926 -0.2678
 9555SOL    HW140127   4.133   1.710   2.723  0.7531  0.6498 -0.9400
 9555SOL    HW240128   4.097   1.805   2.837  1.4528  0.4043 -0.4230
 9556SOL     OW40129   4.265   1.043  12.579  0.0399 -0.0806 -0.3021
 9556SOL    HW140130   4.224   1.104  12.640 -2.2249 -2.0203  0.0642
 9556SOL    HW240131   4.193   1.024  12.519 -1.3312 -0.2126  1.4017
 9557SOL     OW40132   3.125   2.550   8.370 -0.1849 -0.3910 -0.4445
 9557SOL    HW140133   3.103   2.632   8.415  1.6177  0.0325 -0.3622
 9557SOL    HW240134   3.081   2.487   8.427 -0.5557 -1.3634 -1.8162
 9558SOL     OW40135   0.280   2.966   8.973  0.2844  0.2290  0.0527
 9558SOL    HW140136   0.199   2.962   8.923  0.2552 -1.6079  0.2438
 9558SOL    HW240137   0.269   2.882   9.017 -2.2368  0.7257  0.3343
 9559SOL     OW40138   0.963   0.486   4.099  0.3391  0.2134 -0.0674
 9559SOL    HW140139   1.034   0.427   4.075  0.3483 -0.0881  0.7083
 9559SOL    HW240140   1.014   0.567   4.106  0.0003  0.5902 -1.9353
 9560SOL     OW40141   1.750   1.104   8.533 -0.2323  0.7069 -0.4441
 9560SOL    HW140142   1.822   1.048   8.505 -0.7718  0.6434 -1.7023
 9560SOL    HW240143   1.804   1.179   8.556  0.0137  0.3382  0.1786
 9561SOL     OW40144   0.634   1.965   5.383 -0.2775 -0.5768  0.6269
 9561SOL    HW140145   0.635   1.933   5.472  1.2375 -0.7028  0.5581
 9561SOL    HW240146   0.693   2.039   5.395  1.1190 -1.2686 -1.9327
 9562SOL     OW40147   2.141   0.283   6.164  0.2992  0.9586 -0.4305
 9562SOL    HW140148   2.110   0.372   6.184 -1.0129  0.3627  0.1306
 9562SOL    HW240149   2.211   0.302   6.101  0.4989 -0.9124 -0.7768
 9563SOL     OW40150   1.787   2.082   8.062 -0.2342  0.1894  0.1398
 9563SOL    HW140151   1.815   2.080   8.153  0.0790 -1.5121  0.0047
 9563SOL    HW240152   1.812   1.991   8.044  0.5717  0.7996 -1.7984
 9564SOL     OW40153   1.810   0.345  10.054  0.2282 -0.1775  0.3530
 9564SOL    HW140154   1.735   0.324  10.110  0.2728  1.1216  0.9090
 9564SOL    HW240155   1.803   0.434  10.021  0.6995 -0.1333  0.3653
 9565SOL     OW40156   3.787   1.410  16.121  0.2194  0.0739  0.4415
 9565SOL    HW140157   3.866   1.456  16.092  0.0579  1.2305  1.8555
 9565SOL    HW240158   3.721   1.479  16.123  0.5482  0.2654  3.8200
 9566SOL     OW40159   0.795   2.427   8.743  0.4269 -0.2256 -0.5504
 9566SOL    HW140160   0.816   2.344   8.785 -0.8081  0.4340  1.3759
 9566SOL    HW240161   0.804   2.411   8.649  0.9610  1.6632 -0.8175
 9567SOL     OW40162   3.721   2.991   8.370 -0.3021  0.2166 -0.2704
 9567SOL    HW140163   3.635   2.952   8.386 -0.1926 -0.2390 -0.7707
 9567SOL    HW240164   3.764   2.911   8.339 -1.7829 -0.6177 -0.2084
 9568SOL     OW40165   4.465   4.483  12.438 -0.0451 -0.2680  0.0100
 9568SOL    HW140166   4.536   4.425  12.465  0.5053  0.3041 -0.1981
 9568SOL    HW240167   4.522   4.556  12.411  0.2685 -1.0379 -1.4444
   4.72126   4.72126  17.68736
