Membrane in water
40167
    1TCq1    O1    1   1.788   4.024  11.446  0.6512 -0.1311 -0.1160
    1TCq1    C1    2   1.722   4.137  11.420 -0.4660 -0.3285 -0.0572
    1TCq1    O2    3   1.772   4.226  11.354  0.2407 -0.3062 -0.1124
    1TCq1    C2    4   1.582   4.126  11.449 -0.4757 -0.1848  0.0835
    1TCq1    C3    5   1.514   4.237  11.422  0.2919  0.0785 -0.3777
    1TCq1    C4    6   1.390   4.257  11.487 -0.2551  0.4914 -1.1078
    1TCq1    C5    7   1.326   4.154  11.555  0.4858 -0.2957  1.1562
    1TCq1    C6    8   1.404   4.042  11.561  0.3287  0.3704 -0.1722
    1TCq1    C7    9   1.534   4.028  11.526  0.1174 -0.0598 -0.0684
    1TCq1    C8   10   1.342   3.938  11.646 -0.8293  0.1990  0.2686
    1TCq1    O4   11   1.264   3.969  11.735 -0.0644 -0.0546  0.0543
    1TCq1    C9   12   1.313   4.382  11.448  0.0313 -0.6843 -0.2219
    1TCq1    O5   13   1.206   4.408  11.511  0.7241 -0.4264  0.3517
    1TCq1    O6   14   1.378   4.469  11.383  0.4304  0.2130 -0.2951
    1TCq1    H1   15   1.737   3.942  11.462 -1.2061  0.9092 -0.5857
    1TCq1    H2   16   1.558   4.321  11.370 -0.0119 -0.6048 -1.7434
    1TCq1    H3   17   1.226   4.157  11.597 -0.5132 -1.0251 -1.2110
    1TCq1    H4   18   1.597   3.951  11.569  2.2386  0.7810 -1.6953
    2MPD2     C   19   1.312   3.421  11.709 -0.7645  0.5582  0.5174
    2MPD2    C1   20   1.258   3.518  11.784 -0.4651 -0.6817 -0.0194
    2MPD2    C2   21   1.276   3.649  11.746  0.1656 -0.1656 -0.0313
    2MPD2    C3   22   1.352   3.688  11.640  1.1073  0.2371  0.2920
    2MPD2    C4   23   1.415   3.594  11.566  0.5658 -0.8887  0.0003
    2MPD2    C5   24   1.388   3.460  11.603  0.7664 -0.8916 -0.3519
    2MPD2     H   25   1.226   3.727  11.802 -0.8026 -0.7848 -0.0290
    2MPD2    H1   26   1.466   3.610  11.472 -2.3881 -0.6262 -1.5506
    2MPD2    H2   27   1.312   3.313  11.720 -2.6029  0.7098  2.0513
    2MPD2    H3   28   1.423   3.376  11.544 -1.0712 -0.0208 -2.6835
    2MPD2     N   29   1.390   3.817  11.600  0.3971 -0.3117 -0.2235
    2MPD2    H5   30   1.455   3.821  11.522  0.3536 -0.8678 -0.2909
    2MPD2    N1   31   1.169   3.484  11.893  0.3982  0.5215  0.3710
    2MPD2    H7   32   1.101   3.552  11.924  0.8495 -0.0400  2.6464
    3TCq1    O1   33   0.360   0.244  10.622  0.2663 -0.0725 -0.6527
    3TCq1    C1   34   0.295   0.354  10.579 -0.3630 -0.0604 -0.2226
    3TCq1    O2   35   0.320   0.413  10.478 -0.5305  0.1539  0.0413
    3TCq1    C2   36   0.213   0.408  10.682  0.4471 -0.7098  0.2040
    3TCq1    C3   37   0.171   0.536  10.672 -0.0550 -0.3415  0.8626
    3TCq1    C4   38   0.086   0.581  10.769 -0.2143  0.2084  0.0212
    3TCq1    C5   39   0.051   0.504  10.874 -0.3186  0.0789  0.7040
    3TCq1    C6   40   0.097   0.375  10.877 -0.3189 -0.3841  0.6031
    3TCq1    C7   41   0.175   0.322  10.780  0.4736  0.3384 -0.5338
    3TCq1    C8   42   0.064   0.291  10.998 -0.1740  0.1806  0.0217
    3TCq1    O4   43   0.070   0.171  10.990  0.0870  0.4562  0.7641
    3TCq1    C9   44   0.044   0.724  10.765 -0.8238  0.6139 -0.0399
    3TCq1    O5   45   0.094   0.815  10.690 -0.1452 -0.3172 -0.1037
    3TCq1    O6   46   4.689   0.769  10.853  0.0577 -0.7589 -0.1798
    3TCq1    H1   47   0.424   0.214  10.554 -1.9684 -0.4706 -2.5808
    3TCq1    H2   48   0.216   0.587  10.587  0.1769 -1.5900  0.2472
    3TCq1    H3   49   4.712   0.546  10.952  2.3028 -0.2870  3.0305
    3TCq1    H4   50   0.197   0.216  10.777  1.2657  0.5089 -0.8288
    4MPD2     C   51   4.645   0.256  11.500  0.0859  0.1075  0.1732
    4MPD2    C1   52   4.647   0.388  11.458 -0.4795  0.1482  0.2566
    4MPD2    C2   53   4.671   0.422  11.326 -0.1172 -0.1373  0.3793
    4MPD2    C3   54   0.001   0.328  11.237  0.0273 -0.0118  0.0941
    4MPD2    C4   55   0.015   0.197  11.284 -0.1572 -0.3425 -0.8358
    4MPD2    C5   56   4.696   0.165  11.413  0.9928  1.1784 -0.8275
    4MPD2     H   57   4.663   0.526  11.297  0.2545 -0.2009  0.0539
    4MPD2    H1   58   0.056   0.112  11.230  0.8510  0.7267 -1.7467
    4MPD2    H2   59   4.616   0.219  11.598  0.3737  1.0232  0.6026
    4MPD2    H3   60   4.706   0.064  11.452 -1.4092  1.3158  0.1160
    4MPD2     N   61   0.031   0.371  11.104 -0.0832  0.2484 -0.5744
    4MPD2    H5   62   0.033   0.471  11.088  1.7943  0.5353  1.4228
    4MPD2    N1   63   4.608   0.493  11.540 -0.1934  0.9073  0.5977
    4MPD2    H7   64   4.577   0.572  11.485  0.6504 -0.2480 -1.5226
    5TCq1    O1   65   1.914   1.165  11.708 -0.6511  0.2486 -0.2464
    5TCq1    C1   66   1.961   1.266  11.780 -0.5158 -0.7712  0.0319
    5TCq1    O2   67   2.080   1.291  11.802 -0.1584  0.5393  0.1909
    5TCq1    C2   68   1.861   1.282  11.880  0.3853  0.3801 -0.5639
    5TCq1    C3   69   1.914   1.293  12.007 -0.0235  0.9595 -0.1146
    5TCq1    C4   70   1.825   1.308  12.111 -0.2661  0.4092  0.4390
    5TCq1    C5   71   1.694   1.288  12.086 -0.6045 -0.2058 -0.4236
    5TCq1    C6   72   1.648   1.272  11.958 -0.0755 -0.7367  0.3265
    5TCq1    C7   73   1.728   1.275  11.847 -0.3031  0.5761  0.3271
    5TCq1    C8   74   1.507   1.246  11.934  0.1974  0.4230 -0.0119
    5TCq1    O4   75   1.481   1.214  11.820  0.2745  0.5668 -0.0596
    5TCq1    C9   76   1.877   1.355  12.238 -0.1506 -0.0365 -0.5892
    5TCq1    O5   77   2.001   1.357  12.241  0.0441  0.4380 -0.1108
    5TCq1    O6   78   1.801   1.376  12.339 -0.2904  0.4223  0.2293
    5TCq1    H1   79   1.823   1.136  11.729 -0.5972 -0.3137 -0.7575
    5TCq1    H2   80   2.022   1.302  12.017 -0.0102 -0.0076  0.6074
    5TCq1    H3   81   1.630   1.287  12.174  2.2220  0.0719  1.6421
    5TCq1    H4   82   1.690   1.250  11.749  0.3469 -1.1822  0.5218
    6MPD2     C   83   1.203   1.312  12.130 -0.5327  0.6286  0.0385
    6MPD2    C1   84   1.282   1.256  12.035 -0.8053  0.0047  0.3868
    6MPD2    C2   85   1.218   1.193  11.932 -0.2124 -0.3320  0.0325
    6MPD2    C3   86   1.084   1.183  11.924 -0.1318  0.3055  0.7945
    6MPD2    C4   87   1.005   1.238  12.020  0.1247 -0.1149  0.7498
    6MPD2    C5   88   1.069   1.305  12.125 -0.7900  0.1332 -0.4772
    6MPD2     H   89   1.275   1.134  11.861  1.5661  1.2131  0.1906
    6MPD2    H1   90   0.897   1.234  12.021  0.1819 -1.1946  2.9053
    6MPD2    H2   91   1.254   1.370  12.206 -2.0836  2.8636 -0.6195
    6MPD2    H3   92   1.010   1.357  12.200  0.4559 -0.7876  1.1298
    6MPD2     N   93   1.030   1.115  11.805  0.2793 -0.3052 -0.4984
    6MPD2    H5   94   1.095   1.089  11.732 -0.4568 -2.3548 -0.4170
    6MPD2    N1   95   1.423   1.267  12.041 -0.0750 -0.0777 -0.3876
    6MPD2    H7   96   1.458   1.318  12.122  0.4560 -1.1899  0.0790
    7TCq1    O1   97   2.770   0.839  12.891  0.1155 -0.2376  0.0700
    7TCq1    C1   98   2.664   0.775  12.954 -0.4681 -0.0297  0.8329
    7TCq1    O2   99   2.607   0.667  12.925  0.0175  0.2861  0.2532
    7TCq1    C2  100   2.669   0.838  13.088 -0.2820  0.3222  0.0350
    7TCq1    C3  101   2.725   0.961  13.105  0.4921  0.3802 -0.3554
    7TCq1    C4  102   2.744   0.991  13.240 -0.0639 -0.1534 -0.3699
    7TCq1    C5  103   2.737   0.902  13.344 -0.1076 -0.0653 -0.2216
    7TCq1    C6  104   2.691   0.775  13.315  0.7624 -0.4475  0.8352
    7TCq1    C7  105   2.648   0.745  13.188  0.5042  0.2340  0.5559
    7TCq1    C8  106   2.638   0.694  13.414 -0.3415 -0.4044  1.2617
    7TCq1    O4  107   2.681   0.583  13.410 -0.8006 -0.4245 -0.2811
    7TCq1    C9  108   2.776   1.130  13.275 -0.4680  0.2006 -0.7808
    7TCq1    O5  109   2.780   1.213  13.181  0.5260  0.1922  0.3620
    7TCq1    O6  110   2.803   1.158  13.394 -0.4193 -0.1424 -0.1903
    7TCq1    H1  111   2.828   0.902  12.939  1.1767 -0.9765 -0.2500
    7TCq1    H2  112   2.740   1.035  13.027 -1.0742  1.1418  0.0556
    7TCq1    H3  113   2.777   0.924  13.442  1.4303 -0.5113 -0.7340
    7TCq1    H4  114   2.589   0.659  13.157  0.4855  0.9294 -1.3901
    8MPD2     C  115   2.444   0.639  13.877  0.5711 -0.0748  0.0107
    8MPD2    C1  116   2.477   0.535  13.785  0.4099  0.0021 -0.3264
    8MPD2    C2  117   2.513   0.578  13.655  0.3282 -0.2410 -0.2730
    8MPD2    C3  118   2.522   0.713  13.627  0.3738  0.0018 -0.0238
    8MPD2    C4  119   2.480   0.812  13.714  0.3432  0.8426 -0.1888
    8MPD2    C5  120   2.449   0.771  13.840 -0.1358  0.2866  0.6232
    8MPD2     H  121   2.542   0.500  13.585  2.0537  0.2422 -0.0945
    8MPD2    H1  122   2.477   0.915  13.683 -2.7043  1.0847  0.8954
    8MPD2    H2  123   2.411   0.612  13.977 -0.6944 -2.2378 -0.9711
    8MPD2    H3  124   2.416   0.859  13.894  1.7496  2.6478 -2.0960
    8MPD2     N  125   2.570   0.771  13.508 -0.2133  0.0441  0.5132
    8MPD2    H5  126   2.548   0.869  13.493  0.2420  0.0386 -0.1663
    8MPD2    N1  127   2.473   0.402  13.834  0.5070  0.3983  0.3187
    8MPD2    H7  128   2.430   0.393  13.925  1.2372 -1.2055  0.5059
    9TCq1    O1  129   4.676   4.255  10.711 -0.0880  0.0638  0.0992
    9TCq1    C1  130   0.059   4.223  10.781  0.5834 -0.0149  0.2546
    9TCq1    O2  131   0.064   4.155  10.881  0.1809  0.6099 -0.1208
    9TCq1    C2  132   0.179   4.262  10.702 -0.4317  0.4872 -0.3875
    9TCq1    C3  133   0.185   4.288  10.565  0.1819  0.0001  0.4535
    9TCq1    C4  134   0.307   4.316  10.506 -0.1273  0.2921 -0.0988
    9TCq1    C5  135   0.417   4.330  10.579 -0.0975 -0.9810 -1.2023
    9TCq1    C6  136   0.414   4.309  10.715 -0.4200 -0.4319 -0.3677
    9TCq1    C7  137   0.295   4.281  10.775 -0.3477 -0.4043  0.3303
    9TCq1    C8  138   0.530   4.353  10.792  0.8681 -0.5855 -0.6248
    9TCq1    O4  139   0.633   4.367  10.724  0.1231 -0.4259  1.0385
    9TCq1    C9  140   0.317   4.292  10.363 -0.2795  0.5893 -0.9382
    9TCq1    O5  141   0.430   4.325  10.312 -0.0518  0.5581  0.1562
    9TCq1    O6  142   0.241   4.211  10.313  0.2988  0.1347 -0.6358
    9TCq1    H1  143   4.703   4.303  10.630 -1.2725  0.9994  0.2539
    9TCq1    H2  144   0.110   4.258  10.492 -1.0939  0.4501  1.5872
    9TCq1    H3  145   0.517   4.343  10.539  1.6029 -1.4448  2.8944
    9TCq1    H4  146   0.291   4.256  10.881  0.0807  0.4022  0.5289
   10MPD2     C  147   0.725   4.463  10.969 -0.4070  0.1629 -0.2560
   10MPD2    C1  148   0.610   4.406  11.011  0.0733 -1.0362 -0.0610
   10MPD2    C2  149   0.587   4.393  11.148 -1.0682  0.8145 -0.9342
   10MPD2    C3  150   0.687   4.421  11.239 -0.0299 -0.1603  0.0123
   10MPD2    C4  151   0.813   4.472  11.193 -0.0407 -0.3189  0.3293
   10MPD2    C5  152   0.823   4.508  11.061  0.4918  0.5508 -0.1678
   10MPD2     H  153   0.488   4.360  11.178 -1.2309 -1.1082 -3.6126
   10MPD2    H1  154   0.897   4.488  11.260 -0.0261 -1.1248  0.5003
   10MPD2    H2  155   0.749   4.486  10.866 -2.8016  1.3731 -0.5236
   10MPD2    H3  156   0.918   4.543  11.022 -0.1774  2.8135  0.2495
   10MPD2     N  157   0.678   4.391  11.377  0.2163  0.2946 -0.0252
   10MPD2    H5  158   0.757   4.405  11.438  0.6219  1.1474 -0.7559
   10MPD2    N1  159   0.511   4.357  10.926 -0.2025 -0.0902 -0.4687
   10MPD2    H7  160   0.423   4.338  10.972 -0.2248  0.9498 -0.0876
   11TCq1    O1  161   1.322   4.253  14.589 -0.1296 -0.3143  0.0584
   11TCq1    C1  162   1.368   4.213  14.474 -0.6689  0.0155 -0.3567
   11TCq1    O2  163   1.367   4.294  14.380 -0.4306  0.2538  0.1702
   11TCq1    C2  164   1.390   4.073  14.463  0.4405  0.0064  0.0778
   11TCq1    C3  165   1.490   4.029  14.376  0.5965 -0.0273 -0.1475
   11TCq1    C4  166   1.511   3.893  14.371  0.0822 -0.3520 -0.1627
   11TCq1    C5  167   1.437   3.805  14.451  0.9565 -0.5279  0.1065
   11TCq1    C6  168   1.331   3.853  14.532  0.4472  0.2403  0.4619
   11TCq1    C7  169   1.307   3.985  14.538 -0.7037  0.7446  0.1639
   11TCq1    C8  170   1.256   3.766  14.619  0.0803  0.4613 -0.4312
   11TCq1    O4  171   1.203   3.826  14.711 -0.1512 -0.1009 -0.3160
   11TCq1    C9  172   1.620   3.834  14.299  1.0594  0.0911  0.4172
   11TCq1    O5  173   1.622   3.706  14.273  0.5234 -0.2326  0.3776
   11TCq1    O6  174   1.716   3.913  14.283 -0.0855  0.1896  0.5087
   11TCq1    H1  175   1.349   4.188  14.658 -0.5535 -0.0826  0.4428
   11TCq1    H2  176   1.548   4.095  14.314 -1.3422  1.5478 -0.2832
   11TCq1    H3  177   1.462   3.700  14.444  0.6450 -0.7733  2.6817
   11TCq1    H4  178   1.239   4.025  14.613 -0.8763  2.1606 -0.7387
   12MPD2     C  179   1.114   3.556  14.768 -0.5335 -0.2678  0.5360
   12MPD2    C1  180   1.157   3.540  14.636  0.7039  0.9313  0.5152
   12MPD2    C2  181   1.124   3.427  14.559  0.0102 -0.0482 -0.1986
   12MPD2    C3  182   1.033   3.337  14.612 -0.3448  0.4561 -0.5392
   12MPD2    C4  183   0.982   3.362  14.732  0.3837 -0.4346 -0.1363
   12MPD2    C5  184   1.031   3.466  14.811  0.3728 -0.1154 -0.5146
   12MPD2     H  185   1.160   3.410  14.458  1.6132  0.0021  0.3683
   12MPD2    H1  186   0.903   3.303  14.777 -0.4934  2.0489  1.5699
   12MPD2    H2  187   1.125   3.646  14.826 -0.9768  1.9031 -2.7736
   12MPD2    H3  188   0.990   3.461  14.911  2.3875  0.8777  0.3716
   12MPD2     N  189   0.988   3.228  14.532 -0.0772 -0.4160 -0.4227
   12MPD2    H5  190   1.036   3.223  14.442 -0.4024  0.3238 -0.6405
   12MPD2    N1  191   1.235   3.640  14.574 -0.1862 -0.3590  0.1282
   12MPD2    H7  192   1.252   3.624  14.476 -0.9691  0.2514 -0.1056
   13TCq1    O1  193   0.367   3.836  10.156 -0.3880 -0.3471 -0.1014
   13TCq1    C1  194   0.377   3.771  10.277  0.7234  0.1505  0.1197
   13TCq1    O2  195   0.317   3.672  10.310 -0.2309 -0.0575 -0.0137
   13TCq1    C2  196   0.448   3.858  10.374 -0.0593  0.4040  0.9168
   13TCq1    C3  197   0.554   3.934  10.345  0.8431  0.4028 -1.1866
   13TCq1    C4  198   0.605   4.015  10.441 -0.3366 -0.1332 -1.2715
   13TCq1    C5  199   0.551   4.017  10.568  0.5801 -0.1794  0.0704
   13TCq1    C6  200   0.443   3.929  10.592 -0.2690 -0.4177 -0.1593
   13TCq1    C7  201   0.390   3.846  10.499 -0.2522  0.4421 -0.5133
   13TCq1    C8  202   0.392   3.902  10.728  0.3089 -0.3406  0.9496
   13TCq1    O4  203   0.409   3.993  10.809 -0.1859  0.5209  0.0759
   13TCq1    C9  204   0.721   4.096  10.413  0.1016  0.0924 -1.3477
   13TCq1    O5  205   0.734   4.112  10.291  0.3492 -0.4336 -0.3824
   13TCq1    O6  206   0.793   4.126  10.510  0.6863 -0.0398 -0.1669
   13TCq1    H1  207   0.376   3.934  10.157  0.7703 -0.4552 -0.0748
   13TCq1    H2  208   0.591   3.941  10.243 -0.1345  0.3006 -1.5507
   13TCq1    H3  209   0.595   4.075  10.647  1.5018 -0.3127 -0.3444
   13TCq1    H4  210   0.300   3.788  10.515 -0.8361  1.1131 -1.3600
   14MPD2     C  211   0.272   3.567  10.843  0.4500  0.4474  1.1784
   14MPD2    C1  212   0.288   3.704  10.847  0.0185 -0.6795  0.8194
   14MPD2    C2  213   0.241   3.783  10.955 -0.2207  0.5218 -0.6712
   14MPD2    C3  214   0.198   3.718  11.066 -0.3560 -0.1304 -0.1817
   14MPD2    C4  215   0.197   3.579  11.065 -0.1589 -0.2382  0.1488
   14MPD2    C5  216   0.228   3.499  10.953  0.2502  0.2289  0.2792
   14MPD2     H  217   0.247   3.891  10.948 -2.2966  0.7592  1.2773
   14MPD2    H1  218   0.162   3.516  11.146  1.2571  0.0024  0.9433
   14MPD2    H2  219   0.308   3.504  10.763 -2.2701  0.1155  0.2002
   14MPD2    H3  220   0.235   3.391  10.953  1.5716  0.3156 -3.0885
   14MPD2     N  221   0.159   3.792  11.175 -0.0090 -0.9266 -0.0923
   14MPD2    H5  222   0.171   3.892  11.163 -1.7155 -0.8113 -0.8579
   14MPD2    N1  223   0.355   3.764  10.743 -0.9108  0.2964 -0.6677
   14MPD2    H7  224   0.377   3.696  10.671 -2.2369 -1.1491  0.2857
   15TCq1    O1  225   1.598   3.316   2.251 -0.2660  0.2611 -0.1503
   15TCq1    C1  226   1.666   3.308   2.140 -1.0198 -0.5219 -0.2021
   15TCq1    O2  227   1.786   3.273   2.138  0.1555  0.4088 -0.2554
   15TCq1    C2  228   1.570   3.284   2.038 -0.4939 -0.0084 -0.0568
   15TCq1    C3  229   1.497   3.397   1.998 -0.1523 -0.5549 -0.4572
   15TCq1    C4  230   1.432   3.404   1.881  0.0532  0.4009 -0.1125
   15TCq1    C5  231   1.456   3.307   1.792 -0.0593 -0.5627 -0.5816
   15TCq1    C6  232   1.531   3.198   1.829  0.4641 -0.0037  0.1459
   15TCq1    C7  233   1.585   3.174   1.951  0.3256  0.5211  0.4437
   15TCq1    C8  234   1.556   3.084   1.742  0.4203  0.4626  0.7106
   15TCq1    O4  235   1.569   2.973   1.790 -0.5801 -0.0519  0.0332
   15TCq1    C9  236   1.336   3.504   1.845  0.7547 -0.8659 -0.0040
   15TCq1    O5  237   1.320   3.606   1.920  0.1488 -0.1161 -0.1550
   15TCq1    O6  238   1.276   3.487   1.735  0.1532  0.0751 -0.1494
   15TCq1    H1  239   1.507   3.347   2.229 -0.7583 -0.1261  1.2900
   15TCq1    H2  240   1.494   3.487   2.058 -0.4387 -0.9861  0.1706
   15TCq1    H3  241   1.413   3.316   1.692 -1.5083 -1.0534  0.0054
   15TCq1    H4  242   1.658   3.096   1.969  0.2742  0.7717  1.7617
   16MPD2     C  243   1.625   3.121   1.380  0.2651  0.0707 -0.0492
   16MPD2    C1  244   1.627   3.053   1.504 -0.2836  0.1470 -0.5735
   16MPD2    C2  245   1.655   2.913   1.508  0.3946  0.3560 -0.1855
   16MPD2    C3  246   1.686   2.841   1.396  0.3112  0.7781 -0.0170
   16MPD2    C4  247   1.672   2.905   1.275  0.6041 -0.6252 -1.0103
   16MPD2    C5  248   1.649   3.042   1.267  0.1090 -0.0181 -0.3846
   16MPD2     H  249   1.634   2.862   1.601 -0.5225  0.9425 -0.0765
   16MPD2    H1  250   1.684   2.854   1.180  1.7127 -1.7630 -0.2497
   16MPD2    H2  251   1.610   3.228   1.378 -0.1182  0.0153 -0.0346
   16MPD2    H3  252   1.654   3.087   1.169  2.0862  1.9811  0.6217
   16MPD2     N  253   1.711   2.700   1.403 -0.2232  0.3523 -0.4442
   16MPD2    H5  254   1.727   2.662   1.496 -1.3077 -2.0308 -1.2491
   16MPD2    N1  255   1.588   3.127   1.617 -0.4113  0.0263  0.1842
   16MPD2    H7  256   1.566   3.224   1.601 -1.7894 -0.5909 -1.5864
   17TCq1    O1  257   0.667   3.611  11.635  0.0333 -0.3159  0.0444
   17TCq1    C1  258   0.752   3.535  11.711  0.3122  0.3762 -0.0761
   17TCq1    O2  259   0.717   3.433  11.767  0.0714  0.0110 -0.6592
   17TCq1    C2  260   0.863   3.520  11.625 -0.2292 -0.2165 -0.6911
   17TCq1    C3  261   0.911   3.391  11.602  0.0602 -0.0179 -0.0534
   17TCq1    C4  262   1.011   3.374  11.513 -0.6548 -0.5117  0.2911
   17TCq1    C5  263   1.068   3.473  11.435  0.0723 -0.3115 -0.4134
   17TCq1    C6  264   1.016   3.598  11.462  0.7656  0.1198 -0.1199
   17TCq1    C7  265   0.915   3.622  11.553 -0.3044  0.3196 -0.1805
   17TCq1    C8  266   1.074   3.712  11.397 -0.9085 -0.5301 -0.6325
   17TCq1    O4  267   1.019   3.821  11.403 -0.1327  0.2088 -0.1434
   17TCq1    C9  268   1.051   3.233  11.504  0.8601 -0.3176  0.5469
   17TCq1    O5  269   1.092   3.199  11.389  0.2153  0.4380 -0.1251
   17TCq1    O6  270   1.010   3.145  11.590 -0.4013 -0.2080 -0.1289
   17TCq1    H1  271   0.697   3.693  11.589  1.3034 -1.4204 -1.0808
   17TCq1    H2  272   0.870   3.309  11.659 -1.6140  1.5238  0.9783
   17TCq1    H3  273   1.119   3.439  11.346 -1.7336  0.8817 -1.9056
   17TCq1    H4  274   0.890   3.725  11.574 -0.9010  0.1587 -0.1146
   18MPD2     C  275   1.260   3.902  11.234  0.1398  0.0218 -0.3639
   18MPD2    C1  276   1.273   3.763  11.253 -0.4896 -0.5381 -0.1556
   18MPD2    C2  277   1.388   3.709  11.205  0.1134 -0.6541  0.3149
   18MPD2    C3  278   1.484   3.778  11.135 -0.5576  0.1731 -0.2817
   18MPD2    C4  279   1.472   3.915  11.130  0.5104 -0.0695 -0.3300
   18MPD2    C5  280   1.363   3.977  11.181  0.1480 -0.3744 -0.4995
   18MPD2     H  281   1.402   3.602  11.218  2.5455 -0.6167 -1.9614
   18MPD2    H1  282   1.552   3.975  11.087 -0.0527 -0.9049 -2.5244
   18MPD2    H2  283   1.180   3.958  11.283 -0.6570 -0.0946 -1.5442
   18MPD2    H3  284   1.356   4.085  11.181 -1.0051 -0.4516 -0.4049
   18MPD2     N  285   1.606   3.734  11.078  0.1190 -0.1295  0.1671
   18MPD2    H5  286   1.668   3.797  11.029  1.9363 -1.4135  0.8097
   18MPD2    N1  287   1.194   3.676  11.338  1.1550  0.6487  0.3340
   18MPD2    H7  288   1.223   3.579  11.349 -3.1361 -0.7448 -0.5624
   19TMC2    C1  289   2.145   3.745  14.268 -0.1578 -0.0057  0.9514
   19TMC2    C2  290   2.067   3.804  14.172  0.7977  0.6120 -0.3049
   19TMC2    C3  291   1.941   3.752  14.143  0.0095 -0.9841  0.6803
   19TMC2    C4  292   2.095   3.643  14.348  0.3183  0.4468 -0.6126
   19TMC2    C5  293   1.983   3.580  14.300  0.0065 -0.1340 -0.4341
   19TMC2    C6  294   1.899   3.638  14.201  0.0009  0.0737 -0.1401
   19TMC2     C  295   2.285   3.764  14.245  0.2392 -0.1986 -0.2837
   19TMC2     O  296   2.320   3.830  14.152 -0.3518 -0.3929 -0.0105
   19TMC2     H  297   2.116   3.874  14.105  0.4791 -0.6115 -1.8041
   19TMC2    H1  298   2.143   3.596  14.433 -1.4520 -0.0682  0.1120
   19TMC2    H2  299   1.808   3.586  14.174 -0.3103  0.6749 -0.2464
   19TMC2    C7  300   1.921   3.475  14.376  0.3248 -0.0703  0.0592
   19TMC2    C8  301   1.877   3.800  14.024  0.0149 -0.2799 -0.6211
   19TMC2    O1  302   2.006   3.398  14.416  0.3407  0.0800 -0.3187
   19TMC2    O2  303   1.942   3.830  13.927 -0.0672 -0.0364  0.3658
   19TMC2    O5  304   1.756   3.746  14.021  0.1925  0.1815 -0.2108
   19TMC2    H5  305   1.730   3.746  14.116 -0.8928 -0.8525 -0.5104
   20MPD2     C  306   2.572   3.829  14.295 -0.3557  0.3842  0.4957
   20MPD2    C1  307   2.503   3.720  14.345 -0.0630 -1.0404  0.2698
   20MPD2    C2  308   2.558   3.632  14.427 -0.1573  0.1781  0.7441
   20MPD2    C3  309   2.687   3.649  14.471 -0.8046 -0.2556  0.4020
   20MPD2    C4  310   2.758   3.755  14.414 -0.2024 -0.2708  0.2069
   20MPD2    C5  311   2.704   3.844  14.332 -0.4680 -0.3658  0.1584
   20MPD2     H  312   2.497   3.551  14.467  3.7369 -1.2451  3.7278
   20MPD2    H1  313   2.858   3.767  14.456 -0.9848 -0.4993  2.1698
   20MPD2    H2  314   2.522   3.890  14.220 -1.2169 -1.5347 -0.4904
   20MPD2    H3  315   2.759   3.931  14.299 -0.1298 -0.8450 -0.5508
   20MPD2     N  316   2.761   3.563  14.548 -0.5294 -0.4033  0.3835
   20MPD2    H5  317   2.852   3.602  14.572 -1.2389  2.4869 -1.6189
   20MPD2    N1  318   2.363   3.703  14.335  0.1256 -0.5659 -0.0769
   20MPD2    H7  319   2.318   3.638  14.399 -2.9765  0.4407 -1.2231
   21MPD2     C  320   4.609   4.378  14.637  0.5066 -0.1217 -0.4004
   21MPD2    C1  321   4.696   4.291  14.588 -0.0438 -0.0926 -0.4488
   21MPD2    C2  322   4.659   4.181  14.510  0.7531 -0.9447 -1.0595
   21MPD2    C3  323   4.523   4.160  14.487  0.2599  0.1122 -0.0063
   21MPD2    C4  324   4.437   4.254  14.531  0.0838 -0.4207  0.0580
   21MPD2    C5  325   4.479   4.367  14.598  0.1236  0.0463  0.0626
   21MPD2     H  326   0.015   4.109  14.498 -0.1222 -1.6557 -2.7055
   21MPD2    H1  327   4.331   4.237  14.517  0.3914 -2.0214 -0.3201
   21MPD2    H2  328   4.635   4.455  14.709 -2.5029 -0.5422  1.1213
   21MPD2    H3  329   4.401   4.434  14.634 -1.2845 -0.4888 -1.9736
   21MPD2     N  330   4.480   4.035  14.440 -0.2470  0.0103 -0.5249
   21MPD2    H5  331   4.383   4.028  14.411 -0.6430 -0.9803  1.0640
   21MPD2    N1  332   0.105   4.301  14.626 -0.5760 -0.0237 -0.0273
   21MPD2    H7  333   0.164   4.232  14.581 -1.9834 -1.2592  0.0033
   22TCq2    C1  334   4.546   3.916  14.428  0.5604  0.6917 -0.4999
   22TCq2    O2  335   4.514   3.823  14.352  0.6851  0.0125  0.0782
   22TCq2    C2  336   4.609   3.869  14.551 -0.7061  0.4223 -0.1526
   22TCq2    C3  337   0.018   3.845  14.531  0.5068 -0.3033  0.2196
   22TCq2    C4  338   0.107   3.862  14.635 -0.1530 -0.3075  0.4308
   22TCq2    C5  339   0.064   3.921  14.753 -0.9291  0.4923  0.6135
   22TCq2    C6  340   4.655   3.946  14.768  0.0251 -0.5284 -0.0707
   22TCq2    C7  341   4.565   3.919  14.669 -0.7669  0.2232  0.0873
   22TCq2    C8  342   4.611   4.031  14.875  0.4973  1.2105  0.0109
   22TCq2    O4  343   4.688   4.046  14.968 -0.2632 -0.1221  0.4628
   22TCq2    C9  344   0.251   3.854  14.602  0.2542  0.7693 -0.6150
   22TCq2    O5  345   0.329   3.894  14.693 -0.4013  0.4918 -0.0494
   22TCq2    O6  346   0.285   3.784  14.504  0.2999  0.0608 -0.1240
   22TCq2    H2  347   0.058   3.816  14.435 -0.1525 -0.3906 -0.0262
   22TCq2    H3  348   0.140   3.950  14.825  0.5888  0.4876 -1.0112
   22TCq2    H4  349   4.457   3.918  14.678 -0.7239 -1.6523  0.3694
   23MPD2     C  350   1.844   0.156  14.644  0.5321  0.1032  0.5728
   23MPD2    C1  351   1.749   0.233  14.716  0.1804 -0.6046 -0.0353
   23MPD2    C2  352   1.713   0.353  14.674 -0.0585 -0.0918 -0.5986
   23MPD2    C3  353   1.752   0.390  14.542 -0.3813  0.0490  0.3305
   23MPD2    C4  354   1.829   0.306  14.466 -0.3305  0.8531  0.0772
   23MPD2    C5  355   1.887   0.195  14.524 -0.2248  0.6324 -0.6456
   23MPD2     H  356   1.643   0.415  14.730  0.1650 -0.5596  0.2034
   23MPD2    H1  357   1.852   0.336  14.364 -0.9840 -2.4202 -1.0409
   23MPD2    H2  358   1.867   0.062  14.693  1.1613  0.0362  0.1362
   23MPD2    H3  359   1.960   0.132  14.474 -0.4260 -2.5522  3.0975
   23MPD2     N  360   1.703   0.515  14.485  0.2118 -0.2427  0.5008
   23MPD2    H5  361   1.702   0.517  14.383  1.9373 -2.3687  0.4295
   23MPD2    N1  362   1.698   0.182  14.835  0.3991 -0.5193  0.0349
   23MPD2    H7  363   1.620   0.236  14.870  1.2716  0.3588  0.6180
   24TCq2    C1  364   1.626   0.612  14.547  0.2888 -0.3389  0.4516
   24TCq2    O2  365   1.595   0.621  14.665 -0.2998 -0.3050 -0.6794
   24TCq2    C2  366   1.564   0.703  14.452  0.1210 -0.4649 -0.0215
   24TCq2    C3  367   1.625   0.742  14.333  0.1108 -0.5293  0.4848
   24TCq2    C4  368   1.566   0.830  14.252 -0.0486  0.7130 -0.2716
   24TCq2    C5  369   1.438   0.875  14.280 -0.1416 -0.6167 -0.2313
   24TCq2    C6  370   1.377   0.828  14.390 -0.1732  0.2287  0.1327
   24TCq2    C7  371   1.436   0.738  14.478 -0.4977  0.2237 -0.3028
   24TCq2    C8  372   1.237   0.865  14.430  0.2251 -0.8718 -0.1700
   24TCq2    O4  373   1.175   0.784  14.493 -0.0730 -0.2306 -0.5804
   24TCq2    C9  374   1.656   0.900  14.159 -0.2286  0.5743 -0.8041
   24TCq2    O5  375   1.605   1.004  14.111  0.5713 -0.4643  0.3952
   24TCq2    O6  376   1.750   0.827  14.108 -0.1547 -0.5404 -0.7344
   24TCq2    H2  377   1.729   0.720  14.312 -0.4433 -1.3897 -1.2889
   24TCq2    H3  378   1.392   0.943  14.209 -0.1614 -0.8311 -0.4250
   24TCq2    H4  379   1.376   0.702  14.560  0.3294 -1.2676 -0.3624
   25TMC2    C1  380   0.706   2.440  11.707 -0.8752  0.1202  0.1941
   25TMC2    C2  381   0.836   2.463  11.745  0.1355 -0.2486  0.0481
   25TMC2    C3  382   0.870   2.593  11.784  0.0447  0.4197 -0.0623
   25TMC2    C4  383   0.620   2.538  11.732  0.8121 -0.4336  0.1290
   25TMC2    C5  384   0.660   2.665  11.775  0.5717 -0.0749 -0.3607
   25TMC2    C6  385   0.788   2.703  11.788  0.0938  0.0381  0.4753
   25TMC2     C  386   0.689   2.350  11.599 -0.1307  0.1322 -0.3183
   25TMC2     O  387   0.784   2.278  11.563  0.0714 -0.3725 -0.4636
   25TMC2     H  388   0.906   2.380  11.736 -2.6794 -2.4663 -1.4095
   25TMC2    H1  389   0.513   2.525  11.721  0.8381 -0.5187 -0.0179
   25TMC2    H2  390   0.837   2.796  11.814  1.7866 -0.2638 -1.6571
   25TMC2    C7  391   0.557   2.759  11.805 -0.0845 -0.6131  0.3109
   25TMC2    C8  392   1.003   2.622  11.832  0.3637 -0.2284  0.9031
   25TMC2    O1  393   0.445   2.713  11.831 -1.0284  0.0211 -0.2986
   25TMC2    O2  394   1.074   2.714  11.794 -0.5425  0.1504  0.0498
   25TMC2    O5  395   1.047   2.520  11.910  0.0903  0.1272 -0.0310
   25TMC2    H5  396   0.976   2.457  11.936  1.1022 -1.2951 -0.7411
   26MPD2     C  397   0.419   2.229  11.182 -0.0511 -0.7458  0.3706
   26MPD2    C1  398   0.348   2.314  11.261  0.3161  0.1405 -0.6871
   26MPD2    C2  399   0.400   2.373  11.374 -0.0213 -1.0210  0.0977
   26MPD2    C3  400   0.525   2.330  11.417 -0.5257  0.5256  0.1603
   26MPD2    C4  401   0.601   2.250  11.330  0.0125  0.0204 -0.3364
   26MPD2    C5  402   0.545   2.198  11.213 -0.2471  0.7971 -0.1846
   26MPD2     H  403   0.345   2.441  11.438 -0.8210  0.2706 -1.9657
   26MPD2    H1  404   0.704   2.222  11.349  0.0895  1.4702  1.3461
   26MPD2    H2  405   0.385   2.177  11.093  4.6441 -2.4306 -0.4614
   26MPD2    H3  406   0.592   2.118  11.155 -0.0208  0.6306  0.2327
   26MPD2     N  407   0.571   2.373  11.539  0.1488  0.4921 -0.6661
   26MPD2    H5  408   0.507   2.430  11.593 -1.3206 -0.0746 -1.7953
   26MPD2    N1  409   0.212   2.348  11.222  0.0655  0.5666  1.3772
   26MPD2    H7  410   0.186   2.308  11.132  1.4493  2.8530 -0.0393
   27TMC2    C1  411   3.968   4.283  12.730  0.1835  0.1444  0.1710
   27TMC2    C2  412   4.081   4.311  12.652 -0.1098 -0.2991  0.3542
   27TMC2    C3  413   4.059   4.343  12.518 -0.2802 -0.2260 -0.0123
   27TMC2    C4  414   3.839   4.278  12.682 -0.1566  0.4603  0.2011
   27TMC2    C5  415   3.826   4.324  12.552 -0.6849 -0.2690  0.1681
   27TMC2    C6  416   3.933   4.364  12.474  0.1832 -0.7484  0.0376
   27TMC2     C  417   3.981   4.367  12.852 -0.1495  0.3331  0.1665
   27TMC2     O  418   4.098   4.405  12.866 -0.4260 -0.5346  0.0511
   27TMC2     H  419   4.183   4.296  12.686  0.0388 -0.1346 -0.0109
   27TMC2    H1  420   3.756   4.252  12.747 -0.2631 -0.0376 -0.1331
   27TMC2    H2  421   3.916   4.414  12.379  0.1162  0.5617  0.7412
   27TMC2    C7  422   3.706   4.402  12.529 -0.5588  0.2353 -0.1926
   27TMC2    C8  423   4.177   4.392  12.449 -0.1672 -0.2945  0.3741
   27TMC2    O1  424   3.725   4.514  12.488  0.5075 -0.7585  0.0461
   27TMC2    O2  425   4.276   4.440  12.502 -0.9858 -0.0699  0.1280
   27TMC2    O5  426   4.163   4.396  12.311 -0.3963 -0.4408 -0.4364
   27TMC2    H5  427   4.087   4.348  12.272  0.4261 -1.9545 -0.1516
   28MPD2     C  428   3.832   4.645  13.252 -0.5982 -0.5908  0.0189
   28MPD2    C1  429   3.730   4.561  13.218 -0.1413  0.1373 -0.0567
   28MPD2    C2  430   3.744   4.483  13.107  0.6610  0.3199  0.7154
   28MPD2    C3  431   3.859   4.477  13.037  1.1324  0.5052  0.3229
   28MPD2    C4  432   3.962   4.572  13.067  0.3895  0.2935  0.0379
   28MPD2    C5  433   3.948   4.650  13.183  0.0078 -0.2564 -0.3021
   28MPD2     H  434   3.666   4.421  13.065 -0.1282  2.0804 -0.4444
   28MPD2    H1  435   4.054   4.589  13.011  1.1334 -2.8442  0.3338
   28MPD2    H2  436   3.823   4.706  13.341 -2.8927 -2.3716  1.0169
   28MPD2    H3  437   4.037   4.707  13.206 -0.5370  0.1072  0.8971
   28MPD2     N  438   3.865   4.387  12.923  0.0762  0.0189  0.5135
   28MPD2    H5  439   3.786   4.327  12.901 -0.6934  1.1383  0.2046
   28MPD2    N1  440   3.602   4.580  13.264 -0.1853  0.1557 -0.7445
   28MPD2    H7  441   3.584   4.662  13.320  2.3305  0.2989 -0.1755
   29MPD2     C  442   2.783   2.055  14.348 -0.1075 -0.3943  0.0502
   29MPD2    C1  443   2.869   2.045  14.458 -0.0170  0.6203  1.1163
   29MPD2    C2  444   2.880   2.146  14.554  0.1289  0.1626  0.0033
   29MPD2    C3  445   2.811   2.266  14.536 -1.0075  0.2609 -0.1736
   29MPD2    C4  446   2.734   2.271  14.427 -0.1297 -0.3590  0.0738
   29MPD2    C5  447   2.718   2.175  14.334  0.2834  0.1483 -0.0415
   29MPD2     H  448   2.951   2.124  14.632 -0.9428  0.0184  0.9390
   29MPD2    H1  449   2.670   2.358  14.412  1.1967  0.4841 -0.7256
   29MPD2    H2  450   2.759   1.982  14.272  0.2709  0.5796 -0.9950
   29MPD2    H3  451   2.652   2.192  14.249  1.5981 -0.2146 -1.1408
   29MPD2     N  452   2.835   2.378  14.622 -0.4207  0.7907 -0.1995
   29MPD2    H5  453   2.772   2.457  14.611 -1.2925 -0.0110 -0.9271
   29MPD2    N1  454   2.958   1.930  14.468  0.2037  0.0585  0.3384
   29MPD2    H7  455   3.042   1.945  14.524  1.2469 -0.4876 -1.0682
   30TCq2    C1  456   2.916   2.375  14.734  0.6117 -0.4059 -0.1610
   30TCq2    O2  457   2.968   2.283  14.786  0.0619  0.0419 -0.2231
   30TCq2    C2  458   2.930   2.503  14.802  1.1410  0.1760 -0.0218
   30TCq2    C3  459   2.955   2.501  14.936  0.1825 -0.4531  0.0322
   30TCq2    C4  460   2.988   2.620  15.001 -0.0522 -0.9569 -0.3097
   30TCq2    C5  461   3.016   2.738  14.930  0.4303  0.3574  0.5511
   30TCq2    C6  462   2.998   2.733  14.792  0.4967 -0.0506 -0.1613
   30TCq2    C7  463   2.956   2.616  14.730  0.4325 -0.8042 -0.1794
   30TCq2    C8  464   3.055   2.839  14.715  0.2389 -0.7844  0.2704
   30TCq2    O4  465   3.010   2.848  14.602 -0.3879  0.9875 -0.2203
   30TCq2    C9  466   3.014   2.623  15.142  0.0536  0.0580 -0.2152
   30TCq2    O5  467   3.051   2.733  15.184 -0.1188  0.3241  0.4631
   30TCq2    O6  468   2.991   2.521  15.210 -0.2081 -0.3840  0.5415
   30TCq2    H2  469   2.936   2.411  14.994 -1.6195 -2.1776 -3.2580
   30TCq2    H3  470   3.072   2.810  14.987  2.0072  0.5604 -1.2451
   30TCq2    H4  471   2.940   2.616  14.623  0.8803 -0.0629 -0.2546
   31MPD2     C  472   1.024   0.950  15.247 -0.7999 -0.0844 -0.4287
   31MPD2    C1  473   0.907   1.013  15.223 -0.6364  0.2222  0.0170
   31MPD2    C2  474   0.802   0.984  15.312 -0.1890 -0.2931  0.2802
   31MPD2    C3  475   0.809   0.873  15.402  0.5637 -0.0465  0.1609
   31MPD2    C4  476   0.921   0.799  15.416 -0.3177  0.2815  0.7913
   31MPD2    C5  477   1.025   0.841  15.341  0.0702 -0.0370  0.2674
   31MPD2     H  478   0.716   1.049  15.302  0.6382  1.0472  1.8346
   31MPD2    H1  479   0.923   0.716  15.485 -2.2667  0.0320  0.5523
   31MPD2    H2  480   1.114   0.970  15.192 -0.6773  0.9339  0.1394
   31MPD2    H3  481   1.117   0.784  15.348  1.0038  1.4412 -0.0188
   31MPD2     N  482   0.712   0.852  15.506 -0.0996  0.4354 -0.3304
   31MPD2    H5  483   0.722   0.774  15.570  1.2926 -0.4317 -1.6062
   31MPD2    N1  484   0.908   1.114  15.127  0.0091 -0.3175 -1.3080
   31MPD2    H7  485   0.997   1.149  15.095  0.4171 -2.5779 -2.6043
   32TCq2    C1  486   0.583   0.911  15.510 -0.1453  0.2101  0.3457
   32TCq2    O2  487   0.533   0.983  15.431  0.7680  0.5281 -0.1124
   32TCq2    C2  488   0.494   0.871  15.620 -0.5004  0.8268  0.3745
   32TCq2    C3  489   0.360   0.902  15.613 -0.6460 -0.1068  0.4884
   32TCq2    C4  490   0.283   0.850  15.715 -0.3440 -0.7031 -0.1494
   32TCq2    C5  491   0.336   0.769  15.813 -0.1637  0.4922 -0.3431
   32TCq2    C6  492   0.467   0.748  15.818  0.0895 -0.1251 -0.2128
   32TCq2    C7  493   0.552   0.793  15.717 -0.6472  0.1641 -0.1842
   32TCq2    C8  494   0.536   0.688  15.926 -0.0891 -0.9660 -0.8510
   32TCq2    O4  495   0.643   0.633  15.913 -0.0279 -0.0812 -0.6307
   32TCq2    C9  496   0.142   0.886  15.727  0.5470  0.1586 -0.4683
   32TCq2    O5  497   0.084   0.936  15.625 -0.0151  0.6082 -0.2314
   32TCq2    O6  498   0.081   0.846  15.829  0.4823 -0.4178 -0.2315
   32TCq2    H2  499   0.313   0.968  15.541  1.9272 -0.2947 -1.3849
   32TCq2    H3  500   0.269   0.725  15.885  0.1566 -0.0362 -0.3682
   32TCq2    H4  501   0.657   0.770  15.729 -0.7098  0.0039  0.0543
   33MPD2     C  502   2.186   3.794  10.487  0.0095  0.6351 -0.0179
   33MPD2    C1  503   2.058   3.751  10.510  0.3774  0.1469 -0.1377
   33MPD2    C2  504   1.966   3.754  10.413  0.5201  0.5242  0.1784
   33MPD2    C3  505   1.991   3.826  10.288  0.0204 -0.4878  1.1098
   33MPD2    C4  506   2.119   3.881  10.271  0.7147 -0.0786 -0.1751
   33MPD2    C5  507   2.212   3.848  10.362 -0.1889 -0.2532  0.1236
   33MPD2     H  508   1.868   3.712  10.430  0.1138  1.0735 -0.7840
   33MPD2    H1  509   2.146   3.933  10.180  0.0810 -1.6781 -1.2939
   33MPD2    H2  510   2.265   3.779  10.559 -0.7762 -0.3324  0.6408
   33MPD2    H3  511   2.312   3.885  10.341 -1.0904  0.1652 -3.3725
   33MPD2     N  512   1.897   3.842  10.188 -0.2880  0.0647  0.5467
   33MPD2    H5  513   1.934   3.891  10.107 -1.6447 -0.4444 -0.3852
   33MPD2    N1  514   2.031   3.703  10.640 -0.7937  0.9651 -0.1446
   33MPD2    H7  515   2.103   3.696  10.711 -0.9701  1.4626  0.0826
   34TCq2    C1  516   1.781   3.762  10.179  1.2280  0.1865  0.5114
   34TCq2    O2  517   1.730   3.681  10.255 -0.1018  0.1751  0.0054
   34TCq2    C2  518   1.712   3.774  10.050 -0.0214  0.6153 -0.4715
   34TCq2    C3  519   1.660   3.656   9.998  0.6265  0.2098 -0.2303
   34TCq2    C4  520   1.608   3.650   9.867 -0.6975 -0.2017  0.0786
   34TCq2    C5  521   1.588   3.767   9.797  0.1691 -0.1284  0.5559
   34TCq2    C6  522   1.647   3.887   9.847  0.3463 -0.0280 -0.1975
   34TCq2    C7  523   1.699   3.890   9.980 -0.3557 -0.6716 -0.1694
   34TCq2    C8  524   1.624   4.017   9.784 -0.3649  0.1687  0.4526
   34TCq2    O4  525   1.639   4.117   9.857  0.3316 -0.2596  0.4029
   34TCq2    C9  526   1.578   3.526   9.805 -0.1060 -0.0711 -0.1135
   34TCq2    O5  527   1.626   3.425   9.858  0.2421  0.3002 -0.2691
   34TCq2    O6  528   1.491   3.528   9.718  0.3456 -0.0089  0.3338
   34TCq2    H2  529   1.659   3.560  10.049 -3.6811  0.2150 -0.3079
   34TCq2    H3  530   1.551   3.762   9.695 -2.9841 -0.4898  1.7302
   34TCq2    H4  531   1.733   3.984  10.022 -1.1278 -1.5942  2.5463
   35MPD2     C  532   3.010   0.799  12.498 -0.6345  0.2386 -0.0258
   35MPD2    C1  533   3.025   0.665  12.476 -0.5406 -0.1773  0.4033
   35MPD2    C2  534   3.017   0.617  12.345 -0.2052 -0.3833 -0.4189
   35MPD2    C3  535   2.996   0.707  12.240 -0.2522  0.7083 -0.6245
   35MPD2    C4  536   2.963   0.834  12.269  0.1019 -0.5244 -0.5090
   35MPD2    C5  537   2.974   0.879  12.393  0.3882  0.2130 -0.2286
   35MPD2     H  538   3.041   0.515  12.319  1.3415  0.2936 -1.6619
   35MPD2    H1  539   2.937   0.905  12.192  1.6665 -2.6824 -3.0565
   35MPD2    H2  540   3.000   0.832  12.601 -1.1292  0.5072 -0.1620
   35MPD2    H3  541   2.952   0.983  12.413  0.5413  0.1429  0.3141
   35MPD2     N  542   2.978   0.659  12.113 -0.2330  0.1957 -0.2649
   35MPD2    H5  543   2.981   0.558  12.118  0.8694  0.2289 -0.1688
   35MPD2    N1  544   3.024   0.579  12.585 -1.0291 -0.5872  0.6930
   35MPD2    H7  545   3.011   0.629  12.673  1.1768 -1.1932  1.3745
   36TCq2    C1  546   2.924   0.732  12.003  0.3483 -0.7358 -0.1221
   36TCq2    O2  547   2.928   0.855  11.979  0.3712  0.0386 -0.1556
   36TCq2    C2  548   2.839   0.655  11.912 -0.0744 -0.0783  0.7615
   36TCq2    C3  549   2.813   0.711  11.784 -0.2006  0.0407 -0.9988
   36TCq2    C4  550   2.741   0.648  11.692  0.0302 -0.2348  0.3475
   36TCq2    C5  551   2.692   0.524  11.726  0.4593 -0.0105 -0.5526
   36TCq2    C6  552   2.722   0.460  11.845 -0.0996 -0.4330  0.1141
   36TCq2    C7  553   2.785   0.535  11.947  0.2992  0.1684 -0.2014
   36TCq2    C8  554   2.703   0.316  11.843  0.5471  0.1186  0.5693
   36TCq2    O4  555   2.602   0.271  11.790 -0.5788  0.8047  0.2491
   36TCq2    C9  556   2.716   0.706  11.559  0.2244  0.1796  0.3155
   36TCq2    O5  557   2.704   0.834  11.552  0.6184 -0.0107 -0.7199
   36TCq2    O6  558   2.658   0.631  11.475  0.3482 -0.5821 -0.5150
   36TCq2    H2  559   2.857   0.804  11.750 -0.4288 -0.1973 -1.9565
   36TCq2    H3  560   2.632   0.465  11.657 -1.2042  0.7351  0.2563
   36TCq2    H4  561   2.808   0.491  12.043 -1.2699 -1.7086 -0.6808
   37TMC2    C1  562   0.229   0.074  11.754 -1.3585 -0.8013  0.3131
   37TMC2    C2  563   0.216   0.002  11.639 -0.2035 -0.7370  0.8844
   37TMC2    C3  564   0.325   4.724  11.557 -0.4917 -0.8191  0.6418
   37TMC2    C4  565   0.337   0.146  11.786  0.3220  0.4747  0.1254
   37TMC2    C5  566   0.443   0.145  11.704 -0.3972 -0.3282 -0.0063
   37TMC2    C6  567   0.442   0.070  11.588  0.0038 -0.3371  0.3963
   37TMC2     C  568   0.113   0.056  11.840 -0.0770  0.5856 -0.2044
   37TMC2     O  569   0.006   0.029  11.794  0.0577 -0.1485 -0.0558
   37TMC2     H  570   0.126   4.679  11.602  1.9955 -3.6514 -0.8582
   37TMC2    H1  571   0.329   0.222  11.863 -1.0263 -0.7135  1.1681
   37TMC2    H2  572   0.532   0.045  11.532 -0.3736  0.6443 -0.6438
   37TMC2    C7  573   0.564   0.220  11.738  0.3065 -0.4360  0.5120
   37TMC2    C8  574   0.324   4.658  11.423 -0.6834  0.0617 -0.3150
   37TMC2    O1  575   0.564   0.291  11.838  0.0643 -0.3811 -0.2722
   37TMC2    O2  576   0.422   4.659  11.349  0.1077  0.0258  0.2320
   37TMC2    O5  577   0.195   4.640  11.393 -0.5032  0.1098  0.4194
   37TMC2    H5  578   0.162   4.563  11.445 -0.8325 -0.3375 -0.4440
   38MPD2     C  579   4.594   0.214  12.258 -0.0720  0.8085 -0.5203
   38MPD2    C1  580   4.718   0.178  12.299 -0.5958  0.3455  0.3022
   38MPD2    C2  581   0.074   0.135  12.199  0.7189  0.6081  0.1198
   38MPD2    C3  582   0.036   0.119  12.068 -0.8198 -0.1858  0.2526
   38MPD2    C4  583   4.637   0.156  12.030  0.9708  0.6689 -0.4291
   38MPD2    C5  584   4.552   0.197  12.126  0.4843  0.7875  0.0718
   38MPD2     H  585   0.170   0.097  12.232 -0.2260 -3.3000 -1.6948
   38MPD2    H1  586   4.599   0.146  11.929 -0.1637  0.9303 -0.0224
   38MPD2    H2  587   4.525   0.254  12.332 -0.1428 -2.4631  1.1853
   38MPD2    H3  588   4.449   0.219  12.098  1.5827  3.8516 -1.6058
   38MPD2     N  589   0.137   0.088  11.972 -0.0788 -0.7409 -0.1470
   38MPD2    H5  590   0.231   0.098  12.009 -0.3168  1.4823 -0.1142
   38MPD2    N1  591   0.051   0.198  12.428  0.3817 -0.4100  0.1253
   38MPD2    H7  592   0.149   0.175  12.439 -0.4665 -3.5380  1.3037
   39MPD2     C  593   2.433   1.915   1.793  0.0799 -0.3920 -0.1096
   39MPD2    C1  594   2.315   1.967   1.847  0.0745  0.5585  0.2096
   39MPD2    C2  595   2.205   1.983   1.769 -0.0346  0.4209 -1.1118
   39MPD2    C3  596   2.198   1.946   1.637 -0.0252  0.4076  0.3212
   39MPD2    C4  597   2.314   1.885   1.583  0.3637 -0.5957  0.0881
   39MPD2    C5  598   2.431   1.876   1.658  0.2311 -0.1348  0.3271
   39MPD2     H  599   2.120   2.028   1.820  0.0989 -2.1850  1.4457
   39MPD2    H1  600   2.325   1.858   1.479 -3.3955  0.4578 -0.5782
   39MPD2    H2  601   2.522   1.898   1.854  0.3856  0.5952 -0.2856
   39MPD2    H3  602   2.515   1.834   1.605  0.2609 -0.5157  0.6719
   39MPD2     N  603   2.080   1.959   1.563 -0.9810  0.0825  0.0817
   39MPD2    H5  604   2.080   1.935   1.464 -2.8796  0.0582  0.0878
   39MPD2    N1  605   2.307   1.973   1.991 -0.3492 -0.0558  0.3876
   39MPD2    H7  606   2.400   1.963   2.030 -1.2783  0.1402  2.6615
   40TCq2    C1  607   2.199   1.964   2.072  0.5044 -0.1787  0.2335
   40TCq2    O2  608   2.082   1.967   2.039 -0.4997 -0.6237  0.0966
   40TCq2    C2  609   2.240   1.960   2.214  0.8394 -0.2288 -0.1185
   40TCq2    C3  610   2.134   1.976   2.299 -0.4398 -0.4048  0.8486
   40TCq2    C4  611   2.153   1.963   2.430  0.2104 -0.1349 -0.4154
   40TCq2    C5  612   2.278   1.974   2.482  0.2520 -0.1514  0.7036
   40TCq2    C6  613   2.382   1.976   2.399  0.0487  0.2114 -0.4936
   40TCq2    C7  614   2.367   1.971   2.264 -0.1455 -0.2695 -0.4727
   40TCq2    C8  615   2.500   1.899   2.447  0.3927 -0.9106  0.1592
   40TCq2    O4  616   2.486   1.833   2.548  0.7880  0.2292 -0.1053
   40TCq2    C9  617   2.032   1.983   2.513  0.2192  0.7364  0.3753
   40TCq2    O5  618   1.926   2.009   2.460 -0.2910  0.5597 -0.1111
   40TCq2    O6  619   2.049   1.968   2.637 -0.3053  0.2778 -0.4980
   40TCq2    H2  620   2.031   1.975   2.265  0.0257 -1.6735 -0.4966
   40TCq2    H3  621   2.299   1.973   2.588  0.0867  1.9037  0.7534
   40TCq2    H4  622   2.446   1.951   2.192 -0.3820  1.7803 -1.2942
   41TMC2    C1  623   2.160   0.558  14.088 -0.0948 -1.0427  0.4264
   41TMC2    C2  624   2.115   0.660  14.172 -0.8505  0.4959  0.2270
   41TMC2    C3  625   2.057   0.767  14.109 -0.3498 -0.0447 -0.1133
   41TMC2    C4  626   2.133   0.559  13.949 -1.2841  0.2190 -0.1005
   41TMC2    C5  627   2.073   0.663  13.894  0.0971 -0.4390  0.8821
   41TMC2    C6  628   2.041   0.775  13.971  0.2508 -0.8281  0.1163
   41TMC2     C  629   2.238   0.451  14.146 -0.3772  0.5309 -0.6685
   41TMC2     O  630   2.315   0.391  14.073 -0.1975 -0.0110  0.0963
   41TMC2     H  631   2.157   0.676  14.270  0.5198 -0.4930 -0.2042
   41TMC2    H1  632   2.172   0.473  13.895 -1.7174 -0.5583  0.8317
   41TMC2    H2  633   2.000   0.863  13.924 -2.1412 -0.8849  2.1295
   41TMC2    C7  634   2.111   0.705  13.759  0.5143  0.3556  0.1571
   41TMC2    C8  635   2.069   0.893  14.177 -0.3724 -0.5471 -0.2134
   41TMC2    O1  636   2.100   0.822  13.727 -0.7580  0.0802  0.0496
   41TMC2    O2  637   2.174   0.933  14.232  0.3946  0.0213  0.1691
   41TMC2    O5  638   1.962   0.967  14.138 -0.4740  0.5092  0.3326
   41TMC2    H5  639   1.888   0.905  14.120 -0.3998  0.4709  0.1545
   42MPD2     C  640   2.366   0.242  14.309  0.4531  0.2982 -0.5076
   42MPD2    C1  641   2.268   0.330  14.359  0.5492 -0.3662  0.2991
   42MPD2    C2  642   2.226   0.326  14.494 -0.4851  0.1998 -0.1830
   42MPD2    C3  643   2.272   0.225  14.575  0.0990  0.5758 -0.1633
   42MPD2    C4  644   2.355   0.133  14.529 -0.0420  0.1450  0.2580
   42MPD2    C5  645   2.408   0.144  14.399 -0.0534 -0.2565  0.2129
   42MPD2     H  646   2.160   0.404  14.530 -1.9615 -1.6287  1.0407
   42MPD2    H1  647   2.408   0.063  14.594 -2.5958 -1.5465  0.5123
   42MPD2    H2  648   2.404   0.242  14.207 -0.8399  0.8681 -0.9822
   42MPD2    H3  649   2.470   0.066  14.356 -0.1084  0.2735 -0.8344
   42MPD2     N  650   2.231   0.212  14.715  0.5414 -0.8459  0.0376
   42MPD2    H5  651   2.271   0.133  14.765 -0.6860 -2.4305 -1.4624
   42MPD2    N1  652   2.213   0.436  14.281  0.5507  0.7974  0.1178
   42MPD2    H7  653   2.144   0.490  14.334 -1.0477  0.3136 -1.4638
   43MPD2     C  654   2.690   3.257   0.695  0.1739 -0.2818  0.0247
   43MPD2    C1  655   2.771   3.209   0.799  0.2635  0.1263  0.1611
   43MPD2    C2  656   2.751   3.256   0.930 -0.0151  0.0559 -0.0303
   43MPD2    C3  657   2.657   3.363   0.954 -0.0894  0.0876 -0.0833
   43MPD2    C4  658   2.578   3.403   0.845  0.9494 -0.0369  0.8880
   43MPD2    C5  659   2.594   3.353   0.722 -0.0893 -0.7045 -0.1097
   43MPD2     H  660   2.818   3.229   1.011  0.4713  1.1605 -0.0657
   43MPD2    H1  661   2.508   3.485   0.861 -0.7542 -1.2399 -0.4108
   43MPD2    H2  662   2.712   3.221   0.595 -0.6750  2.2348 -1.0777
   43MPD2    H3  663   2.534   3.393   0.641 -0.5063 -0.3830  0.3545
   43MPD2     N  664   2.643   3.440   1.069 -0.6246 -0.0990 -0.4948
   43MPD2    H5  665   2.586   3.524   1.063  0.9318  0.9172 -1.0655
   43MPD2    N1  666   2.869   3.110   0.781  0.2805 -0.3033 -0.5578
   43MPD2    H7  667   2.917   3.074   0.864  2.1758 -0.9405 -1.9334
   44TCq2    C1  668   2.789   3.864   1.263  0.1189  0.8408  0.4729
   44TCq2    O2  669   2.787   3.876   1.142  0.6700  0.1614 -0.2775
   44TCq2    C2  670   2.762   3.735   1.318  0.7090 -0.4330  0.1935
   44TCq2    C3  671   2.772   3.717   1.447 -0.0888 -0.2308  0.5042
   44TCq2    C4  672   2.754   3.592   1.503 -0.3270 -0.2123  0.3662
   44TCq2    C5  673   2.722   3.489   1.416  1.1303 -0.3359 -0.1251
   44TCq2    C6  674   2.705   3.518   1.283 -0.2936  0.1054  0.0716
   44TCq2    C7  675   2.741   3.637   1.226 -0.1872  0.6561 -0.4013
   44TCq2    C8  676   2.704   3.408   1.195  0.6190 -0.2184 -0.2219
   44TCq2    O4  677   2.773   3.311   1.222  0.1227 -0.3262 -0.2700
   44TCq2    C9  678   2.747   3.566   1.643  0.0364  0.5906  0.5857
   44TCq2    O5  679   2.756   3.658   1.726 -0.2145 -0.2128 -0.0175
   44TCq2    O6  680   2.688   3.460   1.673 -0.4346 -0.1505 -0.2605
   44TCq2    H2  681   2.777   3.798   1.520  0.2676  0.8516 -0.7278
   44TCq2    H3  682   2.688   3.394   1.456 -1.2544  1.1074  1.2574
   44TCq2    H4  683   2.740   3.648   1.118 -1.9240 -2.2900 -0.6796
   45TMC2    C1  684   4.216   0.302  10.333  0.7239 -0.5624  0.6737
   45TMC2    C2  685   4.328   0.231  10.290  0.4460  0.4151  0.4125
   45TMC2    C3  686   4.432   0.295  10.235  0.3611  0.0513  0.3019
   45TMC2    C4  687   4.217   0.437  10.319  0.6972  0.4259  0.7798
   45TMC2    C5  688   4.326   0.503  10.272 -0.2695 -0.0139 -0.1461
   45TMC2    C6  689   4.434   0.431  10.221 -0.2350 -0.2011  0.1247
   45TMC2     C  690   4.099   0.219  10.373  0.2470  0.2457  0.7766
   45TMC2     O  691   4.127   0.106  10.403  0.5086  0.5304 -0.3509
   45TMC2     H  692   4.324   0.123  10.279  0.2972  0.4582  0.0547
   45TMC2    H1  693   4.140   0.493  10.372 -0.9944 -0.9048 -0.2469
   45TMC2    H2  694   4.522   0.478  10.180 -0.8555 -0.7088 -1.7837
   45TMC2    C7  695   4.324   0.638  10.283  0.6505  0.1495 -0.1805
   45TMC2    C8  696   4.547   0.226  10.192 -0.3749  0.5185  0.0711
   45TMC2    O1  697   4.286   0.688  10.388  0.3965  0.3092 -0.3572
   45TMC2    O2  698   4.581   0.121  10.240 -0.7099 -0.1536  0.2108
   45TMC2    O5  699   4.568   0.272  10.062 -0.1136 -0.0254 -0.0624
   45TMC2    H5  700   4.513   0.350  10.039 -0.5460 -0.4833 -0.5555
   46MPD2     C  701   3.834   0.096  10.358  0.1891 -0.4570  0.0702
   46MPD2    C1  702   3.858   0.225  10.319 -0.0867  0.6147 -0.1988
   46MPD2    C2  703   3.757   0.305  10.269  0.0528 -0.7663  0.3087
   46MPD2    C3  704   3.631   0.256  10.247 -0.1873 -0.2155  0.0889
   46MPD2    C4  705   3.599   0.124  10.275 -0.4666 -0.9094 -0.1213
   46MPD2    C5  706   3.708   0.051  10.326  0.4352  0.1435  0.4376
   46MPD2     H  707   3.779   0.401  10.224 -1.2131  0.3133  2.0009
   46MPD2    H1  708   3.498   0.087  10.271 -0.6716 -0.2416 -1.0386
   46MPD2    H2  709   3.905   0.030  10.406  0.0885 -0.6971 -0.1105
   46MPD2    H3  710   3.692   4.674  10.363 -3.7377  0.7995  0.4056
   46MPD2     N  711   3.547   0.342  10.170 -0.1418  0.2044  0.4643
   46MPD2    H5  712   3.588   0.430  10.141  0.7141 -0.2315  0.3485
   46MPD2    N1  713   3.985   0.287  10.345  0.0525 -0.6538 -0.1445
   46MPD2    H7  714   3.996   0.379  10.304  2.1757 -0.8430 -0.0105
   47TMC2    C1  715   0.137   1.084   9.272 -0.2650 -0.5088  0.1536
   47TMC2    C2  716   0.103   1.054   9.140 -0.5650  1.2753  0.3649
   47TMC2    C3  717   0.047   0.936   9.122  0.4839  1.0960  0.9185
   47TMC2    C4  718   0.131   0.999   9.374  0.5687  0.1054 -0.5552
   47TMC2    C5  719   0.081   0.874   9.348  0.2264 -0.0550 -0.1803
   47TMC2    C6  720   0.043   0.841   9.219 -0.2260  0.2331  0.4290
   47TMC2     C  721   0.216   1.205   9.284  0.0159  0.1628  0.9979
   47TMC2     O  722   0.174   1.307   9.226  0.2310 -0.3433  0.0045
   47TMC2     H  723   0.102   1.130   9.063  0.8316  0.2230 -0.6818
   47TMC2    H1  724   0.186   1.014   9.466  0.8164  1.7873 -0.9874
   47TMC2    H2  725   0.012   0.742   9.188 -0.0459  0.0019  0.9845
   47TMC2    C7  726   0.091   0.772   9.450 -0.4890  0.1257  0.4859
   47TMC2    C8  727   4.718   0.893   8.994 -0.4506  0.2603 -0.6696
   47TMC2    O1  728   0.072   0.657   9.414 -0.5644  0.4788  0.6159
   47TMC2    O2  729   4.620   0.819   8.993  0.1993 -0.1196 -0.0203
   47TMC2    O5  730   0.038   0.972   8.893  0.0477 -0.2086 -0.3609
   47TMC2    H5  731   0.128   1.002   8.916  0.0610  0.7433 -1.6387
   48MPD2     C  732   0.414   1.403   9.376 -0.7779  0.4103  0.1859
   48MPD2    C1  733   0.442   1.273   9.365 -0.6562  0.1238 -0.0297
   48MPD2    C2  734   0.571   1.223   9.384  0.4686 -0.6542  0.1599
   48MPD2    C3  735   0.672   1.308   9.416 -0.6611 -0.0865  0.3115
   48MPD2    C4  736   0.644   1.445   9.423  0.8064  0.5271  0.3703
   48MPD2    C5  737   0.514   1.491   9.413  0.0583 -0.7633  0.2852
   48MPD2     H  738   0.600   1.120   9.365  1.4182  0.0703 -2.3466
   48MPD2    H1  739   0.724   1.517   9.441 -0.3641  1.6367  1.1947
   48MPD2    H2  740   0.315   1.448   9.365 -0.7203  0.1863 -1.2080
   48MPD2    H3  741   0.502   1.598   9.421 -1.4293 -1.1024  2.7729
   48MPD2     N  742   0.803   1.254   9.421  0.5272 -0.2587  0.2433
   48MPD2    H5  743   0.819   1.155   9.408  2.9645  0.3590 -1.4646
   48MPD2    N1  744   0.340   1.178   9.336  0.3085 -0.2499 -0.1078
   48MPD2    H7  745   0.369   1.081   9.346  0.3176 -0.1102  1.1948
   49MPD2     C  746   0.709   3.784  11.045  0.6032 -0.0017 -0.2146
   49MPD2    C1  747   0.820   3.707  11.082  0.2720  0.2104 -0.1656
   49MPD2    C2  748   0.795   3.595  11.160 -0.6052  0.5177  0.6358
   49MPD2    C3  749   0.670   3.576  11.208 -0.0036 -0.0376  0.7576
   49MPD2    C4  750   0.559   3.664  11.197  0.2841 -0.1969 -0.1278
   49MPD2    C5  751   0.586   3.767  11.111 -0.5612 -0.1397 -0.7182
   49MPD2     H  752   0.879   3.532  11.187 -1.8761 -2.7737 -3.1122
   49MPD2    H1  753   0.461   3.664  11.242  0.1359 -0.7972 -0.4539
   49MPD2    H2  754   0.708   3.853  10.962 -2.1148  2.3308  1.7652
   49MPD2    H3  755   0.508   3.833  11.076 -0.0940  1.2203  0.8327
   49MPD2     N  756   0.640   3.458  11.282  0.1034 -0.6866 -0.6229
   49MPD2    H5  757   0.553   3.458  11.335  1.3648 -0.6034  1.4510
   49MPD2    N1  758   0.946   3.713  11.024  0.1620 -0.9611  0.4552
   49MPD2    H7  759   1.022   3.654  11.058  0.3882 -1.3342 -0.7070
   50TCq2    C1  760   0.992   3.820  10.951 -0.8205 -0.3534  0.0706
   50TCq2    O2  761   0.947   3.931  10.953  0.2370 -0.4330 -0.0350
   50TCq2    C2  762   1.126   3.804  10.905 -0.0787 -0.0921 -0.1749
   50TCq2    C3  763   1.175   3.678  10.878 -0.6955 -0.1578  0.1512
   50TCq2    C4  764   1.294   3.661  10.819 -0.4166  0.2071  0.1620
   50TCq2    C5  765   1.369   3.772  10.787 -0.9186  0.0160 -0.2199
   50TCq2    C6  766   1.313   3.900  10.798  0.0015  0.5745 -0.2837
   50TCq2    C7  767   1.195   3.915  10.858 -0.5489  0.0478 -0.5626
   50TCq2    C8  768   1.375   4.020  10.734 -1.1902  0.5125  0.6559
   50TCq2    O4  769   1.336   4.127  10.779  0.3754 -0.0780 -0.0021
   50TCq2    C9  770   1.354   3.532  10.824 -0.0690 -0.1455  0.9102
   50TCq2    O5  771   1.477   3.524  10.789  0.2393 -0.6941 -0.3512
   50TCq2    O6  772   1.296   3.444  10.887 -0.1662 -0.3490  0.0337
   50TCq2    H2  773   1.118   3.588  10.899  0.2751 -1.0616 -1.1723
   50TCq2    H3  774   1.459   3.753  10.730 -1.9139 -2.4850 -0.9369
   50TCq2    H4  775   1.146   4.010  10.874  0.4417  0.3457  0.7197
   51MPD2     C  776   1.470   1.100   2.088 -0.0500  0.1901  0.6236
   51MPD2    C1  777   1.355   1.114   2.012 -0.4570  0.5345  0.6019
   51MPD2    C2  778   1.296   1.236   2.013 -0.0948  0.3747 -0.4123
   51MPD2    C3  779   1.337   1.345   2.094 -0.5831  0.0365 -0.4504
   51MPD2    C4  780   1.451   1.328   2.168  1.5182 -0.7713  0.1814
   51MPD2    C5  781   1.513   1.207   2.162 -0.0486 -0.0847  0.4543
   51MPD2     H  782   1.211   1.241   1.946  0.4887  0.7555 -1.1191
   51MPD2    H1  783   1.495   1.405   2.231 -0.8484 -0.7532  1.7816
   51MPD2    H2  784   1.540   1.018   2.074 -0.0522  0.2177  0.4458
   51MPD2    H3  785   1.602   1.177   2.216  0.4899 -0.9313 -0.8716
   51MPD2     N  786   1.276   1.472   2.097 -0.6837  0.0527  0.0236
   51MPD2    H5  787   1.322   1.547   2.147 -0.0262  0.2002 -0.8142
   51MPD2    N1  788   1.304   1.017   1.929  0.1574 -0.2963  0.5004
   51MPD2    H7  789   1.224   1.041   1.872 -0.0092  0.6587  1.1432
   52TCq2    C1  790   1.148   1.490   2.043  0.3993  0.7790 -0.1983
   52TCq2    O2  791   1.073   1.411   1.987 -0.4848  0.2941 -0.4573
   52TCq2    C2  792   1.103   1.617   2.073  0.1281 -0.0115  0.8325
   52TCq2    C3  793   1.167   1.704   2.159  0.3233 -0.2567 -0.7114
   52TCq2    C4  794   1.119   1.827   2.184 -0.2175 -0.7838  0.1353
   52TCq2    C5  795   1.001   1.867   2.126  0.2851  0.1596  0.4638
   52TCq2    C6  796   0.931   1.781   2.052 -0.1684  0.7813  0.1732
   52TCq2    C7  797   0.976   1.654   2.024  0.5955 -0.2471  0.2195
   52TCq2    C8  798   0.816   1.838   1.984 -0.3619  1.1328 -0.5131
   52TCq2    O4  799   0.809   1.960   1.986  0.0404  0.0513  0.3611
   52TCq2    C9  800   1.183   1.902   2.285  0.9730 -0.0018  0.4031
   52TCq2    O5  801   1.289   1.855   2.335 -0.2616  0.0186  0.1021
   52TCq2    O6  802   1.137   2.018   2.316  0.6686 -0.0868  0.1779
   52TCq2    H2  803   1.252   1.679   2.221  0.6964  1.8419 -0.3888
   52TCq2    H3  804   0.965   1.965   2.157 -0.1119  0.1471  0.0525
   52TCq2    H4  805   0.921   1.583   1.963  1.2627 -0.0765 -0.5816
   53TMC2    C1  806   1.213   0.493  12.029  0.5460  0.0753  0.5512
   53TMC2    C2  807   1.352   0.496  12.061  0.5962 -0.9406 -0.2573
   53TMC2    C3  808   1.384   0.546  12.182  0.2147  0.0512  0.3691
   53TMC2    C4  809   1.119   0.540  12.114 -0.1912 -0.5869  0.8274
   53TMC2    C5  810   1.161   0.588  12.236  0.4704 -0.6519 -0.0030
   53TMC2    C6  811   1.292   0.587  12.271 -0.6559 -0.1885  0.1820
   53TMC2     C  812   1.178   0.435  11.897  0.1013  0.6555 -0.8358
   53TMC2     O  813   1.272   0.400  11.825  0.4897  0.4057  0.9048
   53TMC2     H  814   1.419   0.477  11.979  1.6256  1.2165  0.0859
   53TMC2    H1  815   1.016   0.554  12.081  0.1738  0.0319 -0.0461
   53TMC2    H2  816   1.334   0.640  12.356 -0.3940  0.0443 -0.0916
   53TMC2    C7  817   1.055   0.635  12.321  0.9412 -0.4712  0.1656
   53TMC2    C8  818   1.526   0.588  12.219 -0.0167 -0.1665 -0.0529
   53TMC2    O1  819   0.942   0.653  12.269 -0.0801 -0.0753 -0.1089
   53TMC2    O2  820   1.555   0.678  12.300 -0.0934 -0.3372 -0.4423
   53TMC2    O5  821   1.599   0.543  12.119 -0.6510 -0.4612  0.3429
   53TMC2    H5  822   1.561   0.461  12.083  1.9068 -1.6745  0.3710
   54MPD2     C  823   1.050   0.360  11.643 -0.1031  0.3235 -0.2436
   54MPD2    C1  824   0.982   0.368  11.756 -0.3154 -0.6224  0.2919
   54MPD2    C2  825   0.854   0.320  11.761 -0.6935 -0.0187  0.6472
   54MPD2    C3  826   0.787   0.282  11.643 -0.3079 -0.1762 -0.0394
   54MPD2    C4  827   0.857   0.282  11.530  0.8653 -0.1934 -0.0499
   54MPD2    C5  828   0.990   0.313  11.528 -0.5092 -0.3079  0.3853
   54MPD2     H  829   0.802   0.314  11.856  0.1951 -0.8539  1.0765
   54MPD2    H1  830   0.811   0.247  11.439  3.1096 -0.5757 -1.0302
   54MPD2    H2  831   1.155   0.385  11.627  0.4553  1.2746  4.8439
   54MPD2    H3  832   1.053   0.306  11.439  0.2075  0.0728  0.8597
   54MPD2     N  833   0.659   0.233  11.638 -0.4139  0.2117 -0.2170
   54MPD2    H5  834   0.629   0.207  11.544  2.5467  1.1852 -1.3955
   54MPD2    N1  835   1.044   0.402  11.878  0.1166  0.0425 -0.0286
   54MPD2    H7  836   0.968   0.426  11.941  0.4455 -0.2786  0.4937
   55MPD2     C  837   1.129   2.164   0.090  0.9125 -0.3085 -0.5930
   55MPD2    C1  838   1.118   2.234   0.207  0.3872 -0.4186  0.2763
   55MPD2    C2  839   1.007   2.313   0.236  0.4939 -0.3877  0.3333
   55MPD2    C3  840   0.905   2.319   0.141 -0.2601  0.1880 -0.1448
   55MPD2    C4  841   0.914   2.249   0.025  0.4938 -0.7924 -0.3329
   55MPD2    C5  842   1.024   2.168  17.696  0.1198  0.0719 -0.2431
   55MPD2     H  843   0.992   2.363   0.331 -2.8456 -0.4625 -0.1613
   55MPD2    H1  844   0.849   2.268  17.638 -0.5567  0.1094  0.6622
   55MPD2    H2  845   1.220   2.105   0.083  0.7661 -0.5933 -0.1249
   55MPD2    H3  846   1.038   2.117  17.601  2.6814  2.1554 -0.9887
   55MPD2     N  847   0.779   2.374   0.181 -0.0962 -0.0761  0.4807
   55MPD2    H5  848   0.781   2.437   0.261  1.4130  0.5594 -0.0552
   55MPD2    N1  849   1.223   2.224   0.303  0.1879  0.1239 -0.2522
   55MPD2    H7  850   1.298   2.157   0.292  0.0869 -0.3454  1.9753
   56TCq2    C1  851   1.223   2.287   0.428  1.0808 -0.4136 -0.4526
   56TCq2    O2  852   1.150   2.370   0.475 -0.5800 -0.7350 -0.0708
   56TCq2    C2  853   1.344   2.275   0.507  0.2148 -1.0329 -0.6467
   56TCq2    C3  854   1.456   2.217   0.452 -0.3226  0.7108 -0.4964
   56TCq2    C4  855   1.576   2.271   0.486 -1.0515  0.4414  0.3867
   56TCq2    C5  856   1.584   2.350   0.593 -0.1363  0.1137 -0.2289
   56TCq2    C6  857   1.470   2.387   0.658  0.2419  0.2290 -0.0954
   56TCq2    C7  858   1.352   2.353   0.621 -0.0527 -0.4216  0.8050
   56TCq2    C8  859   1.495   2.496   0.749 -0.0871 -0.1847 -0.1959
   56TCq2    O4  860   1.591   2.486   0.826 -0.2582  0.8650 -0.2979
   56TCq2    C9  861   1.698   2.222   0.423 -0.2916  0.2819 -0.4366
   56TCq2    O5  862   1.807   2.273   0.464 -0.0248 -0.2807  0.1089
   56TCq2    O6  863   1.686   2.130   0.340 -0.2095 -0.3258  0.0212
   56TCq2    H2  864   1.446   2.163   0.358 -0.8859  1.9321 -1.1418
   56TCq2    H3  865   1.676   2.393   0.631 -0.2925 -0.4422  0.7578
   56TCq2    H4  866   1.262   2.390   0.668 -1.0074  0.9760 -2.1843
   57TMC2    C1  867   0.825   3.536  13.921 -0.6163 -0.0365 -0.4790
   57TMC2    C2  868   0.873   3.459  14.022 -0.5027  0.5142  0.6869
   57TMC2    C3  869   1.013   3.436  14.007 -0.8463 -0.6693 -0.6839
   57TMC2    C4  870   0.910   3.592  13.823  0.0994 -0.0929 -0.1464
   57TMC2    C5  871   1.045   3.589  13.837 -0.3808  0.4842  0.2971
   57TMC2    C6  872   1.105   3.503  13.925 -0.5697  0.3487 -0.4800
   57TMC2     C  873   0.688   3.577  13.929 -0.6285  0.7541  0.1335
   57TMC2     O  874   0.626   3.541  14.029 -0.5456 -0.4609 -0.2467
   57TMC2     H  875   0.814   3.419  14.103 -0.4535  0.7149  0.8218
   57TMC2    H1  876   0.868   3.670  13.760 -0.7946  0.7422  1.4606
   57TMC2    H2  877   1.205   3.473  13.900 -1.2855 -2.0264 -0.4333
   57TMC2    C7  878   1.138   3.650  13.740 -0.3785  0.3246 -0.2338
   57TMC2    C8  879   1.062   3.361  14.125 -0.0602 -0.2855  1.0773
   57TMC2    O1  880   1.253   3.650  13.777 -0.3212  0.2972  0.2571
   57TMC2    O2  881   0.993   3.332  14.216  0.0894  0.1254  0.2396
   57TMC2    O5  882   1.186   3.309  14.104  0.1725 -0.4290 -0.0271
   57TMC2    H5  883   1.223   3.328  14.016 -0.9270 -1.1011 -0.6376
   58MPD2     C  884   0.250   3.770  13.753  0.5819 -0.3363  0.7097
   58MPD2    C1  885   0.295   3.755  13.886 -0.2037 -0.2597  0.2128
   58MPD2    C2  886   0.422   3.703  13.901 -0.4925  0.0451  0.8299
   58MPD2    C3  887   0.499   3.663  13.795  0.0419 -0.1454  0.0386
   58MPD2    C4  888   0.446   3.691  13.669 -0.0272  0.0753 -0.6540
   58MPD2    C5  889   0.321   3.737  13.641  0.4609  0.6824  0.3130
   58MPD2     H  890   0.457   3.697  14.004 -1.6736  4.1542  1.4464
   58MPD2    H1  891   0.512   3.680  13.584 -0.6872  1.1496 -1.3045
   58MPD2    H2  892   0.155   3.817  13.730  0.0969 -1.3516  0.6402
   58MPD2    H3  893   0.294   3.763  13.539  0.2299  0.2033  0.2515
   58MPD2     N  894   0.633   3.621  13.806 -0.2642  0.3443  0.4937
   58MPD2    H5  895   0.696   3.612  13.727  0.8801  2.7124  1.1359
   58MPD2    N1  896   0.227   3.804  13.994  0.4766  0.9167  0.1981
   58MPD2    H7  897   0.268   3.795  14.087  0.0450  1.5426  0.4529
   59MPD2     C  898   3.005   4.299  13.535  0.4365  0.2173 -0.1578
   59MPD2    C1  899   3.101   4.213  13.481  0.1614 -0.2626  0.7297
   59MPD2    C2  900   3.233   4.219  13.517  0.5430 -0.6965  0.4395
   59MPD2    C3  901   3.275   4.309  13.616 -0.4784 -0.2868  0.5261
   59MPD2    C4  902   3.180   4.388  13.680 -0.2711 -0.1742  0.3852
   59MPD2    C5  903   3.053   4.390  13.630  0.4443 -0.5369 -0.4041
   59MPD2     H  904   3.311   4.157  13.475 -0.9490 -1.2846 -1.4803
   59MPD2    H1  905   3.211   4.451  13.762  0.1662  0.5843 -0.3662
   59MPD2    H2  906   2.899   4.302  13.517  0.7186  1.9243 -1.5199
   59MPD2    H3  907   2.990   4.470  13.668  1.6149  0.4159 -0.4700
   59MPD2     N  908   3.406   4.337  13.647  0.2064 -0.4727  0.5312
   59MPD2    H5  909   3.423   4.408  13.718 -0.5062  0.3779 -0.1518
   59MPD2    N1  910   3.076   4.120  13.372 -0.0561  0.1435 -0.5063
   59MPD2    H7  911   3.155   4.080  13.322 -0.4988  1.7956 -2.5121
   60TCq2    C1  912   2.946   4.077  13.348  0.0408 -0.1463  0.6233
   60TCq2    O2  913   2.854   4.079  13.431 -0.1503 -0.3276 -0.3909
   60TCq2    C2  914   2.923   4.019  13.221  0.2705  0.3402 -0.0810
   60TCq2    C3  915   2.822   3.928  13.219  0.1446  0.1222 -0.3270
   60TCq2    C4  916   2.779   3.888  13.098  0.5063 -0.4793  0.3025
   60TCq2    C5  917   2.831   3.941  12.985 -0.3868 -0.5008 -0.1790
   60TCq2    C6  918   2.923   4.038  12.990  0.2833  0.5220  0.6618
   60TCq2    C7  919   2.985   4.069  13.103  0.3483  0.2624 -0.2747
   60TCq2    C8  920   2.963   4.105  12.868  0.7022  0.6149 -0.5520
   60TCq2    O4  921   2.939   4.055  12.759  0.3337  0.4782 -0.4762
   60TCq2    C9  922   2.680   3.782  13.081  0.1947 -0.2911 -0.1174
   60TCq2    O5  923   2.673   3.694  13.168 -0.3545 -0.3118 -0.0151
   60TCq2    O6  924   2.650   3.768  12.960 -0.2098 -0.7597  0.2735
   60TCq2    H2  925   2.780   3.883  13.309 -1.1406  1.1798 -0.3931
   60TCq2    H3  926   2.773   3.924  12.895 -1.5691  0.7460  0.3545
   60TCq2    H4  927   3.066   4.141  13.106  0.5988  0.0349 -1.7043
   61MPD2     C  928   2.446   0.642  15.028  0.1315 -0.5441 -1.0944
   61MPD2    C1  929   2.322   0.698  15.058  0.4127  0.1448  0.2046
   61MPD2    C2  930   2.260   0.795  14.981  0.0916  0.3800  1.1548
   61MPD2    C3  931   2.331   0.851  14.876  0.5223  1.3099  0.2385
   61MPD2    C4  932   2.460   0.804  14.853  0.7906 -0.0506  0.7348
   61MPD2    C5  933   2.518   0.704  14.928 -0.8605 -0.8927 -0.0953
   61MPD2     H  934   2.162   0.834  15.004 -0.7854 -0.6145 -0.9254
   61MPD2    H1  935   2.505   0.839  14.761  0.1971  0.9080  0.8048
   61MPD2    H2  936   2.490   0.560  15.083 -0.6721  0.1363  0.5569
   61MPD2    H3  937   2.615   0.666  14.901  0.6461  2.7796  0.0908
   61MPD2     N  938   2.281   0.956  14.800 -0.8084  0.2389  0.1621
   61MPD2    H5  939   2.345   1.006  14.739  0.3145 -0.6194  0.6434
   61MPD2    N1  940   2.256   0.671  15.182 -0.2396  0.0578 -0.5187
   61MPD2    H7  941   2.184   0.737  15.207 -0.4636 -0.5987  0.5504
   62TCq2    C1  942   2.305   0.590  15.279 -0.0293  1.2079 -0.7376
   62TCq2    O2  943   2.376   0.491  15.282  0.1184 -0.2037 -0.0052
   62TCq2    C2  944   2.260   0.651  15.408 -0.4636  0.2701 -0.4215
   62TCq2    C3  945   2.213   0.561  15.502  0.5812  0.1386 -0.2202
   62TCq2    C4  946   2.132   0.606  15.604  0.5923 -0.3379 -1.2010
   62TCq2    C5  947   2.108   0.744  15.622  0.0013 -0.3390 -0.3219
   62TCq2    C6  948   2.158   0.827  15.523 -0.1671  0.2175 -0.6964
   62TCq2    C7  949   2.236   0.785  15.419  0.0874 -0.1495  0.3988
   62TCq2    C8  950   2.110   0.966  15.529  0.5017 -0.2415 -0.2994
   62TCq2    O4  951   2.179   1.045  15.469  0.5686 -0.3835 -0.0138
   62TCq2    C9  952   2.107   0.521  15.715  0.3572 -0.0725 -0.1411
   62TCq2    O5  953   2.160   0.403  15.711 -0.0246  0.2165  0.1215
   62TCq2    O6  954   2.074   0.576  15.824 -0.4028  0.0641  0.6363
   62TCq2    H2  955   2.240   0.456  15.506 -0.1174 -0.0051  0.8626
   62TCq2    H3  956   2.052   0.776  15.709 -1.1953 -0.4545 -1.0552
   62TCq2    H4  957   2.275   0.855  15.347  0.0432  0.3776  0.8828
   63TMC2    C1  958   0.924   1.254  10.912  0.2645 -0.7772  0.6820
   63TMC2    C2  959   0.850   1.354  10.958  0.1743 -0.3487 -0.2638
   63TMC2    C3  960   0.775   1.413  10.855  0.2323 -0.3357 -0.6652
   63TMC2    C4  961   0.933   1.210  10.784  0.3920  0.8250 -0.6174
   63TMC2    C5  962   0.855   1.274  10.683 -0.3749  0.5576  0.4391
   63TMC2    C6  963   0.771   1.372  10.724 -0.0714  0.0323 -0.1148
   63TMC2     C  964   1.017   1.190  11.008  0.6797 -0.9016 -0.4280
   63TMC2     O  965   1.029   1.247  11.115 -0.2246 -0.0480 -0.4572
   63TMC2     H  966   0.858   1.392  11.058 -0.8693  1.2677 -0.7963
   63TMC2    H1  967   0.996   1.126  10.757 -1.5867 -0.6306 -0.7389
   63TMC2    H2  968   0.719   1.426  10.646  0.5036  0.7464  0.0024
   63TMC2    C7  969   0.879   1.253  10.544  0.0289  0.2651 -0.1143
   63TMC2    C8  970   0.695   1.521  10.880  0.2618  0.1491  0.6582
   63TMC2    O1  971   0.795   1.296  10.466 -0.3497 -0.5074 -0.1255
   63TMC2    O2  972   0.599   1.558  10.811  0.4289 -0.1629 -0.3207
   63TMC2    O5  973   0.786   1.609  10.921 -0.0407  0.2517  0.7526
   63TMC2    H5  974   0.877   1.589  10.890  0.2395  1.3416  0.8814
   64MPD2     C  975   1.281   0.825  11.236 -0.3957  0.8414  1.0129
   64MPD2    C1  976   1.281   0.787  11.109  0.1658 -0.1212 -0.5690
   64MPD2    C2  977   1.211   0.886  11.028 -0.1964  0.2592  0.7681
   64MPD2    C3  978   1.152   0.998  11.069  0.5681  0.3197  0.2954
   64MPD2    C4  979   1.151   1.020  11.207 -0.2077  0.6518  0.3944
   64MPD2    C5  980   1.209   0.930  11.291 -0.6989 -0.1982 -0.4589
   64MPD2     H  981   1.200   0.865  10.922 -1.5807  2.1819  0.5493
   64MPD2    H1  982   1.094   1.096  11.260  0.7031  1.6519 -0.0361
   64MPD2    H2  983   1.337   0.770  11.311 -0.0947 -1.6998 -1.0799
   64MPD2    H3  984   1.225   0.938  11.398  1.2405 -1.5115 -0.6389
   64MPD2     N  985   1.074   1.069  10.975 -0.1945  0.2599 -0.0310
   64MPD2    H5  986   1.064   1.032  10.880 -1.5371  1.1988 -0.2577
   64MPD2    N1  987   1.347   0.671  11.058  0.2331 -0.1573  0.5589
   64MPD2    H7  988   1.331   0.642  10.962  1.6752  2.0866 -0.3360
   65MPD2     C  989   3.189   0.138  16.125  0.0088  0.1351 -0.8125
   65MPD2    C1  990   3.148   0.159  15.995 -0.1199 -0.4435 -0.0133
   65MPD2    C2  991   3.093   0.051  15.923 -0.0029 -0.5165 -0.5606
   65MPD2    C3  992   3.074   4.652  15.977 -0.8497  0.0840 -0.1578
   65MPD2    C4  993   3.115   4.630  16.104 -0.9525  0.3845  0.0868
   65MPD2    C5  994   3.172   0.012  16.176  0.2487  0.0279  0.1426
   65MPD2     H  995   3.063   0.076  15.821 -0.2769  1.7887  0.1008
   65MPD2    H1  996   3.123   4.534  16.154  0.2042  0.7406  0.5915
   65MPD2    H2  997   3.251   0.208  16.180 -0.2217 -0.6002  0.3997
   65MPD2    H3  998   3.210   0.002  16.277 -1.8670 -2.0020  0.7305
   65MPD2     N  999   3.009   4.545  15.914 -0.5279  0.1218 -0.0465
   65MPD2    H5 1000   2.970   4.470  15.970 -1.0019 -0.1640 -0.7574
   65MPD2    N1 1001   3.170   0.278  15.930  0.2854  0.2105  0.8644
   65MPD2    H7 1002   3.153   0.283  15.830 -1.3711  0.4036  1.1505
   66TCq2    C1 1003   3.191   0.400  15.995  1.4073 -0.3196  0.0273
   66TCq2    O2 1004   3.173   0.434  16.111 -0.0285  0.5562 -0.4328
   66TCq2    C2 1005   3.212   0.508  15.894 -0.4380 -0.2632 -0.1002
   66TCq2    C3 1006   3.234   0.478  15.763 -0.5245  0.1279  0.2077
   66TCq2    C4 1007   3.228   0.568  15.661 -0.0017 -0.2655  0.2521
   66TCq2    C5 1008   3.204   0.699  15.687 -0.1505  0.2624  0.2292
   66TCq2    C6 1009   3.170   0.730  15.819  0.4292  0.5873 -0.1421
   66TCq2    C7 1010   3.165   0.635  15.921  0.1047 -0.1549  0.1795
   66TCq2    C8 1011   3.114   0.860  15.852  0.1056 -0.1536 -0.3617
   66TCq2    O4 1012   3.161   0.955  15.790  0.1335 -0.2277 -0.3835
   66TCq2    C9 1013   3.282   0.535  15.532  0.1325 -0.3305  0.7673
   66TCq2    O5 1014   3.274   0.416  15.502 -0.0188 -0.5953  0.3679
   66TCq2    O6 1015   3.327   0.630  15.466 -0.4968  0.0056 -0.7490
   66TCq2    H2 1016   3.282   0.386  15.733 -0.5338  0.6373 -1.3659
   66TCq2    H3 1017   3.239   0.775  15.619 -0.6078 -1.8357 -2.3399
   66TCq2    H4 1018   3.146   0.660  16.024  1.4121  0.0856  0.3660
   67MPD2     C 1019   3.134   4.209  14.375 -0.6562  0.4493  0.1134
   67MPD2    C1 1020   3.100   4.331  14.444 -0.6813  0.0681 -0.0545
   67MPD2    C2 1021   2.971   4.362  14.468 -0.6591  0.2462  0.1896
   67MPD2    C3 1022   2.860   4.283  14.423 -0.1895  0.1361 -0.4230
   67MPD2    C4 1023   2.896   4.173  14.341  0.0209 -0.1207  0.3369
   67MPD2    C5 1024   3.030   4.135  14.326 -0.0819  0.1172  0.6744
   67MPD2     H 1025   2.955   4.450  14.529 -0.7621  1.7447 -2.0127
   67MPD2    H1 1026   2.812   4.109  14.316 -0.6709  1.2142 -0.7777
   67MPD2    H2 1027   3.235   4.177  14.351 -0.7498  0.6222 -0.4987
   67MPD2    H3 1028   3.063   4.043  14.278 -3.9331 -1.0972  0.3831
   67MPD2     N 1029   2.727   4.320  14.431  0.1710 -0.2498  0.0466
   67MPD2    H5 1030   2.665   4.258  14.380 -0.5387  1.7523 -1.5061
   67MPD2    N1 1031   3.203   4.414  14.499  0.1674 -0.2621  0.3108
   67MPD2    H7 1032   3.174   4.484  14.566 -0.4318  0.5524 -0.7945
   68TCq2    C1 1033   3.332   4.401  14.465  0.1389 -0.0480  0.3685
   68TCq2    O2 1034   3.394   4.327  14.388 -0.3917  0.9032 -0.4974
   68TCq2    C2 1035   3.403   4.514  14.526  0.7283  0.3898  0.5304
   68TCq2    C3 1036   3.336   4.629  14.562  0.3467 -0.0770  0.2922
   68TCq2    C4 1037   3.388   4.705  14.659  0.5658  0.5255 -0.2664
   68TCq2    C5 1038   3.492   4.669  14.739  0.6214  0.5109 -0.5726
   68TCq2    C6 1039   3.567   4.560  14.700  0.3874  0.0407 -0.5885
   68TCq2    C7 1040   3.519   4.480  14.594 -0.2734  0.7354 -0.0125
   68TCq2    C8 1041   3.648   4.488  14.795  0.2726 -0.0148  0.5892
   68TCq2    O4 1042   3.706   4.383  14.758  0.2006 -0.5224 -0.1541
   68TCq2    C9 1043   3.319   0.100  14.694  0.0478  0.1544  0.1683
   68TCq2    O5 1044   3.256   0.156  14.603  0.5903  0.0322 -0.1314
   68TCq2    O6 1045   3.295   0.116  14.814 -0.9737 -0.6846  0.6163
   68TCq2    H2 1046   3.258   4.662  14.494  0.2357  1.2462  1.0584
   68TCq2    H3 1047   3.526   0.019  14.810 -1.2630 -0.3266  1.2073
   68TCq2    H4 1048   3.571   4.395  14.551 -2.3114 -1.8194  2.5060
   69TMC2    C1 1049   0.452   0.812  13.206 -0.1193  0.1010 -0.4135
   69TMC2    C2 1050   0.336   0.876  13.229 -0.0505 -0.2556 -0.7049
   69TMC2    C3 1051   0.290   0.981  13.146  0.2331 -0.3968 -0.2315
   69TMC2    C4 1052   0.537   0.874  13.117  0.3936 -0.5102  0.2903
   69TMC2    C5 1053   0.495   0.975  13.029  0.2917  0.7205 -0.3616
   69TMC2    C6 1054   0.363   1.023  13.038  0.1438 -0.0984 -0.9502
   69TMC2     C 1055   0.453   0.668  13.201  0.8610  0.0751  0.2534
   69TMC2     O 1056   0.347   0.619  13.237 -0.3188 -0.2098  0.5665
   69TMC2     H 1057   0.271   0.830  13.302 -0.6195  1.0601 -0.3850
   69TMC2    H1 1058   0.640   0.840  13.110  0.2557 -0.7106 -0.8166
   69TMC2    H2 1059   0.322   1.110  12.987  0.3794  0.7141  0.2520
   69TMC2    C7 1060   0.592   1.017  12.931 -0.1159 -0.2385 -0.3146
   69TMC2    C8 1061   0.171   1.062  13.170  0.0117  0.0724  0.0862
   69TMC2    O1 1062   0.710   1.012  12.963  0.6373 -0.2900 -0.4621
   69TMC2    O2 1063   0.088   1.077  13.080 -0.1768  0.3915 -0.1980
   69TMC2    O5 1064   0.143   1.052  13.303 -0.4924 -0.8330 -0.2807
   69TMC2    H5 1065   0.223   1.050  13.361 -2.5787 -0.2340  2.6124
   70MPD2     C 1066   0.739   0.443  13.205 -0.0073 -0.1878  0.7102
   70MPD2    C1 1067   0.608   0.478  13.206  1.0404  0.4432 -0.7427
   70MPD2    C2 1068   0.516   0.379  13.204 -0.0782  0.5615  0.0013
   70MPD2    C3 1069   0.555   0.248  13.216  0.8380  0.0689 -0.0506
   70MPD2    C4 1070   0.689   0.214  13.216  0.5274 -0.0732 -0.6683
   70MPD2    C5 1071   0.779   0.312  13.207 -0.2045 -0.0388  0.2377
   70MPD2     H 1072   0.410   0.399  13.203 -0.1055  0.4150  0.7058
   70MPD2    H1 1073   0.719   0.110  13.220 -1.5566 -0.6413  0.4655
   70MPD2    H2 1074   0.815   0.520  13.198 -1.1457  0.8413 -0.2784
   70MPD2    H3 1075   0.884   0.287  13.195 -1.0654 -2.2541 -2.7974
   70MPD2     N 1076   0.466   0.140  13.229  0.1413 -1.2832 -0.5741
   70MPD2    H5 1077   0.500   0.044  13.226  1.9498 -0.6362 -0.8589
   70MPD2    N1 1078   0.584   0.610  13.189 -0.6140  0.6606 -0.4407
   70MPD2    H7 1079   0.666   0.669  13.180 -0.6747  0.7866 -0.1685
   71TMC2    C1 1080   2.674   1.555   1.842 -0.3553  0.8520  0.3751
   71TMC2    C2 1081   2.798   1.516   1.897  0.4574 -0.0696 -0.2575
   71TMC2    C3 1082   2.807   1.523   2.034  0.8108  0.5247 -0.3311
   71TMC2    C4 1083   2.570   1.595   1.917  0.3796  0.6935  0.2308
   71TMC2    C5 1084   2.584   1.595   2.049 -0.0391 -0.6547 -0.0385
   71TMC2    C6 1085   2.701   1.554   2.107  0.2470 -0.0831 -0.1657
   71TMC2     C 1086   2.652   1.531   1.702 -0.2777 -0.2564 -0.1057
   71TMC2     O 1087   2.535   1.499   1.674 -0.6524  0.5371 -0.1571
   71TMC2     H 1088   2.878   1.484   1.831 -0.3751 -1.5061 -0.5666
   71TMC2    H1 1089   2.480   1.634   1.871  0.4179  1.9293  1.1939
   71TMC2    H2 1090   2.709   1.553   2.215  0.4678 -0.0296 -0.1813
   71TMC2    C7 1091   2.467   1.618   2.136  0.1937 -0.2625 -0.0172
   71TMC2    C8 1092   2.910   1.444   2.106 -0.1846  0.3736 -0.1215
   71TMC2    O1 1093   2.483   1.643   2.257 -0.3560 -0.4316 -0.1363
   71TMC2    O2 1094   2.885   1.404   2.217 -0.4086  0.2151  0.4040
   71TMC2    O5 1095   3.021   1.419   2.037 -0.1591  0.2150 -0.3859
   71TMC2    H5 1096   3.021   1.457   1.946 -5.1093  1.5343  0.1686
   72MPD2     C 1097   2.795   1.547   1.209  0.2211 -0.3895 -0.8363
   72MPD2    C1 1098   2.667   1.554   1.254  0.8718  0.2075  0.1639
   72MPD2    C2 1099   2.649   1.554   1.390  0.2132 -0.0275 -0.0908
   72MPD2    C3 1100   2.760   1.551   1.473 -0.0741  0.2031  0.0816
   72MPD2    C4 1101   2.885   1.546   1.423  0.5822  0.2934  0.0665
   72MPD2    C5 1102   2.901   1.554   1.292  0.8665 -0.1819 -0.1996
   72MPD2     H 1103   2.553   1.567   1.440 -0.7474 -1.2653 -1.5840
   72MPD2    H1 1104   2.977   1.534   1.480 -0.6109 -1.7320  1.5512
   72MPD2    H2 1105   2.809   1.554   1.102  0.4674 -1.1384 -0.8498
   72MPD2    H3 1106   3.001   1.553   1.251  0.5701 -1.2068 -0.8720
   72MPD2     N 1107   2.759   1.552   1.616  0.5017 -0.4197 -0.1539
   72MPD2    H5 1108   2.850   1.579   1.654 -0.6167  0.2631  2.0685
   72MPD2    N1 1109   2.548   1.553   1.174  0.2136  0.8787 -0.3330
   72MPD2    H7 1110   2.468   1.582   1.229  0.9416  2.1120  0.0987
   73TMC2    C1 1111   2.261   3.083  14.313 -0.2986 -0.4719 -0.0414
   73TMC2    C2 1112   2.193   3.125  14.426  0.5009  0.3550 -0.1361
   73TMC2    C3 1113   2.247   3.107  14.551  0.1021 -0.4149  0.2952
   73TMC2    C4 1114   2.374   3.014  14.328  0.1357  0.1984 -0.1191
   73TMC2    C5 1115   2.431   3.005  14.454  0.0471 -0.8119 -0.3989
   73TMC2    C6 1116   2.372   3.046  14.565  0.6606 -1.0269  0.3044
   73TMC2     C 1117   2.253   3.161  14.199 -0.0280  0.0534 -0.0196
   73TMC2     O 1118   2.358   3.165  14.143  0.3713  0.2780  0.4301
   73TMC2     H 1119   2.097   3.174  14.411 -0.1630 -0.4929  1.2720
   73TMC2    H1 1120   2.429   2.981  14.240 -0.7523  1.6082 -1.1981
   73TMC2    H2 1121   2.429   3.047  14.658  1.2613 -0.3110 -0.0673
   73TMC2    C7 1122   2.573   3.023  14.456 -0.4007  0.5817  0.3212
   73TMC2    C8 1123   2.214   3.197  14.656 -0.1591  0.1634 -0.8122
   73TMC2    O1 1124   2.639   2.985  14.549  0.0567 -0.2546  0.3826
   73TMC2    O2 1125   2.275   3.189  14.762  0.0187  0.4393  0.1808
   73TMC2    O5 1126   2.218   3.316  14.591 -0.5344  0.6611  0.2010
   73TMC2    H5 1127   2.152   3.316  14.519 -0.0550 -2.3068 -0.2134
   74MPD2     C 1128   2.125   3.547  13.869 -0.4203 -0.0531 -0.0820
   74MPD2    C1 1129   2.245   3.510  13.928  0.5399 -0.0450 -0.0093
   74MPD2    C2 1130   2.244   3.406  14.020  0.0187 -0.6007  0.6213
   74MPD2    C3 1131   2.133   3.335  14.059 -0.3288  0.3391 -0.3176
   74MPD2    C4 1132   2.018   3.383  14.008  0.5027  0.0368 -0.3898
   74MPD2    C5 1133   2.014   3.475  13.908  0.0683 -0.7652  0.1083
   74MPD2     H 1134   2.345   3.384  14.055  0.5808  1.5236  0.3048
   74MPD2    H1 1135   1.923   3.331  14.020 -0.7249  2.0571 -1.4268
   74MPD2    H2 1136   2.109   3.625  13.796 -0.5900 -0.1964 -0.1981
   74MPD2    H3 1137   1.926   3.512  13.857  0.2482  1.0257  1.1054
   74MPD2     N 1138   2.141   3.233  14.161  0.3957 -0.4409  0.2386
   74MPD2    H5 1139   2.050   3.200  14.193 -0.2762  1.1220 -0.0417
   74MPD2    N1 1140   2.360   3.572  13.893  0.0849  0.2014  0.3701
   74MPD2    H7 1141   2.362   3.635  13.814 -0.8941 -0.7020 -0.3813
   75TCq2    C1 1142   2.671   4.427  14.498 -0.3336  0.7649  0.2013
   75TCq2    O2 1143   2.712   4.491  14.592 -0.6000  0.5799 -0.4032
   75TCq2    C2 1144   2.532   4.435  14.475 -0.2833  0.2925 -0.2691
   75TCq2    C3 1145   2.453   4.482  14.580  0.4178 -0.0907 -0.0484
   75TCq2    C4 1146   2.322   4.493  14.559 -0.1037 -0.0833  0.5944
   75TCq2    C5 1147   2.269   4.490  14.435  0.4831  0.2151 -0.1259
   75TCq2    C6 1148   2.350   4.438  14.332 -0.4783 -0.3383 -0.1506
   75TCq2    C7 1149   2.480   4.413  14.351 -0.0294  0.1175  0.2785
   75TCq2    C8 1150   2.304   4.481  14.201 -0.3727  0.0306 -0.3535
   75TCq2    O4 1151   2.343   4.429  14.096 -0.2551 -0.0748 -0.0426
   75TCq2    C9 1152   2.228   4.531  14.662  0.4889 -0.6024 -0.9854
   75TCq2    O5 1153   2.273   4.579  14.772 -0.6537  0.0466 -0.3080
   75TCq2    O6 1154   2.123   4.465  14.661 -0.3219  0.0710 -0.3893
   75TCq2    H2 1155   2.495   4.477  14.680  1.2804  0.9628 -0.3505
   75TCq2    H3 1156   2.163   4.508  14.419  0.3239 -1.3421 -0.7547
   75TCq2    H4 1157   2.547   4.392  14.268 -1.2924  1.7700 -1.1765
   76MPD2     C 1158   1.656   0.695  12.789 -0.7764  0.1536  0.1463
   76MPD2    C1 1159   1.639   0.684  12.654 -0.1640  0.2221  0.4654
   76MPD2    C2 1160   1.711   0.594  12.582 -0.5690  0.6026 -0.5905
   76MPD2    C3 1161   1.807   0.520  12.644  0.1161  0.0410 -0.7240
   76MPD2    C4 1162   1.829   0.535  12.780 -0.1317 -0.6281  0.1272
   76MPD2    C5 1163   1.753   0.619  12.852 -0.9037 -0.0810  0.2527
   76MPD2     H 1164   1.695   0.581  12.476 -1.5356 -1.0122 -0.2427
   76MPD2    H1 1165   1.901   0.477  12.837 -0.4669 -1.4905 -0.3334
   76MPD2    H2 1166   1.608   0.771  12.850 -2.0782  0.0215 -0.7081
   76MPD2    H3 1167   1.782   0.642  12.953 -0.3675  0.8355 -0.1060
   76MPD2     N 1168   1.890   0.429  12.571  0.9275  0.5377  0.1129
   76MPD2    H5 1169   1.956   0.370  12.620 -0.6673 -3.5608 -2.6438
   76MPD2    N1 1170   1.546   0.765  12.585 -0.3377  0.3092 -0.1529
   76MPD2    H7 1171   1.548   0.753  12.484 -1.8713 -1.6823  0.0603
   77TCq2    C1 1172   1.915   0.451  12.434 -0.0704 -0.2267 -0.1361
   77TCq2    O2 1173   1.893   0.553  12.365  0.5183 -0.0857 -0.5901
   77TCq2    C2 1174   1.962   0.329  12.370 -0.4679  0.3989 -0.6817
   77TCq2    C3 1175   1.941   0.328  12.238  0.2003 -0.1999 -0.6116
   77TCq2    C4 1176   1.964   0.213  12.173  0.1365 -0.0603 -0.5230
   77TCq2    C5 1177   1.998   0.094  12.230  0.3790 -0.2288  0.3824
   77TCq2    C6 1178   2.013   0.090  12.365  0.7566  0.5200 -0.3515
   77TCq2    C7 1179   2.012   0.210  12.435 -0.3927  0.5515  0.1244
   77TCq2    C8 1180   2.093   4.705  12.416 -0.1344  0.3512 -0.2045
   77TCq2    O4 1181   2.124   4.619  12.339 -0.3905 -0.2315  0.1520
   77TCq2    C9 1182   1.936   0.211  12.029  0.3815  0.1782  0.3760
   77TCq2    O5 1183   1.904   0.319  11.975  0.1568  0.1906  0.5574
   77TCq2    O6 1184   1.916   0.097  11.981 -0.7047 -0.2341 -0.1611
   77TCq2    H2 1185   1.910   0.415  12.181  0.4823 -0.6311 -1.4304
   77TCq2    H3 1186   1.999   0.002  12.173 -1.7149  0.5688 -0.9348
   77TCq2    H4 1187   2.027   0.216  12.542 -0.4350  1.1246  0.0998
   78MPD1     C 1188   3.060   2.122   1.031 -0.0547 -1.2238 -0.1697
   78MPD1    C1 1189   3.194   2.109   1.043  0.7372  0.5675 -0.3129
   78MPD1    C2 1190   3.247   2.028   1.151  0.1038 -0.2631 -0.6231
   78MPD1    C3 1191   3.159   1.971   1.244  0.2260  0.4468  0.6621
   78MPD1    C4 1192   3.021   1.984   1.224  0.6863  1.2177  0.4561
   78MPD1    C5 1193   2.972   2.059   1.124 -0.2536 -0.6772  0.4409
   78MPD1     H 1194   3.355   2.019   1.158  0.2249  1.9120  0.1714
   78MPD1    H1 1195   2.948   1.942   1.292 -0.9452  0.6084 -1.6718
   78MPD1    H2 1196   3.013   2.182   0.954 -1.0970  0.0148  1.4365
   78MPD1    H3 1197   2.868   2.087   1.110  0.0257  0.5884  0.8214
   78MPD1     N 1198   3.193   1.901   1.360  0.0354  0.4670 -0.0274
   78MPD1    H5 1199   3.119   1.879   1.426  1.0683  0.3344  1.0937
   78MPD1    N1 1200   3.276   2.143   0.937  0.7225  0.1373 -0.4044
   78MPD1    H6 1201   3.368   2.172   0.967  0.6213 -1.8821  1.8591
   78MPD1    H7 1202   3.232   2.213   0.877 -1.0711 -1.5635 -1.0907
   79TCq2    C1 1203   3.323   1.869   1.397  0.7271 -0.1718 -0.0586
   79TCq2    O2 1204   3.429   1.909   1.347 -0.2884  0.1202 -0.3295
   79TCq2    C2 1205   3.328   1.812   1.530  0.8426  0.2988  0.6559
   79TCq2    C3 1206   3.216   1.747   1.576 -0.1604 -0.2414  0.0346
   79TCq2    C4 1207   3.231   1.653   1.677 -0.0192 -0.7654 -0.1797
   79TCq2    C5 1208   3.354   1.603   1.713 -0.1579 -0.2895 -0.5773
   79TCq2    C6 1209   3.463   1.656   1.649 -0.3146  0.5943 -0.1133
   79TCq2    C7 1210   3.452   1.758   1.558  0.2040  0.0753  0.3111
   79TCq2    C8 1211   3.593   1.585   1.663 -0.3458 -0.3256 -0.4092
   79TCq2    O4 1212   3.607   1.502   1.755  0.2951 -0.0459 -0.2711
   79TCq2    C9 1213   3.114   1.593   1.742  0.5810  0.1339 -1.3445
   79TCq2    O5 1214   2.998   1.628   1.699  0.5935  0.1306  0.4430
   79TCq2    O6 1215   3.127   1.491   1.812  0.1023  0.1464  0.2782
   79TCq2    H2 1216   3.114   1.782   1.565 -0.0104  0.0026 -0.5509
   79TCq2    H3 1217   3.357   1.514   1.774 -0.9116  0.1992  0.1795
   79TCq2    H4 1218   3.538   1.808   1.514  1.8437 -2.2251  0.9185
   80MPD2     C 1219   0.965   0.301  12.461 -0.0377  0.1035 -0.6605
   80MPD2    C1 1220   0.857   0.277  12.382  0.0061 -0.5613  0.7047
   80MPD2    C2 1221   0.734   0.294  12.434  0.8058 -0.2690  0.2779
   80MPD2    C3 1222   0.709   0.335  12.566  0.0256  0.7470 -0.1502
   80MPD2    C4 1223   0.819   0.363  12.641 -0.5040  0.1980  0.1419
   80MPD2    C5 1224   0.944   0.338  12.591 -0.0728 -0.0836 -0.7050
   80MPD2     H 1225   0.642   0.254  12.392  0.5965 -1.4839  1.9072
   80MPD2    H1 1226   0.808   0.405  12.740 -1.4121  1.4383 -0.4968
   80MPD2    H2 1227   1.070   0.287  12.437 -0.1179 -0.4075 -0.7078
   80MPD2    H3 1228   1.023   0.364  12.661  0.1698 -0.5391 -0.8104
   80MPD2     N 1229   0.584   0.331  12.633 -0.4705  0.1754  0.9203
   80MPD2    H5 1230   0.589   0.333  12.734  0.5421  0.9777  0.8564
   80MPD2    N1 1231   0.874   0.209  12.261  0.4687  0.3994 -0.4366
   80MPD2    H7 1232   0.787   0.202  12.210  0.9184 -2.4351 -0.8031
   81TCq2    C1 1233   0.992   0.169  12.206  1.1225 -0.4997  0.6452
   81TCq2    O2 1234   1.107   0.177  12.247  0.1979  0.0192  0.7018
   81TCq2    C2 1235   0.951   0.105  12.081 -0.6868  0.1368 -0.3748
   81TCq2    C3 1236   1.054   0.081  11.988 -0.6790  0.0931 -0.1133
   81TCq2    C4 1237   1.012   0.036  11.866  0.3271 -0.7776  0.4709
   81TCq2    C5 1238   0.887   4.705  11.846 -0.0982 -0.3577 -0.6116
   81TCq2    C6 1239   0.794   4.722  11.937 -0.1779  0.2425  0.2762
   81TCq2    C7 1240   0.823   0.059  12.057 -0.0507 -0.5845  0.5119
   81TCq2    C8 1241   0.668   4.662  11.899 -0.1827 -0.1805  0.2139
   81TCq2    O4 1242   0.639   4.640  11.781 -0.4994  0.2623  0.2795
   81TCq2    C9 1243   1.110   0.015  11.769 -0.5105 -0.3022 -0.1619
   81TCq2    O5 1244   1.226   0.058  11.795 -0.1617 -0.1819 -0.1129
   81TCq2    O6 1245   1.085   4.651  11.687  0.5963  0.5234 -0.0028
   81TCq2    H2 1246   1.156   0.114  12.004 -0.2046 -0.7762 -1.2808
   81TCq2    H3 1247   0.864   4.659  11.750 -0.6950  0.3150 -0.7880
   81TCq2    H4 1248   0.751   0.047  12.136 -0.0158  0.3754  0.6814
   82MPD2     C 1249   3.206   4.581  11.707  0.0295 -0.1640 -0.0671
   82MPD2    C1 1250   3.255   4.494  11.613 -0.6033  0.5440  1.0569
   82MPD2    C2 1251   3.375   4.437  11.637  0.5366 -0.5884 -0.5342
   82MPD2    C3 1252   3.451   4.469  11.748  0.5784  0.4481 -0.2904
   82MPD2    C4 1253   3.401   4.555  11.844 -0.1714 -0.7581  0.4964
   82MPD2    C5 1254   3.274   4.608  11.822 -0.2125  0.5039  0.0011
   82MPD2     H 1255   3.417   4.381  11.554  0.6041 -2.0926  0.5246
   82MPD2    H1 1256   3.452   4.591  11.933 -0.1123  0.9471 -0.2359
   82MPD2    H2 1257   3.114   4.630  11.677 -0.3907 -1.0646 -0.2445
   82MPD2    H3 1258   3.237   4.670  11.902 -0.5101  1.2523 -0.7114
   82MPD2     N 1259   3.586   4.435  11.769 -0.1221 -0.4045  0.5133
   82MPD2    H5 1260   3.631   4.472  11.852 -0.2240  1.0689 -0.0802
   82MPD2    N1 1261   3.163   4.467  11.505 -0.0064 -0.6495 -0.1372
   82MPD2    H7 1262   3.076   4.516  11.493  0.5555  0.6603  1.0881
   83TCq2    C1 1263   3.653   4.343  11.701  0.2966  0.0497  0.4062
   83TCq2    O2 1264   3.614   4.286  11.601  0.4239 -0.0911 -0.3988
   83TCq2    C2 1265   3.785   4.313  11.753  0.3165  1.5002  0.0555
   83TCq2    C3 1266   3.800   4.344  11.884 -0.1284 -0.3119 -0.3028
   83TCq2    C4 1267   3.872   4.258  11.966 -0.2457 -0.3336  0.4610
   83TCq2    C5 1268   3.933   4.148  11.917  0.1698  0.8211 -0.9777
   83TCq2    C6 1269   3.898   4.112  11.789  0.4331  0.0792 -0.2977
   83TCq2    C7 1270   3.824   4.191  11.715 -0.2870 -0.0542 -0.3658
   83TCq2    C8 1271   3.893   3.970  11.762  0.9037  0.5505  0.8468
   83TCq2    O4 1272   3.915   3.899  11.862  0.0459  0.2891  0.1686
   83TCq2    C9 1273   3.913   4.318  12.092 -0.6180  0.9761  0.6281
   83TCq2    O5 1274   3.888   4.438  12.126 -0.0296  0.1220 -0.2474
   83TCq2    O6 1275   4.000   4.251  12.158 -0.1264 -0.2853  0.2357
   83TCq2    H2 1276   3.771   4.439  11.927  0.3081 -0.6149  0.6607
   83TCq2    H3 1277   3.999   4.088  11.978 -2.0403 -2.5278 -1.8684
   83TCq2    H4 1278   3.822   4.175  11.608  1.7312 -0.9552 -0.2845
   84TCq2    C1 1279   0.707   3.336  11.272 -0.6052 -0.0252  0.2304
   84TCq2    O2 1280   0.801   3.311  11.206  0.1956  0.2197  0.7694
   84TCq2    C2 1281   0.650   3.226  11.353  0.1392  0.8384  0.1345
   84TCq2    C3 1282   0.694   3.101  11.334  0.2668  0.1436  0.3792
   84TCq2    C4 1283   0.639   2.996  11.403 -0.2818 -0.9915  0.2837
   84TCq2    C5 1284   0.527   3.002  11.476 -0.5207 -0.7530 -0.5589
   84TCq2    C6 1285   0.484   3.129  11.494 -0.0150 -0.0438 -0.3519
   84TCq2    C7 1286   0.542   3.240  11.432 -0.2435 -0.0295 -0.2017
   84TCq2    C8 1287   0.347   3.144  11.543 -0.2373  0.1326 -0.5432
   84TCq2    O4 1288   0.300   3.258  11.553  0.7340 -0.1794  0.1594
   84TCq2    C9 1289   0.713   2.877  11.399  0.0989 -0.2635 -0.1613
   84TCq2    O5 1290   0.823   2.886  11.337 -0.4905 -0.0498  0.0133
   84TCq2    O6 1291   0.660   2.767  11.430 -0.0527  0.0938  0.4707
   84TCq2    H2 1292   0.791   3.089  11.287  0.2738  0.5588  0.2931
   84TCq2    H3 1293   0.504   2.915  11.538 -0.8240 -1.6376 -1.9172
   84TCq2    H4 1294   0.500   3.334  11.465  2.0407  0.0927  2.3391
   85MPD2     C 1295   0.096   0.797  16.609 -0.0998 -0.8970  0.0818
   85MPD2    C1 1296   0.040   0.797  16.492 -0.4377  0.1287 -0.1211
   85MPD2    C2 1297   0.080   0.887  16.396 -0.3109  0.3478  0.3640
   85MPD2    C3 1298   0.183   0.973  16.410 -0.7125 -0.3494 -0.0899
   85MPD2    C4 1299   0.246   0.958  16.537 -0.3847  0.6622  0.2798
   85MPD2    C5 1300   0.199   0.867  16.632 -0.0481 -0.3377 -0.1542
   85MPD2     H 1301   0.036   0.896  16.298  0.2436 -1.3991 -0.0456
   85MPD2    H1 1302   0.331   1.014  16.574  1.5622 -0.0814 -3.0584
   85MPD2    H2 1303   0.066   0.738  16.695  2.6519 -1.2371  0.8051
   85MPD2    H3 1304   0.243   0.871  16.731  1.8333 -0.4583 -0.9871
   85MPD2     N 1305   0.212   1.075  16.322  0.0358  0.1783 -0.0321
   85MPD2    H5 1306   0.141   1.092  16.252  0.9352 -0.6240 -1.1178
   85MPD2    N1 1307   4.644   0.721  16.457 -0.1776 -0.1081 -0.0417
   85MPD2    H7 1308   4.625   0.717  16.357  0.0582  1.8911 -0.1681
   86TCq2    C1 1309   0.323   1.154  16.314  0.2724 -0.8185  0.1290
   86TCq2    O2 1310   0.427   1.137  16.374  0.2477  0.3113 -0.1612
   86TCq2    C2 1311   0.318   1.265  16.227  0.6035 -0.4972  0.7132
   86TCq2    C3 1312   0.202   1.335  16.225  0.0557 -0.3908 -0.5425
   86TCq2    C4 1313   0.198   1.457  16.164  0.1483  0.0530 -0.3743
   86TCq2    C5 1314   0.314   1.524  16.141  0.8088 -0.0142  0.1650
   86TCq2    C6 1315   0.430   1.453  16.145  0.0056 -0.0204  0.3062
   86TCq2    C7 1316   0.435   1.324  16.189 -0.0101  1.0053 -0.7770
   86TCq2    C8 1317   0.534   1.490  16.043  0.3382 -0.9744 -0.1929
   86TCq2    O4 1318   0.632   1.414  16.037 -0.1889 -0.5351  0.3439
   86TCq2    C9 1319   0.080   1.534  16.177  0.4223 -0.5730  0.4811
   86TCq2    O5 1320   0.082   1.660  16.187  0.5554  0.4074 -0.4003
   86TCq2    O6 1321   4.710   1.468  16.220  0.2283 -0.2767  0.2481
   86TCq2    H2 1322   0.110   1.298  16.270  1.1463 -1.4669  0.7911
   86TCq2    H3 1323   0.310   1.633  16.139 -0.2688 -0.0741 -1.2983
   86TCq2    H4 1324   0.529   1.270  16.203 -0.8932 -0.2946  0.1298
   87MPD2     C 1325   3.355   0.777   1.543  0.2224  0.2209  0.2563
   87MPD2    C1 1326   3.220   0.761   1.552  0.9644 -0.1379  0.2099
   87MPD2    C2 1327   3.146   0.841   1.639  0.1799 -0.7351 -0.6669
   87MPD2    C3 1328   3.214   0.938   1.710  0.4209 -0.6709 -0.4682
   87MPD2    C4 1329   3.346   0.962   1.695 -0.4373 -0.1084  0.1855
   87MPD2    C5 1330   3.414   0.885   1.607  0.1849  1.1147  0.3958
   87MPD2     H 1331   3.039   0.832   1.651 -0.0976  0.2195 -2.4597
   87MPD2    H1 1332   3.398   1.037   1.751 -1.8184  0.8787  0.1452
   87MPD2    H2 1333   3.408   0.735   1.458 -0.1637 -0.7544  0.5039
   87MPD2    H3 1334   3.519   0.900   1.587  0.3077  0.2986  0.4563
   87MPD2     N 1335   3.147   1.024   1.797 -0.5472  0.4803  0.5661
   87MPD2    H5 1336   3.198   1.111   1.810  0.2627  0.2599 -1.2744
   87MPD2    N1 1337   3.163   0.672   1.463  0.4478  0.2433  0.6158
   87MPD2    H7 1338   3.226   0.626   1.397 -0.9810 -1.9100  0.7706
   88TCq2    C1 1339   3.027   0.644   1.460 -0.9807  0.3510  0.5409
   88TCq2    O2 1340   2.944   0.671   1.549  0.0045  0.6055  0.0055
   88TCq2    C2 1341   3.002   0.536   1.367 -0.8732  0.1864  0.1508
   88TCq2    C3 1342   2.888   0.454   1.396  0.0356 -0.3059 -0.0625
   88TCq2    C4 1343   2.855   0.349   1.316 -0.6574  0.0122 -0.0243
   88TCq2    C5 1344   2.920   0.336   1.193  0.0177  0.3703  0.0295
   88TCq2    C6 1345   3.033   0.411   1.177  0.4550 -0.7022  0.3363
   88TCq2    C7 1346   3.082   0.512   1.262  0.4827 -0.0714 -0.0773
   88TCq2    C8 1347   3.103   0.392   1.056  0.2832  0.2154 -0.3129
   88TCq2    O4 1348   3.215   0.433   1.049  0.1012  0.2172  0.2914
   88TCq2    C9 1349   2.739   0.276   1.339  1.1130 -0.2795  0.2005
   88TCq2    O5 1350   2.677   0.299   1.447 -0.3687 -0.3012  0.8703
   88TCq2    O6 1351   2.714   0.177   1.268 -0.5707  0.1260 -0.4294
   88TCq2    H2 1352   2.835   0.465   1.489  0.0443  1.5137 -0.2716
   88TCq2    H3 1353   2.897   0.262   1.118  0.9793  0.2670 -0.1658
   88TCq2    H4 1354   3.166   0.575   1.236 -0.5121  0.4799 -1.9705
   89MPD2     C 1355   2.773   1.829   2.536  0.2062  0.6592  0.9168
   89MPD2    C1 1356   2.749   1.922   2.433  0.3583 -0.4907  0.0833
   89MPD2    C2 1357   2.860   1.977   2.363 -0.6967  0.1822  0.4590
   89MPD2    C3 1358   2.990   1.940   2.396  0.3139  0.6745  0.0543
   89MPD2    C4 1359   3.016   1.838   2.489  0.4591 -0.3280  1.1432
   89MPD2    C5 1360   2.901   1.790   2.550  0.5357  0.0231 -0.5390
   89MPD2     H 1361   2.842   2.048   2.283  0.6798 -2.6010 -2.3218
   89MPD2    H1 1362   3.114   1.801   2.517  0.2861 -0.4267  1.6172
   89MPD2    H2 1363   2.695   1.784   2.596  1.4372  0.1662  2.1298
   89MPD2    H3 1364   2.914   1.706   2.617  0.6471  0.4060 -0.0791
   89MPD2     N 1365   3.087   2.009   2.319 -0.4983 -0.0157  0.1906
   89MPD2    H5 1366   3.047   2.082   2.261  1.0025  0.8121  0.1913
   89MPD2    N1 1367   2.614   1.956   2.395  0.2373  0.0262  0.1992
   89MPD2    H7 1368   2.614   2.029   2.325 -0.9135  1.7767  2.0266
   90TCq2    C1 1369   3.220   1.993   2.332 -0.0400 -0.0486 -0.1611
   90TCq2    O2 1370   3.290   1.944   2.424  0.8007 -0.6971 -0.1689
   90TCq2    C2 1371   3.290   2.068   2.226 -0.2427 -0.6582 -0.1051
   90TCq2    C3 1372   3.416   2.105   2.255  0.1074  0.1511  0.4335
   90TCq2    C4 1373   3.489   2.177   2.159  0.9936  0.1107 -0.0617
   90TCq2    C5 1374   3.432   2.226   2.046 -0.2632  0.2326 -0.1254
   90TCq2    C6 1375   3.300   2.205   2.027  0.7720  0.7264 -0.5990
   90TCq2    C7 1376   3.226   2.135   2.125 -0.3889  0.2514  0.4885
   90TCq2    C8 1377   3.215   2.295   1.944 -0.3320  0.8097  0.0729
   90TCq2    O4 1378   3.099   2.295   1.974  0.2703 -0.1355 -0.0035
   90TCq2    C9 1379   3.626   2.206   2.203  0.2485  0.5668 -0.0441
   90TCq2    O5 1380   3.669   2.155   2.312 -0.0236  0.5227 -0.5282
   90TCq2    O6 1381   3.679   2.314   2.162 -0.1324  0.7244 -0.1565
   90TCq2    H2 1382   3.465   2.073   2.346 -1.6791 -1.5573  0.8016
   90TCq2    H3 1383   3.499   2.292   1.993  1.0175 -0.1599  1.0010
   90TCq2    H4 1384   3.132   2.089   2.097 -0.3506  0.2661  0.3389
   91TMC2    C1 1385   0.120   1.915  17.035  0.4141  0.0870  0.1181
   91TMC2    C2 1386   0.180   1.867  16.920 -0.4305 -0.3496  0.1464
   91TMC2    C3 1387   0.118   1.908  16.802 -0.6207 -0.5008 -0.3321
   91TMC2    C4 1388   0.015   1.994  17.040 -0.6651  0.0248  0.3226
   91TMC2    C5 1389   4.690   2.030  16.922  0.3228 -0.4331 -0.5045
   91TMC2    C6 1390   0.013   1.993  16.800 -0.9582 -0.2182 -0.1928
   91TMC2     C 1391   0.160   1.857  17.158 -0.2130  0.0555 -0.4921
   91TMC2     O 1392   0.068   1.851  17.240  0.0126  0.4323  0.2266
   91TMC2     H 1393   0.253   1.787  16.924 -0.0570 -0.1444 -2.4822
   91TMC2    H1 1394   4.696   2.044  17.126 -1.1044  0.5879 -0.2261
   91TMC2    H2 1395   4.696   2.025  16.705  1.2104  2.0305 -0.3540
   91TMC2    C7 1396   4.575   2.125  16.933 -0.1310  0.5389 -0.7481
   91TMC2    C8 1397   0.172   1.861  16.675 -0.4039  0.0647 -0.1899
   91TMC2    O1 1398   4.562   2.197  17.026  0.9373 -0.3316 -0.4509
   91TMC2    O2 1399   0.287   1.817  16.670 -0.1298  0.0702  0.2124
   91TMC2    O5 1400   0.069   1.793  16.624  0.2698  0.3086  0.0001
   91TMC2    H5 1401   4.704   1.802  16.664  1.0678  0.1011  1.8013
   92MPD2     C 1402   0.286   1.698  17.371 -0.5386 -0.2788  0.2196
   92MPD2    C1 1403   0.356   1.772  17.277 -0.3309  0.3979  0.6846
   92MPD2    C2 1404   0.496   1.799  17.289  0.0734 -0.6047 -0.1451
   92MPD2    C3 1405   0.561   1.742  17.394  0.3834  0.0803 -0.4222
   92MPD2    C4 1406   0.491   1.670  17.491 -0.7573 -0.6763  0.4842
   92MPD2    C5 1407   0.358   1.642  17.477 -0.4520  0.5912 -0.3357
   92MPD2     H 1408   0.551   1.859  17.218 -1.5269  0.6773 -0.3038
   92MPD2    H1 1409   0.542   1.621  17.573  1.3271  0.5226 -0.0865
   92MPD2    H2 1410   0.185   1.663  17.354 -0.2510 -0.0558 -1.9817
   92MPD2    H3 1411   0.309   1.571  17.543 -1.5525  1.3327 -0.3378
   92MPD2     N 1412   0.701   1.768  17.394  0.7895 -0.1211 -0.1724
   92MPD2    H5 1413   0.730   1.827  17.317  0.0022 -0.1518 -0.4900
   92MPD2    N1 1414   0.297   1.830  17.166 -0.2035  0.9873  0.0146
   92MPD2    H7 1415   0.358   1.863  17.092  1.6447 -0.8803  0.6999
   93MPD2     C 1416   1.611   2.873  14.288 -0.5921 -0.3747  0.5544
   93MPD2    C1 1417   1.618   2.765  14.208 -0.4248  0.1099 -0.7448
   93MPD2    C2 1418   1.506   2.735  14.131 -0.2871  0.0487 -0.3028
   93MPD2    C3 1419   1.398   2.822  14.103  0.2301 -0.0073  0.2546
   93MPD2    C4 1420   1.395   2.932  14.174  0.4442 -0.0695  0.4179
   93MPD2    C5 1421   1.497   2.952  14.266  0.2469  0.0198  0.4217
   93MPD2     H 1422   1.500   2.643  14.074 -1.4721  0.7940 -1.3762
   93MPD2    H1 1423   1.317   3.007  14.170  2.5291  2.1321  0.9153
   93MPD2    H2 1424   1.680   2.921  14.357  0.2196  0.1551 -0.6252
   93MPD2    H3 1425   1.513   3.046  14.318 -1.4739  1.4496 -1.5801
   93MPD2     N 1426   1.298   2.794  14.007  0.0069  0.7079 -0.0505
   93MPD2    H5 1427   1.217   2.855  13.999  0.2664  0.8052 -2.0978
   93MPD2    N1 1428   1.724   2.672  14.215  0.2101  0.5751 -0.5268
   93MPD2    H7 1429   1.714   2.588  14.159 -0.0037  0.4677 -0.3257
   94TCq2    C1 1430   1.851   2.695  14.278 -0.0149 -0.2802  0.1724
   94TCq2    O2 1431   1.893   2.802  14.322  0.3876 -0.1369 -0.4183
   94TCq2    C2 1432   1.941   2.579  14.262  0.0129 -0.5447  0.2417
   94TCq2    C3 1433   1.899   2.456  14.209 -0.1054  0.2111  0.3285
   94TCq2    C4 1434   1.998   2.377  14.157 -0.0906  0.0251  0.3411
   94TCq2    C5 1435   2.132   2.413  14.154 -0.3265 -0.3771 -0.2771
   94TCq2    C6 1436   2.175   2.521  14.226 -0.0128 -0.0715  0.6088
   94TCq2    C7 1437   2.079   2.609  14.284  0.0489 -0.7830 -0.0386
   94TCq2    C8 1438   2.319   2.551  14.216 -0.2345 -0.4035  0.1104
   94TCq2    O4 1439   2.371   2.520  14.111  0.0553 -0.0982 -0.1433
   94TCq2    C9 1440   1.965   2.258  14.082  0.9787 -0.0261 -0.3147
   94TCq2    O5 1441   2.062   2.191  14.041  0.0663 -0.2145  0.1763
   94TCq2    O6 1442   1.845   2.226  14.097 -0.3752  0.1110  0.2508
   94TCq2    H2 1443   1.795   2.434  14.187 -0.4474  1.1230  1.0201
   94TCq2    H3 1444   2.205   2.346  14.109 -0.8765 -0.5882 -0.8624
   94TCq2    H4 1445   2.117   2.705  14.319  0.6819 -1.0599  0.0230
   95TMC2    C1 1446   2.150   3.921  16.275  0.3090 -0.4219 -0.5434
   95TMC2    C2 1447   2.162   3.908  16.413  0.3681 -0.9750 -0.1599
   95TMC2    C3 1448   2.078   3.825  16.472  0.7684 -0.5359 -0.1957
   95TMC2    C4 1449   2.082   3.828  16.201 -0.2875 -0.1287  0.6646
   95TMC2    C5 1450   1.998   3.743  16.274 -0.3901 -0.0762  0.6889
   95TMC2    C6 1451   1.994   3.739  16.410  0.8040 -0.1912  0.2764
   95TMC2     C 1452   2.215   4.031  16.199 -0.3021 -0.2045 -0.3263
   95TMC2     O 1453   2.225   4.010  16.080  0.3380 -0.1963  0.1059
   95TMC2     H 1454   2.234   3.971  16.464 -0.6770  1.9543 -2.3281
   95TMC2    H1 1455   2.071   3.843  16.095  0.8216 -0.3471  0.5205
   95TMC2    H2 1456   1.926   3.672  16.461  0.8666 -0.0047  0.6093
   95TMC2    C7 1457   1.910   3.657  16.203 -0.4485  0.0187  0.5694
   95TMC2    C8 1458   2.070   3.829  16.620  0.0758  0.4459  0.8056
   95TMC2    O1 1459   1.824   3.600  16.267 -0.1365  0.7002  0.1024
   95TMC2    O2 1460   2.031   3.734  16.686  0.0108  0.2225  0.3117
   95TMC2    O5 1461   2.050   3.958  16.649  0.7104  0.4871 -0.2743
   95TMC2    H5 1462   2.072   4.022  16.578 -0.4165  1.4799  0.2745
   96MPD2     C 1463   2.436   4.493  16.141  0.5070  0.6762 -0.4139
   96MPD2    C1 1464   2.438   4.381  16.059 -1.1743 -0.9198 -0.2112
   96MPD2    C2 1465   2.372   4.265  16.096  0.2348 -0.8895 -0.3232
   96MPD2    C3 1466   2.298   4.262  16.214 -0.2407  0.1861  0.2042
   96MPD2    C4 1467   2.302   4.368  16.300 -0.6095  0.0701  0.1582
   96MPD2    C5 1468   2.368   4.487  16.258 -0.4098 -1.1090  0.6195
   96MPD2     H 1469   2.379   4.174  16.037  2.6302 -1.5138  0.9309
   96MPD2    H1 1470   2.247   4.376  16.392  0.5810  1.7909  0.7279
   96MPD2    H2 1471   2.489   4.582  16.111  1.4450  0.2843  0.0603
   96MPD2    H3 1472   2.357   4.581  16.312 -0.3898 -0.3485 -0.6866
   96MPD2     N 1473   2.231   4.150  16.268  0.3513  0.4591  0.1985
   96MPD2    H5 1474   2.186   4.154  16.359 -1.1255 -2.8072 -0.3841
   96MPD2    N1 1475   2.532   4.388  15.957  0.3338  0.0587  0.8435
   96MPD2    H7 1476   2.579   4.477  15.954  0.5277 -0.0752  0.0836
   97MPD2     C 1477   4.184   1.831   1.567 -0.1509  0.0676 -0.4788
   97MPD2    C1 1478   4.170   1.768   1.693 -0.1429 -0.1546  0.0952
   97MPD2    C2 1479   4.269   1.668   1.723 -0.0022  0.5028  0.5677
   97MPD2    C3 1480   4.382   1.661   1.642 -0.4934  0.0167 -0.2147
   97MPD2    C4 1481   4.398   1.729   1.524 -0.2285 -0.3296  0.2422
   97MPD2    C5 1482   4.293   1.804   1.486  0.5625 -0.0711 -0.2697
   97MPD2     H 1483   4.258   1.600   1.806  0.0035  1.7733  1.6246
   97MPD2    H1 1484   4.487   1.706   1.467 -0.0359 -1.3585  0.9523
   97MPD2    H2 1485   4.100   1.894   1.538 -1.5047 -0.8041  1.5836
   97MPD2    H3 1486   4.301   1.852   1.389  1.0907 -1.0159 -0.6951
   97MPD2     N 1487   4.495   1.582   1.670 -0.2343 -0.2443 -0.3836
   97MPD2    H5 1488   4.578   1.599   1.614 -1.6776 -0.4192 -2.5462
   97MPD2    N1 1489   4.054   1.795   1.774 -0.4007 -0.4014  0.0854
   97MPD2    H7 1490   3.987   1.859   1.732  0.1776  1.4568  1.9791
   98TCq2    C1 1491   4.521   1.506   1.784  0.3846 -0.2785  0.2674
   98TCq2    O2 1492   4.454   1.474   1.883  0.1023  0.5502 -0.0528
   98TCq2    C2 1493   4.659   1.465   1.800 -0.6942  0.0507  0.6947
   98TCq2    C3 1494   4.711   1.418   1.916  0.6178  0.1444 -0.3095
   98TCq2    C4 1495   0.120   1.390   1.924 -0.5549  0.0512  0.3483
   98TCq2    C5 1496   0.200   1.405   1.817 -0.6822  0.2583  0.0653
   98TCq2    C6 1497   0.142   1.450   1.703  0.0514  0.8940  0.9488
   98TCq2    C7 1498   0.011   1.473   1.687 -0.4397 -0.1868 -0.3435
   98TCq2    C8 1499   0.216   1.431   1.577  0.2773  0.3218  0.4509
   98TCq2    O4 1500   0.181   1.498   1.480  0.0329 -0.0788  0.2103
   98TCq2    C9 1501   0.180   1.352   2.051  0.1083  0.2829 -0.1797
   98TCq2    O5 1502   0.305   1.334   2.054 -0.1866 -0.3015 -0.1681
   98TCq2    O6 1503   0.112   1.362   2.157 -0.1891  0.3110  0.6752
   98TCq2    H2 1504   4.643   1.397   1.998 -1.4806  1.1152 -1.8044
   98TCq2    H3 1505   0.308   1.403   1.825 -0.6677 -0.3778 -0.3327
   98TCq2    H4 1506   4.691   1.462   1.589  1.5437 -2.1352 -1.0004
   99MPD2     C 1507   3.012   4.324   1.290  0.0842  0.4480  0.0298
   99MPD2    C1 1508   2.978   4.282   1.415  0.2006  0.5897  0.1235
   99MPD2    C2 1509   2.929   4.152   1.431  0.1786  0.4280  1.1296
   99MPD2    C3 1510   2.894   4.078   1.320  0.1491  0.2812 -0.1503
   99MPD2    C4 1511   2.927   4.126   1.190 -0.4908 -0.4244  0.1047
   99MPD2    C5 1512   2.989   4.247   1.178 -0.4874 -0.2268 -0.1776
   99MPD2     H 1513   2.912   4.113   1.531 -2.3169 -0.5824  0.3211
   99MPD2    H1 1514   2.909   4.061   1.105  0.6741  0.2807 -0.6742
   99MPD2    H2 1515   3.058   4.419   1.263 -1.0275  0.4832 -1.7828
   99MPD2    H3 1516   3.036   4.286   1.088 -0.1866  1.5076  0.7385
   99MPD2     N 1517   2.846   3.948   1.348  0.1337 -0.5306  0.8470
   99MPD2    H5 1518   2.848   3.925   1.447  0.7227  3.6497  1.8302
   99MPD2    N1 1519   2.991   4.352   1.532 -0.1856 -0.9720  0.3966
   99MPD2    H7 1520   2.957   4.303   1.614 -0.9299 -0.0104  0.6660
  100TCq2    C1 1521   3.071   4.461   1.545 -0.1815  0.7183  0.2637
  100TCq2    O2 1522   3.114   4.531   1.449  0.4572  0.0346 -0.1074
  100TCq2    C2 1523   3.121   4.494   1.680 -0.9281 -0.4903  0.0865
  100TCq2    C3 1524   3.242   4.554   1.689  0.3357  0.7030 -0.7169
  100TCq2    C4 1525   3.300   4.578   1.811 -0.0206  0.0177  0.4205
  100TCq2    C5 1526   3.246   4.539   1.926  0.7289 -0.1016  0.6677
  100TCq2    C6 1527   3.132   4.459   1.918  0.4130  0.2099  0.1653
  100TCq2    C7 1528   3.065   4.438   1.796 -0.4757 -0.0467  0.3730
  100TCq2    C8 1529   3.069   4.415   2.050 -0.5363 -0.2333  0.1785
  100TCq2    O4 1530   3.130   4.442   2.153  0.2472 -0.2678 -0.0615
  100TCq2    C9 1531   3.426   4.643   1.811 -0.0588 -0.1174 -0.5928
  100TCq2    O5 1532   3.469   4.698   1.706 -1.2837  0.0488  0.1410
  100TCq2    O6 1533   3.489   4.641   1.918 -0.1093  0.6861  0.7805
  100TCq2    H2 1534   3.298   4.573   1.599  0.7267  1.3592 -0.3319
  100TCq2    H3 1535   3.291   4.556   2.023  1.4992 -1.1175  0.4870
  100TCq2    H4 1536   2.973   4.382   1.789 -0.2407 -0.4797  0.7450
  101MPD2     C 1537   4.343   0.004  13.317  0.3477  0.1206 -0.4155
  101MPD2    C1 1538   4.284   0.062  13.425  0.2070 -0.2471 -0.7444
  101MPD2    C2 1539   4.195   4.715  13.500  0.9451  0.1117 -0.4698
  101MPD2    C3 1540   4.149   4.592  13.453  1.0141  0.3459  0.5581
  101MPD2    C4 1541   4.194   4.531  13.339 -0.3571 -0.1442  0.3611
  101MPD2    C5 1542   4.301   4.600  13.274 -0.1036  0.2094  0.9289
  101MPD2     H 1543   4.130   0.036  13.575  0.4156  0.0302 -0.8804
  101MPD2    H1 1544   4.135   4.452  13.294 -1.1939 -0.4079  1.9154
  101MPD2    H2 1545   4.413   0.064  13.260  0.3210 -0.3577 -0.9478
  101MPD2    H3 1546   4.341   4.565  13.179 -3.3833  1.2196 -0.8201
  101MPD2     N 1547   4.045   4.541  13.537  0.2268  0.4946  0.1671
  101MPD2    H5 1548   4.011   4.591  13.619 -0.6693 -0.3135  0.2816
  101MPD2    N1 1549   4.317   0.199  13.455 -0.2584  0.4629  0.5425
  101MPD2    H7 1550   4.370   0.250  13.385  2.1360 -4.8091 -1.4747
  102TCq2    C1 1551   4.401   0.495  13.183  0.1563  0.0819  0.7641
  102TCq2    O2 1552   4.518   0.459  13.185 -0.2071  0.4590  0.0746
  102TCq2    C2 1553   4.319   0.489  13.291 -0.4650  0.6514  0.0139
  102TCq2    C3 1554   4.187   0.530  13.283  0.6468  0.1722  0.5848
  102TCq2    C4 1555   4.111   0.511  13.391  0.2559 -0.1608  0.3234
  102TCq2    C5 1556   4.153   0.463  13.508  0.4546  0.1464 -1.0037
  102TCq2    C6 1557   4.286   0.426  13.512  0.4862 -0.3565  0.6570
  102TCq2    C7 1558   4.374   0.441  13.406 -0.4862  0.2311 -0.1051
  102TCq2    C8 1559   4.275   0.286  13.552  0.2160  0.2079  0.2198
  102TCq2    O4 1560   4.214   0.257  13.657  0.3807  0.5033 -0.3557
  102TCq2    C9 1561   3.971   0.551  13.391  0.4142 -0.1560 -0.1689
  102TCq2    O5 1562   3.903   0.521  13.492 -0.5575  0.3822 -0.5618
  102TCq2    O6 1563   3.925   0.605  13.288 -0.3222  0.0309  0.3183
  102TCq2    H2 1564   4.139   0.561  13.191 -0.2978 -0.4144  0.8783
  102TCq2    H3 1565   4.094   0.443  13.596  0.8797  0.7481 -0.5806
  102TCq2    H4 1566   4.477   0.406  13.409 -0.1137  1.0198 -4.2889
  103TMC2    C1 1567   2.457   0.002  13.112 -0.0257 -0.2023 -0.1996
  103TMC2    C2 1568   2.596   0.027  13.092 -0.5000  0.1527  0.0354
  103TMC2    C3 1569   2.641   0.135  13.158  0.6153 -0.3051 -0.0154
  103TMC2    C4 1570   2.379   0.090  13.174 -0.1216 -0.3565  0.1064
  103TMC2    C5 1571   2.439   0.186  13.244  0.4787  0.1297  0.8790
  103TMC2    C6 1572   2.568   0.222  13.231  0.3007 -0.3246  0.6802
  103TMC2     C 1573   2.389   4.686  12.988 -0.4325 -0.2562 -0.1257
  103TMC2     O 1574   2.267   4.697  12.988 -0.0811 -0.2161  0.1334
  103TMC2     H 1575   2.655   4.669  13.054 -2.5239 -1.1425 -0.3004
  103TMC2    H1 1576   2.273   0.074  13.190  0.1775 -2.5406 -0.1265
  103TMC2    H2 1577   2.622   0.293  13.293 -0.6781  0.4418  0.6503
  103TMC2    C7 1578   2.351   0.278  13.315 -0.9960 -0.4202  0.2995
  103TMC2    C8 1579   2.784   0.124  13.199 -0.4298 -0.5573 -0.2086
  103TMC2    O1 1580   2.259   0.223  13.369 -0.3896  0.7894  0.1427
  103TMC2    O2 1581   2.867   0.076  13.118  0.3020 -0.0548  0.7176
  103TMC2    O5 1582   2.795   0.126  13.332 -0.0221  0.5754  0.2475
  103TMC2    H5 1583   2.716   0.107  13.387  0.6502 -2.7377  0.0767
  104MPD2     C 1584   2.532   4.596  12.665  0.3106 -0.7637 -0.0770
  104MPD2    C1 1585   2.439   4.648  12.751  0.4127 -0.8729  0.0761
  104MPD2    C2 1586   2.324   4.698  12.705 -1.0343  0.2132 -0.4069
  104MPD2    C3 1587   2.290   4.692  12.572  0.6628  0.3759  0.0693
  104MPD2    C4 1588   2.381   4.639  12.483  0.1309 -0.5130  0.5523
  104MPD2    C5 1589   2.495   4.582  12.534  0.3028  0.1741 -0.0866
  104MPD2     H 1590   2.244   0.007  12.771 -0.8326 -0.8880  0.3848
  104MPD2    H1 1591   2.375   4.651  12.375  0.3539 -1.7707  0.3924
  104MPD2    H2 1592   2.627   4.564  12.706  1.8479  3.2448 -0.5059
  104MPD2    H3 1593   2.574   4.551  12.466 -0.2585 -0.6461 -0.3682
  104MPD2     N 1594   2.161   0.014  12.541 -0.3613 -0.1379 -0.2219
  104MPD2    H5 1595   2.128   0.086  12.604 -0.3419 -1.2910  1.0869
  104MPD2    N1 1596   2.475   4.654  12.883 -0.1103 -0.6532 -0.6374
  104MPD2    H7 1597   2.574   4.642  12.900 -0.3393  0.9153  1.7474
  105MPD2     C 1598   3.902   4.346   0.079 -0.5689  0.1277 -0.3380
  105MPD2    C1 1599   3.819   4.438   0.019  0.0442  0.2937 -0.4022
  105MPD2    C2 1600   3.776   4.543   0.089  0.0880 -0.8222 -0.5952
  105MPD2    C3 1601   3.819   4.565   0.225  0.3368  0.0820  0.2302
  105MPD2    C4 1602   3.912   4.480   0.271  0.7033 -0.3327  0.4916
  105MPD2    C5 1603   3.958   4.379   0.194  0.5631  0.5017  0.4612
  105MPD2     H 1604   3.695   4.601   0.046  0.0857 -0.0716  0.4321
  105MPD2    H1 1605   3.958   4.489   0.369 -0.2373  0.7303  0.8275
  105MPD2    H2 1606   3.949   4.265   0.024 -3.0866 -1.4905 -0.1312
  105MPD2    H3 1607   4.029   4.308   0.234  0.4832  0.4869  0.5781
  105MPD2     N 1608   3.789   4.680   0.299 -0.8778 -0.2663 -0.3067
  105MPD2    H5 1609   3.819   4.688   0.395 -1.7639  2.5935 -0.2596
  105MPD2    N1 1610   3.756   4.419  17.595 -0.5815  0.2743  0.1483
  105MPD2    H7 1611   3.696   4.494  17.564 -2.0422 -0.2815  1.6233
  106TCq2    C1 1612   3.700   0.054   0.256  0.0249  0.1666 -0.0821
  106TCq2    O2 1613   3.629   0.068   0.161  0.0762 -0.3682 -0.1506
  106TCq2    C2 1614   3.658   0.141   0.365 -1.0114  0.5321 -0.9876
  106TCq2    C3 1615   3.732   0.146   0.476  0.4580 -0.0165  0.0598
  106TCq2    C4 1616   3.690   0.230   0.569 -0.7051  0.5250 -0.6504
  106TCq2    C5 1617   3.578   0.308   0.556  0.1146  0.9493 -0.0640
  106TCq2    C6 1618   3.505   0.299   0.439  0.1891  0.0577 -0.1361
  106TCq2    C7 1619   3.546   0.222   0.337 -0.3654  0.8886  0.1426
  106TCq2    C8 1620   3.364   0.314   0.447  0.1614 -0.0616 -0.0504
  106TCq2    O4 1621   3.302   0.313   0.344  0.1642  0.3828  0.3436
  106TCq2    C9 1622   3.765   0.239   0.693 -0.5001 -0.7360 -0.7092
  106TCq2    O5 1623   3.866   0.165   0.709  0.0797  0.2768 -0.1172
  106TCq2    O6 1624   3.703   0.308   0.775 -0.5303 -0.3357 -0.1324
  106TCq2    H2 1625   3.828   0.097   0.488  1.7713  2.2260 -1.1396
  106TCq2    H3 1626   3.563   0.388   0.627 -0.8456 -0.6134  1.4967
  106TCq2    H4 1627   3.481   0.205   0.252 -1.1085  1.0723  0.6744
  107TMC2    C1 1628   4.451   3.567  12.013  0.1089 -0.1688  0.7223
  107TMC2    C2 1629   4.440   3.646  11.901  0.9527  0.0578  0.3262
  107TMC2    C3 1630   4.458   3.585  11.780  0.7571 -0.5325  0.4157
  107TMC2    C4 1631   4.478   3.435  12.007  0.1850  0.3353  0.1088
  107TMC2    C5 1632   4.488   3.376  11.883 -0.1513 -0.2081  0.6540
  107TMC2    C6 1633   4.476   3.451  11.765  0.2299  0.1595 -0.2444
  107TMC2     C 1634   4.433   3.618  12.151 -0.0636 -0.2071 -0.6296
  107TMC2     O 1635   4.411   3.535  12.240 -0.0383 -0.3604 -0.2369
  107TMC2     H 1636   4.411   3.749  11.889 -2.7513 -1.1790 -1.3417
  107TMC2    H1 1637   4.493   3.368  12.091  2.2440  3.5508  2.3080
  107TMC2    H2 1638   4.469   3.398  11.671  0.7757 -0.3834  0.0215
  107TMC2    C7 1639   4.532   3.239  11.876  0.6447 -0.5110 -0.4393
  107TMC2    C8 1640   4.415   3.659  11.666 -0.4695  0.3217 -0.4643
  107TMC2    O1 1641   4.499   3.174  11.978  0.2994 -0.0395 -0.0153
  107TMC2    O2 1642   4.360   3.765  11.679  0.3600  0.1048  0.0675
  107TMC2    O5 1643   4.473   3.617  11.551 -0.2150  0.3637  0.1606
  107TMC2    H5 1644   4.547   3.553  11.564 -1.3643 -1.2568 -1.3186
  108MPD2     C 1645   4.399   3.978  12.231 -0.1069  0.2052 -0.2800
  108MPD2    C1 1646   4.388   3.845  12.253 -0.1321  0.0502 -0.5273
  108MPD2    C2 1647   4.348   3.801  12.374  0.1688 -0.5185 -0.4608
  108MPD2    C3 1648   4.316   3.890  12.475 -0.0586 -0.1156 -0.3667
  108MPD2    C4 1649   4.335   4.026  12.454 -0.0665 -0.6321 -0.5845
  108MPD2    C5 1650   4.375   4.068  12.330  0.3342  0.1163  0.4044
  108MPD2     H 1651   4.323   3.695  12.380  1.5964 -1.0023 -3.0248
  108MPD2    H1 1652   4.314   4.098  12.532 -1.3142 -0.6379 -0.9199
  108MPD2    H2 1653   4.407   4.016  12.130  0.4259 -0.5485 -0.5176
  108MPD2    H3 1654   4.398   4.172  12.309 -0.0245  0.1325  0.0844
  108MPD2     N 1655   4.263   3.855  12.601  0.7588 -0.4074  0.4176
  108MPD2    H5 1656   4.252   3.920  12.678  0.1560 -1.1168  0.9375
  108MPD2    N1 1657   4.426   3.756  12.152 -0.0436 -0.3319  0.4824
  108MPD2    H7 1658   4.442   3.804  12.064 -0.4463  0.7536  1.0028
  109MPD2     C 1659   4.112   0.816   2.483 -0.2113  0.0340  0.7570
  109MPD2    C1 1660   4.093   0.944   2.437  0.2254 -0.1940  0.4954
  109MPD2    C2 1661   4.052   1.036   2.527 -0.2248 -0.1084 -0.2949
  109MPD2    C3 1662   4.032   1.006   2.658 -0.6710  0.3911  0.6969
  109MPD2    C4 1663   4.040   0.876   2.705 -0.0487  0.0887  0.6760
  109MPD2    C5 1664   4.092   0.778   2.617 -0.5407 -0.1284  0.2810
  109MPD2     H 1665   4.061   1.142   2.504  1.0504 -0.3355 -0.7985
  109MPD2    H1 1666   4.024   0.849   2.809  0.0879  0.4344  0.7852
  109MPD2    H2 1667   4.130   0.738   2.409 -2.3383 -0.4669  0.7664
  109MPD2    H3 1668   4.096   0.674   2.645  0.7225 -0.2641 -0.4288
  109MPD2     N 1669   3.989   1.112   2.743  0.0545  0.0941 -0.2487
  109MPD2    H5 1670   3.975   1.195   2.687  2.2447  1.6776  1.5115
  109MPD2    N1 1671   4.112   0.973   2.304 -0.2172 -0.8502  0.1385
  109MPD2    H7 1672   4.163   0.905   2.248  0.6054 -0.8252  0.8533
  110TCq2    C1 1673   3.974   1.109   2.879 -0.3977 -0.7757  0.0163
  110TCq2    O2 1674   4.015   1.028   2.959  0.6047  0.2342 -0.0232
  110TCq2    C2 1675   3.931   1.242   2.928  0.9893  0.6457  0.4625
  110TCq2    C3 1676   3.963   1.281   3.049 -0.2650  0.6334 -0.2810
  110TCq2    C4 1677   3.927   1.403   3.098  0.3159 -0.4050 -0.7461
  110TCq2    C5 1678   3.859   1.486   3.015  0.1089 -0.2573  0.1099
  110TCq2    C6 1679   3.823   1.440   2.891 -0.0680  0.3832 -0.9870
  110TCq2    C7 1680   3.847   1.313   2.848 -0.2531  0.2070 -0.7151
  110TCq2    C8 1681   3.798   1.535   2.783  0.6740  0.2250 -0.0244
  110TCq2    O4 1682   3.800   1.501   2.664 -0.5627  0.6901  0.2623
  110TCq2    C9 1683   3.958   1.436   3.236 -1.0050  0.2991  0.1691
  110TCq2    O5 1684   3.938   1.554   3.275  0.3102 -0.7092  0.2801
  110TCq2    O6 1685   4.013   1.339   3.294 -0.1221  0.5659  0.4281
  110TCq2    H2 1686   4.021   1.217   3.115 -0.9984  0.7896  0.5103
  110TCq2    H3 1687   3.834   1.582   3.060  0.6354 -0.1440  0.1544
  110TCq2    H4 1688   3.818   1.279   2.749  0.3893 -0.2309 -0.7516
  111TMC2    C1 1689   4.034   1.043  12.166 -0.3065 -0.0009 -0.4736
  111TMC2    C2 1690   3.952   0.963  12.245 -0.0277  0.4993  0.1897
  111TMC2    C3 1691   4.013   0.869  12.323 -0.4418  0.6040  0.1705
  111TMC2    C4 1692   4.167   1.026  12.175 -0.6829 -0.0824 -0.4097
  111TMC2    C5 1693   4.225   0.927  12.252  0.1371  0.0169 -0.2572
  111TMC2    C6 1694   4.149   0.849  12.340 -0.1422  0.6712  0.0801
  111TMC2     C 1695   3.969   1.118  12.066  0.7754  0.5797  0.0180
  111TMC2     O 1696   4.022   1.118  11.953 -0.2649  0.4380 -0.1037
  111TMC2     H 1697   3.843   0.965  12.244 -0.0254 -0.2365 -0.9045
  111TMC2    H1 1698   4.238   1.082  12.117  1.3158 -1.5633  0.5788
  111TMC2    H2 1699   4.196   0.788  12.416 -0.9568 -2.0797 -1.6272
  111TMC2    C7 1700   4.357   0.869  12.234  0.5701  0.0301 -0.3254
  111TMC2    C8 1701   3.924   0.803  12.415  0.0789  0.5097 -0.4346
  111TMC2    O1 1702   4.384   0.773  12.303 -0.4838 -0.3105 -0.3997
  111TMC2    O2 1703   3.811   0.848  12.430  0.1274  0.1060  0.0330
  111TMC2    O5 1704   3.977   0.693  12.461  0.0728  0.1277 -0.5430
  111TMC2    H5 1705   4.068   0.690  12.425  0.7706  0.5554  1.1816
  112MPD2     C 1706   3.529   1.301  11.865 -0.1402 -0.4518  0.0860
  112MPD2    C1 1707   3.657   1.304  11.815 -0.2452  0.5568 -0.5593
  112MPD2    C2 1708   3.760   1.267  11.900 -0.2505  0.4080 -0.6601
  112MPD2    C3 1709   3.742   1.217  12.030 -0.3804  0.0864  0.0216
  112MPD2    C4 1710   3.619   1.248  12.084  0.2273  0.1546 -0.4431
  112MPD2    C5 1711   3.509   1.283  12.000 -0.0522 -0.3627  0.3970
  112MPD2     H 1712   3.863   1.272  11.867 -0.0118  0.4748  0.0965
  112MPD2    H1 1713   3.595   1.234  12.189 -2.5200  1.1445 -0.9250
  112MPD2    H2 1714   3.438   1.302  11.807 -2.0392  1.3879  3.1330
  112MPD2    H3 1715   3.416   1.299  12.052 -0.6963 -0.8469 -0.6105
  112MPD2     N 1716   3.849   1.172  12.109 -0.1397 -0.5580  0.1694
  112MPD2    H5 1717   3.828   1.173  12.208  2.2425 -1.1806  0.6846
  112MPD2    N1 1718   3.686   1.346  11.682 -0.5552 -0.7369 -0.2063
  112MPD2    H7 1719   3.780   1.356  11.646  0.4202 -0.7567  2.2968
  113MPD2     C 1720   2.361   4.288   1.577 -0.5553 -0.0759  0.6012
  113MPD2    C1 1721   2.259   4.318   1.666 -0.5764  0.3584 -0.0489
  113MPD2    C2 1722   2.144   4.243   1.664 -0.5584 -0.4639 -0.3532
  113MPD2    C3 1723   2.127   4.142   1.570  0.2338 -0.5454 -0.2547
  113MPD2    C4 1724   2.227   4.114   1.481 -0.2367  0.6255  0.5641
  113MPD2    C5 1725   2.341   4.191   1.486 -0.0494 -0.2326 -0.4514
  113MPD2     H 1726   2.068   4.258   1.740  0.7262  0.9389  0.6573
  113MPD2    H1 1727   2.216   4.050   1.394 -0.3798 -0.3155  1.2725
  113MPD2    H2 1728   2.453   4.345   1.580  0.5615 -1.8595  0.0605
  113MPD2    H3 1729   2.411   4.174   1.405  2.0042  2.0827  0.8396
  113MPD2     N 1730   2.008   4.062   1.559  0.3743 -0.0319 -0.1889
  113MPD2    H5 1731   2.013   3.984   1.493  1.1023 -2.0419  2.2320
  113MPD2    N1 1732   2.276   4.413   1.765  0.6888  0.4027  0.1977
  113MPD2    H7 1733   2.194   4.440   1.818  0.8225  1.4725 -0.1516
  114TCq2    C1 1734   1.895   4.071   1.639 -0.0340 -0.0119 -0.4423
  114TCq2    O2 1735   1.873   4.143   1.736  0.3058  0.1650  0.1765
  114TCq2    C2 1736   1.790   3.984   1.605  0.0721 -0.0869  0.1626
  114TCq2    C3 1737   1.673   3.995   1.674  0.1129 -0.5857  0.3252
  114TCq2    C4 1738   1.563   3.916   1.637  0.1156 -0.0263 -0.3269
  114TCq2    C5 1739   1.569   3.817   1.539  0.0674  0.9368  1.1085
  114TCq2    C6 1740   1.692   3.812   1.472 -0.1486 -0.0305  1.0546
  114TCq2    C7 1741   1.797   3.890   1.506  0.2653 -1.0509 -0.7434
  114TCq2    C8 1742   1.701   3.742   1.346  0.3081 -0.1966  0.4841
  114TCq2    O4 1743   1.771   3.780   1.247 -0.1591  0.4057  0.0152
  114TCq2    C9 1744   1.438   3.929   1.714 -0.2386  0.2028 -0.4925
  114TCq2    O5 1745   1.434   4.030   1.790 -0.0449 -0.2894 -0.2295
  114TCq2    O6 1746   1.341   3.861   1.682  0.1398 -0.1892 -0.0373
  114TCq2    H2 1747   1.660   4.054   1.764 -1.1024 -0.0879 -0.1703
  114TCq2    H3 1748   1.478   3.766   1.512 -0.2203  1.6770  0.6695
  114TCq2    H4 1749   1.882   3.876   1.440  1.8422 -0.0301  1.0573
  115TMC2    C1 1750   3.039   1.585   0.229 -0.4190  0.1877  0.8456
  115TMC2    C2 1751   3.173   1.578   0.231 -0.3441 -0.0542 -0.1800
  115TMC2    C3 1752   3.236   1.692   0.267 -0.0792 -0.3097  0.1449
  115TMC2    C4 1753   2.970   1.701   0.245 -0.4053 -0.4507  0.6104
  115TMC2    C5 1754   3.039   1.818   0.265  0.1688 -0.5453 -0.3864
  115TMC2    C6 1755   3.172   1.812   0.276 -0.8674  0.2182  0.5670
  115TMC2     C 1756   2.968   1.457   0.212  0.8559  0.3510  0.3736
  115TMC2     O 1757   3.036   1.366   0.163  0.0060 -0.3888  0.4815
  115TMC2     H 1758   3.232   1.487   0.227  1.2203  1.0780 -2.9814
  115TMC2    H1 1759   2.865   1.700   0.221 -0.4163 -2.4699  0.7791
  115TMC2    H2 1760   3.216   1.907   0.305  1.4286 -0.9983  1.0771
  115TMC2    C7 1761   2.977   1.942   0.217  0.7494  0.7792 -0.2267
  115TMC2    C8 1762   3.375   1.721   0.230  0.5531  1.1531 -0.0102
  115TMC2    O1 1763   2.862   1.934   0.178 -0.5733  0.1995  0.2602
  115TMC2    O2 1764   3.410   1.836   0.217  1.0085 -0.1824  0.3222
  115TMC2    O5 1765   3.435   1.603   0.191 -0.2021  0.7398  0.3021
  115TMC2    H5 1766   3.528   1.627   0.171  0.2068 -1.0408  0.0998
  116MPD2     C 1767   2.534   1.176   0.201 -0.6946 -0.6916  0.0309
  116MPD2    C1 1768   2.652   1.153   0.146  0.3491  0.5650  0.5121
  116MPD2    C2 1769   2.759   1.238   0.174  0.3027  0.3043  0.2490
  116MPD2    C3 1770   2.739   1.349   0.246 -0.2974  0.4360 -0.8326
  116MPD2    C4 1771   2.613   1.374   0.293 -0.0238 -0.1934 -0.7199
  116MPD2    C5 1772   2.511   1.291   0.268 -0.0927 -1.0200  0.3216
  116MPD2     H 1773   2.855   1.222   0.127  2.0956 -0.2401  4.0653
  116MPD2    H1 1774   2.606   1.465   0.352 -1.8404 -1.3550  0.8565
  116MPD2    H2 1775   2.453   1.104   0.196 -1.7327  0.4513  0.0560
  116MPD2    H3 1776   2.413   1.316   0.307 -1.1064  0.2250 -3.0192
  116MPD2     N 1777   2.841   1.447   0.262  0.5791 -0.1080  0.8578
  116MPD2    H5 1778   2.816   1.532   0.314  0.4304 -0.6704  1.7085
  116MPD2    N1 1779   2.663   1.049   0.054  0.5460  0.2122 -0.2568
  116MPD2    H7 1780   2.588   0.981   0.051  1.4999 -0.7688 -2.4876
  117TMC2    C1 1781   1.823   2.664  14.598 -0.4073 -0.1593 -0.6895
  117TMC2    C2 1782   1.952   2.634  14.618  0.1581 -0.4558  0.8399
  117TMC2    C3 1783   2.038   2.720  14.677 -0.0167  0.5408  0.4863
  117TMC2    C4 1784   1.781   2.788  14.636  0.7398  0.2244 -0.2800
  117TMC2    C5 1785   1.868   2.883  14.686 -0.3467 -0.4678 -0.6100
  117TMC2    C6 1786   1.997   2.848  14.705  0.4599 -0.2751 -0.0051
  117TMC2     C 1787   1.724   2.569  14.554  0.6253 -0.2439  0.5009
  117TMC2     O 1788   1.772   2.467  14.514  0.0883 -0.4194 -0.3603
  117TMC2     H 1789   1.992   2.537  14.590 -1.0254 -0.5501 -0.5203
  117TMC2    H1 1790   1.677   2.817  14.625  0.9000  0.5669 -0.9092
  117TMC2    H2 1791   2.067   2.928  14.727 -0.7640 -0.1124  3.3050
  117TMC2    C7 1792   1.842   3.021  14.650  0.1775  0.3229  0.6816
  117TMC2    C8 1793   2.180   2.695  14.654  0.1477 -0.0966  0.0997
  117TMC2    O1 1794   1.937   3.098  14.648  0.7489 -0.2131 -0.1665
  117TMC2    O2 1795   2.216   2.640  14.552 -0.1370  0.2805  0.1081
  117TMC2    O5 1796   2.251   2.773  14.734 -0.4041  0.3141 -0.2022
  117TMC2    H5 1797   2.208   2.789  14.821 -0.0965  0.1096 -0.0127
  118MPD2     C 1798   1.531   3.194  14.529  0.1046  0.1760  0.1246
  118MPD2    C1 1799   1.661   3.170  14.548 -0.2895  0.4087  0.1020
  118MPD2    C2 1800   1.751   3.261  14.489 -0.1718 -0.8615  0.2976
  118MPD2    C3 1801   1.706   3.383  14.442  0.0266  0.8616  0.0843
  118MPD2    C4 1802   1.571   3.416  14.447 -0.3279  0.7367  0.4974
  118MPD2    C5 1803   1.484   3.317  14.484  0.3187  0.3389  0.0055
  118MPD2     H 1804   1.853   3.230  14.469  0.0983 -2.0663  3.4977
  118MPD2    H1 1805   1.531   3.506  14.401 -0.1008  1.0148  0.8509
  118MPD2    H2 1806   1.463   3.121  14.570 -0.2014 -0.8443 -2.1816
  118MPD2    H3 1807   1.376   3.330  14.477  0.3093  0.7964  0.8723
  118MPD2     N 1808   1.789   3.482  14.385 -0.7041 -0.2174 -0.0645
  118MPD2    H5 1809   1.752   3.574  14.360 -2.9881 -1.2721 -0.5234
  118MPD2    N1 1810   1.713   3.054  14.616  0.5390 -0.6598  0.2877
  118MPD2    H7 1811   1.635   2.991  14.637 -0.7073  0.4520 -1.0086
  119MPD2     C 1812   0.583   3.894  14.211 -0.1519 -0.6013 -0.2070
  119MPD2    C1 1813   0.484   3.991  14.219 -0.1951 -0.1657  0.4324
  119MPD2    C2 1814   0.453   4.067  14.110  0.3362  0.1031  0.1194
  119MPD2    C3 1815   0.509   4.040  13.989 -0.2456  0.2741  0.1742
  119MPD2    C4 1816   0.611   3.949  13.981 -0.0134 -0.2567  0.2930
  119MPD2    C5 1817   0.656   3.884  14.092 -0.8512  0.0747 -0.6705
  119MPD2     H 1818   0.377   4.144  14.115  0.3433  0.0886  0.4446
  119MPD2    H1 1819   0.666   3.947  13.888  0.7921  1.0220  0.7464
  119MPD2    H2 1820   0.598   3.833  14.299  0.1488 -0.3783 -0.1043
  119MPD2    H3 1821   0.738   3.815  14.078 -1.4181 -0.4983 -1.1799
  119MPD2     N 1822   0.463   4.104  13.866  0.6486 -0.2020 -0.1988
  119MPD2    H5 1823   0.517   4.090  13.782  4.2354  1.9091  1.7623
  119MPD2    N1 1824   0.422   4.014  14.344  0.0296 -0.0308  0.1050
  119MPD2    H7 1825   0.470   3.984  14.428  1.8532  2.3188 -0.1044
  120TCq2    C1 1826   0.336   4.160  13.854 -0.2332  0.2467  0.0705
  120TCq2    O2 1827   0.256   4.195  13.941  0.2774  0.3212 -0.4791
  120TCq2    C2 1828   0.289   4.175  13.713  0.0782 -0.8539 -0.3597
  120TCq2    C3 1829   0.353   4.114  13.612  0.0861  0.0359  0.1177
  120TCq2    C4 1830   0.284   4.082  13.501  0.1421  0.2559  0.6609
  120TCq2    C5 1831   0.161   4.108  13.491  0.9621 -0.2416  0.5838
  120TCq2    C6 1832   0.090   4.160  13.595 -0.8450  0.1713 -0.5054
  120TCq2    C7 1833   0.153   4.197  13.709  0.7096 -0.3240  0.2183
  120TCq2    C8 1834   4.670   4.165  13.585 -0.5714 -0.2480  0.0589
  120TCq2    O4 1835   4.629   4.175  13.471  0.5699  0.4711  0.3031
  120TCq2    C9 1836   0.347   4.011  13.392  0.0036 -0.5514  0.2107
  120TCq2    O5 1837   0.462   3.984  13.421  0.3353 -0.1732 -0.4220
  120TCq2    O6 1838   0.284   3.981  13.286 -0.4964  0.3352  0.2251
  120TCq2    H2 1839   0.461   4.101  13.612 -0.1771 -2.1725  0.3436
  120TCq2    H3 1840   0.108   4.079  13.401 -0.8889  3.3207  0.5300
  120TCq2    H4 1841   0.103   4.241  13.794  1.7992  0.6901  0.3403
  121TMC2    C1 1842   1.302   1.379  14.003  0.2742  0.3306 -0.3103
  121TMC2    C2 1843   1.433   1.366  13.966 -1.2429 -0.0406 -1.1381
  121TMC2    C3 1844   1.479   1.238  13.945 -0.5676 -0.6083 -0.3149
  121TMC2    C4 1845   1.209   1.276  14.008 -0.2092  0.3650 -0.3857
  121TMC2    C5 1846   1.256   1.144  13.990 -0.5677  0.5237  0.1167
  121TMC2    C6 1847   1.390   1.132  13.957 -0.8021 -0.0430 -0.6973
  121TMC2     C 1848   1.228   1.502  13.996  0.7631 -0.3669  0.2666
  121TMC2     O 1849   1.135   1.514  14.074  0.8302  0.3037 -0.3928
  121TMC2     H 1850   1.486   1.459  13.946 -1.0451 -0.0712 -0.7496
  121TMC2    H1 1851   1.109   1.292  14.046 -0.1966 -1.5952  0.4987
  121TMC2    H2 1852   1.421   1.032  13.929 -2.2361 -0.6187 -0.2091
  121TMC2    C7 1853   1.176   1.035  14.011  0.2108  0.0935  0.8908
  121TMC2    C8 1854   1.596   1.223  13.858 -0.0291 -0.6207 -0.3014
  121TMC2    O1 1855   1.223   0.932  14.056 -0.2513  0.9514  0.5218
  121TMC2    O2 1856   1.623   1.325  13.789 -0.4044  0.1205 -0.3580
  121TMC2    O5 1857   1.691   1.153  13.923  0.1199 -0.0616  0.0183
  121TMC2    H5 1858   1.656   1.101  13.998  0.2769  0.2879  0.3334
  122MPD2     C 1859   1.093   1.763  13.938  0.4638 -0.0430 -0.1017
  122MPD2    C1 1860   1.202   1.716  13.871 -0.2433  0.3975  1.0572
  122MPD2    C2 1861   1.251   1.791  13.770 -0.2804 -0.3203 -0.6768
  122MPD2    C3 1862   1.209   1.911  13.735  0.6548  0.0020 -0.1431
  122MPD2    C4 1863   1.113   1.964  13.816 -0.3009  0.2087 -0.3739
  122MPD2    C5 1864   1.046   1.887  13.907  0.1726  0.2248  0.3006
  122MPD2     H 1865   1.330   1.739  13.717  0.7672  1.9716 -1.3313
  122MPD2    H1 1866   1.062   2.053  13.781 -1.9762  0.0147  1.6132
  122MPD2    H2 1867   1.048   1.714  14.023  1.4832 -0.0339  0.4506
  122MPD2    H3 1868   0.951   1.926  13.941 -0.4037 -0.6517 -0.2919
  122MPD2     N 1869   1.261   1.994  13.627  0.2462 -0.2024  0.1259
  122MPD2    H5 1870   1.205   2.075  13.604 -0.2551 -0.3626  0.7616
  122MPD2    N1 1871   1.269   1.590  13.901  0.1047  0.0932  0.2980
  122MPD2    H7 1872   1.345   1.571  13.836 -0.4976 -0.1908 -0.3174
  123MPD2     C 1873   4.253   3.417  11.017 -0.1885 -0.5474  0.2752
  123MPD2    C1 1874   4.218   3.491  10.908 -0.4122  0.1875  0.0991
  123MPD2    C2 1875   4.196   3.431  10.783 -0.4255  0.3263  0.3899
  123MPD2    C3 1876   4.208   3.290  10.775  0.3141 -0.1359  0.4016
  123MPD2    C4 1877   4.252   3.211  10.881 -0.1089 -0.2172 -0.1289
  123MPD2    C5 1878   4.267   3.278  11.003 -0.7013 -0.0909  0.1326
  123MPD2     H 1879   4.168   3.490  10.696 -0.7911  0.7689  0.8131
  123MPD2    H1 1880   4.277   3.107  10.865  0.5620 -0.0824  0.0244
  123MPD2    H2 1881   4.267   3.456  11.117 -0.5674  1.6951 -0.5397
  123MPD2    H3 1882   4.303   3.233  11.095 -0.3800  0.9798  0.5221
  123MPD2     N 1883   4.179   3.233  10.647 -0.1147 -0.4059 -0.4237
  123MPD2    H5 1884   4.166   3.303  10.576 -1.3465 -1.7269 -1.4976
  123MPD2    N1 1885   4.217   3.633  10.924  0.0420 -0.1649 -0.5056
  123MPD2    H7 1886   4.267   3.674  11.003 -2.1231  1.1765  0.1887
  124TCq2    C1 1887   4.167   3.103  10.608  0.3643 -0.6832 -0.7333
  124TCq2    O2 1888   4.166   3.001  10.677 -0.3900 -0.1726  0.1035
  124TCq2    C2 1889   4.141   3.090  10.467  0.7238 -0.1327 -1.1359
  124TCq2    C3 1890   4.067   2.980  10.433  0.1468 -0.3021  0.7463
  124TCq2    C4 1891   3.986   3.007  10.325 -0.1391  0.2111 -0.1019
  124TCq2    C5 1892   3.971   3.125  10.256  0.8668  0.3162  0.3556
  124TCq2    C6 1893   4.062   3.221  10.285 -0.0013 -1.2237  0.0016
  124TCq2    C7 1894   4.144   3.211  10.395  0.5173 -0.8090  0.2408
  124TCq2    C8 1895   4.026   3.359  10.263  0.5947 -0.3468  0.4793
  124TCq2    O4 1896   4.031   3.431  10.359  0.3265 -0.4393  0.3857
  124TCq2    C9 1897   3.889   2.897  10.283  0.4529  0.0512  0.3056
  124TCq2    O5 1898   3.839   2.890  10.167  0.1879 -0.4249  0.2555
  124TCq2    O6 1899   3.876   2.803  10.362  0.1897 -0.3590  0.1509
  124TCq2    H2 1900   4.078   2.890  10.492  0.3675  0.5854  2.0390
  124TCq2    H3 1901   3.895   3.130  10.179  1.5849 -2.0628 -0.5205
  124TCq2    H4 1902   4.218   3.287  10.419  0.7194 -1.3563  1.3605
  125TMC2    C1 1903   0.232   0.041  10.073 -0.2912 -0.1211 -0.0240
  125TMC2    C2 1904   0.311   4.717   9.974  0.6415 -0.7837  0.7580
  125TMC2    C3 1905   0.342   0.072   9.863 -0.4979  0.0843  0.2165
  125TMC2    C4 1906   0.170   0.161  10.058 -0.1820  0.5327  0.2197
  125TMC2    C5 1907   0.190   0.229   9.944  0.2793  0.1439  0.1428
  125TMC2    C6 1908   0.282   0.194   9.844  0.7944  0.3289 -0.3492
  125TMC2     C 1909   0.241   4.703  10.205  0.0172 -0.0233  0.0923
  125TMC2     O 1910   0.331   4.630  10.226  0.2983 -0.2307  0.3980
  125TMC2     H 1911   0.363   4.623   9.985 -0.8813 -1.6834  0.3237
  125TMC2    H1 1912   0.107   0.201  10.137  0.4657  0.3396  0.8356
  125TMC2    H2 1913   0.292   0.248   9.751  1.0480  0.4619 -0.2462
  125TMC2    C7 1914   0.179   0.369   9.959 -0.1010 -0.2511  0.3509
  125TMC2    C8 1915   0.417   0.011   9.753  0.5236 -0.0148 -0.0933
  125TMC2    O1 1916   0.202   0.405  10.075  0.2408  0.7651 -0.4443
  125TMC2    O2 1917   0.421   4.610   9.740 -0.5088 -0.4040  0.1089
  125TMC2    O5 1918   0.458   0.106   9.669  0.3973  0.5464 -0.3852
  125TMC2    H5 1919   0.492   0.185   9.716 -0.8010 -0.2420  1.8413
  126MPD1     C 1920   0.065   4.670  10.696  0.5798 -0.5118  0.5811
  126MPD1    C1 1921   4.710   0.025  10.620 -0.0367  0.8527  0.1763
  126MPD1    C2 1922   0.013   0.037  10.486 -0.4278 -0.3321  0.5596
  126MPD1    C3 1923   0.125   4.716  10.427  0.4498  0.2433 -0.4616
  126MPD1    C4 1924   0.218   4.653  10.509  0.3785 -0.1989 -0.6132
  126MPD1    C5 1925   0.186   4.639  10.641  0.4177  0.1296  0.0858
  126MPD1     H 1926   4.677   0.101  10.422  2.4864  0.2569 -1.5654
  126MPD1    H1 1927   0.312   4.616  10.470 -0.1648 -0.5704 -1.5795
  126MPD1    H2 1928   0.048   4.642  10.799 -0.8984  2.3881  1.1270
  126MPD1    H3 1929   0.254   4.588  10.707  0.3528 -1.2733 -0.9251
  126MPD1     N 1930   0.134   0.007  10.287  0.0221 -0.5708 -0.0245
  126MPD1    H5 1931   0.061   0.065  10.246  0.2150  0.2134  0.7284
  126MPD1    N1 1932   4.594   0.071  10.681 -0.2430  0.2649 -0.2739
  126MPD1    H6 1933   4.611   0.116  10.771 -0.4941 -0.3402  0.0768
  126MPD1    H7 1934   4.561   0.154  10.632  0.4263  0.6951  0.0002
  127MPD2     C 1935   1.197   0.401   9.216 -0.3480 -0.3738  0.0165
  127MPD2    C1 1936   1.279   0.438   9.320 -0.3320  0.1059 -0.7955
  127MPD2    C2 1937   1.270   0.566   9.364  0.0005 -0.6773 -0.0412
  127MPD2    C3 1938   1.196   0.657   9.290 -0.4784 -0.3526  0.7618
  127MPD2    C4 1939   1.134   0.626   9.171  0.3836  0.3476  0.5070
  127MPD2    C5 1940   1.144   0.493   9.136 -0.2553 -0.5093  0.2821
  127MPD2     H 1941   1.329   0.612   9.442  0.8852 -1.7020 -0.1105
  127MPD2    H1 1942   1.075   0.692   9.109 -0.5309 -0.2018  0.7849
  127MPD2    H2 1943   1.197   0.297   9.188 -2.0104 -1.0854  2.6389
  127MPD2    H3 1944   1.090   0.453   9.051 -1.8450  0.5497  0.7923
  127MPD2     N 1945   1.178   0.790   9.350 -0.1023  0.4637  0.3381
  127MPD2    H5 1946   1.214   0.799   9.444 -1.0336 -1.2006  0.8535
  127MPD2    N1 1947   1.361   0.339   9.374  0.2345 -0.2078  0.5526
  127MPD2    H7 1948   1.342   0.245   9.339  2.2210 -0.7065  0.8341
  128TCq2    C1 1949   1.453   0.354   9.471  0.2388 -0.5250 -0.1412
  128TCq2    O2 1950   1.479   0.455   9.532  0.2563  0.4273  0.0632
  128TCq2    C2 1951   1.489   0.229   9.536 -0.3916 -0.5752  0.7224
  128TCq2    C3 1952   1.606   0.238   9.608  0.3808  0.0292 -0.2471
  128TCq2    C4 1953   1.681   0.118   9.620  0.1469 -0.4098 -0.2783
  128TCq2    C5 1954   1.629   4.721   9.587 -0.4459  0.1524 -0.5044
  128TCq2    C6 1955   1.506   4.719   9.520  0.8791 -0.2814  0.0552
  128TCq2    C7 1956   1.445   0.111   9.485 -0.3503 -0.7549  0.3069
  128TCq2    C8 1957   1.452   4.593   9.481 -0.6661 -0.3635  0.2909
  128TCq2    O4 1958   1.370   4.594   9.393 -0.2055  0.2264 -0.3356
  128TCq2    C9 1959   1.825   0.135   9.657 -0.3494  0.7199 -0.1166
  128TCq2    O5 1960   1.889   0.041   9.706  0.0887  0.3289  0.2229
  128TCq2    O6 1961   1.874   0.253   9.646 -0.0808  0.1702 -0.0096
  128TCq2    H2 1962   1.654   0.333   9.624  1.5854 -0.3802 -1.3816
  128TCq2    H3 1963   1.696   4.636   9.593 -0.7925  0.0108  1.4355
  128TCq2    H4 1964   1.371   0.109   9.406 -0.0235  0.0824 -0.0250
  129MPD2     C 1965   0.553   0.415   1.833 -0.8393  0.0051 -0.3325
  129MPD2    C1 1966   0.585   0.458   1.709 -0.0883 -0.0302  0.3057
  129MPD2    C2 1967   0.718   0.487   1.675 -1.1391 -0.0632 -0.0953
  129MPD2    C3 1968   0.818   0.481   1.765 -0.2259 -0.2505  0.7506
  129MPD2    C4 1969   0.788   0.450   1.895 -0.2266 -0.2500 -0.3677
  129MPD2    C5 1970   0.655   0.421   1.924 -0.0856 -0.1167 -0.3960
  129MPD2     H 1971   0.736   0.519   1.573 -1.3454  1.2407  0.2731
  129MPD2    H1 1972   0.862   0.448   1.975 -1.6641 -0.3351  0.9557
  129MPD2    H2 1973   0.450   0.397   1.860 -0.4671 -1.7690 -0.0450
  129MPD2    H3 1974   0.625   0.415   2.027  0.1081  1.8047 -0.2287
  129MPD2     N 1975   0.943   0.537   1.734 -0.1986 -0.3630  0.1818
  129MPD2    H5 1976   0.950   0.595   1.650  2.8780  3.4539  3.0755
  129MPD2    N1 1977   0.490   0.473   1.605  0.0026  0.4917  0.5349
  129MPD2    H7 1978   0.527   0.502   1.515 -1.3775  0.5557 -0.0253
  130TCq2    C1 1979   0.359   0.468   1.616 -0.2133  0.2342  0.3127
  130TCq2    O2 1980   0.297   0.452   1.718 -0.6316  0.5597  0.1664
  130TCq2    C2 1981   0.275   0.487   1.494 -0.1528 -0.3614  0.3650
  130TCq2    C3 1982   0.319   0.439   1.374  0.0235 -0.6237 -0.4500
  130TCq2    C4 1983   0.241   0.443   1.261 -0.9186  0.0713 -0.1553
  130TCq2    C5 1984   0.114   0.500   1.272 -0.0469 -1.2027  0.4408
  130TCq2    C6 1985   0.076   0.555   1.398 -0.6459 -0.2934 -0.0722
  130TCq2    C7 1986   0.152   0.535   1.516  0.0956 -0.2932 -0.0300
  130TCq2    C8 1987   4.691   0.653   1.408 -0.5610 -0.6298  0.1339
  130TCq2    O4 1988   4.673   0.709   1.516 -0.2514 -0.0278  0.4757
  130TCq2    C9 1989   0.276   0.373   1.142 -0.6587  0.3501  0.3734
  130TCq2    O5 1990   0.213   0.397   1.039 -0.1239 -0.3243  0.4335
  130TCq2    O6 1991   0.371   0.291   1.151 -0.0658  0.3655 -0.0703
  130TCq2    H2 1992   0.418   0.399   1.358 -1.0477 -3.7576  0.6421
  130TCq2    H3 1993   0.046   0.487   1.189  0.0328  1.4791 -0.0435
  130TCq2    H4 1994   0.124   0.581   1.610 -2.4054 -0.0605 -0.8880
  131MPD2     C 1995   3.841   4.623  10.617 -0.7102  0.3273 -0.2619
  131MPD2    C1 1996   3.962   4.636  10.679  0.3527  0.7457  0.8660
  131MPD2    C2 1997   4.028   4.522  10.719  0.8828 -0.3552 -0.0002
  131MPD2    C3 1998   3.963   4.397  10.716  0.3395 -0.5149  0.4065
  131MPD2    C4 1999   3.836   4.389  10.665 -0.1540  0.4019 -1.0003
  131MPD2    C5 2000   3.774   4.504  10.612  0.6938 -0.3181  0.3160
  131MPD2     H 2001   4.128   4.531  10.757  0.6104  1.8159  0.1977
  131MPD2    H1 2002   3.778   4.298  10.668 -0.8420  0.8746  0.0862
  131MPD2    H2 2003   3.786   4.710  10.583 -0.6118  0.7752  0.7451
  131MPD2    H3 2004   3.675   4.502  10.566 -0.1771 -0.2594  2.1728
  131MPD2     N 2005   4.031   4.290  10.777  0.4591 -0.0097 -0.5878
  131MPD2    H5 2006   4.111   4.318  10.833  0.5589 -1.1144 -0.1690
  131MPD2    N1 2007   4.007   0.036  10.690  0.0140  0.1101  0.2912
  131MPD2    H7 2008   3.939   0.104  10.657 -1.2396 -0.3777  1.8487
  132TCq2    C1 2009   4.413   0.392  10.616  0.2265  0.0133  0.0696
  132TCq2    O2 2010   4.457   0.285  10.583 -0.5560  0.3374  0.7177
  132TCq2    C2 2011   4.289   0.389  10.696  0.0381  0.2928 -0.1588
  132TCq2    C3 2012   4.184   0.463  10.653  0.7231 -0.2258 -0.1832
  132TCq2    C4 2013   4.062   0.419  10.688 -0.7739 -0.4488  0.4577
  132TCq2    C5 2014   4.032   0.295  10.739  0.6117 -0.7292  0.4765
  132TCq2    C6 2015   4.145   0.215  10.766 -0.2973  0.3688 -0.8823
  132TCq2    C7 2016   4.267   0.268  10.756 -0.1087  0.0220  0.2636
  132TCq2    C8 2017   4.132   0.071  10.743  0.4406 -0.3415  0.3347
  132TCq2    O4 2018   4.230   0.005  10.774  0.3769  0.0712 -0.1103
  132TCq2    C9 2019   3.941   0.504  10.682  0.2593  0.1789 -0.9464
  132TCq2    O5 2020   3.965   0.627  10.666  0.3954 -0.7736 -0.6358
  132TCq2    O6 2021   3.825   0.458  10.705  0.2363 -0.1252 -0.2427
  132TCq2    H2 2022   4.190   0.558  10.601 -0.0236  0.7200  1.4709
  132TCq2    H3 2023   3.935   0.263  10.776 -0.8573 -0.9732 -3.6226
  132TCq2    H4 2024   4.352   0.207  10.786  0.6733 -0.3304 -2.6148
  133MPD2     C 2025   3.696   0.943   9.505  0.9797 -0.3221 -0.4650
  133MPD2    C1 2026   3.760   0.850   9.584  0.1698 -0.5641 -0.0953
  133MPD2    C2 2027   3.700   0.817   9.705 -0.0706 -0.5885 -0.3822
  133MPD2    C3 2028   3.572   0.866   9.743 -0.3938 -0.7124 -0.4433
  133MPD2    C4 2029   3.510   0.963   9.656 -0.0908 -0.3845  0.0565
  133MPD2    C5 2030   3.571   0.993   9.535 -0.5875  0.6384  0.1160
  133MPD2     H 2031   3.745   0.737   9.763 -0.6763 -1.9913 -1.8408
  133MPD2    H1 2032   3.421   1.012   9.694 -1.4219 -0.8356 -2.5239
  133MPD2    H2 2033   3.744   0.973   9.412  0.7600  0.0635 -0.4528
  133MPD2    H3 2034   3.538   1.081   9.480 -0.7003 -0.6294 -1.8485
  133MPD2     N 2035   3.502   0.822   9.861  0.2744 -0.2027 -0.1678
  133MPD2    H5 2036   3.402   0.843   9.854  0.1131 -0.2852  1.9045
  133MPD2    N1 2037   3.884   0.797   9.535 -0.6684 -0.5014 -0.2637
  133MPD2    H7 2038   3.930   0.832   9.451  1.5486 -1.4351  0.5612
  134TCq2    C1 2039   3.963   0.699   9.596  0.2367  0.7747  0.2711
  134TCq2    O2 2040   3.931   0.629   9.689  0.0406  0.3014  0.2044
  134TCq2    C2 2041   4.095   0.680   9.535  0.0904  0.3909 -0.0701
  134TCq2    C3 2042   4.152   0.556   9.555  0.4346 -0.2016 -0.8788
  134TCq2    C4 2043   4.283   0.549   9.536 -0.3862  0.6371  0.3178
  134TCq2    C5 2044   4.349   0.650   9.466  0.3547 -0.4078  0.2154
  134TCq2    C6 2045   4.277   0.758   9.423 -0.4326 -0.0813  0.1828
  134TCq2    C7 2046   4.150   0.777   9.462  0.1233  0.8109 -0.3457
  134TCq2    C8 2047   4.351   0.867   9.366 -0.1048  0.2387  0.1152
  134TCq2    O4 2048   4.470   0.861   9.379 -0.1474 -0.2380  0.0506
  134TCq2    C9 2049   4.361   0.419   9.551  0.6399  0.5450 -0.0924
  134TCq2    O5 2050   4.484   0.418   9.509 -0.2593  0.2549 -0.0135
  134TCq2    O6 2051   4.303   0.328   9.619  0.3147  0.3190  0.0395
  134TCq2    H2 2052   4.096   0.474   9.599 -0.1517  0.4168 -0.4794
  134TCq2    H3 2053   4.457   0.646   9.454  0.3313 -1.1805  0.2649
  134TCq2    H4 2054   4.098   0.871   9.457 -2.2184 -0.4137  1.1088
  135MPD2     C 2055   1.576   2.218  10.060 -0.6617  0.3266  0.5352
  135MPD2    C1 2056   1.464   2.155  10.010  0.3317  0.1752  0.4545
  135MPD2    C2 2057   1.481   2.048   9.926  0.0290 -0.1628  0.2474
  135MPD2    C3 2058   1.607   1.994   9.900  0.1085  0.4562 -0.1058
  135MPD2    C4 2059   1.718   2.050   9.960  0.6462 -0.0737  0.8036
  135MPD2    C5 2060   1.702   2.163  10.041  0.9481 -0.2756 -0.1882
  135MPD2     H 2061   1.388   2.006   9.889 -0.0731  1.1861 -1.0167
  135MPD2    H1 2062   1.819   2.013   9.945  1.1129  2.4003 -2.0864
  135MPD2    H2 2063   1.559   2.305  10.121 -3.4961  0.8456 -0.9833
  135MPD2    H3 2064   1.784   2.221  10.081 -0.0771 -0.1649  1.7452
  135MPD2     N 2065   1.626   1.873   9.829  0.0858  0.3357 -0.8059
  135MPD2    H5 2066   1.715   1.827   9.846  0.9859  1.9078 -1.2771
  135MPD2    N1 2067   1.331   2.201  10.040 -0.5915  0.4332 -0.0511
  135MPD2    H7 2068   1.252   2.153   9.997 -0.1546 -0.1841 -0.1737
  136TCq2    C1 2069   1.298   2.293  10.138  0.0330  0.3281  0.1610
  136TCq2    O2 2070   1.367   2.360  10.213  0.0101 -0.5216  0.5640
  136TCq2    C2 2071   1.157   2.284  10.184  0.0152 -0.8291  0.6445
  136TCq2    C3 2072   1.060   2.240  10.100 -0.1912 -0.1709  0.3744
  136TCq2    C4 2073   0.945   2.187  10.150 -0.2691  0.7280 -0.3095
  136TCq2    C5 2074   0.921   2.183  10.290  0.1571  0.6817 -0.0312
  136TCq2    C6 2075   1.008   2.259  10.364  0.2880  0.1676 -0.0809
  136TCq2    C7 2076   1.122   2.307  10.315 -0.1371 -0.0797 -0.2253
  136TCq2    C8 2077   0.996   2.261  10.510  0.4715 -0.9948  0.3101
  136TCq2    O4 2078   1.073   2.346  10.558  0.5876  0.1001  0.2530
  136TCq2    C9 2079   0.851   2.121  10.054 -0.3535 -0.8985  0.3077
  136TCq2    O5 2080   0.882   2.121   9.932  0.2462 -0.0971  0.1877
  136TCq2    O6 2081   0.752   2.055  10.105 -0.2365  0.4222  0.1987
  136TCq2    H2 2082   1.083   2.221   9.996  1.1309  0.3744  0.5775
  136TCq2    H3 2083   0.833   2.131  10.325  1.2444  0.8490  2.9696
  136TCq2    H4 2084   1.205   2.334  10.379  1.1400 -0.8231 -1.5748
  137MPD2     C 2085   0.762   0.465  10.361  0.5703 -0.5340  0.3054
  137MPD2    C1 2086   0.647   0.536  10.332  0.0524  0.2428 -0.1778
  137MPD2    C2 2087   0.575   0.597  10.436 -0.1252  1.1081  0.4447
  137MPD2    C3 2088   0.613   0.564  10.564  0.2652 -0.7343 -0.3005
  137MPD2    C4 2089   0.724   0.485  10.596  0.3048  0.4482 -0.1038
  137MPD2    C5 2090   0.796   0.428  10.494  0.1890 -0.7923 -0.2822
  137MPD2     H 2091   0.497   0.673  10.428 -1.3017 -0.2007 -0.4358
  137MPD2    H1 2092   0.766   0.482  10.696 -0.9681 -0.7513  0.4041
  137MPD2    H2 2093   0.826   0.432  10.280  0.7278  1.1251 -0.2587
  137MPD2    H3 2094   0.876   0.356  10.510  1.9876  1.7342  2.1329
  137MPD2     N 2095   0.530   0.620  10.659 -0.2887  0.3313 -0.2634
  137MPD2    H5 2096   0.455   0.677  10.621  0.9672  0.3329 -2.7817
  137MPD2    N1 2097   0.616   0.552  10.196  0.4554 -0.4787  0.0005
  137MPD2    H7 2098   0.664   0.484  10.138 -0.1416  0.9677 -2.1873
  138TCq2    C1 2099   0.519   0.635  10.149  0.9436  0.1127 -0.3497
  138TCq2    O2 2100   0.471   0.725  10.210  0.3267 -0.7101 -0.3165
  138TCq2    C2 2101   0.507   0.635  10.004  0.5507  0.4818 -0.6115
  138TCq2    C3 2102   0.520   0.519   9.934 -0.5388 -0.2664 -0.4473
  138TCq2    C4 2103   0.540   0.528   9.797  0.1692 -0.2647 -0.5838
  138TCq2    C5 2104   0.549   0.645   9.735 -0.6189 -0.1850 -0.0965
  138TCq2    C6 2105   0.552   0.756   9.813 -0.0601 -0.3316 -0.1133
  138TCq2    C7 2106   0.534   0.759   9.949  0.1011  0.0105  0.5140
  138TCq2    C8 2107   0.516   0.878   9.739 -0.4091  0.6161 -0.0133
  138TCq2    O4 2108   0.556   0.898   9.624 -0.3665  0.2044  0.1550
  138TCq2    C9 2109   0.532   0.408   9.725 -0.3549 -0.2128 -0.0828
  138TCq2    O5 2110   0.547   0.304   9.790  0.2585 -0.2750  0.5862
  138TCq2    O6 2111   0.486   0.416   9.606 -0.4049 -0.2945 -0.1691
  138TCq2    H2 2112   0.499   0.423   9.978 -0.2372 -0.5419 -0.9019
  138TCq2    H3 2113   0.567   0.651   9.629  2.1857  1.3138  0.4804
  138TCq2    H4 2114   0.546   0.844  10.016 -2.4782  0.6090  0.2165
  139TMC2    C1 2115   1.580   3.893  13.731 -0.7220 -0.6456 -0.5449
  139TMC2    C2 2116   1.653   3.998  13.690 -0.4696 -0.8645  0.7464
  139TMC2    C3 2117   1.660   4.105  13.778 -0.0302  0.5836  0.2867
  139TMC2    C4 2118   1.516   3.882  13.852 -0.0549 -0.4187 -0.0398
  139TMC2    C5 2119   1.509   3.993  13.926 -0.8973 -0.1807  0.2308
  139TMC2    C6 2120   1.587   4.104  13.896 -1.0767  0.4988 -0.3957
  139TMC2     C 2121   1.619   3.769  13.665  0.4149  0.2066 -0.2176
  139TMC2     O 2122   1.662   3.782  13.554  1.1185  0.4576  0.0725
  139TMC2     H 2123   1.716   4.010  13.603 -0.0822  1.7263  1.3625
  139TMC2    H1 2124   1.446   3.800  13.865 -0.7361 -0.2535 -2.6689
  139TMC2    H2 2125   1.582   4.194  13.957  3.1105 -0.7243  1.7443
  139TMC2    C7 2126   1.397   4.016  14.026 -0.3393 -0.9855 -0.4418
  139TMC2    C8 2127   1.766   4.200  13.753 -0.6374  0.3092  0.3465
  139TMC2    O1 2128   1.374   4.133  14.070 -0.0378  0.5218 -0.5840
  139TMC2    O2 2129   1.880   4.159  13.732  0.0358 -0.9017  0.0090
  139TMC2    O5 2130   1.742   4.309  13.822  0.3075 -0.2253  0.2086
  139TMC2    H5 2131   1.649   4.338  13.828  0.3874  0.0923 -0.1418
  140MPD2     C 2132   1.687   3.442  13.821 -0.6845 -0.3396 -0.1725
  140MPD2    C1 2133   1.672   3.531  13.721 -0.0174  0.4561  0.7203
  140MPD2    C2 2134   1.710   3.490  13.588  0.1384 -0.3118 -0.1122
  140MPD2    C3 2135   1.751   3.356  13.567 -0.2987  0.0189  0.3521
  140MPD2    C4 2136   1.771   3.271  13.673 -0.4662  0.1074  0.5585
  140MPD2    C5 2137   1.736   3.314  13.799  0.5507  0.6879  0.3608
  140MPD2     H 2138   1.688   3.560  13.508  3.7408  0.4835 -0.4019
  140MPD2    H1 2139   1.796   3.166  13.668  0.7558  0.3530  1.6823
  140MPD2    H2 2140   1.659   3.476  13.919  0.8961  1.7577 -0.4618
  140MPD2    H3 2141   1.746   3.241  13.878  0.6060  1.1467  0.7812
  140MPD2     N 2142   1.792   3.324  13.433  0.0503 -0.2482 -0.1726
  140MPD2    H5 2143   1.772   3.388  13.357  1.7784  2.1570  1.3822
  140MPD2    N1 2144   1.630   3.662  13.753  0.4431  0.1511 -0.1017
  140MPD2    H7 2145   1.620   3.672  13.853 -0.6755 -0.3972 -0.1548
  141TCq2    C1 2146   2.143   0.294  14.781 -0.8668 -0.1104  0.2646
  141TCq2    O2 2147   2.081   0.398  14.744  0.7726 -0.3224 -0.0887
  141TCq2    C2 2148   2.102   0.251  14.910 -0.0993 -0.0151 -0.3439
  141TCq2    C3 2149   2.092   0.122  14.942 -0.1343  0.0182  0.1587
  141TCq2    C4 2150   2.060   0.091  15.071 -0.1987  0.4644  0.1224
  141TCq2    C5 2151   2.016   0.183  15.159 -0.0687  0.4786  0.1349
  141TCq2    C6 2152   2.004   0.310  15.118 -0.2982 -0.0876  0.3611
  141TCq2    C7 2153   2.055   0.345  14.999 -0.5427 -0.3323  0.0403
  141TCq2    C8 2154   1.961   0.415  15.207 -1.2100  0.2948  0.3074
  141TCq2    O4 2155   1.978   0.398  15.329 -0.0724  0.2980  0.7648
  141TCq2    C9 2156   2.080   4.677  15.115 -0.6506  0.8634  0.3547
  141TCq2    O5 2157   2.133   4.600  15.036 -0.2346  0.2493 -0.3414
  141TCq2    O6 2158   2.099   4.662  15.239  0.0601  0.3171  0.7740
  141TCq2    H2 2159   2.135   0.048  14.876  1.6132  0.4830  0.7730
  141TCq2    H3 2160   1.979   0.166  15.259  1.9579 -0.5802  0.7000
  141TCq2    H4 2161   2.076   0.450  14.984  0.4444 -0.4538  0.5444
  142MPD2     C 2162   4.525   3.921  11.035 -0.2226  0.5828  0.1240
  142MPD2    C1 2163   4.545   3.824  10.942  0.2162  0.3410  0.3709
  142MPD2    C2 2164   4.512   3.847  10.804 -0.2627 -0.2477  0.0128
  142MPD2    C3 2165   4.471   3.971  10.771 -0.4592  0.2764  0.5254
  142MPD2    C4 2166   4.447   4.068  10.862 -0.7998 -0.4326  0.1902
  142MPD2    C5 2167   4.473   4.044  10.990 -0.4473 -0.4609  0.2814
  142MPD2     H 2168   4.516   3.771  10.727  0.4886 -0.1456 -0.0476
  142MPD2    H1 2169   4.399   4.164  10.844 -1.0986 -0.6404 -0.1545
  142MPD2    H2 2170   4.547   3.918  11.141  1.1930 -1.0244 -0.2184
  142MPD2    H3 2171   4.455   4.124  11.062  0.9708 -0.4763  0.6568
  142MPD2     N 2172   4.450   4.015  10.636 -1.0608  0.5072  0.1032
  142MPD2    H5 2173   4.422   4.112  10.636  2.0591  1.4252  1.4972
  142MPD2    N1 2174   4.583   3.694  10.995  0.5767 -0.1097  0.1520
  142MPD2    H7 2175   4.597   3.686  11.095 -1.3051  1.6234  0.5322
  143TCq2    C1 2176   4.466   3.939  10.526  0.7464  0.0256  0.3845
  143TCq2    O2 2177   4.495   3.822  10.519 -0.0613  0.4224  0.0524
  143TCq2    C2 2178   4.430   4.014  10.403 -0.6733 -0.1730 -0.0850
  143TCq2    C3 2179   4.441   4.150  10.398 -0.4770  0.3204  0.1700
  143TCq2    C4 2180   4.407   4.208  10.281 -0.5084  0.0226 -0.1094
  143TCq2    C5 2181   4.376   4.133  10.172  0.1318 -0.3048  0.1746
  143TCq2    C6 2182   4.351   4.002  10.182 -0.9654  0.0553 -0.0669
  143TCq2    C7 2183   4.392   3.940  10.300  0.5766 -0.5434 -0.2214
  143TCq2    C8 2184   4.260   3.939  10.085  0.2493 -0.0436 -0.6362
  143TCq2    O4 2185   4.227   4.004   9.987 -0.2123 -0.3544  1.0833
  143TCq2    C9 2186   4.404   4.351  10.272  0.3296  0.2756 -0.1932
  143TCq2    O5 2187   4.429   4.421  10.375  0.4906  0.0418 -0.4715
  143TCq2    O6 2188   4.395   4.396  10.156 -0.2472 -0.4328  0.1062
  143TCq2    H2 2189   4.486   4.206  10.479  0.9206 -0.2886 -0.1791
  143TCq2    H3 2190   4.332   4.185  10.087  1.1649  0.7007  0.2498
  143TCq2    H4 2191   4.385   3.832  10.313 -0.0296 -0.4744  0.0154
  144MPD2     C 2192   1.847   3.175   0.762 -0.1329 -0.2813 -0.0663
  144MPD2    C1 2193   1.863   3.054   0.827  0.4346  0.4561 -0.3954
  144MPD2    C2 2194   1.905   3.055   0.962 -0.2018 -0.3194  0.3438
  144MPD2    C3 2195   1.921   3.174   1.029 -0.9692  0.1980  0.3559
  144MPD2    C4 2196   1.909   3.292   0.958  0.1172 -0.5386  0.0497
  144MPD2    C5 2197   1.873   3.291   0.823  0.2419 -0.4847 -0.3954
  144MPD2     H 2198   1.906   2.965   1.022  1.1375 -1.7236 -1.7999
  144MPD2    H1 2199   1.926   3.385   1.011  0.3366  0.1537 -1.2592
  144MPD2    H2 2200   1.822   3.186   0.657 -1.1191 -0.9522  0.0963
  144MPD2    H3 2201   1.862   3.385   0.770 -1.5368 -0.1370  0.5835
  144MPD2     N 2202   1.956   3.200   1.162 -0.2151  0.2531 -0.3065
  144MPD2    H5 2203   1.955   3.297   1.193 -3.4835 -0.7180  2.6983
  144MPD2    N1 2204   1.821   2.930   0.765  0.3326  0.6604 -0.2716
  144MPD2    H7 2205   1.845   2.847   0.819 -0.9931 -1.1027 -2.3763
  145TCq2    C1 2206   1.985   3.102   1.250  0.6892  0.2690 -0.0965
  145TCq2    O2 2207   2.020   2.982   1.235  0.0659  0.1488  0.2339
  145TCq2    C2 2208   2.012   3.157   1.378 -1.0472 -0.1163 -1.0593
  145TCq2    C3 2209   2.115   3.103   1.448  0.3012 -0.6341  0.2529
  145TCq2    C4 2210   2.133   3.134   1.574 -0.3226  0.2195 -0.2199
  145TCq2    C5 2211   2.062   3.234   1.637 -0.1656  0.3962 -0.0217
  145TCq2    C6 2212   1.963   3.294   1.554 -0.4445 -0.1021 -0.0454
  145TCq2    C7 2213   1.923   3.241   1.436  0.3576 -0.0667 -0.0560
  145TCq2    C8 2214   1.861   3.373   1.618 -0.6216  0.1510 -0.7832
  145TCq2    O4 2215   1.745   3.364   1.578 -0.6645 -0.5481 -0.0553
  145TCq2    C9 2216   2.204   3.041   1.661 -0.1018  0.2653  0.1689
  145TCq2    O5 2217   2.229   2.924   1.621 -0.2086 -0.1499  0.3300
  145TCq2    O6 2218   2.226   3.075   1.778 -0.0815 -0.1297 -0.1819
  145TCq2    H2 2219   2.175   3.024   1.404  1.1734  1.5569 -2.5025
  145TCq2    H3 2220   2.064   3.243   1.745  1.9221 -3.1628  0.2175
  145TCq2    H4 2221   1.842   3.288   1.382  2.2147  2.1910 -0.9005
  146TMC2    C1 2222   3.768   1.638  12.367  0.4718  0.3175  0.4606
  146TMC2    C2 2223   3.667   1.647  12.271  0.0607  0.8282 -0.0198
  146TMC2    C3 2224   3.692   1.610  12.144  0.2166  0.8385 -0.5859
  146TMC2    C4 2225   3.887   1.582  12.339 -0.1177 -0.1879 -0.1216
  146TMC2    C5 2226   3.898   1.534  12.207  0.2142  0.1512 -0.4830
  146TMC2    C6 2227   3.807   1.553  12.104  0.5587  0.1326 -0.3024
  146TMC2     C 2228   3.727   1.681  12.498 -0.4567 -0.7298  0.2392
  146TMC2     O 2229   3.634   1.766  12.510 -0.3595 -0.1440  0.5131
  146TMC2     H 2230   3.574   1.699  12.294 -0.4579  0.2735 -0.8853
  146TMC2    H1 2231   3.975   1.585  12.403 -0.9273 -1.7124  1.0654
  146TMC2    H2 2232   3.820   1.515  12.003  0.9844  0.1616 -0.2593
  146TMC2    C7 2233   4.020   1.462  12.151 -0.6710  0.4253 -0.8948
  146TMC2    C8 2234   3.587   1.630  12.046  0.4442  0.5015  0.0385
  146TMC2    O1 2235   4.029   1.470  12.029 -0.2275  0.9562  0.2858
  146TMC2    O2 2236   3.469   1.651  12.077  0.3439  0.9799  0.2907
  146TMC2    O5 2237   3.648   1.645  11.920 -0.0057  0.7751  0.3332
  146TMC2    H5 2238   3.739   1.680  11.926  0.1671  0.6901 -1.5424
  147MPD2     C 2239   4.488   1.289  12.226 -0.2279 -1.0040  0.0533
  147MPD2    C1 2240   4.414   1.248  12.338 -0.3306 -0.2301 -0.3580
  147MPD2    C2 2241   4.280   1.283  12.346  0.8398 -0.3101  0.8254
  147MPD2    C3 2242   4.222   1.342  12.235 -0.4679  0.4083  0.5442
  147MPD2    C4 2243   4.294   1.359  12.121 -0.5391  0.0150  0.3137
  147MPD2    C5 2244   4.421   1.339  12.114  0.0640 -0.1739  0.2870
  147MPD2     H 2245   4.231   1.279  12.442  1.8927 -1.4662  1.3090
  147MPD2    H1 2246   4.240   1.394  12.033 -0.9119  0.1050  0.5761
  147MPD2    H2 2247   4.594   1.277  12.209 -0.1508  0.6152 -0.5880
  147MPD2    H3 2248   4.483   1.358  12.026 -2.5543  0.7323 -1.3671
  147MPD2     N 2249   4.097   1.405  12.249  0.2024  0.3971  0.5921
  147MPD2    H5 2250   4.055   1.404  12.341 -0.6439 -1.1666  0.1858
  147MPD2    N1 2251   4.487   1.200  12.446  0.0254 -0.2284 -0.5696
  147MPD2    H7 2252   4.588   1.194  12.448  0.0947  0.4316 -1.9110
  148MPD2     C 2253   3.658   1.006  10.669  0.6020 -0.1597  0.2303
  148MPD2    C1 2254   3.714   0.892  10.711 -0.2786  0.4266 -0.3728
  148MPD2    C2 2255   3.625   0.782  10.738  0.0948 -1.1028  0.5577
  148MPD2    C3 2256   3.490   0.780  10.721 -0.2457 -0.0223 -0.3292
  148MPD2    C4 2257   3.442   0.897  10.673  0.6380  0.1054 -0.2371
  148MPD2    C5 2258   3.525   1.007  10.655 -0.4386 -0.1312 -0.2126
  148MPD2     H 2259   3.674   0.688  10.761  1.9442  0.3406  2.5094
  148MPD2    H1 2260   3.335   0.906  10.662  0.6982  1.0313 -0.1355
  148MPD2    H2 2261   3.714   1.095  10.644 -0.2105 -0.0843 -1.3349
  148MPD2    H3 2262   3.487   1.100  10.617  0.2632  0.1377 -0.2505
  148MPD2     N 2263   3.395   0.680  10.762  0.4481 -0.1678 -0.2931
  148MPD2    H5 2264   3.299   0.691  10.730  0.3593  0.7364  0.2918
  148MPD2    N1 2265   3.854   0.879  10.747 -0.1295  0.1747 -0.3105
  148MPD2    H7 2266   3.894   0.787  10.762  0.7872  0.8469  1.3632
  149TCq2    C1 2267   3.940   0.984  10.756  0.5354  0.1043 -0.1949
  149TCq2    O2 2268   3.943   1.098  10.707  0.5393  0.2075  0.5131
  149TCq2    C2 2269   4.044   0.949  10.857 -0.4742  0.3983 -0.2500
  149TCq2    C3 2270   4.163   1.017  10.858 -0.9288  0.0523  0.3344
  149TCq2    C4 2271   4.259   0.969  10.938  0.4408  0.1466  0.1540
  149TCq2    C5 2272   4.252   0.848  11.003  0.3575 -0.0953  0.5965
  149TCq2    C6 2273   4.133   0.779  10.994 -0.3025 -0.1059 -0.3321
  149TCq2    C7 2274   4.027   0.830  10.926 -0.5320 -0.1330 -0.0159
  149TCq2    C8 2275   4.111   0.661  11.067 -0.1517 -0.1151 -0.0241
  149TCq2    O4 2276   3.999   0.614  11.080 -0.5566 -0.1588 -0.0095
  149TCq2    C9 2277   4.387   1.022  10.923  0.6523  0.2809 -0.8253
  149TCq2    O5 2278   4.453   1.033  11.031 -0.5634  0.3275 -0.1685
  149TCq2    O6 2279   4.435   1.001  10.809 -0.0131 -0.1531 -0.1897
  149TCq2    H2 2280   4.177   1.092  10.781  1.2461 -0.0739  0.5891
  149TCq2    H3 2281   4.336   0.811  11.060 -0.4479 -1.1830  1.0903
  149TCq2    H4 2282   3.929   0.787  10.943 -0.6292  0.7329  1.6520
  150MPD2     C 2283   0.874   4.318  12.193 -0.3502 -0.6403 -0.3935
  150MPD2    C1 2284   0.921   4.348  12.068  0.5404 -0.6391  0.7451
  150MPD2    C2 2285   1.036   4.427  12.058 -0.4813 -0.9178 -0.4146
  150MPD2    C3 2286   1.114   4.449  12.172  0.6727  0.1209  0.1588
  150MPD2    C4 2287   1.075   4.399  12.297 -0.2557  0.4113  0.0964
  150MPD2    C5 2288   0.950   4.344  12.303 -0.8320 -0.0380 -0.0739
  150MPD2     H 2289   1.066   4.461  11.959  1.2099  0.2673  0.4987
  150MPD2    H1 2290   1.118   4.422  12.394 -0.4445 -0.5418  0.4136
  150MPD2    H2 2291   0.786   4.257  12.209 -1.1801  0.1085 -2.0123
  150MPD2    H3 2292   0.908   4.319  12.400 -2.3635  0.3810 -0.6464
  150MPD2     N 2293   1.232   4.526  12.164  0.2914 -0.1007 -0.2530
  150MPD2    H5 2294   1.266   4.541  12.069 -0.7320 -0.2214 -0.6379
  150MPD2    N1 2295   0.840   4.307  11.963  0.4160 -0.3782  0.3700
  150MPD2    H7 2296   0.754   4.258  11.987  0.4527  0.3020  1.8663
  151TCq2    C1 2297   1.307   4.576  12.271 -0.4816  0.6490 -1.0151
  151TCq2    O2 2298   1.275   4.576  12.392 -0.1964  0.2334  0.3549
  151TCq2    C2 2299   1.413   4.668  12.232  0.2837  0.3000 -0.3088
  151TCq2    C3 2300   1.419   0.024  12.117 -0.3325 -0.2503 -0.0634
  151TCq2    C4 2301   1.509   0.127  12.112  0.1917  0.4947 -0.1304
  151TCq2    C5 2302   1.592   0.149  12.215 -0.1328 -0.2736  1.4722
  151TCq2    C6 2303   1.590   0.060  12.325  0.1926  0.5478  0.0041
  151TCq2    C7 2304   1.498   4.686  12.339 -0.7569 -0.3168 -0.0319
  151TCq2    C8 2305   1.644   0.110  12.448 -0.8206 -0.4236 -0.2632
  151TCq2    O4 2306   1.646   0.232  12.462  0.1115 -0.3837 -0.7637
  151TCq2    C9 2307   1.527   0.204  11.993  0.4016 -0.1318 -0.6288
  151TCq2    O5 2308   1.579   0.315  12.013 -0.7663 -0.3690  0.1190
  151TCq2    O6 2309   1.503   0.154  11.881  0.2265  1.3425 -0.3297
  151TCq2    H2 2310   1.361   4.714  12.032  0.6809  1.5751 -1.4956
  151TCq2    H3 2311   1.659   0.234  12.220  0.1427 -0.2298 -3.3810
  151TCq2    H4 2312   1.497   4.623  12.427 -1.3449  2.0371  1.6469
  152MPD2     C 2313   1.005   4.014  12.826  0.0126  0.1352 -0.4144
  152MPD2    C1 2314   0.994   4.116  12.737 -0.1680 -0.1503  0.7263
  152MPD2    C2 2315   0.869   4.140  12.687 -0.4558  0.4008  0.2692
  152MPD2    C3 2316   0.753   4.078  12.728  0.1289  0.1134  0.1431
  152MPD2    C4 2317   0.769   3.979  12.815 -0.1523 -0.0323 -0.2081
  152MPD2    C5 2318   0.892   3.954  12.874  0.1077 -0.6094  0.4498
  152MPD2     H 2319   0.874   4.211  12.606 -1.3775  0.2723  0.1091
  152MPD2    H1 2320   0.695   3.920  12.866 -1.4042  0.3433 -1.5991
  152MPD2    H2 2321   1.102   3.991  12.868  0.6538 -0.5302 -2.2937
  152MPD2    H3 2322   0.909   3.888  12.958  0.5605 -0.9166  0.1220
  152MPD2     N 2323   0.630   4.103  12.662  0.2119  0.1733 -0.4280
  152MPD2    H5 2324   0.623   4.182  12.598  0.4171  0.0849 -0.5575
  152MPD2    N1 2325   1.109   4.187  12.696 -0.1597 -0.3444 -0.1290
  152MPD2    H7 2326   1.194   4.155  12.741  0.8020  4.0135  1.2312
  153TCq2    C1 2327   1.112   4.323  12.666  0.8215  0.4028 -0.5760
  153TCq2    O2 2328   1.021   4.394  12.631 -0.3584 -0.2351  0.1409
  153TCq2    C2 2329   1.251   4.370  12.665 -0.3198  1.1607  0.4354
  153TCq2    C3 2330   1.345   4.278  12.626 -0.1734  0.5445  0.1191
  153TCq2    C4 2331   1.474   4.321  12.619 -0.4717 -0.7497  0.1938
  153TCq2    C5 2332   1.508   4.450  12.651 -0.2854 -0.0216 -0.4795
  153TCq2    C6 2333   1.408   4.539  12.682  0.9991 -0.2042  0.0259
  153TCq2    C7 2334   1.281   4.499  12.690 -0.3613 -0.0479  0.0021
  153TCq2    C8 2335   1.437   4.662  12.753 -0.5365 -0.7931  0.4125
  153TCq2    O4 2336   1.347   0.023  12.769 -0.3021  0.2100  0.0668
  153TCq2    C9 2337   1.577   4.230  12.574  0.6822  0.3735 -0.0287
  153TCq2    O5 2338   1.545   4.115  12.528 -0.2248  0.4403  0.1130
  153TCq2    O6 2339   1.692   4.282  12.555  0.1066 -0.1152 -0.0728
  153TCq2    H2 2340   1.321   4.175  12.601  0.2645  0.6294 -0.6884
  153TCq2    H3 2341   1.610   4.484  12.641  0.2305 -0.8421  1.8754
  153TCq2    H4 2342   1.200   4.570  12.702 -0.7759 -0.4047 -0.6869
  154MPD2     C 2343   2.040   0.600   0.955  0.1629 -0.1920  0.5849
  154MPD2    C1 2344   2.047   0.483   1.031  0.1302  0.0596 -0.2500
  154MPD2    C2 2345   2.019   0.491   1.163  0.2559  0.6188  0.2819
  154MPD2    C3 2346   1.976   0.610   1.226 -0.1599  0.1140 -0.8471
  154MPD2    C4 2347   1.968   0.723   1.142  0.7563  0.9565  0.2699
  154MPD2    C5 2348   2.009   0.720   1.011  0.5084  0.2042 -1.0293
  154MPD2     H 2349   2.022   0.396   1.215  0.9414  0.3300 -0.2804
  154MPD2    H1 2350   1.932   0.818   1.180 -2.3048 -0.3497  0.5564
  154MPD2    H2 2351   2.045   0.602   0.847  0.0661  3.1365  0.6503
  154MPD2    H3 2352   1.994   0.810   0.953  0.0434 -1.1501 -3.0075
  154MPD2     N 2353   1.934   0.613   1.358  0.0958  0.4880  0.1625
  154MPD2    H5 2354   1.917   0.521   1.398 -3.1336  0.1111 -2.0420
  154MPD2    N1 2355   2.085   0.366   0.963 -0.0298  0.1142 -0.1966
  154MPD2    H7 2356   2.103   0.361   0.864  2.6139  0.4257  0.2630
  155TCq2    C1 2357   2.102   0.245   1.020 -0.2471  0.5021  0.4073
  155TCq2    O2 2358   2.099   0.204   1.133  0.0047 -0.1783  0.1778
  155TCq2    C2 2359   2.134   0.134   0.923  1.1293  0.1945 -0.0209
  155TCq2    C3 2360   2.135   0.157   0.786  0.8768 -0.0140  0.3212
  155TCq2    C4 2361   2.190   0.076   0.693 -0.3125  0.1446 -0.3818
  155TCq2    C5 2362   2.254   4.692   0.745 -0.0417 -0.5557 -0.7216
  155TCq2    C6 2363   2.271   4.675   0.880  0.4174 -0.5005  0.1730
  155TCq2    C7 2364   2.207   0.027   0.975 -0.0124  0.4400  0.2138
  155TCq2    C8 2365   2.333   4.551   0.926  0.3512  0.2588  0.4733
  155TCq2    O4 2366   2.363   4.470   0.839  0.5842  0.6053 -0.1531
  155TCq2    C9 2367   2.177   0.098   0.552  0.1194  0.0600  0.5106
  155TCq2    O5 2368   2.134   0.210   0.509 -0.3007 -0.3849 -0.5909
  155TCq2    O6 2369   2.185   4.715   0.488 -0.1503  0.1074  0.4882
  155TCq2    H2 2370   2.063   0.227   0.745 -0.3460 -1.3300  0.2162
  155TCq2    H3 2371   2.283   4.624   0.666  2.2915  1.7175 -1.8120
  155TCq2    H4 2372   2.215   0.009   1.081  1.1876  0.8133  0.1900
  156MPD2     C 2373   1.190   1.778  12.823  0.0529  0.2015 -0.1621
  156MPD2    C1 2374   1.223   1.885  12.737 -0.5292  0.2290 -0.0748
  156MPD2    C2 2375   1.192   2.013  12.781  0.5113 -0.0195  0.6524
  156MPD2    C3 2376   1.133   2.036  12.909  0.1010 -0.6766  1.8199
  156MPD2    C4 2377   1.118   1.929  12.998  0.4748 -0.2616  0.0480
  156MPD2    C5 2378   1.138   1.805  12.949  0.7631  0.3508 -0.0683
  156MPD2     H 2379   1.216   2.097  12.716 -1.2952 -0.5891 -0.7483
  156MPD2    H1 2380   1.096   1.949  13.102 -1.7213 -2.2451 -0.0545
  156MPD2    H2 2381   1.207   1.673  12.805  0.9306  0.5120 -1.1199
  156MPD2    H3 2382   1.129   1.724  13.021 -1.5715  0.9135  0.2800
  156MPD2     N 2383   1.109   2.167  12.945 -0.5324  0.3227  0.2195
  156MPD2    H5 2384   1.127   2.242  12.879  0.3456  0.0648  0.1553
  156MPD2    N1 2385   1.287   1.860  12.616 -0.2453 -0.1992 -0.1268
  156MPD2    H7 2386   1.299   1.763  12.589 -0.9424  0.4863 -2.8976
  157TCq2    C1 2387   1.336   1.954  12.526 -0.6729 -0.0580  0.3558
  157TCq2    O2 2388   1.306   2.073  12.522 -0.0615  0.0259  0.3698
  157TCq2    C2 2389   1.374   1.892  12.401  0.0522 -0.4285 -0.3645
  157TCq2    C3 2390   1.404   1.759  12.402 -0.3625  0.6396  0.5002
  157TCq2    C4 2391   1.439   1.708  12.283  0.6107 -0.4281  0.2800
  157TCq2    C5 2392   1.438   1.780  12.170  0.7190 -0.2231 -0.1858
  157TCq2    C6 2393   1.399   1.911  12.177  0.1312  0.1442  0.0145
  157TCq2    C7 2394   1.374   1.977  12.295  0.5588  0.3331  0.0664
  157TCq2    C8 2395   1.366   1.982  12.050 -0.5775  0.3708 -0.2844
  157TCq2    O4 2396   1.372   2.105  12.051 -0.5932  0.1560  0.1592
  157TCq2    C9 2397   1.463   1.568  12.279  0.0971  0.0902  0.0961
  157TCq2    O5 2398   1.454   1.502  12.390  0.5520 -0.3093 -0.6453
  157TCq2    O6 2399   1.487   1.521  12.164 -0.3117  0.6666  0.4394
  157TCq2    H2 2400   1.398   1.692  12.487  1.0415  0.4142  0.4276
  157TCq2    H3 2401   1.455   1.718  12.082 -0.1358 -2.4422  1.2029
  157TCq2    H4 2402   1.344   2.081  12.304 -0.9408 -0.0231 -0.7582
  158TMC2    C1 2403   0.866   0.189  13.605  0.4188 -0.1944 -0.2213
  158TMC2    C2 2404   0.845   0.326  13.597 -0.3678 -1.1042  0.8777
  158TMC2    C3 2405   0.723   0.367  13.562 -0.5490  0.1556  0.0729
  158TMC2    C4 2406   0.771   0.093  13.591 -0.9739 -0.8576  0.2038
  158TMC2    C5 2407   0.646   0.147  13.567  0.4156 -0.1269  0.4195
  158TMC2    C6 2408   0.618   0.275  13.556 -0.2704  0.3945 -0.0999
  158TMC2     C 2409   1.004   0.143  13.618 -0.1515 -0.3894 -0.0170
  158TMC2     O 2410   1.034   0.037  13.556 -0.1845  0.2033 -0.2678
  158TMC2     H 2411   0.923   0.399  13.615 -1.8686  0.7665 -0.1599
  158TMC2    H1 2412   0.798   4.712  13.583  0.0562 -0.5041 -0.8875
  158TMC2    H2 2413   0.519   0.319  13.554 -0.1026  0.7151 -1.1529
  158TMC2    C7 2414   0.544   0.062  13.619 -0.2759  0.3173 -0.1813
  158TMC2    C8 2415   0.699   0.512  13.580 -0.3778 -0.2860  0.1302
  158TMC2    O1 2416   0.435   0.057  13.562  0.2940 -0.5321 -0.5573
  158TMC2    O2 2417   0.590   0.545  13.626 -0.7060  0.1215  0.2383
  158TMC2    O5 2418   0.784   0.585  13.510  0.4321 -0.1009 -0.0977
  158TMC2    H5 2419   0.849   0.530  13.461  0.7759  1.9465 -1.9191
  159MPD2     C 2420   1.417   0.157  13.910 -0.3577 -0.0234 -0.2264
  159MPD2    C1 2421   1.330   0.255  13.958 -0.1417  0.8214 -0.7765
  159MPD2    C2 2422   1.216   0.290  13.887 -0.3498 -0.0623 -0.4644
  159MPD2    C3 2423   1.192   0.221  13.765  0.0659  0.4084  0.5452
  159MPD2    C4 2424   1.279   0.130  13.718 -1.1284  0.1395 -0.3405
  159MPD2    C5 2425   1.389   0.097  13.793 -0.3224 -0.1929 -0.2775
  159MPD2     H 2426   1.146   0.368  13.914  0.2430 -0.1962  1.4442
  159MPD2    H1 2427   1.256   0.078  13.626  0.6188 -1.5422  0.1928
  159MPD2    H2 2428   1.510   0.133  13.961 -0.1476  0.3792 -0.4143
  159MPD2    H3 2429   1.465   0.031  13.753 -0.4146 -1.3837  1.4775
  159MPD2     N 2430   1.063   0.231  13.706  0.5383  0.1444  0.2893
  159MPD2    H5 2431   1.002   0.293  13.760 -0.2091  0.3194 -0.7617
  159MPD2    N1 2432   1.359   0.299  14.094  0.5999 -0.0192 -0.1800
  159MPD2    H7 2433   1.443   0.266  14.138  0.6420  1.7067  1.0621
  160TMC2    C1 2434   1.521   3.954   0.977  0.3186 -0.2531  0.1219
  160TMC2    C2 2435   1.531   3.861   0.875  0.4575 -1.0037  0.7790
  160TMC2    C3 2436   1.654   3.841   0.824 -0.0322  0.4953 -0.2065
  160TMC2    C4 2437   1.633   4.009   1.035  0.2139  0.0904 -0.2589
  160TMC2    C5 2438   1.756   3.988   0.979  0.0557 -0.1713 -0.6470
  160TMC2    C6 2439   1.768   3.908   0.876  0.1570  0.1978 -0.3625
  160TMC2     C 2440   1.391   3.993   1.025  0.5318  0.6134 -0.6274
  160TMC2     O 2441   1.386   3.989   1.145  0.1590 -0.1405 -0.2041
  160TMC2     H 2442   1.441   3.808   0.846  2.3879 -3.9443  0.1842
  160TMC2    H1 2443   1.620   4.083   1.113  0.3365 -0.0662 -0.0903
  160TMC2    H2 2444   1.868   3.881   0.845 -0.3868  0.2115 -2.1599
  160TMC2    C7 2445   1.874   4.051   1.027 -0.6347 -0.3074 -0.6381
  160TMC2    C8 2446   1.661   3.735   0.728  0.7991 -0.4160 -0.0587
  160TMC2    O1 2447   1.974   3.984   1.039  0.0251 -0.2659 -0.3760
  160TMC2    O2 2448   1.561   3.700   0.662  0.2542  0.4494  0.1781
  160TMC2    O5 2449   1.768   3.662   0.773  0.2308 -0.1872  0.2024
  160TMC2    H5 2450   1.826   3.684   0.849 -1.2670 -1.1166  1.5998
  161MPD2     C 2451   1.098   4.059   1.066 -0.2889  0.5663  0.2424
  161MPD2    C1 2452   1.161   4.045   0.948 -0.3894  0.1779 -0.1950
  161MPD2    C2 2453   1.094   4.093   0.838  0.0694  0.0724 -0.0724
  161MPD2    C3 2454   0.968   4.154   0.849 -0.1375  0.1832 -0.2802
  161MPD2    C4 2455   0.901   4.154   0.973  0.0706  0.2581  0.0480
  161MPD2    C5 2456   0.972   4.103   1.080 -0.2215 -0.4991 -0.3289
  161MPD2     H 2457   1.146   4.099   0.744 -0.1334  1.7275 -0.0774
  161MPD2    H1 2458   0.809   4.207   0.991 -1.2305 -1.1997 -2.4078
  161MPD2    H2 2459   1.149   4.033   1.158  0.0877 -2.3192 -0.7944
  161MPD2    H3 2460   0.924   4.100   1.177  2.7154  0.4384  1.1598
  161MPD2     N 2461   0.909   4.207   0.732  0.6285  0.0706  0.0724
  161MPD2    H5 2462   0.810   4.229   0.728  0.4611 -0.4892  1.2023
  161MPD2    N1 2463   1.295   4.000   0.929 -0.8511  0.7328 -0.3045
  161MPD2    H7 2464   1.327   3.990   0.834 -1.2117 -1.4084 -0.1857
  162TMC2    C1 2465   3.308   1.182   0.776  0.1426 -0.6005  0.0583
  162TMC2    C2 2466   3.195   1.166   0.703 -0.1329  0.3359 -0.4009
  162TMC2    C3 2467   3.076   1.189   0.766  0.5843 -0.0373  1.5298
  162TMC2    C4 2468   3.312   1.217   0.908  0.5188  0.1688 -0.4525
  162TMC2    C5 2469   3.190   1.234   0.973 -0.9161  1.0654  0.1740
  162TMC2    C6 2470   3.078   1.233   0.893 -0.4015  0.2578  0.3222
  162TMC2     C 2471   3.432   1.132   0.719  0.1659 -0.7982  0.0937
  162TMC2     O 2472   3.422   1.057   0.624 -0.1038  0.4470  0.2290
  162TMC2     H 2473   3.196   1.140   0.597  0.6921  0.9744 -0.5458
  162TMC2    H1 2474   3.407   1.223   0.961  0.2397 -0.7627  0.1588
  162TMC2    H2 2475   2.979   1.235   0.937 -1.0537  0.3690 -1.1265
  162TMC2    C7 2476   3.178   1.278   1.109  0.3528  0.5982 -0.1432
  162TMC2    C8 2477   2.952   1.201   0.691  0.4802  0.5140 -0.0786
  162TMC2    O1 2478   3.077   1.337   1.146  0.1241  0.1303 -0.0493
  162TMC2    O2 2479   2.861   1.267   0.740 -0.2613  0.0667  0.6586
  162TMC2    O5 2480   2.938   1.091   0.619 -0.6667 -0.6526 -0.3754
  162TMC2    H5 2481   3.017   1.033   0.627  1.4478  2.0429 -1.6499
  163MPD2     C 2482   3.947   1.154   0.711 -0.2418  0.0398  0.1495
  163MPD2    C1 2483   3.858   1.048   0.716 -0.7030  1.1633 -0.0219
  163MPD2    C2 2484   3.718   1.066   0.713 -0.1078  0.5881  0.3017
  163MPD2    C3 2485   3.666   1.194   0.728 -0.9384  0.4313  0.7164
  163MPD2    C4 2486   3.759   1.297   0.755 -0.1295 -0.6104 -0.3807
  163MPD2    C5 2487   3.899   1.274   0.743 -0.2812  0.2614  0.2673
  163MPD2     H 2488   3.654   0.978   0.722 -1.5892  1.8528  2.1523
  163MPD2    H1 2489   3.729   1.398   0.780 -0.8718 -1.2837  1.4968
  163MPD2    H2 2490   4.054   1.140   0.709 -0.2358  0.5390 -2.0793
  163MPD2    H3 2491   3.970   1.355   0.752 -0.2939  0.4378 -1.1308
  163MPD2     N 2492   3.534   1.221   0.747 -0.4006  0.6687  0.0117
  163MPD2    H5 2493   3.507   1.314   0.780  0.4458  1.5094 -1.6733
  163MPD2    N1 2494   3.912   0.918   0.725 -0.0864  0.2232 -0.7432
  163MPD2    H7 2495   3.846   0.841   0.713  1.8048 -1.2112 -1.9673
  164TCq2    C1 2496   4.578   0.496  11.669 -0.2406  0.2751 -0.1158
  164TCq2    O2 2497   4.608   0.414  11.757 -0.5097  0.4664  0.0506
  164TCq2    C2 2498   4.510   0.613  11.710 -0.3717 -0.4458  0.0037
  164TCq2    C3 2499   4.530   0.735  11.640 -0.0276  1.1687 -0.2129
  164TCq2    C4 2500   4.453   0.846  11.685  0.1170  0.6431  0.5238
  164TCq2    C5 2501   4.363   0.838  11.791  0.2930 -0.5950 -0.4865
  164TCq2    C6 2502   4.342   0.717  11.848  0.3863  0.5470 -0.3832
  164TCq2    C7 2503   4.422   0.609  11.816 -0.1975 -0.1984  0.7497
  164TCq2    C8 2504   4.218   0.696  11.910  0.3488  0.0179  0.5446
  164TCq2    O4 2505   4.218   0.610  11.998  0.1427  0.3503  0.3459
  164TCq2    C9 2506   4.459   0.975  11.615 -0.7680  0.4584  0.0390
  164TCq2    O5 2507   4.402   1.080  11.663  0.1472 -0.1780  0.0118
  164TCq2    O6 2508   4.540   0.974  11.523  0.9086 -0.1896  0.2720
  164TCq2    H2 2509   4.611   0.748  11.569  0.3801  2.5495  0.5060
  164TCq2    H3 2510   4.302   0.923  11.819  2.2246  0.2894  0.9901
  164TCq2    H4 2511   4.410   0.517  11.871 -1.1520 -1.3249 -1.3410
  165MPD2     C 2512   0.573   1.660   1.782 -0.2406 -0.0778  0.7730
  165MPD2    C1 2513   0.645   1.777   1.819 -0.0288  0.0359  0.1111
  165MPD2    C2 2514   0.606   1.895   1.765 -0.1407 -1.8232  0.7223
  165MPD2    C3 2515   0.499   1.902   1.682  0.0299 -0.4437 -0.0212
  165MPD2    C4 2516   0.438   1.789   1.637  0.0533 -0.8669  0.0965
  165MPD2    C5 2517   0.472   1.670   1.689 -0.6497 -0.2537 -0.1047
  165MPD2     H 2518   0.666   1.982   1.791  0.3456 -1.9728  0.1104
  165MPD2    H1 2519   0.363   1.785   1.559 -0.0870 -1.2884  0.2587
  165MPD2    H2 2520   0.590   1.558   1.815  2.1954 -0.3635 -1.3810
  165MPD2    H3 2521   0.414   1.584   1.659  1.2334 -1.1719 -1.0845
  165MPD2     N 2522   0.447   2.023   1.641  0.0535 -0.1105 -0.2076
  165MPD2    H5 2523   0.373   2.022   1.572 -1.1974 -0.3921  1.1305
  165MPD2    N1 2524   0.752   1.749   1.903 -0.0910 -0.3318 -0.8155
  165MPD2    H7 2525   0.773   1.650   1.915 -1.2307 -0.3326  1.2586
  166TCq2    C1 2526   0.491   2.146   1.674 -0.5084 -0.5456 -0.1028
  166TCq2    O2 2527   0.568   2.194   1.758  0.4840 -0.2087  0.6273
  166TCq2    C2 2528   0.421   2.251   1.592  0.4041  0.3313  1.2214
  166TCq2    C3 2529   0.294   2.222   1.540 -0.1800 -0.0094 -0.5375
  166TCq2    C4 2530   0.230   2.333   1.484 -0.0763 -0.5063  0.2824
  166TCq2    C5 2531   0.300   2.451   1.452 -0.8651 -0.2095 -0.2331
  166TCq2    C6 2532   0.421   2.477   1.507  0.3088 -0.1616  0.0541
  166TCq2    C7 2533   0.481   2.374   1.581  0.0020 -0.1190 -0.1351
  166TCq2    C8 2534   0.507   2.583   1.460  0.0317  0.4746 -0.3617
  166TCq2    O4 2535   0.594   2.626   1.536  0.2459 -0.5023 -0.2625
  166TCq2    C9 2536   0.094   2.337   1.459  0.3860  0.0498 -0.2622
  166TCq2    O5 2537   0.026   2.262   1.533 -0.1860  0.2296  0.0193
  166TCq2    O6 2538   0.058   2.411   1.363 -0.5014 -0.6767  0.3212
  166TCq2    H2 2539   0.232   2.137   1.566  1.9198 -0.7188  2.1068
  166TCq2    H3 2540   0.255   2.524   1.386  0.1800  3.0511  2.6315
  166TCq2    H4 2541   0.581   2.396   1.615  0.0477  0.5313 -0.6749
  167TMC2    C1 2542   3.633   0.222  12.972 -0.2484  0.2863  0.0193
  167TMC2    C2 2543   3.584   0.343  13.007  0.0663  0.4176 -0.2700
  167TMC2    C3 2544   3.670   0.445  13.040  0.2266 -0.0330  0.5032
  167TMC2    C4 2545   3.770   0.190  12.990 -0.5073  0.7762  0.6488
  167TMC2    C5 2546   3.849   0.288  13.008  0.0279 -0.4639  0.1006
  167TMC2    C6 2547   3.805   0.417  13.047 -0.2901 -0.0266  0.1551
  167TMC2     C 2548   3.539   0.112  12.945 -0.0632 -0.2561 -0.2526
  167TMC2     O 2549   3.422   0.119  12.981 -0.2504  0.4694 -0.2042
  167TMC2     H 2550   3.477   0.356  13.005  0.2561  2.2417  1.4330
  167TMC2    H1 2551   3.809   0.089  12.989 -2.3179  0.1249 -2.9142
  167TMC2    H2 2552   3.875   0.496  13.073 -1.1253  1.0040 -0.7442
  167TMC2    C7 2553   3.988   0.264  13.024  0.1873 -0.0250  0.5409
  167TMC2    C8 2554   3.607   0.566  13.091  0.1002 -0.1828 -0.2774
  167TMC2    O1 2555   4.059   0.341  13.089  0.1984 -0.2367  0.0571
  167TMC2    O2 2556   3.491   0.590  13.074 -0.0463  0.1246 -0.6630
  167TMC2    O5 2557   3.698   0.659  13.127 -0.3214 -0.2161 -0.2596
  167TMC2    H5 2558   3.782   0.622  13.162 -1.0111  0.1292  1.7728
  168MPD2     C 2559   3.415   4.577  12.895 -0.3528  0.3906  0.3330
  168MPD2    C1 2560   3.541   4.618  12.836  0.6446 -0.4691  0.3302
  168MPD2    C2 2561   3.598   4.548  12.735  0.3445 -0.1143  0.5199
  168MPD2    C3 2562   3.535   4.432  12.690  0.3481 -0.1858  0.2450
  168MPD2    C4 2563   3.419   4.398  12.744 -0.7506 -0.5859 -0.1426
  168MPD2    C5 2564   3.354   4.470  12.842 -0.0532 -0.0465  0.3656
  168MPD2     H 2565   3.686   4.588  12.687 -0.6230 -0.6666 -1.7079
  168MPD2    H1 2566   3.371   4.302  12.731 -1.6670 -0.5128  2.6456
  168MPD2    H2 2567   3.363   4.633  12.972 -2.5367 -1.1174 -0.0589
  168MPD2    H3 2568   3.258   4.441  12.883 -0.4657 -0.6945 -1.0627
  168MPD2     N 2569   3.596   4.352  12.598 -0.2237  0.1323  0.0117
  168MPD2    H5 2570   3.586   4.251  12.609 -2.1268  0.2272 -0.8602
  168MPD2    N1 2571   3.600   0.017  12.867  0.1189 -0.3538  0.3669
  168MPD2    H7 2572   3.692   0.024  12.826 -0.0869  2.4038  0.4162
  169MPD1     C 2573   1.673   0.269   9.202 -0.2459  0.1651  0.1503
  169MPD1    C1 2574   1.766   0.245   9.296 -0.7078  0.0039 -0.3785
  169MPD1    C2 2575   1.816   0.114   9.315  0.0658  1.1277 -0.3700
  169MPD1    C3 2576   1.745   0.012   9.250 -0.2545 -0.1540 -0.4585
  169MPD1    C4 2577   1.641   0.037   9.163  0.6874 -0.1154 -0.2641
  169MPD1    C5 2578   1.610   0.172   9.135  0.1694  0.0678 -0.5958
  169MPD1     H 2579   1.896   0.094   9.384  1.4125 -3.0044 -3.1423
  169MPD1    H1 2580   1.583   4.683   9.114 -1.4770  0.0133  2.0659
  169MPD1    H2 2581   1.637   0.369   9.181 -0.1001  0.0655 -0.5667
  169MPD1    H3 2582   1.542   0.195   9.054  0.2785 -0.6589 -0.8960
  169MPD1     N 2583   1.805   4.606   9.268 -0.2690 -0.0845 -0.0221
  169MPD1    H5 2584   1.884   4.596   9.331 -0.3426 -0.6229 -0.0157
  169MPD1    N1 2585   1.829   0.355   9.365 -0.1936  0.3097 -0.2098
  169MPD1    H6 2586   1.774   0.441   9.368  2.5405  1.9878  1.9159
  169MPD1    H7 2587   1.833   0.329   9.463 -0.7536  1.7080  0.1955
  170MPD1     C 2588   4.673   2.392  12.868  0.4105  0.3181  0.2222
  170MPD1    C1 2589   4.601   2.513  12.876 -0.1432  0.1425  0.2427
  170MPD1    C2 2590   4.585   2.567  13.003  0.4248  0.3183 -0.8415
  170MPD1    C3 2591   4.644   2.511  13.113 -0.0754 -0.2649 -0.1475
  170MPD1    C4 2592   4.712   2.393  13.092 -0.5940  0.1712  0.5606
  170MPD1    C5 2593   0.010   2.338  12.972  0.4018  0.1443  0.1713
  170MPD1     H 2594   4.517   2.649  13.025 -0.1173 -0.3614  0.0216
  170MPD1    H1 2595   0.045   2.348  13.173  0.9617 -0.6514 -0.9938
  170MPD1    H2 2596   4.691   2.354  12.768 -0.9929  1.0468 -0.3098
  170MPD1    H3 2597   0.057   2.242  12.953 -0.2586 -0.0369 -0.5471
  170MPD1     N 2598   4.617   2.566  13.239 -0.6996  0.1333 -0.4966
  170MPD1    H5 2599   4.541   2.632  13.250  0.4643  1.3229  0.4369
  170MPD1    N1 2600   4.539   2.557  12.758  0.2222  0.1325 -0.4978
  170MPD1    H6 2601   4.593   2.532  12.675  1.0743 -1.1504  0.4453
  170MPD1    H7 2602   4.539   2.659  12.761 -2.0461  0.0774  0.9969
  171MPD1     C 2603   3.605   3.636  15.683 -0.1172  0.1044 -0.5089
  171MPD1    C1 2604   3.530   3.554  15.607  0.1948 -0.2403  0.1507
  171MPD1    C2 2605   3.515   3.429  15.658 -0.3514  0.1778 -0.5300
  171MPD1    C3 2606   3.582   3.379  15.770 -0.8045 -0.2254  0.2358
  171MPD1    C4 2607   3.639   3.473  15.858  0.8306  0.2242  0.4312
  171MPD1    C5 2608   3.648   3.607  15.812  0.2745  0.0953  0.1038
  171MPD1     H 2609   3.435   3.368  15.618  0.4895 -1.7553  0.7769
  171MPD1    H1 2610   3.679   3.449  15.956  0.8523 -1.2256  0.0629
  171MPD1    H2 2611   3.627   3.737  15.650 -0.0463  0.3319  0.2430
  171MPD1    H3 2612   3.703   3.684  15.865  0.7760  1.6549 -2.7076
  171MPD1     N 2613   3.569   3.244  15.806 -0.0680 -0.0653 -0.2386
  171MPD1    H5 2614   3.593   3.222  15.903 -0.6405  0.2294 -0.0301
  171MPD1    N1 2615   3.448   3.602  15.505 -0.5997  0.5768  0.9503
  171MPD1    H6 2616   3.412   3.522  15.452  1.7791  1.4354 -1.9516
  171MPD1    H7 2617   3.491   3.670  15.443  1.7713 -0.6903  1.2111
  172MPD1     C 2618   2.509   2.038   0.997 -0.4439  0.0885 -0.6424
  172MPD1    C1 2619   2.396   2.113   1.010 -0.5341 -0.1679 -0.7565
  172MPD1    C2 2620   2.416   2.254   1.008 -1.1967 -0.0280 -0.1088
  172MPD1    C3 2621   2.540   2.318   0.989  0.9713 -0.1917  0.1681
  172MPD1    C4 2622   2.653   2.233   0.990  0.6229  0.1623 -0.9912
  172MPD1    C5 2623   2.635   2.096   0.992  0.7710 -0.2686  0.0837
  172MPD1     H 2624   2.329   2.319   1.006 -1.6709 -0.6769 -0.7380
  172MPD1    H1 2625   2.758   2.259   0.983  0.8322  0.1462  2.4669
  172MPD1    H2 2626   2.505   1.930   1.009  0.7986 -0.0177 -1.0792
  172MPD1    H3 2627   2.723   2.034   0.997  1.3428  0.5550  0.4293
  172MPD1     N 2628   2.555   2.461   0.959 -0.1417  0.0112 -0.1682
  172MPD1    H5 2629   2.647   2.492   0.929 -0.2440 -0.5613 -1.0702
  172MPD1    N1 2630   2.264   2.060   0.993  1.1341 -0.0082 -0.2160
  172MPD1    H6 2631   2.252   1.964   1.024  0.0542  0.5434  1.0778
  172MPD1    H7 2632   2.191   2.114   1.040  1.4837  0.6348 -0.4133
  173MPD1     C 2633   3.251   1.976  13.983  0.0771 -0.2377 -0.0814
  173MPD1    C1 2634   3.351   2.068  13.972  0.0851  0.1542 -0.3408
  173MPD1    C2 2635   3.352   2.167  14.073 -0.1764  0.6198  0.8360
  173MPD1    C3 2636   3.271   2.162  14.178 -0.4862 -0.4461  1.0492
  173MPD1    C4 2637   3.181   2.059  14.198 -0.9136 -0.0527  0.3582
  173MPD1    C5 2638   3.166   1.973  14.093  0.1836 -1.0671 -0.2911
  173MPD1     H 2639   3.421   2.250  14.069 -1.9448  2.2937  5.2147
  173MPD1    H1 2640   3.105   2.055  14.275 -0.5720 -1.7441  0.5938
  173MPD1    H2 2641   3.240   1.892  13.916  1.6520 -1.3482  1.0387
  173MPD1    H3 2642   3.088   1.897  14.098 -1.9042  0.9913 -1.2669
  173MPD1     N 2643   3.283   2.258  14.276 -0.1048 -0.3858 -0.5381
  173MPD1    H5 2644   3.334   2.343  14.251 -0.1035 -0.9171 -2.3737
  173MPD1    N1 2645   3.434   2.075  13.857 -0.2196  0.2992 -0.3979
  173MPD1    H6 2646   3.528   2.111  13.874  0.2420 -0.7799 -0.6397
  173MPD1    H7 2647   3.453   1.977  13.837 -0.9070  0.0441  0.2324
  174MPD1     C 2648   3.265   3.090  14.098  0.6444 -0.4707  0.1283
  174MPD1    C1 2649   3.355   3.091  14.198 -0.4680  0.5575  0.0754
  174MPD1    C2 2650   3.368   2.981  14.281 -0.3322  0.4492 -0.2709
  174MPD1    C3 2651   3.290   2.870  14.261  1.1527  0.2905  0.1180
  174MPD1    C4 2652   3.191   2.872  14.163 -0.0421 -0.0789 -1.0207
  174MPD1    C5 2653   3.182   2.980  14.084  0.5740 -0.5829 -0.0059
  174MPD1     H 2654   3.435   2.996  14.364  0.9018 -0.1284 -1.1579
  174MPD1    H1 2655   3.117   2.794  14.144 -0.1182 -0.3506  0.3701
  174MPD1    H2 2656   3.259   3.167  14.021 -0.0071  0.2702  0.9216
  174MPD1    H3 2657   3.107   2.981  14.006 -0.5493 -1.5561  1.0531
  174MPD1     N 2658   3.294   2.753  14.340  0.2439 -0.2403 -0.3794
  174MPD1    H5 2659   3.223   2.683  14.318 -0.7834  1.1069 -1.3837
  174MPD1    N1 2660   3.455   3.190  14.193  0.4142  0.0852  0.1608
  174MPD1    H6 2661   3.419   3.283  14.172 -1.5175 -1.0002 -1.3022
  174MPD1    H7 2662   3.504   3.212  14.279  0.0762  0.4125  0.2703
  175MPD1     C 2663   1.835   3.153  15.789 -0.2165 -0.2392  0.3576
  175MPD1    C1 2664   1.964   3.169  15.825  0.0575 -0.0010 -0.0055
  175MPD1    C2 2665   1.981   3.169  15.960  0.5796  0.5983 -0.4180
  175MPD1    C3 2666   1.881   3.189  16.057  0.1137  0.4051  0.4124
  175MPD1    C4 2667   1.755   3.178  16.010  0.1642 -0.4100 -0.1569
  175MPD1    C5 2668   1.731   3.158  15.877  0.4236  0.6909  0.3150
  175MPD1     H 2669   2.083   3.166  15.998  0.7264 -3.4589 -1.1959
  175MPD1    H1 2670   1.669   3.186  16.076 -0.2061 -0.8173 -0.5886
  175MPD1    H2 2671   1.802   3.140  15.687  1.3213  0.2162 -0.1969
  175MPD1    H3 2672   1.627   3.152  15.845  0.4215  1.6335  0.1370
  175MPD1     N 2673   1.894   3.214  16.194 -0.1051  0.1970  0.1580
  175MPD1    H5 2674   1.809   3.221  16.249  0.5790 -2.0433  1.4997
  175MPD1    N1 2675   2.072   3.152  15.741 -0.1214 -0.0211 -0.3619
  175MPD1    H6 2676   2.080   3.053  15.720  2.3222 -0.0707  0.8491
  175MPD1    H7 2677   2.053   3.180  15.644  2.7075  0.1860 -0.8551
  176MPD1     C 2678   2.918   0.836   0.252  0.5161  0.5209 -0.1840
  176MPD1    C1 2679   3.040   0.781   0.206  0.3772 -1.2741 -0.6690
  176MPD1    C2 2680   3.156   0.858   0.208  0.6046  0.1553 -0.0161
  176MPD1    C3 2681   3.148   0.991   0.260  0.9800  0.0249 -0.4025
  176MPD1    C4 2682   3.028   1.039   0.303 -0.2397 -0.2847 -0.2323
  176MPD1    C5 2683   2.915   0.962   0.293  0.1702  0.0689  0.0557
  176MPD1     H 2684   3.254   0.831   0.168  1.7100  2.7925  0.8764
  176MPD1    H1 2685   3.014   1.137   0.347  0.7019 -0.2023 -0.1188
  176MPD1    H2 2686   2.822   0.786   0.253  1.2997 -0.9665  0.2701
  176MPD1    H3 2687   2.819   1.003   0.323 -0.3478 -2.6305  2.0236
  176MPD1     N 2688   3.272   1.062   0.270  0.7258  0.5920  0.7795
  176MPD1    H5 2689   3.355   1.021   0.229  0.0537  0.5791 -0.5693
  176MPD1    N1 2690   3.028   0.651   0.151 -0.1908  0.4554  0.2010
  176MPD1    H6 2691   2.943   0.599   0.174 -0.4569  1.0259  0.4936
  176MPD1    H7 2692   3.099   0.589   0.188  0.4448  1.2861  0.3627
  177MPD1     C 2693   1.505   1.297  10.115 -0.0025  0.8588  0.3843
  177MPD1    C1 2694   1.394   1.378  10.082  0.3379 -0.3432 -0.0730
  177MPD1    C2 2695   1.326   1.359   9.954 -0.6686 -0.2893 -0.1787
  177MPD1    C3 2696   1.363   1.253   9.870 -0.3549  0.4615 -0.2086
  177MPD1    C4 2697   1.456   1.164   9.918  0.1600  0.3287 -0.3432
  177MPD1    C5 2698   1.531   1.193  10.031  0.2564 -0.1127  0.2477
  177MPD1     H 2699   1.245   1.427   9.929 -1.1448 -1.0507 -0.6838
  177MPD1    H1 2700   1.488   1.081   9.857 -0.3299 -0.3974  0.3855
  177MPD1    H2 2701   1.582   1.313  10.190 -1.1610  0.5398  1.6373
  177MPD1    H3 2702   1.612   1.124  10.051  0.9027 -0.0157 -2.0077
  177MPD1     N 2703   1.302   1.247   9.741  0.3705 -0.7933 -0.0124
  177MPD1    H5 2704   1.229   1.311   9.713  3.5079  3.1667  0.9764
  177MPD1    N1 2705   1.376   1.494  10.157  0.2313  0.0201 -0.4498
  177MPD1    H6 2706   1.393   1.486  10.257  0.1273 -0.3247 -0.4619
  177MPD1    H7 2707   1.277   1.513  10.168  0.1655 -0.1935 -0.6935
  178MPD1     C 2708   3.849   1.007   0.310 -0.3631 -0.2328  0.4979
  178MPD1    C1 2709   3.948   1.105   0.306  0.4006  0.5713 -0.5257
  178MPD1    C2 2710   4.024   1.106   0.195 -0.5542  0.2344  0.0696
  178MPD1    C3 2711   4.013   1.009   0.092 -0.7438 -0.0431  0.8319
  178MPD1    C4 2712   3.914   0.916   0.103 -0.0783  0.0837  0.2344
  178MPD1    C5 2713   3.831   0.914   0.214  0.7881 -0.4863  0.3537
  178MPD1     H 2714   4.094   1.186   0.174 -0.6891  1.0651  2.8220
  178MPD1    H1 2715   3.903   0.833   0.034  1.7193 -0.1749  0.2517
  178MPD1    H2 2716   3.787   1.003   0.398 -0.7883  0.7496  0.2441
  178MPD1    H3 2717   3.746   0.849   0.224  0.4792 -0.0748  0.4124
  178MPD1     N 2718   4.099   1.006  17.675 -0.0644 -0.7934 -0.5768
  178MPD1    H5 2719   4.081   0.926  17.615  0.3028 -0.7162 -0.7863
  178MPD1    N1 2720   3.939   1.210   0.394 -0.3894 -0.2910  0.5972
  178MPD1    H6 2721   3.904   1.185   0.487  1.1634 -1.4430  0.8666
  178MPD1    H7 2722   4.022   1.267   0.406  1.1806 -2.0038 -2.3837
  179MPD1     C 2723   3.864   0.125  16.142  0.9412 -0.3625 -0.7436
  179MPD1    C1 2724   3.929   0.054  16.239 -0.1810 -0.4604 -0.4346
  179MPD1    C2 2725   3.940   4.641  16.233  0.1729  0.4599  0.0547
  179MPD1    C3 2726   3.902   4.574  16.117  0.6980 -0.0969 -0.2425
  179MPD1    C4 2727   3.834   4.647  16.018 -0.6060  0.2028  0.2865
  179MPD1    C5 2728   3.822   0.059  16.031  0.4441 -0.1580 -0.5708
  179MPD1     H 2729   4.002   4.596  16.311  0.2415  1.9931  0.8790
  179MPD1    H1 2730   3.781   4.605  15.933 -0.9327  4.1641 -1.4488
  179MPD1    H2 2731   3.837   0.227  16.167  0.5522 -0.8144  0.6904
  179MPD1    H3 2732   3.764   0.116  15.959 -0.2751 -0.5891 -0.3271
  179MPD1     N 2733   3.928   4.437  16.095  0.2585 -0.0544 -0.2613
  179MPD1    H5 2734   3.888   4.400  16.010 -1.4400  1.8473 -0.3008
  179MPD1    N1 2735   3.957   0.118  16.363  0.0780 -0.0341  0.2990
  179MPD1    H6 2736   4.041   0.080  16.406  1.9384  3.9162  0.2015
  179MPD1    H7 2737   3.981   0.216  16.346 -0.9419  0.6484  2.8312
  180MPD1     C 2738   3.701   1.134  15.438 -0.9754 -0.1925 -0.5311
  180MPD1    C1 2739   3.617   1.162  15.326  0.0059 -0.0977 -0.1464
  180MPD1    C2 2740   3.664   1.150  15.192 -0.0261 -0.2727  0.2398
  180MPD1    C3 2741   3.804   1.125  15.167  0.2439  0.8161  0.2590
  180MPD1    C4 2742   3.884   1.111  15.281 -0.5000 -0.0526  0.2126
  180MPD1    C5 2743   3.833   1.115  15.409 -0.9392 -0.1135  0.8865
  180MPD1     H 2744   3.588   1.164  15.116  0.0047 -0.0643  0.2464
  180MPD1    H1 2745   3.992   1.098  15.274 -0.6744 -1.2004 -0.2434
  180MPD1    H2 2746   3.662   1.133  15.539 -0.1281  3.0014 -0.1788
  180MPD1    H3 2747   3.893   1.110  15.499 -0.6363  0.4263  0.7088
  180MPD1     N 2748   3.855   1.121  15.037  0.1954  0.4369  0.1529
  180MPD1    H5 2749   3.794   1.143  14.959 -1.1072 -2.1339  0.4819
  180MPD1    N1 2750   3.480   1.180  15.351  0.8164 -0.3064  0.4772
  180MPD1    H6 2751   3.434   1.244  15.286  1.1651 -1.7080 -1.1557
  180MPD1    H7 2752   3.478   1.215  15.446  2.5181 -0.6679  0.6353
  181MPD1     C 2753   1.049   2.751  10.484  0.1132 -0.0198  0.1229
  181MPD1    C1 2754   1.095   2.875  10.511 -0.8433 -0.2192 -0.4025
  181MPD1    C2 2755   1.233   2.903  10.486  1.1114  0.6592  0.6814
  181MPD1    C3 2756   1.311   2.795  10.439 -0.4816 -0.5465  0.4291
  181MPD1    C4 2757   1.259   2.675  10.414 -1.1947 -0.6711 -0.4682
  181MPD1    C5 2758   1.128   2.652  10.440  0.1172 -0.1618 -0.0222
  181MPD1     H 2759   1.270   3.005  10.483  0.4572  0.9307  2.0765
  181MPD1    H1 2760   1.315   2.590  10.376 -0.3607 -0.5892  0.5929
  181MPD1    H2 2761   0.946   2.719  10.480  0.0628  0.3426 -1.5165
  181MPD1    H3 2762   1.083   2.559  10.408 -1.8389  1.3574 -1.6512
  181MPD1     N 2763   1.451   2.812  10.416 -0.5200  0.1451 -0.2291
  181MPD1    H5 2764   1.502   2.732  10.381  0.1778 -0.2465  1.6720
  181MPD1    N1 2765   1.012   2.979  10.559  0.2170  0.2201 -0.4523
  181MPD1    H6 2766   1.035   3.075  10.536 -0.2043  0.9651  2.1598
  181MPD1    H7 2767   0.915   2.962  10.533 -0.1046  1.6613 -0.2027
  182MPD1     C 2768   1.872   1.561   1.602 -0.0741 -0.1310 -0.2842
  182MPD1    C1 2769   1.882   1.456   1.501 -0.2369  0.1316  0.4757
  182MPD1    C2 2770   1.772   1.448   1.412 -0.5280 -0.1036  0.3598
  182MPD1    C3 2771   1.657   1.532   1.416  0.6699  0.4368  0.0397
  182MPD1    C4 2772   1.656   1.627   1.516 -0.6624 -0.2726 -0.4754
  182MPD1    C5 2773   1.760   1.638   1.607 -0.5493  0.3993  0.4525
  182MPD1     H 2774   1.780   1.372   1.336  1.1038  1.4590 -1.0210
  182MPD1    H1 2775   1.571   1.693   1.525  0.0595  0.6116 -0.1534
  182MPD1    H2 2776   1.952   1.577   1.673 -2.1818  0.7365  1.8624
  182MPD1    H3 2777   1.754   1.718   1.680  0.9366  0.9011  0.0166
  182MPD1     N 2778   1.544   1.515   1.331 -0.3257 -0.1680 -0.1565
  182MPD1    H5 2779   1.472   1.586   1.342 -1.1109 -0.8788 -0.7852
  182MPD1    N1 2780   2.000   1.381   1.484  0.4404 -0.5935 -0.1410
  182MPD1    H6 2781   2.055   1.362   1.568  0.4370 -0.4586 -0.1083
  182MPD1    H7 2782   1.977   1.290   1.446 -1.8367 -0.9437  2.0603
  183MPD1     C 2783   3.295   3.503   8.750 -0.0189 -0.0460 -0.5105
  183MPD1    C1 2784   3.364   3.421   8.838  0.6413 -0.1206 -0.2428
  183MPD1    C2 2785   3.314   3.396   8.962 -0.0024 -0.0412  0.0790
  183MPD1    C3 2786   3.180   3.419   8.983  0.7151 -0.4023  0.2980
  183MPD1    C4 2787   3.100   3.483   8.887 -0.6434 -0.5269  0.4527
  183MPD1    C5 2788   3.165   3.533   8.773 -0.1660 -0.5896 -0.3553
  183MPD1     H 2789   3.377   3.363   9.044 -0.7246  2.1407  1.4940
  183MPD1    H1 2790   2.992   3.497   8.891 -0.8039 -2.0426  1.1325
  183MPD1    H2 2791   3.335   3.541   8.656  2.0635  0.4263  0.5811
  183MPD1    H3 2792   3.111   3.590   8.698 -0.6608 -1.8180 -0.9457
  183MPD1     N 2793   3.128   3.370   9.104  0.2140 -0.9321 -0.4505
  183MPD1    H5 2794   3.188   3.305   9.154 -0.8866  0.2282  2.3682
  183MPD1    N1 2795   3.501   3.407   8.813  0.7301 -0.1815  0.2040
  183MPD1    H6 2796   3.550   3.341   8.872  1.5514 -1.0350 -1.4330
  183MPD1    H7 2797   3.512   3.387   8.714  0.3890 -1.4149  0.4134
  184MPD1     C 2798   0.674   0.975  10.840  0.3615  0.1255  0.4827
  184MPD1    C1 2799   0.761   0.868  10.841 -0.1401 -0.7816 -0.3046
  184MPD1    C2 2800   0.838   0.835  10.728  0.6507 -0.0444 -0.5484
  184MPD1    C3 2801   0.798   0.889  10.604  0.2278 -0.6741  0.7292
  184MPD1    C4 2802   0.689   0.977  10.599 -0.0034  0.0281  0.3705
  184MPD1    C5 2803   0.634   1.027  10.717  0.0416 -0.3395  0.2034
  184MPD1     H 2804   0.926   0.772  10.735 -0.6459 -1.7672  0.1324
  184MPD1    H1 2805   0.662   1.020  10.503  0.9670 -2.1523 -0.8901
  184MPD1    H2 2806   0.642   1.008  10.938 -0.7857  3.3182 -0.9738
  184MPD1    H3 2807   0.551   1.096  10.711  0.8745  0.8690  2.7028
  184MPD1     N 2808   0.860   0.855  10.485 -0.5962  0.4169 -0.2520
  184MPD1    H5 2809   0.816   0.896  10.404  0.6502  0.6706 -0.7992
  184MPD1    N1 2810   0.815   0.820  10.960 -0.1806 -0.2305  0.0600
  184MPD1    H6 2811   0.737   0.827  11.025  0.7878  0.1140  1.1726
  184MPD1    H7 2812   0.886   0.885  10.993  0.3972 -0.4237 -0.8003
  185MPD1     C 2813   0.901   0.512   9.521  0.2548 -0.5734  0.3661
  185MPD1    C1 2814   0.852   0.444   9.628  0.6117  0.0118  0.4354
  185MPD1    C2 2815   0.867   0.500   9.752 -0.0249 -0.2097 -0.3039
  185MPD1    C3 2816   0.909   0.629   9.766  0.4852 -0.0840  0.4060
  185MPD1    C4 2817   0.945   0.704   9.659  0.3541 -0.0323 -0.0296
  185MPD1    C5 2818   0.939   0.644   9.536  1.4779 -0.3275 -0.0527
  185MPD1     H 2819   0.831   0.442   9.836  2.6289  0.5513  1.3539
  185MPD1    H1 2820   0.975   0.808   9.672  0.6432 -0.3844  2.1242
  185MPD1    H2 2821   0.910   0.462   9.425  1.4635  1.2689 -0.4711
  185MPD1    H3 2822   0.967   0.703   9.448  1.3673 -1.2864 -0.7276
  185MPD1     N 2823   0.939   0.695   9.894  0.2976 -0.0531 -0.0611
  185MPD1    H5 2824   0.983   0.785   9.905 -0.3509  0.1646  0.7603
  185MPD1    N1 2825   0.842   0.301   9.610  0.4385  0.3257  0.6580
  185MPD1    H6 2826   0.788   0.257   9.683 -0.5649  1.7361  0.7635
  185MPD1    H7 2827   0.785   0.280   9.528  1.0186  3.2284 -0.4855
  186MPD1     C 2828   0.141   3.649  16.421  0.2381 -0.8718  0.0148
  186MPD1    C1 2829   0.103   3.737  16.325 -0.2323 -0.4344 -0.4004
  186MPD1    C2 2830   0.074   3.866  16.367 -0.6795 -0.2301 -0.2451
  186MPD1    C3 2831   0.104   3.914  16.499 -0.6354  0.2691 -0.7763
  186MPD1    C4 2832   0.158   3.821  16.587  0.7777  0.8656 -0.7809
  186MPD1    C5 2833   0.176   3.695  16.544 -0.0455 -0.3790 -0.6925
  186MPD1     H 2834   0.019   3.926  16.296  0.1694  2.6943  1.5731
  186MPD1    H1 2835   0.168   3.836  16.694 -2.2271  1.5615 -0.5979
  186MPD1    H2 2836   0.146   3.541  16.413 -0.4689 -1.0303  1.8570
  186MPD1    H3 2837   0.208   3.621  16.615  2.7640 -0.0373 -1.6221
  186MPD1     N 2838   0.072   4.047  16.539  0.2458  0.3606 -0.4166
  186MPD1    H5 2839   0.081   4.065  16.639 -0.6028 -0.1722 -0.2453
  186MPD1    N1 2840   0.057   3.694  16.200 -0.1126 -0.2216 -0.4706
  186MPD1    H6 2841   0.101   3.606  16.178  0.4695 -0.4400  1.5198
  186MPD1    H7 2842   0.090   3.754  16.125  0.0098 -0.1580 -0.3673
  187MPD1     C 2843   4.143   1.603   0.345  0.3811 -0.4000 -0.1342
  187MPD1    C1 2844   4.005   1.606   0.379 -0.7018  0.0291  0.2733
  187MPD1    C2 2845   3.927   1.683   0.297  0.0931 -0.2335  0.2085
  187MPD1    C3 2846   3.969   1.735   0.171 -0.0063 -0.0265  0.1423
  187MPD1    C4 2847   4.102   1.721   0.140  0.2168 -0.0701  0.0214
  187MPD1    C5 2848   4.190   1.656   0.228  0.6462 -0.5070  0.5960
  187MPD1     H 2849   3.823   1.699   0.324  0.7193  2.4897  0.9671
  187MPD1    H1 2850   4.145   1.749   0.044 -1.7676 -0.9463 -1.1252
  187MPD1    H2 2851   4.225   1.565   0.404 -0.1866  1.2182  1.6820
  187MPD1    H3 2852   4.291   1.641   0.192  0.5172 -0.2297  0.1104
  187MPD1     N 2853   3.883   1.788   0.076 -0.3374  0.2734 -0.8134
  187MPD1    H5 2854   3.927   1.838  17.697  2.7060 -0.2888  0.5449
  187MPD1    N1 2855   3.975   1.573   0.515  0.0881  0.2957  0.0570
  187MPD1    H6 2856   4.029   1.490   0.540  0.0056  0.0381 -0.6279
  187MPD1    H7 2857   3.875   1.555   0.518  0.1558  0.1220  1.6607
  188MPD1     C 2858   4.525   1.714   9.188 -0.2525 -0.2942  0.5283
  188MPD1    C1 2859   4.387   1.699   9.157  0.8928 -0.1781  0.2800
  188MPD1    C2 2860   4.311   1.631   9.246  0.5879 -0.0688  0.3002
  188MPD1    C3 2861   4.361   1.558   9.351  0.2816 -0.2805 -0.3461
  188MPD1    C4 2862   4.498   1.561   9.375  0.7404 -0.0130 -0.3883
  188MPD1    C5 2863   4.578   1.634   9.291 -0.0044 -0.4589  0.1077
  188MPD1     H 2864   4.205   1.623   9.228  0.6497  2.1512 -1.0113
  188MPD1    H1 2865   4.547   1.502   9.452 -0.9730  0.1762  0.8706
  188MPD1    H2 2866   4.596   1.764   9.124 -0.9506  0.8408  0.6396
  188MPD1    H3 2867   4.686   1.621   9.290 -0.2092 -2.1649  0.0043
  188MPD1     N 2868   4.286   1.465   9.429 -0.5089 -0.4743 -0.0517
  188MPD1    H5 2869   4.344   1.399   9.479  0.4449  0.1020 -0.3907
  188MPD1    N1 2870   4.328   1.768   9.052 -0.5389  0.0774 -0.3755
  188MPD1    H6 2871   4.242   1.723   9.023 -0.9398  0.7797 -0.2810
  188MPD1    H7 2872   4.388   1.809   8.980 -2.1072  3.2666  0.1217
  189MPD1     C 2873   1.066   1.590   0.406  0.3233 -0.3539 -0.0847
  189MPD1    C1 2874   0.976   1.699   0.395 -0.3380 -0.1084 -0.0235
  189MPD1    C2 2875   0.865   1.693   0.483  0.0975 -0.2406 -0.0562
  189MPD1    C3 2876   0.836   1.576   0.558 -0.0600  0.1816 -0.3197
  189MPD1    C4 2877   0.921   1.473   0.561  0.3644  0.1086 -0.4455
  189MPD1    C5 2878   1.040   1.486   0.490 -0.1149  0.3918 -0.0797
  189MPD1     H 2879   0.793   1.774   0.478 -1.5803 -1.8613 -2.4678
  189MPD1    H1 2880   0.903   1.380   0.614  1.3054  0.2254  0.0822
  189MPD1    H2 2881   1.159   1.598   0.352  0.7849  0.3135  0.8160
  189MPD1    H3 2882   1.108   1.403   0.505 -0.8633 -0.1531  0.2678
  189MPD1     N 2883   0.706   1.571   0.622 -0.1237 -0.0530  0.8875
  189MPD1    H5 2884   0.648   1.654   0.620  0.0316  0.0242 -0.1325
  189MPD1    N1 2885   1.026   1.815   0.343 -0.3941  0.4240 -0.2307
  189MPD1    H6 2886   0.952   1.878   0.312  0.0686  1.0142 -0.1456
  189MPD1    H7 2887   1.086   1.794   0.264  0.3119 -3.4826  1.3344
  190MPD1     C 2888   3.598   1.314  15.849 -1.0762 -0.8570 -0.0471
  190MPD1    C1 2889   3.612   1.249  15.967  0.9141  0.0315  1.0443
  190MPD1    C2 2890   3.711   1.156  15.992 -0.3019  0.1110  0.3997
  190MPD1    C3 2891   3.802   1.125  15.886 -0.4127  0.0895 -0.4856
  190MPD1    C4 2892   3.795   1.198  15.768  0.8391  0.5613 -0.7257
  190MPD1    C5 2893   3.693   1.294  15.751  0.1277  0.3254 -0.1455
  190MPD1     H 2894   3.733   1.111  16.088  2.2874  0.7948  0.1152
  190MPD1    H1 2895   3.862   1.186  15.684 -0.1017  2.6508 -1.7949
  190MPD1    H2 2896   3.524   1.391  15.825  1.5615  2.3181  2.0294
  190MPD1    H3 2897   3.683   1.345  15.656  0.6956  2.3520  0.8858
  190MPD1     N 2898   3.896   1.024  15.916  0.1340 -0.0649 -0.9040
  190MPD1    H5 2899   3.895   0.979  16.007 -1.0978  1.9912  0.1103
  190MPD1    N1 2900   3.531   1.290  16.074 -0.6807  0.0503  0.0733
  190MPD1    H6 2901   3.531   1.226  16.153  2.1750 -2.7867 -2.2472
  190MPD1    H7 2902   3.434   1.301  16.045 -0.4406  0.8808 -0.4288
  191MPD1     C 2903   4.477   2.045  12.854  0.2310  0.4037  0.2776
  191MPD1    C1 2904   4.428   2.154  12.914  0.3203  0.6102 -0.4972
  191MPD1    C2 2905   4.335   2.232  12.850 -0.1642  0.1156 -0.8880
  191MPD1    C3 2906   4.300   2.201  12.722  0.8006  0.6254  0.0411
  191MPD1    C4 2907   4.351   2.087  12.660 -0.5501 -0.2364  0.7873
  191MPD1    C5 2908   4.436   2.011  12.732  0.3279  0.4904 -0.1905
  191MPD1     H 2909   4.289   2.318  12.896  0.1458  1.1521 -2.5159
  191MPD1    H1 2910   4.322   2.053  12.562  2.9892  0.5378 -0.5313
  191MPD1    H2 2911   4.540   1.982  12.915  2.4072  2.6681  0.3537
  191MPD1    H3 2912   4.480   1.923  12.685  0.0206  0.3720 -0.2603
  191MPD1     N 2913   4.202   2.280  12.673  0.5484 -0.3002  0.1963
  191MPD1    H5 2914   4.172   2.360  12.728 -1.7029 -1.0282  0.0020
  191MPD1    N1 2915   4.474   2.186  13.045 -0.2963  0.2822 -0.2320
  191MPD1    H6 2916   4.560   2.133  13.064  0.5721  1.5433 -0.6618
  191MPD1    H7 2917   4.510   2.281  13.046 -0.2784  0.2409  1.8471
  192MPD1     C 2918   3.580   2.634  13.116 -0.7398 -0.3203 -0.0983
  192MPD1    C1 2919   3.621   2.743  13.040 -0.5359  0.3088 -0.2636
  192MPD1    C2 2920   3.694   2.719  12.922  0.4659  0.2224  0.8241
  192MPD1    C3 2921   3.735   2.589  12.884 -1.2270 -0.9697 -0.0474
  192MPD1    C4 2922   3.683   2.482  12.963  0.1432 -0.4425  0.3800
  192MPD1    C5 2923   3.608   2.504  13.078 -0.4764 -0.1624 -0.8018
  192MPD1     H 2924   3.716   2.806  12.861  3.1876 -0.4623  0.8036
  192MPD1    H1 2925   3.712   2.382  12.932  0.5459  0.1065 -1.0247
  192MPD1    H2 2926   3.523   2.642  13.208 -1.8937 -0.5691 -0.7960
  192MPD1    H3 2927   3.560   2.427  13.136 -0.9392  0.6743 -0.0832
  192MPD1     N 2928   3.816   2.559  12.772 -0.2710 -0.4221  0.7128
  192MPD1    H5 2929   3.827   2.459  12.761  0.9668 -0.3378  1.1197
  192MPD1    N1 2930   3.603   2.870  13.087  0.7431  0.0872 -0.2855
  192MPD1    H6 2931   3.610   2.941  13.014 -0.0036  2.0948  1.6047
  192MPD1    H7 2932   3.526   2.893  13.149  0.5548 -1.1217 -0.0606
  193MPD1     C 2933   3.091   2.958  16.318 -0.2011  0.3120  0.2351
  193MPD1    C1 2934   3.083   3.083  16.372 -0.2444  0.3490 -0.2950
  193MPD1    C2 2935   3.119   3.103  16.503  0.2486  0.1604 -0.1465
  193MPD1    C3 2936   3.144   2.993  16.588  0.2280 -0.3129  0.4100
  193MPD1    C4 2937   3.149   2.869  16.533  0.1240  0.3137  0.3110
  193MPD1    C5 2938   3.130   2.851  16.401 -0.3325 -0.2314 -0.3397
  193MPD1     H 2939   3.113   3.206  16.537  2.0778  0.9750 -2.2720
  193MPD1    H1 2940   3.175   2.780  16.589  0.0950 -0.6306 -1.1456
  193MPD1    H2 2941   3.083   2.940  16.211  1.0901  0.2770  0.1479
  193MPD1    H3 2942   3.144   2.755  16.351 -1.9979 -0.8719  0.4481
  193MPD1     N 2943   3.173   3.015  16.727  0.9432 -0.1596  0.2895
  193MPD1    H5 2944   3.189   2.929  16.778 -0.1828 -0.1481  0.6622
  193MPD1    N1 2945   3.057   3.186  16.289 -0.1698  0.1190  0.2429
  193MPD1    H6 2946   3.028   3.158  16.196 -0.8557 -0.8470  0.7504
  193MPD1    H7 2947   2.993   3.252  16.332 -0.6319  0.2990 -0.7266
  194MPD1     C 2948   0.290   4.208   0.415  0.4925  0.5399  0.4224
  194MPD1    C1 2949   0.422   4.159   0.406 -0.2016 -0.5498  0.9550
  194MPD1    C2 2950   0.510   4.208   0.316  0.1518 -0.3043  0.0077
  194MPD1    C3 2951   0.468   4.301   0.221  0.1327  0.0996 -0.3891
  194MPD1    C4 2952   0.337   4.347   0.225  1.1420  0.1310 -0.0926
  194MPD1    C5 2953   0.248   4.297   0.321 -0.9234  0.1690  0.1038
  194MPD1     H 2954   0.616   4.185   0.318  0.1912 -0.1967 -0.8083
  194MPD1    H1 2955   0.299   4.405   0.141  1.4167  0.9640  0.3523
  194MPD1    H2 2956   0.215   4.179   0.487  1.3008 -1.2954  0.5371
  194MPD1    H3 2957   0.142   4.318   0.320 -0.8673  0.5145  1.8240
  194MPD1     N 2958   0.551   4.363   0.130 -0.1239  0.2019  0.1370
  194MPD1    H5 2959   0.508   4.443   0.085 -3.2107 -0.6605  1.5372
  194MPD1    N1 2960   0.475   4.088   0.511 -0.0336 -1.0231 -0.2987
  194MPD1    H6 2961   0.552   4.033   0.474  0.9671  2.2086 -3.0244
  194MPD1    H7 2962   0.403   4.021   0.536  0.3542 -1.5544 -0.6023
  195MPD1     C 2963   2.249   2.566   0.621 -0.6940 -0.2682 -0.3673
  195MPD1    C1 2964   2.360   2.572   0.535 -0.4256 -0.5577 -0.2196
  195MPD1    C2 2965   2.452   2.478   0.527  0.4665 -0.2922 -0.5368
  195MPD1    C3 2966   2.435   2.365   0.609  0.6626 -0.4204  0.1618
  195MPD1    C4 2967   2.324   2.354   0.698 -0.7385  0.8799  0.3742
  195MPD1    C5 2968   2.232   2.455   0.700 -0.1952  0.4706  0.0701
  195MPD1     H 2969   2.529   2.493   0.452 -0.5940 -1.2568 -1.8372
  195MPD1    H1 2970   2.311   2.284   0.780  0.2212 -0.1662 -0.3697
  195MPD1    H2 2971   2.180   2.647   0.637 -0.3485 -0.0868  0.2199
  195MPD1    H3 2972   2.145   2.446   0.763  0.7456 -2.7681  0.9058
  195MPD1     N 2973   2.540   2.268   0.616 -0.0087 -0.1965 -0.7345
  195MPD1    H5 2974   2.526   2.190   0.679 -1.0832  0.4545 -0.1672
  195MPD1    N1 2975   2.371   2.674   0.438  0.2335  0.2601 -0.3863
  195MPD1    H6 2976   2.332   2.758   0.481  1.0040  0.6820 -0.5247
  195MPD1    H7 2977   2.462   2.704   0.404 -0.4423  1.1447 -1.4288
  196MPD1     C 2978   2.299   0.764   0.822 -0.3447 -0.2443 -0.7013
  196MPD1    C1 2979   2.233   0.845   0.744  0.0292  0.0402 -0.0314
  196MPD1    C2 2980   2.227   0.979   0.759  0.1512  0.3955 -0.5865
  196MPD1    C3 2981   2.269   1.040   0.880  0.0013  0.6537  0.1837
  196MPD1    C4 2982   2.336   0.952   0.966 -0.3275 -0.4009 -0.3145
  196MPD1    C5 2983   2.346   0.817   0.939  0.0949  0.3068  0.4822
  196MPD1     H 2984   2.173   1.039   0.687 -0.7549  1.1030  0.6927
  196MPD1    H1 2985   2.373   0.990   1.060  1.0756 -1.4106 -0.4589
  196MPD1    H2 2986   2.293   0.656   0.809 -1.3301 -0.1748 -0.8124
  196MPD1    H3 2987   2.391   0.744   1.005  0.1516  1.6107  1.8932
  196MPD1     N 2988   2.261   1.179   0.905 -1.1953 -0.4163 -0.3409
  196MPD1    H5 2989   2.287   1.214   0.997 -1.0546  0.6807 -0.7900
  196MPD1    N1 2990   2.156   0.784   0.638 -0.2654  1.0575  0.3270
  196MPD1    H6 2991   2.080   0.842   0.604  0.5176  1.7692 -0.1873
  196MPD1    H7 2992   2.123   0.693   0.672 -0.3987  0.5795 -1.1106
  197MPD1     C 2993   1.997   3.204   0.035 -0.7927 -0.8417 -0.8155
  197MPD1    C1 2994   2.104   3.279   0.079 -0.7439  0.7304  0.0992
  197MPD1    C2 2995   2.159   3.375  17.689  0.3609  0.5444 -0.0444
  197MPD1    C3 2996   2.092   3.409  17.563 -0.2987  0.4844 -0.4253
  197MPD1    C4 2997   1.984   3.340  17.531  0.8977 -0.0637  0.3711
  197MPD1    C5 2998   1.934   3.244  17.619 -0.5724  0.3381 -0.2619
  197MPD1     H 2999   2.258   3.411   0.013  1.5929 -3.1664  0.3860
  197MPD1    H1 3000   1.919   3.365  17.448  0.6934  0.6909  0.7557
  197MPD1    H2 3001   1.959   3.119   0.091  1.3346 -0.9907  0.3978
  197MPD1    H3 3002   1.852   3.182  17.586  1.5458 -0.8344 -3.3417
  197MPD1     N 3003   2.148   3.500  17.470 -0.2910  0.8215 -0.3559
  197MPD1    H5 3004   2.108   3.501  17.377 -0.4991  0.1781 -0.2737
  197MPD1    N1 3005   2.176   3.227   0.187  0.1808 -0.1645 -0.4838
  197MPD1    H6 3006   2.238   3.297   0.226 -0.7885 -0.5617  1.7657
  197MPD1    H7 3007   2.117   3.184   0.257  1.2024 -0.1699  0.3704
  198MPD1     C 3008   4.199   1.519  16.447 -1.1002 -0.3708  0.8422
  198MPD1    C1 3009   4.146   1.595  16.543  0.0433 -0.1775  0.4595
  198MPD1    C2 3010   4.104   1.725  16.518 -1.1722 -0.4164  0.3729
  198MPD1    C3 3011   4.095   1.778  16.382 -0.9572 -0.5092  0.4825
  198MPD1    C4 3012   4.149   1.691  16.288 -0.4185  0.6562  0.0267
  198MPD1    C5 3013   4.203   1.565  16.321 -0.0346  1.2179  0.9338
  198MPD1     H 3014   4.065   1.783  16.601  0.5963  0.4345  0.6128
  198MPD1    H1 3015   4.145   1.700  16.180  1.1785  0.6091 -0.0222
  198MPD1    H2 3016   4.237   1.421  16.475 -1.0117 -0.4961  0.2835
  198MPD1    H3 3017   4.252   1.511  16.240  1.9507  0.7156  2.4537
  198MPD1     N 3018   4.049   1.908  16.351  0.8648  0.6689  0.3618
  198MPD1    H5 3019   4.051   1.968  16.433 -0.3073 -0.0975  0.9611
  198MPD1    N1 3020   4.141   1.544  16.671  0.0301  0.0927 -0.0681
  198MPD1    H6 3021   4.146   1.442  16.679 -1.2250 -0.0316 -0.8541
  198MPD1    H7 3022   4.082   1.590  16.740 -1.2150 -1.3811 -0.1346
  199MPD1     C 3023   2.946   3.371  10.274 -0.6061  0.3267 -0.3827
  199MPD1    C1 3024   2.894   3.490  10.239  0.2620  0.7053 -0.5214
  199MPD1    C2 3025   2.771   3.497  10.175  0.2221 -0.5088  0.7591
  199MPD1    C3 3026   2.699   3.389  10.155  0.6949 -0.0514  0.0536
  199MPD1    C4 3027   2.750   3.264  10.191 -0.7195  0.1227  0.5556
  199MPD1    C5 3028   2.874   3.261  10.251 -0.6164  0.4468 -0.3042
  199MPD1     H 3029   2.731   3.593  10.145 -0.1267 -0.5385  1.1239
  199MPD1    H1 3030   2.685   3.177  10.188  0.6479 -0.8886  0.0258
  199MPD1    H2 3031   3.033   3.350  10.336  0.4735 -2.1858 -2.7617
  199MPD1    H3 3032   2.909   3.165  10.288  1.2929  0.9267 -0.8685
  199MPD1     N 3033   2.572   3.384  10.099  0.1078  0.0972  0.1457
  199MPD1    H5 3034   2.540   3.293  10.067 -0.7604  1.0851 -1.7888
  199MPD1    N1 3035   2.982   3.595  10.246 -0.1820  0.5312 -0.3071
  199MPD1    H6 3036   2.926   3.676  10.271  1.0231  0.4995  2.5440
  199MPD1    H7 3037   3.052   3.578  10.318  1.5340  3.4856 -1.2946
  200MPD1     C 3038   4.673   3.536  14.256 -0.1301 -0.0384  0.2442
  200MPD1    C1 3039   0.036   3.521  14.157 -0.9057  1.1513 -0.0987
  200MPD1    C2 3040   0.148   3.445  14.177 -1.0102 -0.2012  0.0594
  200MPD1    C3 3041   0.172   3.388  14.304  0.4968  0.7701 -0.8662
  200MPD1    C4 3042   0.067   3.384  14.392 -0.3808  0.1915 -0.4966
  200MPD1    C5 3043   4.685   3.466  14.369 -0.4080 -0.1232 -0.1871
  200MPD1     H 3044   0.223   3.437  14.099 -0.2813  1.1430  0.6153
  200MPD1    H1 3045   0.057   3.323  14.481  0.6304  1.0593  0.2163
  200MPD1    H2 3046   4.582   3.596  14.247 -0.2600  0.1509  2.8290
  200MPD1    H3 3047   4.605   3.467  14.441 -0.2093  4.2385 -0.0046
  200MPD1     N 3048   0.301   3.334  14.338  0.8916  0.6088 -0.2395
  200MPD1    H5 3049   0.373   3.330  14.267  1.4093 -0.1391  0.3191
  200MPD1    N1 3050   4.720   3.551  14.020 -0.3657  0.0015 -0.1446
  200MPD1    H6 3051   0.083   3.581  13.977 -0.0571  2.0927  1.9047
  200MPD1    H7 3052   4.651   3.627  14.022 -0.6213 -0.2369  0.1637
  201MPD1     C 3053   2.396   2.056  12.572 -0.1631 -0.9874 -0.0199
  201MPD1    C1 3054   2.445   1.930  12.542 -0.7332  0.0573 -1.0024
  201MPD1    C2 3055   2.519   1.863  12.640  0.2352 -0.1321 -0.1124
  201MPD1    C3 3056   2.560   1.924  12.755  0.5297  0.3451 -0.0555
  201MPD1    C4 3057   2.503   2.050  12.786 -0.2923  0.2334 -0.5321
  201MPD1    C5 3058   2.425   2.110  12.693 -0.7242  0.5138 -0.1182
  201MPD1     H 3059   2.571   1.770  12.619 -2.4358 -1.5947 -0.1869
  201MPD1    H1 3060   2.535   2.109  12.870  0.0013 -1.2043  0.3715
  201MPD1    H2 3061   2.344   2.108  12.492  0.2200 -1.8310 -0.8242
  201MPD1    H3 3062   2.396   2.211  12.718  1.0701  0.4118  2.3389
  201MPD1     N 3063   2.662   1.875  12.834 -0.4689 -0.3797 -0.2142
  201MPD1    H5 3064   2.694   1.785  12.799 -0.0825  0.3878 -1.8353
  201MPD1    N1 3065   2.422   1.868  12.418 -0.2774 -0.0242 -0.1149
  201MPD1    H6 3066   2.396   1.941  12.352 -2.4381 -0.9093 -0.2371
  201MPD1    H7 3067   2.507   1.833  12.376 -1.1734  0.2321 -2.1463
  202MPD1     C 3068   2.383   2.863  10.156  0.5480  0.2961  0.0674
  202MPD1    C1 3069   2.390   2.727  10.165  0.1041 -0.3165  0.3275
  202MPD1    C2 3070   2.511   2.673  10.149 -0.3615  0.3522 -0.8817
  202MPD1    C3 3071   2.621   2.755  10.172  0.1516 -0.0704  0.7737
  202MPD1    C4 3072   2.614   2.883  10.191 -0.2292 -0.0442  0.0414
  202MPD1    C5 3073   2.491   2.939  10.185  0.0223 -0.2877  0.3748
  202MPD1     H 3074   2.515   2.565  10.147  1.1419  0.3801  0.3163
  202MPD1    H1 3075   2.700   2.944  10.220  0.4063 -0.9987  0.1609
  202MPD1    H2 3076   2.290   2.917  10.144  2.3555  2.8925 -2.2048
  202MPD1    H3 3077   2.486   3.046  10.202 -0.0447  0.1737 -2.6589
  202MPD1     N 3078   2.751   2.693  10.181  0.2996 -0.3613  0.1940
  202MPD1    H5 3079   2.833   2.752  10.181 -0.7491  1.1074 -2.6444
  202MPD1    N1 3080   2.275   2.659  10.113 -0.6724  0.1402 -0.0966
  202MPD1    H6 3081   2.267   2.558  10.127  1.8254  0.1883  1.6249
  202MPD1    H7 3082   2.193   2.692  10.163 -0.6324  1.1338 -0.6871
  203MPD1     C 3083   1.919   3.400  12.615 -0.5035 -0.1656  0.2510
  203MPD1    C1 3084   1.883   3.303  12.529  0.0250  0.2026 -0.7736
  203MPD1    C2 3085   1.925   3.171  12.566 -0.2795 -0.0377 -0.3689
  203MPD1    C3 3086   2.001   3.140  12.681 -0.3429 -0.2913 -0.5463
  203MPD1    C4 3087   2.031   3.246  12.763 -0.1906 -0.1194 -0.6540
  203MPD1    C5 3088   1.992   3.379  12.727  0.2196 -0.5472  0.4467
  203MPD1     H 3089   1.891   3.089  12.504 -0.2922 -0.6717  0.4805
  203MPD1    H1 3090   2.106   3.240  12.840  1.4508  0.8405 -2.1853
  203MPD1    H2 3091   1.880   3.500  12.598  2.7724  1.2594  1.1157
  203MPD1    H3 3092   2.021   3.471  12.776 -1.2948  0.6755 -0.9418
  203MPD1     N 3093   2.028   3.007  12.708 -0.4128 -0.7218 -0.3132
  203MPD1    H5 3094   1.998   2.947  12.632 -0.7624 -1.7924  0.6569
  203MPD1    N1 3095   1.804   3.322  12.414  0.1617 -0.0523 -0.3652
  203MPD1    H6 3096   1.796   3.417  12.379 -0.2326 -0.0477 -0.2634
  203MPD1    H7 3097   1.815   3.252  12.341 -1.0007  0.8059 -1.3596
  204MPD1     C 3098   0.876   3.548   0.576 -0.0248 -0.3492 -0.0029
  204MPD1    C1 3099   0.943   3.560   0.456 -0.2070 -1.0324 -0.8379
  204MPD1    C2 3100   0.870   3.529   0.341  0.7957 -0.3009  0.3044
  204MPD1    C3 3101   0.741   3.490   0.340 -0.2001  0.1459  0.2448
  204MPD1    C4 3102   0.673   3.493   0.460  0.2176 -0.2971  0.4526
  204MPD1    C5 3103   0.742   3.526   0.574 -0.6143  0.3017  0.1928
  204MPD1     H 3104   0.928   3.543   0.250  1.6178 -0.0942  0.8642
  204MPD1    H1 3105   0.568   3.467   0.468  0.6616 -2.0501  0.6517
  204MPD1    H2 3106   0.932   3.566   0.667  0.1146 -0.0441 -0.1482
  204MPD1    H3 3107   0.687   3.537   0.667 -0.7993 -0.0025  0.1184
  204MPD1     N 3108   0.686   3.449   0.214  0.0641 -0.1707 -0.2518
  204MPD1    H5 3109   0.751   3.429   0.138 -1.6270 -0.0175 -1.7496
  204MPD1    N1 3110   1.079   3.577   0.457  0.3141 -0.2610 -0.6626
  204MPD1    H6 3111   1.112   3.643   0.527 -0.0447 -2.1448  1.2619
  204MPD1    H7 3112   1.090   3.637   0.376  1.5245  0.2876 -0.0990
  205MPD1     C 3113   1.034   2.584  17.332 -0.3859 -0.4218  0.1406
  205MPD1    C1 3114   1.037   2.448  17.360  0.1457  0.0533 -0.1501
  205MPD1    C2 3115   0.918   2.389  17.391  0.2073  1.2225  0.3639
  205MPD1    C3 3116   0.800   2.451  17.372 -0.1233  0.5507 -0.0503
  205MPD1    C4 3117   0.798   2.580  17.324 -0.2559  0.6029  0.1610
  205MPD1    C5 3118   0.915   2.647  17.305  0.0713 -0.5497 -0.8335
  205MPD1     H 3119   0.929   2.286  17.424  0.4738  0.6969 -1.3639
  205MPD1    H1 3120   0.710   2.639  17.298  0.1585  1.7675  1.3983
  205MPD1    H2 3121   1.123   2.641  17.305 -2.1402  2.3800  0.2138
  205MPD1    H3 3122   0.917   2.745  17.257 -0.5310 -0.4318 -0.6193
  205MPD1     N 3123   0.674   2.390  17.387  0.2015 -0.2502 -0.2157
  205MPD1    H5 3124   0.594   2.449  17.370  0.6984  0.2021 -1.0212
  205MPD1    N1 3125   1.157   2.385  17.385  0.1010  0.4897 -0.0403
  205MPD1    H6 3126   1.240   2.423  17.339  1.5653  0.4640  2.5780
  205MPD1    H7 3127   1.152   2.288  17.357  0.9093  0.4151  0.0739
  206MPD1     C 3128   1.356   0.303  17.133  0.2233  0.0148  0.0945
  206MPD1    C1 3129   1.411   0.247  17.030  0.3300 -0.1520  0.7741
  206MPD1    C2 3130   1.340   0.236  16.912  0.3086 -0.3559  0.1314
  206MPD1    C3 3131   1.206   0.283  16.909  0.0556 -0.1847 -0.2214
  206MPD1    C4 3132   1.157   0.354  17.016  0.2405  0.2097  0.0140
  206MPD1    C5 3133   1.237   0.363  17.129 -0.0918 -0.2155  0.4144
  206MPD1     H 3134   1.382   0.178  16.831 -1.8795  0.0403 -1.2826
  206MPD1    H1 3135   1.061   0.404  17.020  0.4972  0.6024  1.1709
  206MPD1    H2 3136   1.418   0.319  17.221  0.5982 -1.5769  0.1175
  206MPD1    H3 3137   1.200   0.421  17.212 -1.1876  1.0330 -0.9315
  206MPD1     N 3138   1.122   0.281  16.798  0.2113  0.3101  0.0545
  206MPD1    H5 3139   1.034   0.332  16.802 -0.2542 -0.4217 -0.8485
  206MPD1    N1 3140   1.530   0.182  17.051  0.1378 -0.1187  0.1966
  206MPD1    H6 3141   1.590   0.200  16.971 -0.1327 -0.6364 -0.1250
  206MPD1    H7 3142   1.588   0.215  17.128 -1.2192 -1.0407  1.6084
  207MPD1     C 3143   4.290   3.047  11.686 -0.1902  0.3363 -0.0956
  207MPD1    C1 3144   4.268   3.168  11.637 -0.1898 -0.6974 -0.8015
  207MPD1    C2 3145   4.355   3.217  11.542  0.5787  0.2765  0.3694
  207MPD1    C3 3146   4.466   3.147  11.509  0.7277  0.0631 -0.1696
  207MPD1    C4 3147   4.484   3.018  11.555 -0.3377  0.0081  0.1334
  207MPD1    C5 3148   4.399   2.973  11.652  0.1089  0.4412  0.3461
  207MPD1     H 3149   4.338   3.317  11.502 -0.0736 -0.0585 -0.1736
  207MPD1    H1 3150   4.574   2.967  11.522  0.5301  2.5484 -1.4611
  207MPD1    H2 3151   4.221   3.004  11.758  1.5302 -0.8981  0.8126
  207MPD1    H3 3152   4.406   2.874  11.695 -1.4019  0.2401  0.1313
  207MPD1     N 3153   4.539   3.191  11.395  0.2426 -0.0027 -0.6285
  207MPD1    H5 3154   4.614   3.130  11.364  1.9518  1.1988  1.1441
  207MPD1    N1 3155   4.164   3.248  11.684  0.0206  0.3183 -0.1502
  207MPD1    H6 3156   4.077   3.204  11.714 -0.0876  0.0747 -0.8220
  207MPD1    H7 3157   4.140   3.329  11.628 -1.4261 -0.5658 -0.8227
  208MPD1     C 3158   1.252   1.615  17.268  0.2315 -0.0763  0.1929
  208MPD1    C1 3159   1.118   1.593  17.263 -0.1621 -0.5845 -0.6777
  208MPD1    C2 3160   1.056   1.551  17.386 -0.1943  0.4548  1.0968
  208MPD1    C3 3161   1.131   1.509  17.491  0.5998  0.1518 -0.1145
  208MPD1    C4 3162   1.262   1.513  17.481 -0.4448 -0.8911 -0.5132
  208MPD1    C5 3163   1.324   1.574  17.376 -0.1188  0.0266  0.7753
  208MPD1     H 3164   0.950   1.527  17.391 -0.1999  0.2333 -0.1240
  208MPD1    H1 3165   1.327   1.485  17.563 -0.0423 -2.0105 -1.2220
  208MPD1    H2 3166   1.310   1.676  17.200 -0.3363 -0.7952 -0.9536
  208MPD1    H3 3167   1.430   1.597  17.389 -0.5078  0.3885  3.2870
  208MPD1     N 3168   1.061   1.476  17.607 -0.0700  0.2966 -0.2739
  208MPD1    H5 3169   0.961   1.477  17.589 -0.3454  0.8838  1.3237
  208MPD1    N1 3170   1.048   1.623  17.141  0.1153 -0.0445 -0.1448
  208MPD1    H6 3171   0.985   1.549  17.115  0.7163 -1.5093  2.5432
  208MPD1    H7 3172   1.116   1.624  17.065 -0.0957 -0.5045 -0.3354
  209MPD1     C 3173   4.089   2.358   9.887  0.4090  0.4072  0.1616
  209MPD1    C1 3174   4.109   2.482   9.949 -0.1018 -0.7330  0.5399
  209MPD1    C2 3175   4.143   2.490  10.080 -0.4464 -0.3253 -0.2774
  209MPD1    C3 3176   4.182   2.380  10.149  0.3117  0.4720  0.5597
  209MPD1    C4 3177   4.164   2.260  10.088 -0.4019 -0.6904  0.2278
  209MPD1    C5 3178   4.120   2.251   9.967 -0.4698  0.0346 -0.0165
  209MPD1     H 3179   4.151   2.588  10.126  4.9067  0.1192 -2.1215
  209MPD1    H1 3180   4.186   2.167  10.141  1.2451 -0.3875  0.0701
  209MPD1    H2 3181   4.036   2.357   9.792  0.1509 -1.9106  0.3078
  209MPD1    H3 3182   4.103   2.151   9.929  0.7818  0.2012 -1.0381
  209MPD1     N 3183   4.232   2.392  10.283  0.0732  0.2924  0.1542
  209MPD1    H5 3184   4.230   2.489  10.313 -0.6638 -0.2604  1.9167
  209MPD1    N1 3185   4.062   2.594   9.879 -0.3672 -0.2418  0.7958
  209MPD1    H6 3186   4.044   2.580   9.779 -0.7947  1.2711  0.6608
  209MPD1    H7 3187   4.102   2.685   9.901 -0.0177 -0.4259  0.9188
  210MPD1     C 3188   4.220   1.735  11.019  0.6315  0.1847 -0.1619
  210MPD1    C1 3189   4.252   1.850  11.092 -0.7764 -0.2797  0.0589
  210MPD1    C2 3190   4.261   1.974  11.023  0.8944 -0.0665  1.0307
  210MPD1    C3 3191   4.266   1.966  10.881  0.1353  0.3828  0.0661
  210MPD1    C4 3192   4.254   1.849  10.818  0.5101  0.1985  0.3856
  210MPD1    C5 3193   4.225   1.731  10.882  0.2887  0.1409 -0.3224
  210MPD1     H 3194   4.272   2.064  11.082  1.6000 -0.5309  1.6095
  210MPD1    H1 3195   4.251   1.851  10.709  1.9310  1.8921  0.3765
  210MPD1    H2 3196   4.183   1.644  11.065  0.5326  2.5515  4.4695
  210MPD1    H3 3197   4.209   1.642  10.822  1.8262 -1.1743  1.2063
  210MPD1     N 3198   4.268   2.074  10.802 -0.2453 -0.1664 -0.2666
  210MPD1    H5 3199   4.261   2.055  10.702 -1.3198  0.2970 -0.2803
  210MPD1    N1 3200   4.216   1.854  11.226 -0.6373  0.3349  0.4499
  210MPD1    H6 3201   4.274   1.916  11.282 -1.2543 -1.1360  2.7056
  210MPD1    H7 3202   4.239   1.761  11.261 -1.1892 -0.8500 -2.3312
  211MPD1     C 3203   1.695   1.662   0.026  0.5084 -0.3555 -0.6300
  211MPD1    C1 3204   1.694   1.752  17.615 -0.1597  0.0699  0.4269
  211MPD1    C2 3205   1.574   1.817  17.585  0.1468 -0.1244 -0.1865
  211MPD1    C3 3206   1.452   1.787  17.646  0.2549 -0.0259 -0.0703
  211MPD1    C4 3207   1.455   1.693   0.044  0.0370  0.4876 -0.5164
  211MPD1    C5 3208   1.575   1.636   0.083  0.7245  0.6857  0.3088
  211MPD1     H 3209   1.580   1.893  17.509  0.5462 -0.3060 -0.3371
  211MPD1    H1 3210   1.360   1.659   0.083  1.0880 -1.6627  0.1835
  211MPD1    H2 3211   1.787   1.615   0.060  2.3750  1.8558 -2.6114
  211MPD1    H3 3212   1.572   1.565   0.165 -1.7080  0.9497  0.4554
  211MPD1     N 3213   1.338   1.846  17.600  0.2850 -0.0181  0.6007
  211MPD1    H5 3214   1.349   1.903  17.517 -2.8071 -0.7346 -0.3110
  211MPD1    N1 3215   1.817   1.793  17.557 -0.1105 -0.1285 -0.1801
  211MPD1    H6 3216   1.874   1.718  17.518  2.3697  1.6729 -0.0248
  211MPD1    H7 3217   1.792   1.853  17.478 -1.6667  1.6155  1.6494
  212MPD1     C 3218   0.937   0.698  17.064  0.5315 -0.1651  0.5002
  212MPD1    C1 3219   0.812   0.719  17.009  0.0544  0.3597  0.2231
  212MPD1    C2 3220   0.702   0.661  17.069  0.5199 -0.4843 -0.6270
  212MPD1    C3 3221   0.725   0.573  17.179  0.6324 -0.1362  0.1701
  212MPD1    C4 3222   0.853   0.552  17.227  0.4848  0.5878  0.2862
  212MPD1    C5 3223   0.962   0.615  17.171 -0.0889  0.6726  0.2950
  212MPD1     H 3224   0.602   0.657  17.027  0.0809 -1.6963  0.5542
  212MPD1    H1 3225   0.868   0.488  17.313  1.3229  0.1904 -0.1534
  212MPD1    H2 3226   1.023   0.741  17.015 -1.0536  1.0273 -1.2492
  212MPD1    H3 3227   1.060   0.584  17.205 -0.7356 -1.2130  0.4382
  212MPD1     N 3228   0.620   0.501  17.232  0.6774 -0.2278  0.1906
  212MPD1    H5 3229   0.647   0.422  17.290  3.0655  0.3938 -0.0685
  212MPD1    N1 3230   0.799   0.779  16.882  0.2219 -0.3853  0.2196
  212MPD1    H6 3231   0.709   0.824  16.864  1.8924  2.5180 -0.9070
  212MPD1    H7 3232   0.878   0.837  16.855 -0.2166  0.2139  0.2121
  213MPD1     C 3233   4.259   1.352  15.358 -0.1108 -0.2908 -0.0880
  213MPD1    C1 3234   4.165   1.290  15.438 -0.1903 -0.2310  0.6923
  213MPD1    C2 3235   4.047   1.364  15.441 -0.1853 -0.1617  0.5863
  213MPD1    C3 3236   4.022   1.458  15.342 -0.2615 -0.2524  0.5789
  213MPD1    C4 3237   4.107   1.487  15.243  0.1803 -0.0333  0.3006
  213MPD1    C5 3238   4.229   1.427  15.247 -0.6081  0.4342  0.4891
  213MPD1     H 3239   3.981   1.351  15.525 -0.6078  2.8850  0.7178
  213MPD1    H1 3240   4.089   1.556  15.162  2.2200  0.0307 -0.1091
  213MPD1    H2 3241   4.357   1.306  15.357  1.3671  2.8818  1.2695
  213MPD1    H3 3242   4.298   1.447  15.166 -1.2226 -2.0717 -0.6312
  213MPD1     N 3243   3.889   1.515  15.344  0.3176 -0.1949  0.4518
  213MPD1    H5 3244   3.841   1.494  15.431 -1.9789 -0.1299 -0.8087
  213MPD1    N1 3245   4.201   1.218  15.548 -0.4926 -0.3037 -0.5744
  213MPD1    H6 3246   4.120   1.172  15.588 -0.5715 -0.4480 -0.9019
  213MPD1    H7 3247   4.270   1.147  15.521  0.0683  0.1375 -0.3051
  214MPD1     C 3248   2.947   1.349  15.556 -0.9371  0.7464  0.3743
  214MPD1    C1 3249   2.953   1.350  15.419  0.0354 -0.2125 -0.1961
  214MPD1    C2 3250   3.067   1.405  15.360 -0.0313  0.2496  0.0621
  214MPD1    C3 3251   3.163   1.463  15.437  0.6441 -0.0656  0.0333
  214MPD1    C4 3252   3.142   1.473  15.570 -1.0560  0.7965 -0.0976
  214MPD1    C5 3253   3.032   1.420  15.633 -0.4737  0.4198  0.1524
  214MPD1     H 3254   3.073   1.391  15.253 -1.2947 -3.0395  0.4234
  214MPD1    H1 3255   3.207   1.537  15.629 -1.1868  0.9248 -0.0939
  214MPD1    H2 3256   2.855   1.310  15.599 -1.0983 -0.1152 -0.7458
  214MPD1    H3 3257   3.017   1.421  15.740  1.7615 -0.8551  0.4624
  214MPD1     N 3258   3.286   1.506  15.378 -0.1129  0.6188 -0.2607
  214MPD1    H5 3259   3.283   1.519  15.277 -1.1698 -0.7336 -0.4042
  214MPD1    N1 3260   2.863   1.265  15.343 -0.7287 -0.3402 -0.3442
  214MPD1    H6 3261   2.855   1.300  15.248 -1.8698 -0.0821 -0.1547
  214MPD1    H7 3262   2.768   1.266  15.381 -0.4461  0.7224  0.3375
  215MPD1     C 3263   3.935   2.038  10.590 -0.3444 -0.0134 -0.2235
  215MPD1    C1 3264   3.938   2.047  10.732 -0.0904  0.1458 -0.3575
  215MPD1    C2 3265   3.925   2.170  10.786 -0.2384 -0.7215 -0.3513
  215MPD1    C3 3266   3.943   2.286  10.714  0.5286  0.2172 -0.2370
  215MPD1    C4 3267   3.962   2.273  10.577 -0.0791  0.5529  0.0561
  215MPD1    C5 3268   3.953   2.152  10.517  0.4003  0.3977  0.0330
  215MPD1     H 3269   3.906   2.173  10.893 -3.5514 -0.2222 -0.9818
  215MPD1    H1 3270   3.959   2.356  10.507  0.4682 -0.7166 -1.4730
  215MPD1    H2 3271   3.915   1.946  10.537  0.2830  0.3100 -1.0190
  215MPD1    H3 3272   3.964   2.147  10.409  1.1753  3.5797 -0.0253
  215MPD1     N 3273   3.947   2.405  10.794  0.5298 -0.1948 -0.1284
  215MPD1    H5 3274   3.955   2.399  10.895  2.1672  0.3646 -0.2307
  215MPD1    N1 3275   3.909   1.936  10.807 -0.2307  0.2855 -0.2862
  215MPD1    H6 3276   3.933   1.860  10.744  0.2004  1.1277 -1.1493
  215MPD1    H7 3277   3.966   1.931  10.891  0.1741 -0.3259 -0.5977
  216MPD1     C 3278   0.713   4.066  17.175  0.1954 -0.9487 -0.1295
  216MPD1    C1 3279   0.637   4.028  17.288 -0.6283  0.1175  0.2573
  216MPD1    C2 3280   0.700   4.019  17.412 -0.1953  0.0111 -0.2752
  216MPD1    C3 3281   0.836   4.025  17.429  0.4622  0.5355  0.3075
  216MPD1    C4 3282   0.909   4.055  17.316 -0.0608 -0.2034  0.0519
  216MPD1    C5 3283   0.843   4.079  17.198  0.2266 -0.1740 -0.5014
  216MPD1     H 3284   0.634   4.004  17.497 -1.6710  1.5575 -1.1640
  216MPD1    H1 3285   1.014   4.084  17.322 -0.2388  0.2254  1.1471
  216MPD1    H2 3286   0.676   4.079  17.075 -1.1465  0.2558  0.5310
  216MPD1    H3 3287   0.911   4.106  17.117  2.7771 -0.5270  1.5265
  216MPD1     N 3288   0.893   4.026  17.561  0.4745 -0.1851 -0.0313
  216MPD1    H5 3289   0.824   4.028  17.635 -0.4439  1.6258 -0.9295
  216MPD1    N1 3290   0.494   4.029  17.283 -0.0578  0.0434 -0.4150
  216MPD1    H6 3291   0.447   4.021  17.193  1.8108 -0.3082 -1.3417
  216MPD1    H7 3292   0.451   3.970  17.355  0.9216 -1.4670 -1.0777
  217MPD1     C 3293   1.084   1.473   9.073 -0.5331  0.4598  0.2916
  217MPD1    C1 3294   1.185   1.381   9.094 -0.0379  0.6442  0.7404
  217MPD1    C2 3295   1.283   1.410   9.185 -0.1304  0.6448 -0.4834
  217MPD1    C3 3296   1.264   1.514   9.282 -0.8703  0.8079 -0.6224
  217MPD1    C4 3297   1.149   1.588   9.270  0.1691 -0.1968 -0.4847
  217MPD1    C5 3298   1.063   1.574   9.162 -0.3527  0.2870  0.3561
  217MPD1     H 3299   1.374   1.350   9.190 -1.9245 -1.8529  2.9040
  217MPD1    H1 3300   1.125   1.667   9.340 -0.0134 -1.5957  1.0312
  217MPD1    H2 3301   1.014   1.454   8.992  3.1300  0.1893 -2.7798
  217MPD1    H3 3302   0.973   1.634   9.156 -0.3819 -0.0492 -2.3965
  217MPD1     N 3303   1.348   1.536   9.395  0.3273 -0.2001 -0.2149
  217MPD1    H5 3304   1.328   1.614   9.456  2.2944 -0.0833  0.2551
  217MPD1    N1 3305   1.217   1.277   9.003  0.7703  0.2175  0.3472
  217MPD1    H6 3306   1.134   1.250   8.950  1.4575 -2.2601  0.5178
  217MPD1    H7 3307   1.266   1.195   9.038  0.0533 -0.8577 -1.1750
  218MPD1     C 3308   3.171   3.038  13.259 -0.1136  0.5535 -0.2484
  218MPD1    C1 3309   3.251   3.110  13.173  0.0980  0.0828  0.0621
  218MPD1    C2 3310   3.291   3.050  13.055 -0.5002  0.2025 -0.1277
  218MPD1    C3 3311   3.272   2.915  13.033 -0.0860 -0.0478 -1.2483
  218MPD1    C4 3312   3.216   2.837  13.132  0.6656  0.3548 -0.3067
  218MPD1    C5 3313   3.158   2.901  13.238  0.3942  0.1528 -0.0024
  218MPD1     H 3314   3.341   3.111  12.981  0.3222  1.8051  1.7501
  218MPD1    H1 3315   3.204   2.730  13.120 -1.1046  0.2708  2.2155
  218MPD1    H2 3316   3.102   3.086  13.329 -0.5222 -1.1707  0.5291
  218MPD1    H3 3317   3.100   2.837  13.303 -1.0165  0.7231 -0.6850
  218MPD1     N 3318   3.331   2.855  12.912 -0.4017  0.2241  0.2913
  218MPD1    H5 3319   3.402   2.910  12.865 -0.9110  0.6128 -0.0299
  218MPD1    N1 3320   3.256   3.249  13.166  0.0852  0.4278 -0.1122
  218MPD1    H6 3321   3.258   3.289  13.260  1.1058  2.7560 -1.1310
  218MPD1    H7 3322   3.338   3.289  13.122 -0.0368  1.4605  0.6171
  219MPD1     C 3323   3.951   3.032  12.188 -0.0127  0.1313 -0.4379
  219MPD1    C1 3324   3.930   3.063  12.324 -0.3824  0.9554  0.1754
  219MPD1    C2 3325   3.822   3.005  12.387  0.0460  0.5744  1.0894
  219MPD1    C3 3326   3.749   2.903  12.330  0.9624  0.4004 -0.1369
  219MPD1    C4 3327   3.783   2.860  12.202 -0.0175  0.2736 -0.4183
  219MPD1    C5 3328   3.879   2.928  12.137  0.6697 -0.1326 -0.6170
  219MPD1     H 3329   3.803   3.015  12.493  2.7278 -0.6785  1.6880
  219MPD1    H1 3330   3.744   2.771  12.154  0.9426 -0.7843  0.7544
  219MPD1    H2 3331   4.035   3.078  12.138  1.6351 -0.7369  1.5136
  219MPD1    H3 3332   3.906   2.900  12.036  1.1209 -1.5290 -0.1148
  219MPD1     N 3333   3.641   2.828  12.394  0.6274  0.6473 -0.2516
  219MPD1    H5 3334   3.606   2.747  12.343  0.8080  0.7357 -0.5214
  219MPD1    N1 3335   3.973   3.185  12.374 -0.1601  0.5305 -0.1128
  219MPD1    H6 3336   3.960   3.192  12.475 -2.6935  1.3654 -0.4934
  219MPD1    H7 3337   4.058   3.228  12.339 -0.2914  0.7402 -0.1733
  220MPD1     C 3338   2.784   3.500   9.643  0.4640  0.3245 -0.0755
  220MPD1    C1 3339   2.730   3.411   9.733 -1.1768 -0.3776  0.3066
  220MPD1    C2 3340   2.810   3.362   9.831  1.1058 -0.0326 -0.1162
  220MPD1    C3 3341   2.946   3.384   9.835  1.0594  0.8865 -0.3227
  220MPD1    C4 3342   3.001   3.465   9.734  0.2103 -0.0782 -0.2394
  220MPD1    C5 3343   2.920   3.530   9.645 -1.3763  0.3366  0.0240
  220MPD1     H 3344   2.772   3.295   9.908  2.2068 -1.3219 -0.6965
  220MPD1    H1 3345   3.106   3.488   9.726 -0.4291  3.5509  1.6614
  220MPD1    H2 3346   2.721   3.559   9.578  0.4813  0.6586  0.2055
  220MPD1    H3 3347   2.957   3.595   9.568  1.7384 -1.6821 -0.2091
  220MPD1     N 3348   3.026   3.325   9.936  0.8753  0.0356  0.2956
  220MPD1    H5 3349   2.983   3.268  10.008 -0.4648  1.9025  0.9848
  220MPD1    N1 3350   2.592   3.386   9.732 -0.3704 -0.0514  0.3646
  220MPD1    H6 3351   2.549   3.381   9.640 -0.6571  2.6495  0.3492
  220MPD1    H7 3352   2.567   3.299   9.778 -0.7356  0.4536  1.1094
  221MPD1     C 3353   1.908   1.014  17.142  0.0470  0.9997 -0.0217
  221MPD1    C1 3354   1.768   0.996  17.147  0.0137 -0.0659  0.6320
  221MPD1    C2 3355   1.698   0.979  17.029 -0.1105 -0.3959  0.5193
  221MPD1    C3 3356   1.760   1.018  16.909 -0.1143 -0.5508 -0.1304
  221MPD1    C4 3357   1.889   1.057  16.904  1.1508  0.6000  0.3890
  221MPD1    C5 3358   1.960   1.048  17.018  0.2033 -0.3519  0.7509
  221MPD1     H 3359   1.593   0.952  17.038 -0.0019 -0.1143  2.6756
  221MPD1    H1 3360   1.944   1.076  16.812  0.7112  1.6980  0.3614
  221MPD1    H2 3361   1.973   1.011  17.228 -1.3275  1.9983  1.0601
  221MPD1    H3 3362   2.064   1.074  17.006 -0.7192  3.0155  0.0607
  221MPD1     N 3363   1.687   1.033  16.790  0.5166 -0.0167  0.7567
  221MPD1    H5 3364   1.738   1.053  16.704  0.1367  0.2621  0.5949
  221MPD1    N1 3365   1.703   0.973  17.269 -0.1834  0.1025  0.5870
  221MPD1    H6 3366   1.756   0.997  17.353  1.2294  3.5639 -1.2572
  221MPD1    H7 3367   1.604   0.995  17.276 -0.1366  0.5894 -0.2488
  222MPD1     C 3368   2.113   0.457  17.669 -0.2105  0.5298 -0.0907
  222MPD1    C1 3369   2.032   0.463  17.557 -0.4624  0.1351  1.0391
  222MPD1    C2 3370   1.899   0.473  17.587 -0.3441 -0.2024 -0.4606
  222MPD1    C3 3371   1.838   0.477   0.012 -0.3414 -0.5847 -0.9736
  222MPD1    C4 3372   1.923   0.480   0.122 -0.1434 -1.2011  0.4164
  222MPD1    C5 3373   2.064   0.468   0.100 -0.5363 -0.2059  0.0528
  222MPD1     H 3374   1.831   0.469  17.502 -1.1525  0.7480  0.1316
  222MPD1    H1 3375   1.886   0.488   0.223 -0.7846  1.2531 -0.0238
  222MPD1    H2 3376   2.220   0.442  17.658 -0.2566 -0.1405  0.3989
  222MPD1    H3 3377   2.125   0.446   0.187  0.8827 -1.6441 -1.3198
  222MPD1     N 3378   1.702   0.496   0.028 -0.1723  0.3527  0.5460
  222MPD1    H5 3379   1.682   0.528   0.123  1.7687  2.7111  0.1341
  222MPD1    N1 3380   2.080   0.443  17.430 -0.2518 -0.3192  0.2561
  222MPD1    H6 3381   2.177   0.473  17.417 -0.1832 -1.7113 -2.4082
  222MPD1    H7 3382   2.022   0.490  17.361 -2.2540 -3.4474 -0.2099
  223MPD1     C 3383   0.683   0.187  17.547 -0.0196 -0.2711  0.2769
  223MPD1    C1 3384   0.780   0.180  17.449  0.2987  0.3219 -0.1913
  223MPD1    C2 3385   0.898   0.251  17.468 -0.2432  0.1182  0.3003
  223MPD1    C3 3386   0.901   0.348  17.566 -0.1231  0.2665  0.1229
  223MPD1    C4 3387   0.790   0.369  17.648 -0.0831 -0.4173 -0.9140
  223MPD1    C5 3388   0.688   0.279  17.643 -0.5486 -0.1198 -0.9831
  223MPD1     H 3389   0.982   0.244  17.400 -0.9800 -0.4191 -0.5497
  223MPD1    H1 3390   0.791   0.427   0.042  0.3215  0.7845 -1.6763
  223MPD1    H2 3391   0.600   0.117  17.544  0.4811 -0.7146 -2.7170
  223MPD1    H3 3392   0.605   0.282   0.015 -0.2230  0.3068 -0.6115
  223MPD1     N 3393   1.016   0.439  17.582 -0.3688  0.6751 -0.1319
  223MPD1    H5 3394   0.997   0.518  17.643 -0.9703 -0.3458  1.0060
  223MPD1    N1 3395   0.771   0.078  17.347  0.0910 -0.5661 -0.0025
  223MPD1    H6 3396   0.803   0.119  17.259 -0.0438  0.9214  0.6508
  223MPD1    H7 3397   0.674   0.046  17.342  0.2163 -0.9041 -0.2995
  224MPD1     C 3398   3.215   2.307   9.853  0.1322 -1.1229  1.0132
  224MPD1    C1 3399   3.110   2.390   9.819  0.1569 -0.7271 -0.6762
  224MPD1    C2 3400   2.984   2.361   9.879  0.1183 -0.0148  0.1938
  224MPD1    C3 3401   2.965   2.262   9.967 -0.4927 -0.0980  0.2760
  224MPD1    C4 3402   3.074   2.184  10.002  0.5187 -0.1197  0.1468
  224MPD1    C5 3403   3.193   2.203   9.937 -0.6176  0.3132  0.3972
  224MPD1     H 3404   2.901   2.416   9.836 -0.7304  0.5620  2.5561
  224MPD1    H1 3405   3.063   2.105  10.075 -1.2158  1.8130  1.9435
  224MPD1    H2 3406   3.304   2.316   9.791 -0.9871  1.6209 -0.1549
  224MPD1    H3 3407   3.273   2.130   9.944 -1.8982 -1.1806 -0.6382
  224MPD1     N 3408   2.840   2.230  10.025  0.4454  1.0244 -0.9331
  224MPD1    H5 3409   2.843   2.168  10.105  0.3460  0.8922 -1.0331
  224MPD1    N1 3410   3.124   2.485   9.715 -0.4415 -0.1551  0.3314
  224MPD1    H6 3411   3.050   2.552   9.735 -1.4713 -1.8086  2.0181
  224MPD1    H7 3412   3.216   2.529   9.718 -0.1418 -0.6802 -1.1577
  225MPD1     C 3413   3.346   4.082  13.136 -0.2475 -0.3314  0.1169
  225MPD1    C1 3414   3.303   3.955  13.152  0.2524  0.1722  0.2028
  225MPD1    C2 3415   3.248   3.879  13.050 -0.2339  0.4210  0.1471
  225MPD1    C3 3416   3.246   3.929  12.924  0.2358 -0.4967  0.1718
  225MPD1    C4 3417   3.303   4.053  12.905 -0.4639  0.6058 -0.1288
  225MPD1    C5 3418   3.354   4.131  13.009  0.6002  0.1649 -0.0691
  225MPD1     H 3419   3.204   3.785  13.081 -1.0171  0.5697 -0.5147
  225MPD1    H1 3420   3.309   4.084  12.802  0.5368  2.1639  0.3936
  225MPD1    H2 3421   3.376   4.149  13.216  2.7268  1.3976 -2.4397
  225MPD1    H3 3422   3.401   4.227  12.996 -0.2360  0.4009 -1.3873
  225MPD1     N 3423   3.181   3.865  12.815 -0.5414 -0.4178  0.6445
  225MPD1    H5 3424   3.172   3.925  12.734 -1.3130 -0.6400  0.5677
  225MPD1    N1 3425   3.286   3.926  13.288  0.8626  0.0246 -0.1800
  225MPD1    H6 3426   3.267   3.829  13.313  1.2266 -0.2417 -0.9055
  225MPD1    H7 3427   3.361   3.966  13.343 -0.5258  2.6320 -0.1815
  226MPD1     C 3428   1.107   2.834   9.688 -0.7767 -1.0666  0.3377
  226MPD1    C1 3429   1.174   2.720   9.666 -0.2705  0.2974 -0.0490
  226MPD1    C2 3430   1.308   2.732   9.642 -0.6557  0.1896 -0.4523
  226MPD1    C3 3431   1.380   2.849   9.669 -0.2461 -0.1311  0.2649
  226MPD1    C4 3432   1.310   2.963   9.695 -0.3050 -0.1064 -0.5322
  226MPD1    C5 3433   1.179   2.950   9.709 -0.0212  0.3428 -0.0620
  226MPD1     H 3434   1.352   2.641   9.603  2.3713  1.1682  0.6310
  226MPD1    H1 3435   1.352   3.063   9.705  0.9409 -0.6068 -0.7373
  226MPD1    H2 3436   0.999   2.845   9.696 -0.7577 -0.8339  0.2779
  226MPD1    H3 3437   1.120   3.041   9.714  0.6406  0.8075 -0.7782
  226MPD1     N 3438   1.519   2.853   9.644 -0.0123  0.4579  0.0905
  226MPD1    H5 3439   1.563   2.763   9.630 -1.0204 -0.1430  0.7879
  226MPD1    N1 3440   1.099   2.620   9.612  0.4142  0.5117  0.2303
  226MPD1    H6 3441   1.135   2.530   9.643 -0.5521 -0.4461 -1.4618
  226MPD1    H7 3442   1.008   2.622   9.658  0.1358  0.7474 -0.3308
  227MPD1     C 3443   1.969   2.160   9.575  0.3695 -0.1553 -0.0442
  227MPD1    C1 3444   2.072   2.235   9.532 -0.4783 -0.1354  0.8483
  227MPD1    C2 3445   2.064   2.371   9.548 -0.0493  0.3528  0.0164
  227MPD1    C3 3446   1.948   2.430   9.604 -0.6529 -0.0140  0.8635
  227MPD1    C4 3447   1.855   2.345   9.655 -0.7458  0.4995 -0.8053
  227MPD1    C5 3448   1.869   2.210   9.652 -0.2861 -0.0243 -0.1633
  227MPD1     H 3449   2.143   2.434   9.512 -0.4519 -0.1971 -1.8348
  227MPD1    H1 3450   1.771   2.395   9.702  0.1825  2.2844 -1.0540
  227MPD1    H2 3451   1.974   2.053   9.556  1.2699 -0.1107 -0.0650
  227MPD1    H3 3452   1.793   2.148   9.698 -0.3072 -0.3490 -0.6376
  227MPD1     N 3453   1.914   2.569   9.614  0.4034  0.1446 -0.1799
  227MPD1    H5 3454   1.828   2.590   9.663  0.6844  0.9896 -0.0643
  227MPD1    N1 3455   2.171   2.171   9.453 -0.1436 -0.2448  0.0975
  227MPD1    H6 3456   2.259   2.220   9.436  1.6954 -2.5175  3.0338
  227MPD1    H7 3457   2.195   2.073   9.463 -1.5199 -0.5990 -0.1284
  228MPD1     C 3458   0.421   1.542  12.879 -0.5539  0.0072  0.1266
  228MPD1    C1 3459   0.291   1.575  12.914 -0.5438 -0.4619 -0.2499
  228MPD1    C2 3460   0.194   1.477  12.894  0.4961  0.0749  0.5977
  228MPD1    C3 3461   0.230   1.356  12.832 -0.2262 -0.7106  0.3291
  228MPD1    C4 3462   0.360   1.329  12.798 -0.1851  0.4678  0.4086
  228MPD1    C5 3463   0.452   1.426  12.819  0.0006 -0.6874 -0.0903
  228MPD1     H 3464   0.091   1.490  12.925 -0.1139  1.4334 -1.9945
  228MPD1    H1 3465   0.385   1.259  12.719 -1.2955 -0.4849  0.8973
  228MPD1    H2 3466   0.497   1.619  12.890  0.1282 -0.5249 -0.8093
  228MPD1    H3 3467   0.554   1.406  12.788  0.2512 -1.5036  1.2929
  228MPD1     N 3468   0.130   1.260  12.799  0.2420 -0.1400 -0.0032
  228MPD1    H5 3469   0.033   1.288  12.803  0.3870  0.0892  1.7097
  228MPD1    N1 3470   0.272   1.677  13.002 -0.7879 -0.3194  0.0717
  228MPD1    H6 3471   0.330   1.760  12.997 -3.3790  1.3057 -2.8618
  228MPD1    H7 3472   0.175   1.708  12.994 -1.0645 -1.2084 -0.0528
  229MPD1     C 3473   3.976   4.630  15.552 -0.4835 -0.4555 -0.3054
  229MPD1    C1 3474   3.974   4.688  15.680  0.1022 -0.1000  0.2614
  229MPD1    C2 3475   4.072   4.644  15.774 -0.4707  0.0639 -0.0110
  229MPD1    C3 3476   4.153   4.538  15.748 -0.9456 -0.3495  0.5033
  229MPD1    C4 3477   4.151   4.487  15.622  0.3481  1.0487  0.3702
  229MPD1    C5 3478   4.068   4.539  15.526 -0.2600  0.7438 -0.4642
  229MPD1     H 3479   4.084   4.701  15.865 -0.1943 -1.0052  0.6281
  229MPD1    H1 3480   4.215   4.406  15.588  1.3713  1.1111  2.1116
  229MPD1    H2 3481   3.905   4.656  15.474 -0.0894 -0.2626 -0.5986
  229MPD1    H3 3482   4.067   4.483  15.433 -1.1387 -1.6043  0.9636
  229MPD1     N 3483   4.242   4.471  15.839 -0.2230 -0.0426  0.1431
  229MPD1    H5 3484   4.274   4.378  15.812  2.1230  1.8654 -3.6080
  229MPD1    N1 3485   3.900   0.086  15.699  0.6641 -0.1289  0.1028
  229MPD1    H6 3486   3.864   0.090  15.795 -0.9691 -1.3827 -0.4592
  229MPD1    H7 3487   3.837   0.118  15.626  0.7360 -0.3249 -0.0461
  230MPD1     C 3488   4.347   4.157  16.885 -0.2054 -0.5950 -0.1409
  230MPD1    C1 3489   4.369   4.053  16.795  0.3606 -0.1187 -0.0429
  230MPD1    C2 3490   4.374   4.077  16.658 -0.6288 -0.2325  0.2885
  230MPD1    C3 3491   4.357   4.208  16.609 -0.7200  0.1643 -0.1848
  230MPD1    C4 3492   4.335   4.307  16.702 -0.4364  0.6066  0.2210
  230MPD1    C5 3493   4.315   4.283  16.835 -0.1556  0.2137  0.1531
  230MPD1     H 3494   4.391   3.999  16.585  0.8318  1.0466 -0.7471
  230MPD1    H1 3495   4.296   4.402  16.666 -1.7747  0.9337  2.5203
  230MPD1    H2 3496   4.351   4.148  16.993 -0.6496  0.9896  0.0120
  230MPD1    H3 3497   4.284   4.368  16.895  0.9383  0.8040 -0.1158
  230MPD1     N 3498   4.356   4.227  16.466  0.2248 -0.1873 -0.0936
  230MPD1    H5 3499   4.370   4.148  16.404 -1.2294 -1.8855  1.7198
  230MPD1    N1 3500   4.408   3.928  16.841  0.3965 -0.7725 -0.1893
  230MPD1    H6 3501   4.355   3.859  16.788  0.3681 -0.4777 -0.5421
  230MPD1    H7 3502   4.381   3.920  16.939  1.2145  1.0811  0.1810
  231MPD1     C 3503   2.546   1.462  15.977 -0.8397 -0.2716 -0.1448
  231MPD1    C1 3504   2.491   1.455  15.853  0.0635  0.0513 -0.1702
  231MPD1    C2 3505   2.565   1.507  15.748  0.4492 -0.2723  0.8420
  231MPD1    C3 3506   2.686   1.573  15.757 -0.0709 -0.8081  0.5344
  231MPD1    C4 3507   2.747   1.571  15.879 -0.0187 -0.0956  0.0613
  231MPD1    C5 3508   2.676   1.513  15.982  0.2128 -0.1092  0.3500
  231MPD1     H 3509   2.527   1.506  15.646  0.4956 -1.4886  0.8452
  231MPD1    H1 3510   2.851   1.601  15.883 -0.3356  0.5684  2.9379
  231MPD1    H2 3511   2.498   1.421  16.065  0.7622 -0.0245  0.8575
  231MPD1    H3 3512   2.717   1.502  16.082 -1.5943 -2.6109  0.8139
  231MPD1     N 3513   2.738   1.629  15.640 -0.3253  0.3918 -0.3399
  231MPD1    H5 3514   2.684   1.626  15.554 -0.0040  0.1250 -0.5296
  231MPD1    N1 3515   2.374   1.385  15.821  0.1770  0.5808  0.3646
  231MPD1    H6 3516   2.319   1.419  15.743 -0.3283 -1.6933 -0.2476
  231MPD1    H7 3517   2.309   1.387  15.899 -0.5790  0.1249 -0.2571
  232MPD1     C 3518   4.218   2.996   0.601 -0.4024 -0.1124 -0.6277
  232MPD1    C1 3519   4.093   3.004   0.662  0.2983 -0.6344  0.9061
  232MPD1    C2 3520   4.007   3.106   0.631 -0.7626  0.3096  0.3305
  232MPD1    C3 3521   4.043   3.213   0.551  0.2748 -0.3778 -0.0096
  232MPD1    C4 3522   4.167   3.211   0.495  0.0762  0.5087  0.6871
  232MPD1    C5 3523   4.254   3.100   0.521  0.0380 -0.0453 -0.3102
  232MPD1     H 3524   3.903   3.104   0.662 -1.1464  1.5075 -0.9003
  232MPD1    H1 3525   4.197   3.289   0.426 -0.4624  0.8045  0.7813
  232MPD1    H2 3526   4.293   2.920   0.619  0.9520  1.0896 -1.1261
  232MPD1    H3 3527   4.354   3.102   0.480 -0.5570 -2.0237 -1.8350
  232MPD1     N 3528   3.938   3.316   0.522  0.4889 -0.7325 -0.1573
  232MPD1    H5 3529   3.857   3.302   0.582  0.3672  0.1753 -0.1030
  232MPD1    N1 3530   4.051   2.907   0.744  0.1791 -0.1058  0.2279
  232MPD1    H6 3531   4.111   2.828   0.763  0.1490 -0.4078 -0.9135
  232MPD1    H7 3532   3.989   2.941   0.817  0.2345 -1.6094  0.9663
  233MPD1     C 3533   1.108   2.585   1.031  0.2563  1.4778  0.3509
  233MPD1    C1 3534   0.973   2.595   1.063  0.4679 -0.2137 -0.8846
  233MPD1    C2 3535   0.944   2.538   1.185 -0.1117 -0.0025  0.3855
  233MPD1    C3 3536   1.034   2.474   1.266  0.0543 -0.0989 -0.4143
  233MPD1    C4 3537   1.165   2.474   1.229  0.0545  0.9825 -0.0914
  233MPD1    C5 3538   1.201   2.537   1.117  0.0176  0.1688 -0.8636
  233MPD1     H 3539   0.839   2.541   1.212 -0.3275 -0.5729 -0.3903
  233MPD1    H1 3540   1.243   2.436   1.294  0.6311  3.0012  0.4120
  233MPD1    H2 3541   1.139   2.619   0.933 -1.2911  1.0203 -0.3084
  233MPD1    H3 3542   1.305   2.545   1.086 -0.2003  1.8039 -1.1965
  233MPD1     N 3543   1.000   2.397   1.377 -0.6239  0.6250 -0.1877
  233MPD1    H5 3544   1.075   2.350   1.425  1.9776  3.0380 -1.9302
  233MPD1    N1 3545   0.877   2.635   0.977  0.8576 -0.1509  0.9081
  233MPD1    H6 3546   0.796   2.665   1.031 -0.9034 -0.7213 -1.3880
  233MPD1    H7 3547   0.910   2.707   0.913  1.1821 -1.1150 -0.0127
  234MPD1     C 3548   2.577   0.602  10.735  0.1078 -0.7116 -0.4437
  234MPD1    C1 3549   2.617   0.734  10.729 -0.2781  0.0722  0.1884
  234MPD1    C2 3550   2.585   0.813  10.617  0.2073 -0.0084  0.2364
  234MPD1    C3 3551   2.510   0.763  10.514 -0.2196  0.6302  0.0182
  234MPD1    C4 3552   2.463   0.638  10.526 -0.1074 -0.0582 -0.2306
  234MPD1    C5 3553   2.501   0.559  10.633 -0.1999 -0.1370  0.1876
  234MPD1     H 3554   2.615   0.917  10.613 -0.6700  0.2316 -0.0649
  234MPD1    H1 3555   2.404   0.589  10.449  0.4651  0.9011 -1.2678
  234MPD1    H2 3556   2.589   0.534  10.818 -0.2790 -1.4139 -0.9584
  234MPD1    H3 3557   2.474   0.454  10.625 -1.2073  0.3821 -3.5176
  234MPD1     N 3558   2.503   0.833  10.388  0.1282 -0.0628 -0.3484
  234MPD1    H5 3559   2.551   0.922  10.380  0.2951 -0.1117  0.1197
  234MPD1    N1 3560   2.689   0.784  10.845  0.2686  0.1355  0.7114
  234MPD1    H6 3561   2.648   0.868  10.883  1.5193  1.4370 -0.8236
  234MPD1    H7 3562   2.703   0.716  10.919  2.6861  1.8392  1.8019
  235MPD1     C 3563   4.176   4.358  11.604  0.0481  0.1018 -0.0819
  235MPD1    C1 3564   4.183   4.445  11.496 -0.6618  0.3497  0.5170
  235MPD1    C2 3565   4.171   4.374  11.376 -0.1149 -0.5952  0.1644
  235MPD1    C3 3566   4.176   4.237  11.356 -0.4276 -0.2050  0.3491
  235MPD1    C4 3567   4.195   4.155  11.472 -0.6613  0.5792  1.1378
  235MPD1    C5 3568   4.186   4.222  11.595 -0.3766 -0.4010  0.0050
  235MPD1     H 3569   4.183   4.429  11.283 -1.7048 -0.9380 -0.2407
  235MPD1    H1 3570   4.214   4.049  11.463  1.5509  1.2188 -1.5978
  235MPD1    H2 3571   4.177   4.399  11.704 -0.7226  0.7935 -0.3556
  235MPD1    H3 3572   4.171   4.157  11.680 -1.5290  1.6208  1.3230
  235MPD1     N 3573   4.148   4.185  11.229  0.3262 -0.0490  0.1787
  235MPD1    H5 3574   4.113   4.251  11.161 -1.8800 -0.7597  0.6196
  235MPD1    N1 3575   4.170   4.580  11.506  0.2950  0.2447  0.5351
  235MPD1    H6 3576   4.240   4.621  11.567  0.8665  0.2281 -0.1083
  235MPD1    H7 3577   4.182   4.616  11.411 -0.3052  0.5085  0.5574
  236MPD1     C 3578   2.724   0.374  10.341 -0.3696 -0.5750 -0.0793
  236MPD1    C1 3579   2.795   0.260  10.382  0.0184  0.0141  0.6397
  236MPD1    C2 3580   2.896   0.275  10.474  0.1329 -0.2167 -0.1265
  236MPD1    C3 3581   2.917   0.392  10.548  0.1767  0.4309  0.0491
  236MPD1    C4 3582   2.856   0.504  10.503 -0.6173  0.2776  0.2263
  236MPD1    C5 3583   2.759   0.492  10.404 -0.0695  0.9095 -0.9105
  236MPD1     H 3584   2.939   0.181  10.507 -0.3689 -0.5217 -0.3458
  236MPD1    H1 3585   2.872   0.605  10.541  0.5929  0.1218  0.1084
  236MPD1    H2 3586   2.655   0.379  10.258 -0.1518 -0.7338 -0.2656
  236MPD1    H3 3587   2.706   0.581  10.373 -0.2079  1.5717  1.1980
  236MPD1     N 3588   2.998   0.407  10.664  0.8438 -0.2730 -0.2530
  236MPD1    H5 3589   3.019   0.493  10.713 -0.8993  0.0359 -0.0529
  236MPD1    N1 3590   2.781   0.145  10.309  0.4013 -0.1095  0.4329
  236MPD1    H6 3591   2.827   0.074  10.365 -2.0599 -0.6113  1.8269
  236MPD1    H7 3592   2.686   0.112  10.290  0.3543 -0.1031  0.6530
  237MPD1     C 3593   3.020   3.388  15.648 -0.6146 -0.0487  0.3531
  237MPD1    C1 3594   2.905   3.367  15.720  0.6617 -0.3351 -0.8734
  237MPD1    C2 3595   2.839   3.251  15.704 -0.0729 -0.6032 -0.7037
  237MPD1    C3 3596   2.867   3.158  15.607  0.1321 -0.5423 -0.8953
  237MPD1    C4 3597   2.988   3.180  15.542  0.1254  0.2643 -0.0620
  237MPD1    C5 3598   3.058   3.293  15.560 -0.2583  0.0562  0.4387
  237MPD1     H 3599   2.749   3.233  15.762 -0.0848 -1.3562 -0.9489
  237MPD1    H1 3600   3.022   3.105  15.471  1.9766 -0.3400  1.4520
  237MPD1    H2 3601   3.091   3.468  15.665 -1.4308  0.8338 -0.3226
  237MPD1    H3 3602   3.158   3.298  15.517 -0.5768  0.1843 -0.2928
  237MPD1     N 3603   2.792   3.036  15.580  0.5357 -0.0551 -0.1983
  237MPD1    H5 3604   2.832   2.972  15.512 -0.7733  0.3298 -1.3444
  237MPD1    N1 3605   2.875   3.447  15.835  0.2654  0.5761 -0.0917
  237MPD1    H6 3606   2.779   3.436  15.867  0.4311  0.0505  0.2182
  237MPD1    H7 3607   2.916   3.540  15.839 -1.6634  1.5563 -3.4242
  238MPD1     C 3608   0.526   1.948  15.139 -0.1449  0.1234  0.5526
  238MPD1    C1 3609   0.431   1.898  15.226 -0.1911  0.1004 -0.5750
  238MPD1    C2 3610   0.333   1.815  15.178 -0.6149 -0.3073  0.0830
  238MPD1    C3 3611   0.298   1.821  15.044  0.1949 -0.0817  0.0578
  238MPD1    C4 3612   0.374   1.898  14.956 -0.2273 -0.2167  0.1794
  238MPD1    C5 3613   0.489   1.955  15.008 -0.7508 -0.2746 -0.3386
  238MPD1     H 3614   0.276   1.754  15.247  1.7118 -3.0708 -0.4159
  238MPD1    H1 3615   0.361   1.896  14.849 -0.2445 -2.0696  0.2160
  238MPD1    H2 3616   0.617   1.998  15.171  0.2226  0.3623 -0.8655
  238MPD1    H3 3617   0.560   2.010  14.948 -0.8276 -0.5057 -0.6427
  238MPD1     N 3618   0.195   1.740  14.987 -1.0840  0.1442 -0.0909
  238MPD1    H5 3619   0.178   1.739  14.887  3.3981  1.9367 -0.8499
  238MPD1    N1 3620   0.461   1.906  15.362  0.4602 -0.1579 -0.3168
  238MPD1    H6 3621   0.384   1.911  15.429  0.9679  1.1321  0.1735
  238MPD1    H7 3622   0.530   1.976  15.388  1.3864 -0.7926 -1.0855
  239MPD1     C 3623   4.475   2.508  14.974  0.3467 -0.9041  0.2667
  239MPD1    C1 3624   4.600   2.558  14.937 -0.7353  0.5009  0.2945
  239MPD1    C2 3625   4.608   2.637  14.820  0.0652  0.2098 -0.5466
  239MPD1    C3 3626   4.489   2.647  14.739  0.1635  0.4030  0.4787
  239MPD1    C4 3627   4.373   2.590  14.774 -0.3949 -0.4607 -0.3085
  239MPD1    C5 3628   4.366   2.524  14.889  0.4637  0.3366 -0.3864
  239MPD1     H 3629   4.703   2.679  14.789 -0.0902  1.5703  0.7900
  239MPD1    H1 3630   4.280   2.610  14.721  0.3104 -0.5066 -1.5496
  239MPD1    H2 3631   4.458   2.440  15.057  1.1012 -0.8597  0.4591
  239MPD1    H3 3632   4.269   2.487  14.921 -0.2417  0.9521 -1.8413
  239MPD1     N 3633   4.489   2.704  14.608  0.4190 -0.3561  0.4642
  239MPD1    H5 3634   4.402   2.702  14.555  0.3230  1.1168  0.5456
  239MPD1    N1 3635   4.711   2.545  15.018 -0.1540  0.9043  0.1567
  239MPD1    H6 3636   0.078   2.540  14.972  0.6772  0.7988  1.8006
  239MPD1    H7 3637   4.714   2.462  15.077  0.1124 -0.0151 -1.1420
  240MPD1     C 3638   3.998   2.493  14.032 -0.6972 -0.1898  0.8786
  240MPD1    C1 3639   4.049   2.367  14.041 -0.1501 -0.2820  0.4918
  240MPD1    C2 3640   4.038   2.303  14.161 -0.0864  0.1538 -0.1303
  240MPD1    C3 3641   3.990   2.363  14.277 -0.4770 -0.5592  0.4176
  240MPD1    C4 3642   3.950   2.499  14.272 -0.2906 -0.0189  0.3910
  240MPD1    C5 3643   3.953   2.561  14.145 -0.5668  0.8173  0.0040
  240MPD1     H 3644   4.079   2.203  14.172  0.5935  0.3172 -1.1774
  240MPD1    H1 3645   3.917   2.562  14.354 -1.9771 -0.0967 -0.2274
  240MPD1    H2 3646   3.989   2.551  13.941 -1.5049 -3.0376 -0.8485
  240MPD1    H3 3647   3.918   2.663  14.134  2.9583  2.2803  2.6173
  240MPD1     N 3648   3.998   2.295  14.402 -0.2484  0.0745  0.3468
  240MPD1    H5 3649   3.993   2.194  14.392 -3.6329  0.5291 -2.5775
  240MPD1    N1 3650   4.095   2.305  13.921 -0.2311 -0.6514 -0.3521
  240MPD1    H6 3651   4.166   2.231  13.926  0.0238 -0.4869 -1.4535
  240MPD1    H7 3652   4.124   2.380  13.859  1.6559 -0.8577  0.2790
  241MPD1     C 3653   4.515   1.793  15.157  0.2026 -0.5156  0.4320
  241MPD1    C1 3654   4.561   1.901  15.090 -0.4563 -0.2812  0.6373
  241MPD1    C2 3655   4.463   1.964  15.016 -0.3897  0.0540 -0.0450
  241MPD1    C3 3656   4.339   1.904  14.985  0.0925  0.2969  0.2019
  241MPD1    C4 3657   4.311   1.781  15.040  0.3820 -0.3617  0.0469
  241MPD1    C5 3658   4.402   1.726  15.132  0.4832  0.0425  1.0635
  241MPD1     H 3659   4.493   2.058  14.971 -0.6692 -0.6676 -1.7500
  241MPD1    H1 3660   4.215   1.734  15.021  1.9948 -3.4377 -0.4872
  241MPD1    H2 3661   4.578   1.760  15.238 -0.9050 -2.2605  0.5774
  241MPD1    H3 3662   4.381   1.638  15.192  1.5428 -1.8066 -1.2958
  241MPD1     N 3663   4.243   1.971  14.915 -0.0846  0.3532 -0.0952
  241MPD1    H5 3664   4.155   1.920  14.910  0.3450 -0.4233  0.1655
  241MPD1    N1 3665   4.681   1.966  15.125  0.0001 -0.0337  0.5104
  241MPD1    H6 3666   0.003   2.008  15.044  0.3202 -1.2293  0.0711
  241MPD1    H7 3667   0.020   1.904  15.175  0.7730 -0.3296 -0.8344
  242MPD1     C 3668   3.908   0.605  16.200  0.2905  0.2217  0.0401
  242MPD1    C1 3669   3.989   0.500  16.247  0.1301 -0.1837  0.1150
  242MPD1    C2 3670   4.057   0.440  16.147  0.1136  0.3332 -0.6010
  242MPD1    C3 3671   4.056   0.475  16.017 -0.5651  0.0465 -0.1028
  242MPD1    C4 3672   3.973   0.579  15.975 -0.2656 -0.0737  0.3609
  242MPD1    C5 3673   3.896   0.638  16.068  0.5059  0.5652 -0.5945
  242MPD1     H 3674   4.115   0.357  16.185  1.8732  0.6930 -2.5360
  242MPD1    H1 3675   3.975   0.614  15.872  1.3277  0.1522  0.4648
  242MPD1    H2 3676   3.849   0.667  16.266  1.6841  0.5709  0.9692
  242MPD1    H3 3677   3.826   0.714  16.035  0.7756  1.5542  1.0886
  242MPD1     N 3678   4.119   0.397  15.917  0.0079  0.8554 -1.0426
  242MPD1    H5 3679   4.107   0.438  15.825  1.6452 -1.0379 -2.1123
  242MPD1    N1 3680   4.009   0.472  16.387 -0.3121  0.3079  0.1618
  242MPD1    H6 3681   4.108   0.479  16.407 -0.5109  1.6446  0.7127
  242MPD1    H7 3682   3.961   0.534  16.452  0.9767  3.3627 -1.7625
  243MPD1     C 3683   1.651   4.670  17.312 -0.4028  0.0531 -0.0595
  243MPD1    C1 3684   1.523   4.620  17.299 -0.0060 -0.1109  0.2929
  243MPD1    C2 3685   1.488   4.513  17.382  0.2057 -0.9305  0.4552
  243MPD1    C3 3686   1.575   4.442  17.461 -0.4404 -0.6353 -0.1039
  243MPD1    C4 3687   1.708   4.485  17.459  0.5956 -0.0424  0.4680
  243MPD1    C5 3688   1.743   4.594  17.385  0.0766 -0.0499  0.4093
  243MPD1     H 3689   1.386   4.477  17.371  0.3590 -1.2304 -0.0081
  243MPD1    H1 3690   1.787   4.442  17.519  0.6226 -1.6376 -0.7037
  243MPD1    H2 3691   1.695   0.031  17.262  1.7579 -0.2692  1.2849
  243MPD1    H3 3692   1.845   4.629  17.380 -0.1998  0.5031 -1.6300
  243MPD1     N 3693   1.533   4.329  17.535  0.4231  0.5304  0.3519
  243MPD1    H5 3694   1.435   4.304  17.541  0.9511 -1.4131  0.9088
  243MPD1    N1 3695   1.424   4.694  17.236  0.5844  0.0801  0.4314
  243MPD1    H6 3696   1.345   4.639  17.205  1.3309 -0.2795 -0.8424
  243MPD1    H7 3697   1.443   0.031  17.156  0.5301  0.5509  0.7777
  244MPD1     C 3698   2.020   3.880   0.568 -0.5801 -0.1283 -0.0316
  244MPD1    C1 3699   2.035   3.994   0.480 -0.5124  0.2359 -0.0072
  244MPD1    C2 3700   1.942   4.004   0.378 -0.3059  0.5183 -0.5661
  244MPD1    C3 3701   1.848   3.913   0.353  0.6457  0.8262 -0.2021
  244MPD1    C4 3702   1.838   3.809   0.442 -0.3260  0.1099 -0.0638
  244MPD1    C5 3703   1.925   3.790   0.541 -0.4787 -0.4528  0.5832
  244MPD1     H 3704   1.949   4.090   0.311  0.0856  1.0441  0.1520
  244MPD1    H1 3705   1.760   3.735   0.427  0.5887 -0.7709 -0.4178
  244MPD1    H2 3706   2.091   3.847   0.643  0.8715 -1.4942 -1.9972
  244MPD1    H3 3707   1.928   3.694   0.590  0.0580 -0.6128  0.2389
  244MPD1     N 3708   1.761   3.939   0.253 -0.4608  0.0459  0.6389
  244MPD1    H5 3709   1.780   4.031   0.216 -1.4750 -0.4377 -1.0776
  244MPD1    N1 3710   2.125   4.096   0.508 -0.3057  0.6228  0.0237
  244MPD1    H6 3711   2.111   4.173   0.443 -1.0571 -1.2165 -1.9853
  244MPD1    H7 3712   2.115   4.133   0.603  0.0424 -1.2287  0.7806
  245MPD1     C 3713   2.524   4.050  13.666 -0.7063 -0.1753  0.0549
  245MPD1    C1 3714   2.446   4.068  13.779 -0.3566 -0.3845  0.5419
  245MPD1    C2 3715   2.428   4.193  13.835  0.0770 -0.1727  0.3378
  245MPD1    C3 3716   2.491   4.305  13.772  0.4604  0.3670 -0.2846
  245MPD1    C4 3717   2.559   4.289  13.652 -0.4496 -0.9687  0.0432
  245MPD1    C5 3718   2.575   4.160  13.602 -0.4619  1.0848  0.4295
  245MPD1     H 3719   2.377   4.197  13.930 -0.9864  0.2360 -0.2497
  245MPD1    H1 3720   2.588   4.372  13.589 -2.8842  1.0718  1.5614
  245MPD1    H2 3721   2.551   3.951  13.632 -0.8847 -0.4553  0.7408
  245MPD1    H3 3722   2.628   4.139  13.510  0.8156  0.3762  1.3323
  245MPD1     N 3723   2.453   4.430  13.818  0.2768 -0.4285 -0.2014
  245MPD1    H5 3724   2.394   4.432  13.900  2.3582 -1.7300  1.3136
  245MPD1    N1 3725   2.418   3.952  13.848 -0.0420  0.1723 -0.3749
  245MPD1    H6 3726   2.397   3.890  13.770  0.1234 -0.2350 -0.0951
  245MPD1    H7 3727   2.341   3.953  13.914  0.7771 -1.3839  0.6028
  246MPD1     C 3728   4.373   1.324   9.116 -0.9126 -0.6970 -0.2122
  246MPD1    C1 3729   4.241   1.284   9.129 -0.3525 -0.6556 -0.9882
  246MPD1    C2 3730   4.214   1.162   9.190  0.1758  0.7937 -0.4369
  246MPD1    C3 3731   4.309   1.087   9.249  0.1696  0.0900 -0.1978
  246MPD1    C4 3732   4.439   1.133   9.241 -0.7614 -0.1555  0.3898
  246MPD1    C5 3733   4.469   1.252   9.174 -1.0346  0.6650 -0.9740
  246MPD1     H 3734   4.109   1.135   9.187  1.2695 -3.3727 -0.7687
  246MPD1    H1 3735   4.524   1.072   9.269  0.2256  1.4843  0.9979
  246MPD1    H2 3736   4.403   1.416   9.068  2.0010 -1.5104 -0.0060
  246MPD1    H3 3737   4.572   1.287   9.180 -1.1210  0.7700  0.0121
  246MPD1     N 3738   4.266   0.965   9.310  0.3525  0.6182  0.1091
  246MPD1    H5 3739   4.168   0.940   9.308  0.5168 -0.2126  1.7239
  246MPD1    N1 3740   4.140   1.347   9.057  0.1601  0.2622 -0.0353
  246MPD1    H6 3741   4.052   1.332   9.106  0.6068 -0.4457  0.5513
  246MPD1    H7 3742   4.152   1.446   9.033 -0.2855  0.6149  1.1883
  247MPD1     C 3743   1.677   3.513  15.752 -0.2959  0.0893  0.0675
  247MPD1    C1 3744   1.646   3.493  15.884 -0.1129  0.1922 -0.3002
  247MPD1    C2 3745   1.728   3.539  15.989  0.2579  0.0312 -0.2375
  247MPD1    C3 3746   1.852   3.597  15.962  0.2591 -0.3435  0.5557
  247MPD1    C4 3747   1.877   3.618  15.829  0.3048 -0.4040 -0.0824
  247MPD1    C5 3748   1.796   3.582  15.725 -0.6376 -0.3606 -0.4789
  247MPD1     H 3749   1.696   3.531  16.092  2.6920 -0.0094  0.5083
  247MPD1    H1 3750   1.969   3.674  15.815  0.2555 -0.4366 -0.5250
  247MPD1    H2 3751   1.607   3.497  15.671  0.7257 -1.1917 -0.5716
  247MPD1    H3 3752   1.825   3.609  15.624  1.2146  1.3477  0.5198
  247MPD1     N 3753   1.937   3.654  16.065  0.2159 -0.8385  0.1705
  247MPD1    H5 3754   2.029   3.680  16.030  0.4950 -2.1605 -0.0480
  247MPD1    N1 3755   1.514   3.442  15.915 -0.3639 -0.1231  0.5610
  247MPD1    H6 3756   1.470   3.389  15.840  1.0177  0.8749 -0.9633
  247MPD1    H7 3757   1.517   3.390  16.002 -1.4996 -2.6268 -0.8941
  248MPD1     C 3758   2.625   4.319   1.275 -0.4160  0.0264  0.2534
  248MPD1    C1 3759   2.610   4.449   1.312  0.1864 -0.9453  0.3402
  248MPD1    C2 3760   2.549   4.536   1.224  1.0238 -0.6363 -0.7578
  248MPD1    C3 3761   2.484   4.481   1.114  0.1930  0.0353 -1.0861
  248MPD1    C4 3762   2.482   4.348   1.084  0.1871 -0.2471 -0.4852
  248MPD1    C5 3763   2.548   4.265   1.171 -0.9917  0.0589 -0.0488
  248MPD1     H 3764   2.562   4.643   1.233 -1.0316 -0.3195 -1.4721
  248MPD1    H1 3765   2.437   4.290   1.004 -1.2835  1.4311 -0.8718
  248MPD1    H2 3766   2.681   4.249   1.336 -0.7239 -0.1945  0.2863
  248MPD1    H3 3767   2.557   4.159   1.148  1.9943 -0.0522  1.6281
  248MPD1     N 3768   2.409   4.578   1.038 -0.3997 -0.2070  0.0909
  248MPD1    H5 3769   2.395   4.669   1.080 -0.1756 -0.0779 -0.1147
  248MPD1    N1 3770   2.683   4.503   1.418  0.0627 -0.7637  0.3106
  248MPD1    H6 3771   2.632   4.584   1.452  0.6223  0.2721 -1.3363
  248MPD1    H7 3772   2.697   4.436   1.494  0.9137 -0.3902  0.4798
  249MPD1     C 3773   1.530   4.302  10.338  0.2746 -0.1133 -0.0118
  249MPD1    C1 3774   1.515   4.167  10.298  0.5479  0.5808 -0.9168
  249MPD1    C2 3775   1.495   4.066  10.390 -0.9919  0.7586  0.1506
  249MPD1    C3 3776   1.468   4.096  10.519  0.6704  0.4503  0.3049
  249MPD1    C4 3777   1.495   4.227  10.563  0.2159  0.1699 -0.9703
  249MPD1    C5 3778   1.523   4.326  10.472 -0.2642  0.2387  0.0880
  249MPD1     H 3779   1.477   3.962  10.365  0.7704  0.5081 -0.0813
  249MPD1    H1 3780   1.465   4.256  10.664 -1.3958 -0.1228 -1.3657
  249MPD1    H2 3781   1.538   4.384  10.268 -1.6797  0.3630  0.3306
  249MPD1    H3 3782   1.533   4.425  10.515 -0.3786 -0.5593  1.9790
  249MPD1     N 3783   1.425   3.994  10.610  0.1318  0.0916 -0.6013
  249MPD1    H5 3784   1.428   3.896  10.584 -1.0537  0.0876 -0.7264
  249MPD1    N1 3785   1.515   4.141  10.160  0.6404  0.4952  0.4879
  249MPD1    H6 3786   1.494   4.220  10.099  0.1034  0.1485  0.2208
  249MPD1    H7 3787   1.458   4.061  10.133 -1.1940  2.2128 -0.7351
  250MPD2     C 3788   0.641   3.079  13.172  0.4590 -0.6104 -0.1017
  250MPD2    C1 3789   0.637   3.118  13.043  0.0789  0.4591  0.0569
  250MPD2    C2 3790   0.549   3.059  12.957  0.4745  0.1860  0.8489
  250MPD2    C3 3791   0.453   2.966  13.000  0.3602 -0.0700  0.5350
  250MPD2    C4 3792   0.448   2.930  13.135  0.3525 -0.4371  0.0290
  250MPD2    C5 3793   0.544   2.983  13.217  0.5355  0.3520  0.5347
  250MPD2     H 3794   0.554   3.091  12.853  1.2226  0.2008  0.8921
  250MPD2    H1 3795   0.368   2.861  13.161 -0.9488  2.1785  2.9158
  250MPD2    H2 3796   0.712   3.130  13.236  0.4612  2.3187 -2.4389
  250MPD2    H3 3797   0.548   2.959  13.323 -1.6204 -0.8647  0.3276
  250MPD2     N 3798   0.349   2.909  12.923  0.8222 -0.6041 -0.2649
  250MPD2    H5 3799   0.298   2.839  12.975 -0.1345 -0.2101 -0.6862
  250MPD2    N1 3800   0.728   3.223  13.014  0.0539  0.2099 -0.1764
  250MPD2    H7 3801   0.781   3.261  13.092  0.4283 -1.0047  0.1683
  251TMC3    C1 3802   0.853   3.364  12.872  0.0740 -0.2832  0.0878
  251TMC3    C2 3803   0.848   3.459  12.970  0.0429 -1.4427  0.7491
  251TMC3    C3 3804   0.955   3.545  12.983 -0.2140 -1.0369 -0.5471
  251TMC3    C4 3805   0.945   3.356  12.779  0.3819 -0.1519  1.3276
  251TMC3    C5 3806   1.042   3.457  12.775 -0.1614 -0.3525  0.0734
  251TMC3    C6 3807   1.051   3.558  12.876  0.2835 -0.1611 -0.6166
  251TMC3     C 3808   0.769   3.250  12.882 -0.3816  0.8575 -0.5437
  251TMC3     O 3809   0.744   3.192  12.775 -0.0860  0.5085 -0.1201
  251TMC3     H 3810   0.777   3.450  13.051 -0.2125  0.0203  0.6806
  251TMC3    H1 3811   0.955   3.268  12.716 -0.3433  1.7771 -1.4910
  251TMC3    H2 3812   1.130   3.631  12.865 -0.2093  0.6101  1.1373
  251TMC3    C7 3813   1.168   3.416  12.737  0.4614  0.2479 -0.4835
  251TMC3    C8 3814   0.977   3.603  13.117 -0.7967  0.0329 -0.7359
  251TMC3    O1 3815   1.203   3.309  12.784 -0.2314 -0.4194  0.1678
  251TMC3    O2 3816   0.884   3.605  13.190 -0.0230  0.1335 -0.0718
  252TMC3    C1 3817   1.851   4.379   9.252  0.4765 -0.3280 -0.6848
  252TMC3    C2 3818   1.977   4.417   9.294  0.0453 -0.2141 -0.3415
  252TMC3    C3 3819   2.061   4.322   9.347 -0.5783 -0.3334 -0.0350
  252TMC3    C4 3820   1.804   4.253   9.270 -0.0107  0.3835  0.2253
  252TMC3    C5 3821   1.892   4.165   9.341  0.2099  0.1061  0.7205
  252TMC3    C6 3822   2.016   4.196   9.375 -0.4470 -0.0463  0.7449
  252TMC3     C 3823   1.760   4.487   9.220  0.0484  0.0801  0.1865
  252TMC3     O 3824   1.655   4.460   9.163 -0.4426 -0.1407 -0.1290
  252TMC3     H 3825   2.014   4.518   9.280 -0.2052 -0.3088 -1.6624
  252TMC3    H1 3826   1.703   4.229   9.240  0.1617 -1.3699  1.0152
  252TMC3    H2 3827   2.078   4.124   9.427 -1.0634  0.8002  2.6616
  252TMC3    C7 3828   1.843   4.028   9.363 -0.1814 -0.2940  0.0310
  252TMC3    C8 3829   2.179   4.369   9.419 -0.9304 -0.0095 -0.2999
  252TMC3    O1 3830   1.743   4.009   9.289  0.1803 -0.0344 -0.0719
  252TMC3    O2 3831   2.237   4.462   9.362 -0.1506  0.7149 -0.1493
  253MPD2     C 3832   2.107   2.797  15.480 -0.2752 -0.1126  0.3247
  253MPD2    C1 3833   1.973   2.780  15.494 -0.5248 -0.2719  0.0746
  253MPD2    C2 3834   1.914   2.775  15.623 -0.0071 -0.3772 -0.2601
  253MPD2    C3 3835   1.995   2.785  15.734 -0.9797  0.6076 -0.8962
  253MPD2    C4 3836   2.130   2.805  15.724 -0.7373  0.1101 -0.2434
  253MPD2    C5 3837   2.186   2.820  15.599 -0.6322 -0.6940  0.2601
  253MPD2     H 3838   1.808   2.753  15.622  0.0867 -0.8148 -0.5920
  253MPD2    H1 3839   2.186   2.819  15.816  1.5863  0.4649 -1.6999
  253MPD2    H2 3840   2.160   2.791  15.386 -0.7350  1.4927 -0.0394
  253MPD2    H3 3841   2.290   2.850  15.596 -0.2854 -1.9205  0.2533
  253MPD2     N 3842   1.948   2.788  15.868 -0.0635  0.1431  0.4105
  253MPD2    H5 3843   2.019   2.796  15.941  1.1535 -0.9039 -0.6689
  253MPD2    N1 3844   1.884   2.781  15.385 -0.1752 -0.3435  0.1110
  253MPD2    H7 3845   1.784   2.783  15.402 -0.0731  2.0721  0.4828
  254TMC3    C1 3846   1.775   2.791  16.030 -0.3873  0.0078  0.3318
  254TMC3    C2 3847   1.661   2.857  16.059 -0.3548 -0.9013  0.3249
  254TMC3    C3 3848   1.612   2.849  16.190  0.8716 -0.3383  1.0666
  254TMC3    C4 3849   1.854   2.737  16.125  0.3437  0.5387 -0.5349
  254TMC3    C5 3850   1.809   2.739  16.252 -0.3170 -0.1643  0.5169
  254TMC3    C6 3851   1.690   2.799  16.286  0.4606  0.1911 -0.2096
  254TMC3     C 3852   1.811   2.780  15.894 -0.1665  0.0119  0.5134
  254TMC3     O 3853   1.710   2.759  15.829  0.3232  0.4055  0.4167
  254TMC3     H 3854   1.605   2.919  15.990 -1.1909 -0.2554  1.5753
  254TMC3    H1 3855   1.949   2.696  16.095  1.6696  1.9635  1.7369
  254TMC3    H2 3856   1.655   2.783  16.388  0.4129  3.5377  0.3025
  254TMC3    C7 3857   1.901   2.703  16.354  0.9388  0.6630 -0.1420
  254TMC3    C8 3858   1.542   2.965  16.241  0.2386 -0.1892  0.4484
  254TMC3    O1 3859   1.859   2.693  16.468  0.1929  0.1553  0.0166
  254TMC3    O2 3860   1.591   3.010  16.345 -0.0351 -0.3605  0.4393
  255MPD2     C 3861   0.752   1.282  11.319  0.0203  0.7521  0.0232
  255MPD2    C1 3862   0.632   1.309  11.256 -0.3170 -0.3418 -0.2749
  255MPD2    C2 3863   0.558   1.201  11.208 -0.4955 -0.4681  0.0973
  255MPD2    C3 3864   0.600   1.068  11.217 -0.0587  0.8909 -0.0499
  255MPD2    C4 3865   0.714   1.045  11.284 -0.8877  0.1370  0.0561
  255MPD2    C5 3866   0.791   1.153  11.325  0.2211  0.0241  0.2389
  255MPD2     H 3867   0.472   1.211  11.144  0.2303  1.2461 -0.6028
  255MPD2    H1 3868   0.756   0.946  11.299 -2.7004 -0.5729  0.4955
  255MPD2    H2 3869   0.809   1.360  11.367  1.4621  1.4722 -2.8611
  255MPD2    H3 3870   0.885   1.132  11.376 -1.7645 -4.1341  2.1714
  255MPD2     N 3871   0.516   0.968  11.168  0.4859 -0.4487 -0.1697
  255MPD2    H5 3872   0.441   1.003  11.109  0.9516 -1.9087 -1.6266
  255MPD2    N1 3873   0.590   1.441  11.240  0.6011 -0.0104  0.2171
  255MPD2    H7 3874   0.662   1.510  11.260 -0.1000  0.0032  2.6881
  256TMC3    C1 3875   0.444   1.619  11.172 -0.0794 -0.4512  0.7459
  256TMC3    C2 3876   0.554   1.705  11.172  0.4684  0.2423 -0.5960
  256TMC3    C3 3877   0.566   1.790  11.063  0.2922 -0.4166 -0.2438
  256TMC3    C4 3878   0.335   1.648  11.087  0.5555 -0.2659 -0.5041
  256TMC3    C5 3879   0.347   1.745  10.986  0.4419 -0.2075  0.4434
  256TMC3    C6 3880   0.462   1.816  10.977  0.0061  0.2103 -0.4658
  256TMC3     C 3881   0.460   1.482  11.204 -0.5287 -0.2070 -0.4193
  256TMC3     O 3882   0.358   1.414  11.193  0.0351  0.1728  0.0201
  256TMC3     H 3883   0.636   1.693  11.242 -1.0821 -0.7303  1.0702
  256TMC3    H1 3884   0.243   1.591  11.086  0.8008 -0.6752  0.1671
  256TMC3    H2 3885   0.472   1.896  10.904  0.5796 -0.0005 -0.6176
  256TMC3    C7 3886   0.243   1.747  10.891  0.1566  0.3554 -0.3798
  256TMC3    C8 3887   0.691   1.868  11.062  0.2556 -0.2074  0.5137
  256TMC3    O1 3888   0.140   1.682  10.910 -0.2312 -0.3302  0.1799
  256TMC3    O2 3889   0.749   1.885  11.167  0.0282 -0.0851  0.6899
  257MPD2     C 3890   4.330   3.334  13.387  0.5512  0.3851 -0.2110
  257MPD2    C1 3891   4.376   3.252  13.293  0.4024 -0.6887 -0.0616
  257MPD2    C2 3892   4.403   3.125  13.332 -0.1779  0.3935  0.0131
  257MPD2    C3 3893   4.386   3.078  13.457 -0.1206 -0.2197  0.2996
  257MPD2    C4 3894   4.326   3.157  13.549  0.5786 -0.1483  0.4851
  257MPD2    C5 3895   4.297   3.288  13.512 -0.1811  0.3950  0.2656
  257MPD2     H 3896   4.444   3.053  13.263  0.1504 -0.0246  0.6470
  257MPD2    H1 3897   4.314   3.130  13.653 -1.3537  0.6552  0.4602
  257MPD2    H2 3898   4.284   3.430  13.368  1.4158  1.0296  0.8987
  257MPD2    H3 3899   4.237   3.349  13.579 -1.7838 -1.5415  0.6050
  257MPD2     N 3900   4.429   2.945  13.483  0.6680  0.2266  0.1535
  257MPD2    H5 3901   4.478   2.900  13.407  3.3043 -1.0677  2.5971
  257MPD2    N1 3902   4.391   3.300  13.160  0.3959 -0.0953  0.6957
  257MPD2    H7 3903   4.361   3.396  13.146  0.1986 -0.4258 -1.2106
  258TMC3    C1 3904   4.487   2.737  13.582 -0.5204  0.5290  0.1685
  258TMC3    C2 3905   4.559   2.702  13.469  0.1524 -0.2942 -0.2051
  258TMC3    C3 3906   4.618   2.580  13.472 -0.9023 -0.1723  0.6491
  258TMC3    C4 3907   4.497   2.663  13.691 -0.2198  0.6187 -0.0387
  258TMC3    C5 3908   4.543   2.537  13.681  0.0558  0.1282  0.2051
  258TMC3    C6 3909   4.612   2.491  13.572  0.4166 -0.9116 -0.0613
  258TMC3     C 3910   4.424   2.870  13.599  0.2185  0.7542  0.1828
  258TMC3     O 3911   4.356   2.897  13.697 -0.1047 -0.2520 -0.3230
  258TMC3     H 3912   4.587   2.772  13.391  1.4236 -0.0598  0.4678
  258TMC3    H1 3913   4.445   2.701  13.779 -0.3755  1.3294 -0.4340
  258TMC3    H2 3914   4.663   2.395  13.570  2.4466  0.1522  0.7306
  258TMC3    C7 3915   4.569   2.463  13.801 -0.4043 -0.8782  0.5655
  258TMC3    C8 3916   4.683   2.527  13.353  0.4997 -0.4300  0.2340
  258TMC3    O1 3917   4.681   2.411  13.807 -0.5803 -0.7745  0.3195
  258TMC3    O2 3918   0.047   2.448  13.366 -0.1807  0.2223  0.1013
  259MPD2     C 3919   2.979   4.600   1.061  0.2519  0.4679 -0.1359
  259MPD2    C1 3920   3.078   4.700   1.080  0.0114  0.3760  0.4989
  259MPD2    C2 3921   3.166   0.004   0.969 -0.1125  0.1832 -0.5008
  259MPD2    C3 3922   3.161   4.657   0.851 -0.4231  0.0720  0.3025
  259MPD2    C4 3923   3.063   4.562   0.846  0.1327  0.7265  0.1358
  259MPD2    C5 3924   2.979   4.537   0.945  0.1028  0.8291  0.3220
  259MPD2     H 3925   3.234   0.088   0.966 -2.4290  2.0868 -0.2118
  259MPD2    H1 3926   3.050   4.497   0.760  1.5141 -0.6553  1.0007
  259MPD2    H2 3927   2.911   4.569   1.139  1.0594  0.1807  0.4447
  259MPD2    H3 3928   2.912   4.453   0.933  0.0653  0.9909 -0.6232
  259MPD2     N 3929   3.258   4.691   0.753 -0.0143 -0.2543  0.1632
  259MPD2    H5 3930   3.338   0.027   0.769  0.2974 -0.5188 -0.4269
  259MPD2    N1 3931   3.092   0.034   1.213  0.0816  0.0264  0.5632
  259MPD2    H7 3932   3.013   0.013   1.273  0.4495  0.5695  1.2296
  260TMC3    C1 3933   3.348   4.688   0.539 -0.1357 -0.0086  0.4835
  260TMC3    C2 3934   3.462   4.630   0.584  0.1233  0.1514  0.0567
  260TMC3    C3 3935   3.537   4.556   0.496  0.3570  0.0798  0.1953
  260TMC3    C4 3936   3.314   4.678   0.405 -0.5388  0.0739  0.1337
  260TMC3    C5 3937   3.398   4.603   0.320 -0.1232 -0.5415 -0.7226
  260TMC3    C6 3938   3.509   4.538   0.365 -0.6451  0.3782 -0.0125
  260TMC3     C 3939   3.226   4.677   0.624 -0.0564 -0.0247 -0.1398
  260TMC3     O 3940   3.127   4.633   0.566 -0.2471 -0.6953  0.4843
  260TMC3     H 3941   3.491   4.632   0.689 -2.5724  1.7468  0.7688
  260TMC3    H1 3942   3.228   0.010   0.370 -0.0895  1.2940  1.0005
  260TMC3    H2 3943   3.580   4.479   0.308 -0.1477  0.2853  0.7000
  260TMC3    C7 3944   3.358   4.579   0.181  0.4234  0.4357 -0.3849
  260TMC3    C8 3945   3.652   4.490   0.554  0.4274 -0.3623 -0.2126
  260TMC3    O1 3946   3.282   4.655   0.123 -0.1996 -0.0855 -0.5789
  260TMC3    O2 3947   3.736   4.552   0.618 -0.2547  0.2483  0.3828
  261MPD2     C 3948   0.501   2.715  12.207 -0.1333 -0.2829  0.3305
  261MPD2    C1 3949   0.486   2.824  12.292  1.2986  0.7637  0.0255
  261MPD2    C2 3950   0.571   2.932  12.272 -0.3979 -0.0180  0.5765
  261MPD2    C3 3951   0.661   2.929  12.176 -0.3006  0.7317  0.2482
  261MPD2    C4 3952   0.694   2.811  12.114 -0.8051  0.2050 -0.5884
  261MPD2    C5 3953   0.605   2.709  12.125  0.3975  0.2500 -0.2454
  261MPD2     H 3954   0.563   3.018  12.337 -0.1376  0.7206 -0.3581
  261MPD2    H1 3955   0.779   2.804  12.048  0.1311 -0.3123  0.6541
  261MPD2    H2 3956   0.430   2.634  12.193  1.0696 -1.2134 -0.3871
  261MPD2    H3 3957   0.628   2.615  12.075 -0.6003  0.3984 -0.9958
  261MPD2     N 3958   0.735   3.043  12.148  0.6839  0.0513  0.1181
  261MPD2    H5 3959   0.706   3.124  12.201  1.1373 -0.1883  0.7205
  261MPD2    N1 3960   0.391   2.834  12.390  0.9745  0.3923 -0.0278
  261MPD2    H7 3961   0.416   2.909  12.454 -3.1738  2.5843 -0.9495
  262TMC3    C1 3962   0.877   3.203  12.049 -0.4823  0.0144 -0.6879
  262TMC3    C2 3963   0.796   3.308  12.091  1.1042 -0.0730  0.0747
  262TMC3    C3 3964   0.855   3.436  12.108 -0.3367  0.2197  1.0435
  262TMC3    C4 3965   1.010   3.219  12.032 -0.1772 -0.0930  0.5396
  262TMC3    C5 3966   1.061   3.343  12.049 -0.1526 -0.6982  0.3260
  262TMC3    C6 3967   0.990   3.451  12.083  0.0850  0.9884  0.6625
  262TMC3     C 3968   0.835   3.062  12.056 -0.0406  0.5318 -0.0256
  262TMC3     O 3969   0.887   2.982  11.975 -0.1489 -0.3287 -0.0596
  262TMC3     H 3970   0.689   3.294  12.103  0.9625  0.2279 -0.8226
  262TMC3    H1 3971   1.073   3.136  12.003 -1.6850 -1.9101  2.5033
  262TMC3    H2 3972   1.024   3.553  12.100  1.1247  1.3137 -3.4122
  262TMC3    C7 3973   1.169   3.361  11.950  0.2868 -0.7234  0.4183
  262TMC3    C8 3974   0.780   3.550  12.083  0.1604  0.1910  0.1820
  262TMC3    O1 3975   1.240   3.265  11.935 -0.0738  0.7127  0.4133
  262TMC3    O2 3976   0.842   3.640  12.034 -0.1555 -0.5485 -0.1055
  263MPD2     C 3977   1.551   1.975  11.571 -0.1722 -0.2720  0.3028
  263MPD2    C1 3978   1.612   2.078  11.651  0.0542 -0.5857  0.1823
  263MPD2    C2 3979   1.641   2.207  11.596 -0.2537 -0.1527  0.4042
  263MPD2    C3 3980   1.601   2.223  11.461 -0.6232  0.2004  0.2654
  263MPD2    C4 3981   1.534   2.131  11.392  0.6883 -0.2466 -0.5853
  263MPD2    C5 3982   1.511   2.004  11.442  0.3450  0.1058  0.1237
  263MPD2     H 3983   1.683   2.286  11.657 -0.3868  0.9231 -0.9245
  263MPD2    H1 3984   1.511   2.137  11.287 -0.4605  2.1661 -0.2006
  263MPD2    H2 3985   1.532   1.872  11.598  0.9258 -1.2020 -2.5285
  263MPD2    H3 3986   1.468   1.919  11.390  1.3403  0.3271 -1.0543
  263MPD2     N 3987   1.634   2.349  11.401  0.3080 -0.3689  0.6266
  263MPD2    H5 3988   1.693   2.407  11.459  2.7482 -0.4677 -1.7690
  263MPD2    N1 3989   1.652   2.033  11.777 -0.2037  0.1810  0.0844
  263MPD2    H7 3990   1.631   1.936  11.797 -2.3302  0.3097 -1.4317
  264TMC3    C1 3991   1.666   2.528  11.238 -0.0407  0.0134 -0.2028
  264TMC3    C2 3992   1.700   2.618  11.335 -0.4128  0.6080  0.2857
  264TMC3    C3 3993   1.723   2.749  11.302 -0.2980 -1.0164 -0.4995
  264TMC3    C4 3994   1.658   2.558  11.102 -0.4289  0.1375  0.0113
  264TMC3    C5 3995   1.687   2.689  11.072 -0.2180  0.5865  0.5475
  264TMC3    C6 3996   1.717   2.782  11.171  0.1271  0.0523  0.4657
  264TMC3     C 3997   1.615   2.389  11.269 -0.0457  1.3614  0.9847
  264TMC3     O 3998   1.566   2.319  11.179  0.1577 -0.4969 -0.6109
  264TMC3     H 3999   1.726   2.580  11.433 -0.0406  1.4486  0.5100
  264TMC3    H1 4000   1.633   2.481  11.030  1.7090  1.7707 -2.4813
  264TMC3    H2 4001   1.751   2.881  11.143 -0.3358 -0.4059 -1.7253
  264TMC3    C7 4002   1.754   2.709  10.951 -0.5133  0.0030 -0.5223
  264TMC3    C8 4003   1.826   2.827  11.379  0.2159  0.3801 -0.1998
  264TMC3    O1 4004   1.819   2.614  10.921 -0.2509  0.2035  0.0865
  264TMC3    O2 4005   1.913   2.869  11.306  0.6203 -0.3780 -0.5342
  265MPD2     C 4006   3.718   2.497  15.493 -0.7850 -0.5739 -0.4012
  265MPD2    C1 4007   3.639   2.601  15.449 -0.4088  0.2452  1.0346
  265MPD2    C2 4008   3.628   2.635  15.316 -0.2772  0.3901 -0.4663
  265MPD2    C3 4009   3.685   2.544  15.222  0.0465  0.5400 -0.1885
  265MPD2    C4 4010   3.741   2.432  15.272  0.1472  0.8531 -0.0079
  265MPD2    C5 4011   3.750   2.401  15.402 -0.2740  0.9025 -0.1624
  265MPD2     H 4012   3.569   2.721  15.285 -2.4922 -0.9920 -0.0806
  265MPD2    H1 4013   3.798   2.371  15.202 -1.2712  0.0358 -0.4509
  265MPD2    H2 4014   3.750   2.480  15.596  1.9206  1.8828 -0.8230
  265MPD2    H3 4015   3.817   2.317  15.414 -1.4848  0.1839  1.6227
  265MPD2     N 4016   3.697   2.564  15.089 -0.0326 -0.7052 -0.2719
  265MPD2    H5 4017   3.750   2.500  15.030  3.6054  1.4344  0.6856
  265MPD2    N1 4018   3.579   2.691  15.536 -0.2139 -0.5418 -0.1798
  265MPD2    H7 4019   3.527   2.766  15.491  1.0309 -1.0737 -2.5311
  266TMC3    C1 4020   3.505   2.790  15.742 -0.0145  0.2920  0.2282
  266TMC3    C2 4021   3.477   2.768  15.873 -0.2188  0.4413 -0.5744
  266TMC3    C3 4022   3.472   2.877  15.960 -0.2463  0.0089  0.4322
  266TMC3    C4 4023   3.548   2.912  15.701 -0.2593 -0.4005 -0.3106
  266TMC3    C5 4024   3.545   3.013  15.787  0.2251 -0.8752  0.1765
  266TMC3    C6 4025   3.506   3.000  15.915  1.1084  0.2819 -0.4447
  266TMC3     C 4026   3.574   2.686  15.673  0.6179  0.5046  0.4281
  266TMC3     O 4027   3.614   2.596  15.740  0.2309 -0.1722 -0.0415
  266TMC3     H 4028   3.445   2.670  15.904 -1.4668  1.0805  0.1582
  266TMC3    H1 4029   3.594   2.924  15.603  1.2839  1.4295  0.6284
  266TMC3    H2 4030   3.478   3.087  15.973  0.3102 -0.2557 -0.0211
  266TMC3    C7 4031   3.543   3.143  15.720  0.5188 -0.5402  0.4007
  266TMC3    C8 4032   3.472   2.840  16.103 -0.1922 -0.7400 -0.1026
  266TMC3    O1 4033   3.529   3.139  15.597 -0.7614  0.2170 -0.1835
  266TMC3    O2 4034   3.483   2.717  16.124  0.0063  0.1128  0.0303
  267MPD2     C 4035   1.715   4.310   0.533 -0.3306 -0.0853 -0.3979
  267MPD2    C1 4036   1.663   4.384   0.425 -0.1940 -0.6193 -0.0565
  267MPD2    C2 4037   1.559   4.321   0.359  0.2998 -0.5385  0.2593
  267MPD2    C3 4038   1.508   4.199   0.398 -0.1146  0.3648 -0.4022
  267MPD2    C4 4039   1.579   4.123   0.495  0.3649  0.4114 -0.5811
  267MPD2    C5 4040   1.684   4.184   0.568 -0.5287 -0.5770  0.3952
  267MPD2     H 4041   1.518   4.379   0.276  0.2289  1.0624  1.4052
  267MPD2    H1 4042   1.562   4.017   0.508 -2.0969  0.8512 -0.2296
  267MPD2    H2 4043   1.795   4.345   0.597 -0.3672 -1.1635  0.2464
  267MPD2    H3 4044   1.735   4.135   0.650  0.0097 -0.6308  0.0286
  267MPD2     N 4045   1.404   4.134   0.334  0.4462  0.6506 -0.1985
  267MPD2    H5 4046   1.381   4.043   0.372  2.6531  0.2880  0.2832
  267MPD2    N1 4047   1.717   4.509   0.403  0.0237  0.3992  0.2618
  267MPD2    H7 4048   1.801   4.537   0.452  1.1098 -2.4896  0.0062
  268TMC3    C1 4049   1.728   0.013   0.343 -0.4647  0.2762 -0.1415
  268TMC3    C2 4050   1.669   0.109   0.265  0.1502  0.3608 -0.6166
  268TMC3    C3 4051   1.652   0.231   0.315  0.0618  0.0530  0.3442
  268TMC3    C4 4052   1.775   0.043   0.466 -0.0076 -0.8242  0.6090
  268TMC3    C5 4053   1.772   0.176   0.502  1.0720 -0.0304 -0.3533
  268TMC3    C6 4054   1.716   0.274   0.430  0.3205 -0.1545 -0.3346
  268TMC3     C 4055   1.665   4.606   0.322  0.0681 -0.2571  1.3110
  268TMC3     O 4056   1.557   4.609   0.265 -0.1937 -0.0323 -0.1375
  268TMC3     H 4057   1.639   0.082   0.164 -1.2462  0.0382 -0.1103
  268TMC3    H1 4058   1.799   4.694   0.542  1.3686  1.3783  2.2929
  268TMC3    H2 4059   1.705   0.376   0.466  0.4019  0.0319 -0.8362
  268TMC3    C7 4060   1.773   0.204   0.645 -0.8103  0.1834 -0.1404
  268TMC3    C8 4061   1.521   0.296   0.294 -0.1909  0.1822 -0.6338
  268TMC3    O1 4062   1.777   0.104   0.714  0.1131  0.2572  0.1005
  268TMC3    O2 4063   1.507   0.411   0.337  0.4856 -0.0801 -0.5648
  269MPD2     C 4064   1.285   3.136  15.727 -0.0642 -1.1198 -0.3870
  269MPD2    C1 4065   1.168   3.181  15.779  0.0762  0.1843  0.2485
  269MPD2    C2 4066   1.124   3.310  15.753 -0.8444  0.1745 -0.0203
  269MPD2    C3 4067   1.197   3.403  15.673 -0.2745 -0.2200  0.4844
  269MPD2    C4 4068   1.325   3.360  15.636  0.3807  0.6418 -0.2001
  269MPD2    C5 4069   1.366   3.227  15.665  0.1549 -0.0846 -0.0069
  269MPD2     H 4070   1.022   3.334  15.780 -0.4593  0.6099  1.0371
  269MPD2    H1 4071   1.394   3.424  15.582 -0.5711  1.5128 -0.3849
  269MPD2    H2 4072   1.309   3.031  15.745 -0.3467 -1.0307  0.5090
  269MPD2    H3 4073   1.457   3.191  15.618 -0.5692 -1.8128 -0.0614
  269MPD2     N 4074   1.143   3.530  15.643  0.1689  0.1998  0.1325
  269MPD2    H5 4075   1.052   3.554  15.680 -0.7500 -2.4236 -0.3978
  269MPD2    N1 4076   1.099   3.091  15.862 -0.2290 -0.1101 -0.4250
  269MPD2    H7 4077   1.140   3.000  15.880  1.5764  0.6421 -0.7349
  270TMC3    C1 4078   0.927   3.010  15.995  0.1294 -0.8720 -0.1108
  270TMC3    C2 4079   0.790   3.005  15.982  0.9037 -0.8003  0.0148
  270TMC3    C3 4080   0.723   2.892  16.007 -0.7759 -0.6850  0.2707
  270TMC3    C4 4081   0.997   2.899  16.029  0.2946  0.1522 -0.1146
  270TMC3    C5 4082   0.928   2.782  16.055  0.4014  0.5271  0.3472
  270TMC3    C6 4083   0.792   2.787  16.056  0.4511  0.6902  0.0587
  270TMC3     C 4084   0.981   3.122  15.936 -0.1227  0.0014  0.1657
  270TMC3     O 4085   0.912   3.224  15.945  0.0675 -0.3905  0.2240
  270TMC3     H 4086   0.736   3.093  15.949  3.1580  0.8738  0.8111
  270TMC3    H1 4087   1.104   2.903  16.046  0.3085 -0.4239 -0.0567
  270TMC3    H2 4088   0.743   2.706  16.108 -1.4108  1.2242 -0.8377
  270TMC3    C7 4089   1.000   2.658  16.019 -0.2340 -0.4532 -0.0069
  270TMC3    C8 4090   0.577   2.902  16.021 -0.5300 -0.0162 -0.6126
  270TMC3    O1 4091   1.106   2.682  15.960  0.4431  1.0102  0.1232
  270TMC3    O2 4092   0.536   3.017  16.032 -0.1258  0.3036  0.5491
  271MPD2     C 4093   0.258   2.994  14.211  0.4520 -0.0886 -0.3367
  271MPD2    C1 4094   0.200   2.967  14.333  0.3938  0.0744 -0.7618
  271MPD2    C2 4095   0.074   3.018  14.368 -0.6112 -0.3262  0.3459
  271MPD2    C3 4096   0.013   3.083  14.268 -0.8558 -0.0940  0.2578
  271MPD2    C4 4097   0.060   3.096  14.147 -0.3755  0.7526 -0.3950
  271MPD2    C5 4098   0.187   3.054  14.116  0.3664  0.7208 -0.5407
  271MPD2     H 4099   0.028   3.000  14.464  0.7394  1.3010  1.3118
  271MPD2    H1 4100   0.002   3.130  14.062 -1.3268  2.6158  1.0193
  271MPD2    H2 4101   0.356   2.955  14.189  0.6790  0.0458  0.4214
  271MPD2    H3 4102   0.233   3.059  14.018  1.4461 -0.4188 -0.0858
  271MPD2     N 4103   4.606   3.134  14.295 -0.0368 -0.1847  0.2036
  271MPD2    H5 4104   4.564   3.184  14.217  0.2539  1.3409  1.0183
  271MPD2    N1 4105   0.275   2.891  14.435 -0.0038 -0.9228 -0.6901
  271MPD2    H7 4106   0.222   2.868  14.519  0.3388  0.6084 -0.0575
  272TMC3    C1 4107   0.444   2.787  14.568  0.0186  0.3033 -0.1740
  272TMC3    C2 4108   0.576   2.773  14.593 -0.0554  0.0522 -0.1750
  272TMC3    C3 4109   0.625   2.691  14.694  0.6135 -1.0935  0.0530
  272TMC3    C4 4110   0.352   2.741  14.659 -0.0959 -0.1715  0.0388
  272TMC3    C5 4111   0.397   2.673  14.769 -0.1290  0.0081  0.2604
  272TMC3    C6 4112   0.531   2.641  14.787 -0.6662 -0.5197 -0.2845
  272TMC3     C 4113   0.405   2.845  14.440  0.6772  0.0838 -0.4785
  272TMC3     O 4114   0.490   2.866  14.358  0.0478 -0.6827 -0.2907
  272TMC3     H 4115   0.639   2.821  14.519 -0.9744 -0.1971 -1.1301
  272TMC3    H1 4116   0.245   2.741  14.645 -0.2616 -0.8405  1.2373
  272TMC3    H2 4117   0.551   2.564  14.861 -0.1332 -0.4619 -0.3628
  272TMC3    C7 4118   0.314   2.648  14.881 -0.2569 -0.3015  0.3576
  272TMC3    C8 4119   0.745   2.624  14.684 -0.1982  0.1443 -0.8059
  272TMC3    O1 4120   0.226   2.565  14.871  0.3852  0.2167 -0.3000
  272TMC3    O2 4121   0.798   2.640  14.576  0.4919  0.8306  0.3484
  273MPD2     C 4122   1.916   0.680  12.063 -1.1016 -0.4332 -0.5807
  273MPD2    C1 4123   2.029   0.752  12.076 -0.2150  0.4036  0.2302
  273MPD2    C2 4124   2.078   0.824  11.973 -0.3184  0.2721  1.2358
  273MPD2    C3 4125   2.018   0.828  11.850 -0.3684 -1.0569 -0.2974
  273MPD2    C4 4126   1.909   0.756  11.835  0.2499  0.0437  0.6058
  273MPD2    C5 4127   1.857   0.684  11.943 -0.9047  0.2009 -0.5797
  273MPD2     H 4128   2.175   0.872  11.985 -0.5456  1.3304 -1.2552
  273MPD2    H1 4129   1.867   0.755  11.735  1.8297  1.3505 -0.0848
  273MPD2    H2 4130   1.872   0.620  12.142 -0.1218 -0.5245 -0.1041
  273MPD2    H3 4131   1.776   0.613  11.927 -0.7217 -0.5361  1.8739
  273MPD2     N 4132   2.068   0.900  11.738  0.4878 -0.6021 -0.1115
  273MPD2    H5 4133   2.023   0.894  11.647 -0.1968  2.0082  0.0785
  273MPD2    N1 4134   2.093   0.742  12.206  0.0935  0.2515  0.2262
  273MPD2    H7 4135   2.049   0.698  12.286 -3.0966 -0.0909 -1.7424
  274TMC3    C1 4136   2.235   1.027  11.622  0.2355 -0.7210  0.8725
  274TMC3    C2 4137   2.178   0.982  11.502  0.0184 -0.2302 -0.0685
  274TMC3    C3 4138   2.205   1.052  11.387 -0.0893 -0.4157  0.3491
  274TMC3    C4 4139   2.300   1.144  11.636 -0.1434 -0.2145  0.2972
  274TMC3    C5 4140   2.317   1.211  11.520 -0.4041  0.5602 -0.3602
  274TMC3    C6 4141   2.273   1.168  11.390  0.3720  0.1767  0.0122
  274TMC3     C 4142   2.179   0.977  11.746  0.1836  0.3251 -0.5283
  274TMC3     O 4143   2.236   1.015  11.848 -0.2501 -0.1994 -0.2542
  274TMC3     H 4144   2.127   0.887  11.512  0.8921 -0.7280 -0.4505
  274TMC3    H1 4145   2.330   1.179  11.734 -0.0009  0.1469  0.1243
  274TMC3    H2 4146   2.267   1.240  11.309 -1.7540  0.4696  0.4447
  274TMC3    C7 4147   2.358   1.343  11.527 -0.5349 -0.5576 -0.3375
  274TMC3    C8 4148   2.106   1.026  11.283  0.4996 -0.0654 -0.2066
  274TMC3    O1 4149   2.416   1.396  11.433  0.6374  0.0943  0.5174
  274TMC3    O2 4150   2.013   0.964  11.328 -0.2971 -0.1827 -0.5361
  275MPD2     C 4151   2.049   3.551  14.799 -0.3320  0.1269 -0.0544
  275MPD2    C1 4152   1.961   3.640  14.737  0.3999 -1.0668 -0.8902
  275MPD2    C2 4153   1.832   3.604  14.713 -0.1940  0.6550 -0.0415
  275MPD2    C3 4154   1.781   3.483  14.765  0.1459 -0.3108  0.4379
  275MPD2    C4 4155   1.872   3.395  14.814  0.7171  0.4742 -0.0557
  275MPD2    C5 4156   2.007   3.427  14.839 -0.1602  0.0953 -0.0084
  275MPD2     H 4157   1.763   3.676  14.673  0.6096  0.3523 -1.9530
  275MPD2    H1 4158   1.842   3.295  14.844  0.5463  1.0859  1.8032
  275MPD2    H2 4159   2.154   3.577  14.805 -1.1344  3.7800 -1.3999
  275MPD2    H3 4160   2.067   3.348  14.881 -1.0897 -0.5063  0.1918
  275MPD2     N 4161   1.653   3.436  14.786  0.0991 -0.4887  0.5308
  275MPD2    H5 4162   1.645   3.354  14.844  0.1182  0.9909  2.6290
  275MPD2    N1 4163   2.007   3.772  14.698 -0.0056  0.1879  0.0787
  275MPD2    H7 4164   1.965   3.807  14.612  1.8311  0.2886 -0.7812
  276TMC3    C1 4165   2.123   3.843  14.896 -0.7052 -0.3053  0.9739
  276TMC3    C2 4166   1.997   3.845  14.953  0.3243  0.5347 -0.6556
  276TMC3    C3 4167   1.993   3.873  15.089 -0.0488  0.3373 -0.7151
  276TMC3    C4 4168   2.233   3.899  14.943 -0.0893  0.0969  0.3104
  276TMC3    C5 4169   2.213   3.932  15.075  0.0933 -0.2732 -0.2782
  276TMC3    C6 4170   2.096   3.927  15.148 -0.3469 -0.1160  0.0516
  276TMC3     C 4171   2.115   3.843  14.753  0.1705  0.5088  0.2902
  276TMC3     O 4172   2.163   3.943  14.703 -0.1460  0.6994  0.0191
  276TMC3     H 4173   1.903   3.848  14.899  0.0999  1.5221 -0.2171
  276TMC3    H1 4174   2.320   3.924  14.885 -0.7377 -2.3865 -1.6922
  276TMC3    H2 4175   2.093   3.942  15.255 -0.6347  0.5088 -0.0504
  276TMC3    C7 4176   2.324   4.003  15.133 -0.2400 -0.6086 -0.1007
  276TMC3    C8 4177   1.876   3.845  15.165  0.3280  0.6771  0.7377
  276TMC3    O1 4178   2.297   4.067  15.230  0.2924 -0.2398 -0.3155
  276TMC3    O2 4179   1.869   3.905  15.268 -0.2680 -0.7771  0.0858
  277MPD2     C 4180   3.682   2.534  13.516 -0.2609 -0.3005 -0.0092
  277MPD2    C1 4181   3.587   2.620  13.567 -0.2340 -0.5983 -0.6891
  277MPD2    C2 4182   3.499   2.569  13.663  0.3881  0.4321  0.1294
  277MPD2    C3 4183   3.486   2.435  13.695 -0.2889  0.0020  0.0527
  277MPD2    C4 4184   3.576   2.352  13.644 -0.6508  0.3315  0.4126
  277MPD2    C5 4185   3.678   2.409  13.560 -0.5461 -0.3839  0.2166
  277MPD2     H 4186   3.440   2.641  13.718 -0.7221 -1.0583  0.9156
  277MPD2    H1 4187   3.573   2.246  13.669 -0.3454  0.5148  1.2273
  277MPD2    H2 4188   3.768   2.567  13.457  0.7757 -0.6592  1.2986
  277MPD2    H3 4189   3.751   2.341  13.518 -0.6507 -0.2904 -0.1187
  277MPD2     N 4190   3.372   2.390  13.777 -0.0603  0.4096 -0.3304
  277MPD2    H5 4191   3.355   2.294  13.806 -0.7177  0.4279 -0.6601
  277MPD2    N1 4192   3.588   2.757  13.529 -0.5037 -0.0147  0.3900
  277MPD2    H7 4193   3.666   2.786  13.471 -1.1069 -1.5131 -1.2107
  278TMC3    C1 4194   3.198   2.417  13.936  0.2312  0.2553 -0.2081
  278TMC3    C2 4195   3.124   2.307  13.890 -0.8654 -0.6808 -0.5804
  278TMC3    C3 4196   3.010   2.281  13.951 -0.0042  0.2854 -0.0145
  278TMC3    C4 4197   3.150   2.499  14.041  0.3878  0.4531  0.0417
  278TMC3    C5 4198   3.034   2.457  14.105  0.3202  0.2249 -0.3269
  278TMC3    C6 4199   2.966   2.352  14.059 -0.2493  0.3231  0.2017
  278TMC3     C 4200   3.292   2.474  13.848  0.0179 -0.1676  1.2127
  278TMC3     O 4201   3.290   2.598  13.861 -0.0995 -0.2850  0.2464
  278TMC3     H 4202   3.157   2.247  13.805  0.8413  0.3616 -0.6611
  278TMC3    H1 4203   3.202   2.585  14.082  0.6366 -0.3099  1.3346
  278TMC3    H2 4204   2.880   2.319  14.117 -1.3936  0.1498 -1.5842
  278TMC3    C7 4205   2.970   2.545  14.200  0.4058 -0.1807  0.2606
  278TMC3    C8 4206   2.937   2.158  13.927 -1.0656  0.7325 -0.5655
  278TMC3    O1 4207   3.045   2.604  14.272  0.1133  0.1134 -0.6476
  278TMC3    O2 4208   2.876   2.101  14.017  0.0817 -0.6542  0.1303
  279MPD2     C 4209   2.976   2.560   0.540  0.0856  0.8128 -0.1326
  279MPD2    C1 4210   2.880   2.664   0.523  0.0081 -0.1981 -0.1970
  279MPD2    C2 4211   2.898   2.739   0.409  0.2145  0.4401  1.0837
  279MPD2    C3 4212   2.999   2.710   0.311  0.6253  0.1290  0.5675
  279MPD2    C4 4213   3.086   2.615   0.333 -0.6206 -0.9121  0.2930
  279MPD2    C5 4214   3.070   2.538   0.448 -0.1035  0.0501 -0.4034
  279MPD2     H 4215   2.830   2.823   0.396  0.0136  0.0268 -0.5490
  279MPD2    H1 4216   3.152   2.582   0.254  0.3001 -0.5956  0.9314
  279MPD2    H2 4217   2.960   2.499   0.628 -1.4706  3.7792  1.6501
  279MPD2    H3 4218   3.143   2.458   0.459  1.6001  1.3661 -1.9924
  279MPD2     N 4219   2.991   2.768   0.183  0.1142 -0.1222  0.1837
  279MPD2    H5 4220   3.048   2.745   0.103  0.6848 -0.3002  0.6418
  279MPD2    N1 4221   2.780   2.686   0.621 -0.5807  0.1904 -0.0379
  279MPD2    H7 4222   2.775   2.627   0.703  1.1210  0.8021  0.4978
  280TMC3    C1 4223   2.578   2.777   0.707  0.1250 -0.3069  0.0910
  280TMC3    C2 4224   2.559   2.665   0.778  0.1870  0.0456 -0.2337
  280TMC3    C3 4225   2.481   2.675   0.887 -0.3406 -0.9234  0.2886
  280TMC3    C4 4226   2.498   2.888   0.709  0.2342  0.6024 -0.1950
  280TMC3    C5 4227   2.411   2.893   0.816 -0.1239 -0.1321  0.2441
  280TMC3    C6 4228   2.406   2.792   0.909  0.1727  0.0929 -0.0767
  280TMC3     C 4229   2.678   2.777   0.609  0.6052  0.6938 -0.4650
  280TMC3     O 4230   2.673   2.866   0.528  0.9203  0.5527  0.3966
  280TMC3     H 4231   2.614   2.576   0.750 -1.0533 -1.1031  1.0373
  280TMC3    H1 4232   2.530   2.981   0.664  0.4145 -0.7616 -2.8488
  280TMC3    H2 4233   2.325   2.784   0.981 -0.7118 -3.1976 -1.4348
  280TMC3    C7 4234   2.334   3.017   0.840  0.1395 -0.1312 -0.4248
  280TMC3    C8 4235   2.460   2.558   0.968  0.3514 -0.3053  0.2339
  280TMC3    O1 4236   2.320   3.043   0.959  0.3522  0.2380 -0.3356
  280TMC3    O2 4237   2.346   2.541   1.020 -0.1072  1.1918  0.1584
  281TMC3    C1 4238   1.854   3.191  13.256 -0.2419  0.0521  0.1351
  281TMC3    C2 4239   1.841   3.303  13.178  0.1896 -0.1026  0.3299
  281TMC3    C3 4240   1.810   3.282  13.046  0.6421 -0.6575 -0.2329
  281TMC3    C4 4241   1.818   3.066  13.211  0.0388 -0.0392 -0.0364
  281TMC3    C5 4242   1.779   3.048  13.080  0.5270 -0.0609 -0.0025
  281TMC3    C6 4243   1.778   3.154  12.996  0.4676 -0.0416  0.1011
  281TMC3     C 4244   1.842   3.201  13.400  0.3604 -0.1657  0.0791
  281TMC3     O 4245   1.871   3.100  13.464 -0.0166 -0.1986 -0.3508
  281TMC3     H 4246   1.856   3.403  13.217 -0.6154  0.1018  0.1190
  281TMC3    H1 4247   1.825   2.982  13.278  1.3569 -0.2115 -0.3789
  281TMC3    H2 4248   1.775   3.140  12.888  1.4105 -0.9830  0.1900
  281TMC3    C7 4249   1.688   2.939  13.053  0.3466  0.0312  0.7774
  281TMC3    C8 4250   1.761   3.392  12.966 -0.4632 -0.2594 -0.0065
  281TMC3    O1 4251   1.674   2.894  12.940  0.0774  0.7159  0.2508
  281TMC3    O2 4252   1.797   3.509  12.993  0.4415 -0.2159  0.5499
  282MPD2     C 4253   3.816   4.383  15.270  0.0060  0.0608  0.7289
  282MPD2    C1 4254   3.711   4.477  15.276 -0.0174  0.4066  0.4746
  282MPD2    C2 4255   3.654   4.526  15.157 -0.1069  0.0733  0.0871
  282MPD2    C3 4256   3.691   4.474  15.036  0.3676  0.0792 -0.0154
  282MPD2    C4 4257   3.797   4.388  15.037  0.2479 -0.5229  0.6019
  282MPD2    C5 4258   3.867   4.339  15.149  0.3985 -0.1676 -0.3661
  282MPD2     H 4259   3.568   4.591  15.160 -0.6687 -0.7242  0.9992
  282MPD2    H1 4260   3.833   4.344  14.945  2.3894  0.4548  0.9675
  282MPD2    H2 4261   3.863   4.342  15.358  0.4213 -0.1550  0.4098
  282MPD2    H3 4262   3.956   4.277  15.136 -0.9899 -2.4732  1.0962
  282MPD2     N 4263   3.634   4.532  14.922  0.3699  0.1481 -0.8476
  282MPD2    H5 4264   3.572   4.612  14.933  0.2572 -0.2329  1.3264
  282MPD2    N1 4265   3.652   4.522  15.393 -0.7620  0.2761  0.4925
  282MPD2    H7 4266   3.576   4.588  15.380 -2.8236 -2.3476 -0.7260
  283TMC3    C1 4267   3.572   4.520  15.614  0.0142  0.5574 -0.5158
  283TMC3    C2 4268   3.571   4.650  15.656 -0.3497  0.3211  0.3391
  283TMC3    C3 4269   3.475   4.689  15.753 -0.3193 -0.2361  0.0025
  283TMC3    C4 4270   3.478   4.434  15.662  0.2262  0.0594 -0.4167
  283TMC3    C5 4271   3.397   4.474  15.758  0.1922  0.3699 -0.2425
  283TMC3    C6 4272   3.397   4.600  15.819 -0.1402 -0.6588 -0.5346
  283TMC3     C 4273   3.671   4.469  15.520  0.0851 -0.4306  0.6099
  283TMC3     O 4274   3.733   4.373  15.565 -0.0309 -0.2120  0.4020
  283TMC3     H 4275   3.657   4.709  15.628  0.2293 -0.7109 -0.0463
  283TMC3    H1 4276   3.489   4.329  15.637  0.8304 -0.0587  0.3602
  283TMC3    H2 4277   3.339   4.625  15.907  0.7058 -4.4285  1.0846
  283TMC3    C7 4278   3.318   4.375  15.825  0.4903 -0.6877 -0.1660
  283TMC3    C8 4279   3.500   0.086  15.819  0.0098 -0.0365 -0.5082
  283TMC3    O1 4280   3.310   4.390  15.949  0.0922  0.0744 -0.0589
  283TMC3    O2 4281   3.486   0.096  15.938  0.1082 -0.4382  0.3002
  284MPD2     C 4282   1.781   4.338  11.724 -0.5039  0.2729 -0.4022
  284MPD2    C1 4283   1.858   4.230  11.764 -0.5571 -0.2067  0.9006
  284MPD2    C2 4284   1.801   4.122  11.825  0.1447 -0.0630 -0.2868
  284MPD2    C3 4285   1.662   4.125  11.849  1.6422  1.2409 -0.6931
  284MPD2    C4 4286   1.588   4.223  11.789  0.7892 -0.0404 -0.4548
  284MPD2    C5 4287   1.649   4.329  11.738  0.5035  1.0591 -0.5987
  284MPD2     H 4288   1.862   4.054  11.882 -1.7547 -0.6244  1.0680
  284MPD2    H1 4289   1.480   4.222  11.802  1.0100  0.4079  1.3539
  284MPD2    H2 4290   1.815   4.432  11.682 -1.0643 -0.3390 -2.1899
  284MPD2    H3 4291   1.589   4.412  11.703 -1.6139 -0.2422 -0.0387
  284MPD2     N 4292   1.591   4.037  11.937  0.2179  0.4351 -0.2026
  284MPD2    H5 4293   1.493   4.059  11.923  0.0526 -1.1548 -1.6096
  284MPD2    N1 4294   1.995   4.235  11.754 -0.1828  0.2212 -0.3802
  284MPD2    H7 4295   2.043   4.150  11.782 -0.7592  0.2691  0.7745
  285TMC3    C1 4296   2.206   4.339  11.720 -0.1445  0.5020 -0.3622
  285TMC3    C2 4297   2.254   4.217  11.685  0.4127  0.5361  0.3973
  285TMC3    C3 4298   2.388   4.197  11.678  0.0639  0.0059  1.0529
  285TMC3    C4 4299   2.291   4.446  11.750 -0.1283 -0.1483  0.1280
  285TMC3    C5 4300   2.423   4.425  11.727  0.4630  0.4448  0.4234
  285TMC3    C6 4301   2.473   4.310  11.683  0.2149 -0.6246 -0.0331
  285TMC3     C 4302   2.064   4.357  11.741  0.2696  0.2041  0.2460
  285TMC3     O 4303   2.027   4.471  11.764  0.7442  0.1588 -0.1393
  285TMC3     H 4304   2.186   4.146  11.639  1.9538  0.0448 -1.1417
  285TMC3    H1 4305   2.252   4.538  11.791  0.0246 -0.2474  0.4900
  285TMC3    H2 4306   2.578   4.299  11.657  0.3644  0.5957  0.0629
  285TMC3    C7 4307   2.510   4.539  11.751 -0.7378  0.1000  0.4181
  285TMC3    C8 4308   2.426   4.056  11.650 -0.4005 -0.0826 -0.8342
  285TMC3    O1 4309   2.453   4.646  11.748 -0.0427 -0.1026  0.3752
  285TMC3    O2 4310   2.337   3.970  11.635  0.2223  0.3361 -0.1343
  286MPD2     C 4311   1.301   2.578   1.726  0.1759 -0.0905 -0.1069
  286MPD2    C1 4312   1.331   2.579   1.586 -0.4949  0.5091  0.2534
  286MPD2    C2 4313   1.403   2.469   1.530 -0.6171  0.6952  1.1763
  286MPD2    C3 4314   1.450   2.364   1.620  0.1620  0.0446  0.3007
  286MPD2    C4 4315   1.432   2.381   1.752 -0.0033 -0.1796 -0.3707
  286MPD2    C5 4316   1.362   2.482   1.804  0.4298  0.2496  0.3218
  286MPD2     H 4317   1.423   2.468   1.424 -0.2404 -0.8862  1.2653
  286MPD2    H1 4318   1.457   2.298   1.817  3.2874 -0.2831 -1.7730
  286MPD2    H2 4319   1.244   2.652   1.781  1.2612  1.8725 -1.6361
  286MPD2    H3 4320   1.357   2.490   1.912  1.3671  0.7437  0.3225
  286MPD2     N 4321   1.526   2.258   1.572  0.0506  0.1436  0.4406
  286MPD2    H5 4322   1.570   2.196   1.640 -1.5336 -1.8010 -0.3060
  286MPD2    N1 4323   1.305   2.696   1.504 -0.1147  0.2620 -0.2297
  286MPD2    H7 4324   1.327   2.700   1.406 -0.9662 -0.6088 -0.4614
  287TMC3    C1 4325   1.649   2.113   1.449 -0.5504  0.8263 -0.2614
  287TMC3    C2 4326   1.638   2.017   1.352 -0.3425 -0.4791 -0.2268
  287TMC3    C3 4327   1.735   1.921   1.345 -0.1690  0.4161 -0.1257
  287TMC3    C4 4328   1.754   2.116   1.536  0.6635  0.9660 -0.4746
  287TMC3    C5 4329   1.854   2.024   1.518  0.4986  0.0849 -0.1037
  287TMC3    C6 4330   1.840   1.924   1.429 -0.5025  0.1665  0.3111
  287TMC3     C 4331   1.554   2.222   1.445 -0.6814 -0.1631  0.3436
  287TMC3     O 4332   1.480   2.240   1.347 -0.2309 -0.0600 -0.3058
  287TMC3     H 4333   1.546   2.016   1.295 -0.1774 -1.7397 -0.4828
  287TMC3    H1 4334   1.756   2.194   1.612  1.3143  0.8637 -0.3838
  287TMC3    H2 4335   1.920   1.853   1.414  1.4334  2.7614 -1.5970
  287TMC3    C7 4336   1.965   2.026   1.612 -0.0881 -0.1052  0.0154
  287TMC3    C8 4337   1.741   1.835   1.232  0.0589  0.6379  0.3244
  287TMC3    O1 4338   1.956   2.093   1.715 -0.1531 -0.0413 -0.7100
  287TMC3    O2 4339   1.832   1.756   1.232  0.1493  0.2871  0.5654
  288TMC3    C1 4340   3.321   2.600  14.509  0.0471  0.2502  0.6084
  288TMC3    C2 4341   3.319   2.581  14.644 -0.4304  0.4517  0.1499
  288TMC3    C3 4342   3.282   2.456  14.695  0.3717 -0.2630 -0.3605
  288TMC3    C4 4343   3.295   2.487  14.428  0.0978  0.0266 -0.1280
  288TMC3    C5 4344   3.247   2.368  14.481 -0.5582 -0.0351 -0.2301
  288TMC3    C6 4345   3.242   2.347  14.615 -0.2166 -0.1929 -0.4675
  288TMC3     C 4346   3.368   2.726  14.448 -0.2667  0.9289  0.7602
  288TMC3     O 4347   3.436   2.806  14.514 -0.6788  0.5991 -0.1493
  288TMC3     H 4348   3.354   2.668  14.699  2.0949  0.0401 -0.8083
  288TMC3    H1 4349   3.291   2.492  14.320  0.2829 -0.8726 -0.1788
  288TMC3    H2 4350   3.204   2.254  14.654 -0.7038  0.1799 -0.0471
  288TMC3    C7 4351   3.221   2.249  14.398  0.3572 -0.4869  0.2580
  288TMC3    C8 4352   3.303   2.434  14.838  0.4456  0.3306  0.1608
  288TMC3    O1 4353   3.176   2.152  14.457  0.3462 -0.0734 -0.3268
  288TMC3    O2 4354   3.360   2.521  14.901 -0.1222  0.2445 -0.3739
  289MPD2     C 4355   3.767   1.639  14.880 -0.4544 -0.2550  0.2925
  289MPD2    C1 4356   3.743   1.730  14.779  0.0277  0.2725  0.4440
  289MPD2    C2 4357   3.623   1.715  14.709 -0.5740  0.3736 -0.3126
  289MPD2    C3 4358   3.538   1.610  14.735  0.4796 -0.5715  0.3266
  289MPD2    C4 4359   3.560   1.517  14.844  0.1274 -0.2007 -0.6139
  289MPD2    C5 4360   3.677   1.539  14.914 -0.0991  0.6311 -0.2341
  289MPD2     H 4361   3.604   1.780  14.624  1.4385 -0.3512 -1.3251
  289MPD2    H1 4362   3.497   1.434  14.874  1.0053 -0.9490 -0.8525
  289MPD2    H2 4363   3.861   1.652  14.933  1.7418 -0.1086 -3.6476
  289MPD2    H3 4364   3.701   1.473  14.996 -0.3774  1.7981  0.7871
  289MPD2     N 4365   3.418   1.603  14.665  0.1641  0.2358 -0.4555
  289MPD2    H5 4366   3.354   1.528  14.688  0.0711 -0.4108 -2.8600
  289MPD2    N1 4367   3.832   1.835  14.759  0.8772 -0.3981  1.0633
  289MPD2    H7 4368   3.899   1.859  14.832 -0.9458  1.0503  2.2610
  290TMC3    C1 4369   3.240   1.649  14.511  0.5249  0.2881 -0.1748
  290TMC3    C2 4370   3.154   1.747  14.475 -0.0395 -0.5586 -0.6194
  290TMC3    C3 4371   3.029   1.708  14.437 -0.2613  0.0189  0.3162
  290TMC3    C4 4372   3.211   1.510  14.517  0.1529  0.4405 -0.3367
  290TMC3    C5 4373   3.093   1.476  14.467 -0.4520 -0.5615 -0.7283
  290TMC3    C6 4374   3.002   1.575  14.425  0.6442  0.3124  0.2110
  290TMC3     C 4375   3.373   1.684  14.559 -0.8621 -0.4202 -0.0090
  290TMC3     O 4376   3.435   1.758  14.482  0.3112  0.3247 -0.0799
  290TMC3     H 4377   3.189   1.850  14.471 -0.9833 -0.1600  0.9458
  290TMC3    H1 4378   3.287   1.442  14.553 -2.2220 -0.7630  2.4058
  290TMC3    H2 4379   2.906   1.531  14.401  1.6208 -0.9918 -1.3098
  290TMC3    C7 4380   3.019   1.368  14.540  0.0683 -0.1242  0.2070
  290TMC3    C8 4381   2.930   1.807  14.407  0.5092 -0.2693  0.1092
  290TMC3    O1 4382   2.913   1.386  14.592  0.0539  0.6445 -0.7673
  290TMC3    O2 4383   2.827   1.772  14.347  0.1115  0.1005 -0.3116
  291MPD2     C 4384   2.381   1.443   0.563 -0.7913  0.5387  0.2550
  291MPD2    C1 4385   2.500   1.431   0.627  0.4031  0.2901 -0.5567
  291MPD2    C2 4386   2.567   1.543   0.661 -0.0897 -0.2323 -0.1390
  291MPD2    C3 4387   2.515   1.668   0.642 -1.0712  0.4119  0.7621
  291MPD2    C4 4388   2.392   1.677   0.583  0.1616  0.0697 -0.1696
  291MPD2    C5 4389   2.323   1.563   0.544 -0.7751 -0.0588 -0.0768
  291MPD2     H 4390   2.664   1.529   0.707 -0.5007 -0.5497  0.6334
  291MPD2    H1 4391   2.346   1.775   0.578 -1.8098 -0.8365 -0.0852
  291MPD2    H2 4392   2.329   1.357   0.522 -0.5304  0.1834  0.6647
  291MPD2    H3 4393   2.234   1.562   0.483 -0.3481 -2.6774 -0.6507
  291MPD2     N 4394   2.581   1.789   0.671 -0.0168 -0.2839 -0.4600
  291MPD2    H5 4395   2.519   1.865   0.646 -0.2978  0.1197  1.4217
  291MPD2    N1 4396   2.566   1.303   0.648  0.8928 -0.2607  0.0893
  291MPD2    H7 4397   2.659   1.307   0.689  0.9748  0.2283 -0.1514
  292TMC3    C1 4398   2.597   1.066   0.643 -0.5730  0.1638 -0.1339
  292TMC3    C2 4399   2.667   1.044   0.753  0.0928 -0.2170  0.3096
  292TMC3    C3 4400   2.729   0.916   0.770 -0.1825 -0.0527 -0.0560
  292TMC3    C4 4401   2.592   0.976   0.545  0.6463 -0.1835  0.0187
  292TMC3    C5 4402   2.638   0.850   0.553 -0.2894 -0.2742 -0.0073
  292TMC3    C6 4403   2.704   0.816   0.674  0.1994 -0.0807  0.2116
  292TMC3     C 4404   2.509   1.181   0.618 -0.3359  0.2409  0.2259
  292TMC3     O 4405   2.405   1.160   0.565  0.3159 -0.7191  0.0137
  292TMC3     H 4406   2.693   1.120   0.826 -3.4767 -0.2308  1.6334
  292TMC3    H1 4407   2.546   1.018   0.457 -0.7030 -1.2947  0.1980
  292TMC3    H2 4408   2.751   0.718   0.673  0.2578 -0.0408 -2.0775
  292TMC3    C7 4409   2.642   0.767   0.439  0.2546  0.6203 -0.1292
  292TMC3    C8 4410   2.811   0.877   0.883  0.0865  0.5689 -0.2095
  292TMC3    O1 4411   2.715   0.672   0.445  0.4475 -0.3518 -0.0494
  292TMC3    O2 4412   2.870   0.773   0.863  0.1579 -0.4562 -0.1412
  293MPD2     C 4413   0.391   3.520  12.732 -0.8313  0.5001 -0.5685
  293MPD2    C1 4414   0.295   3.429  12.762 -0.2201  0.1657  0.1980
  293MPD2    C2 4415   0.297   3.378  12.894 -0.2134  0.2022  0.3878
  293MPD2    C3 4416   0.391   3.421  12.986 -0.0716  0.1836 -0.2329
  293MPD2    C4 4417   0.474   3.521  12.954 -0.6442  0.1660  0.3094
  293MPD2    C5 4418   0.476   3.569  12.828 -0.4105 -0.3210 -0.0573
  293MPD2     H 4419   0.221   3.305  12.920 -1.3969  1.8861  1.6284
  293MPD2    H1 4420   0.552   3.568  13.013  0.5628  0.1763 -1.3075
  293MPD2    H2 4421   0.402   3.553  12.630  0.1779  1.3214 -0.1847
  293MPD2    H3 4422   0.542   3.645  12.790  0.2490 -0.8431  0.0395
  293MPD2     N 4423   0.377   3.362  13.116  0.1837 -0.0347 -0.0407
  293MPD2    H5 4424   0.292   3.309  13.134  0.0119  0.4507  0.5667
  293MPD2    N1 4425   0.219   3.373  12.655 -0.1956 -0.1470 -0.0859
  293MPD2    H7 4426   0.246   3.408  12.564 -1.7110  1.1189 -0.0511
  294TMC3    C1 4427   0.089   3.202  12.532 -0.1216  0.2029 -0.2209
  294TMC3    C2 4428   4.721   3.097  12.537 -0.2804  0.5517  0.2505
  294TMC3    C3 4429   4.716   3.019  12.423  0.5024 -0.0065 -0.5761
  294TMC3    C4 4430   0.175   3.225  12.423 -0.1484  0.3581 -0.1711
  294TMC3    C5 4431   0.153   3.145  12.313  0.3171 -0.7581 -0.2382
  294TMC3    C6 4432   0.059   3.044  12.311 -0.2080  0.6396 -0.0326
  294TMC3     C 4433   0.126   3.271  12.660  0.2045 -0.0449 -0.0896
  294TMC3     O 4434   0.045   3.256  12.747  0.5177  0.7329 -0.2329
  294TMC3     H 4435   4.665   3.078  12.628  0.8941  0.3008  0.9164
  294TMC3    H1 4436   0.251   3.303  12.426 -1.9213  2.0617  0.1272
  294TMC3    H2 4437   0.045   2.986  12.220 -0.1613  2.2299 -1.0533
  294TMC3    C7 4438   0.224   3.187  12.190  0.8846  0.1922 -0.1013
  294TMC3    C8 4439   4.651   2.898  12.458 -0.0919  0.0707 -0.1961
  294TMC3    O1 4440   0.266   3.301  12.200  0.5632 -0.7290  0.0643
  294TMC3    O2 4441   4.611   2.881  12.574  0.6866 -0.0678 -0.3862
  295MPD2     C 4442   0.888   1.221   1.263  0.5847  0.3720 -0.0429
  295MPD2    C1 4443   0.912   1.099   1.211  1.4671 -0.4472  0.4043
  295MPD2    C2 4444   0.990   1.006   1.291  1.2274  0.1834  0.1096
  295MPD2    C3 4445   1.033   1.047   1.418 -0.2453 -0.3603  0.7645
  295MPD2    C4 4446   1.005   1.175   1.455 -0.4042 -0.1269  0.1711
  295MPD2    C5 4447   0.940   1.258   1.383 -0.1252 -0.0453  0.2668
  295MPD2     H 4448   1.024   0.914   1.246  0.7991 -0.1056  0.3863
  295MPD2    H1 4449   1.036   1.218   1.550  0.7561 -0.4561 -0.0618
  295MPD2    H2 4450   0.828   1.296   1.211 -3.7843 -1.1057  2.8257
  295MPD2    H3 4451   0.912   1.360   1.408 -0.3786  0.0709 -0.4842
  295MPD2     N 4452   1.100   0.964   1.505  0.0315  0.4753 -0.0688
  295MPD2    H5 4453   1.101   1.000   1.600  2.8230  2.7215 -0.9645
  295MPD2    N1 4454   0.879   1.064   1.078  0.0320 -1.0328  0.7033
  295MPD2    H7 4455   0.933   0.986   1.041  2.7470 -0.1023  2.7635
  296TMC3    C1 4456   1.193   0.784   1.609 -0.3162  0.9223  0.1210
  296TMC3    C2 4457   1.266   0.863   1.697  0.8769 -0.2232  0.5168
  296TMC3    C3 4458   1.271   0.818   1.823  0.3319 -0.2016  0.7927
  296TMC3    C4 4459   1.130   0.666   1.636 -0.3998  0.5313 -0.0245
  296TMC3    C5 4460   1.150   0.626   1.770 -0.1979 -0.3132 -0.3928
  296TMC3    C6 4461   1.223   0.698   1.861 -0.1551 -0.1251  0.1243
  296TMC3     C 4462   1.161   0.843   1.482  0.7209 -0.8235  0.3983
  296TMC3     O 4463   1.148   0.770   1.386 -0.0058  0.4238 -0.2924
  296TMC3     H 4464   1.296   0.962   1.663 -0.9232  0.1798  0.0640
  296TMC3    H1 4465   1.102   0.601   1.554 -0.6451  0.5679  0.0301
  296TMC3    H2 4466   1.233   0.648   1.957 -0.5711  0.2784  0.3776
  296TMC3    C7 4467   1.060   0.523   1.810  0.4845 -0.2046 -0.1851
  296TMC3    C8 4468   1.350   0.891   1.922 -0.0319  0.1560 -0.0261
  296TMC3    O1 4469   1.086   0.461   1.914  0.1675  0.5158  0.4231
  296TMC3    O2 4470   1.428   0.825   1.996  0.1312  0.0385 -0.0815
  297MPD2     C 4471   2.454   3.253  16.834 -0.1760  0.0808  0.1675
  297MPD2    C1 4472   2.429   3.291  16.703  0.1148  0.3339 -1.3166
  297MPD2    C2 4473   2.516   3.380  16.648 -0.7008  0.7785  0.4436
  297MPD2    C3 4474   2.622   3.433  16.715 -0.6142  0.0620  0.5565
  297MPD2    C4 4475   2.649   3.389  16.845 -0.2952  0.7402  0.0146
  297MPD2    C5 4476   2.571   3.291  16.900 -0.3531 -0.2083 -0.2513
  297MPD2     H 4477   2.493   3.432  16.555  0.3153  0.7267  0.1661
  297MPD2    H1 4478   2.744   3.417  16.890 -0.5692  2.4171 -0.4477
  297MPD2    H2 4479   2.388   3.184  16.885 -0.4233  1.9113  2.3492
  297MPD2    H3 4480   2.607   3.246  16.992  0.2515  0.9691  0.0846
  297MPD2     N 4481   2.687   3.544  16.658  0.2192  0.3243  0.5000
  297MPD2    H5 4482   2.658   3.577  16.567 -0.5521  0.5729  0.8348
  297MPD2    N1 4483   2.313   3.252  16.638 -0.2923 -0.2583  0.5102
  297MPD2    H7 4484   2.323   3.278  16.540 -0.0280 -0.9322  0.3565
  298TMC3    C1 4485   2.081   3.219  16.616 -0.4639  0.5761  0.8016
  298TMC3    C2 4486   2.093   3.183  16.483  0.6456  0.0313 -0.3467
  298TMC3    C3 4487   2.011   3.249  16.402 -0.1641 -0.3324  0.0885
  298TMC3    C4 4488   1.977   3.293  16.670 -0.0789 -0.2538  0.8969
  298TMC3    C5 4489   1.903   3.360  16.580 -0.1855 -0.1736  0.1088
  298TMC3    C6 4490   1.915   3.337  16.446  0.7362 -0.7339 -0.3181
  298TMC3     C 4491   2.200   3.195  16.698 -0.7032  0.3378 -0.5988
  298TMC3     O 4492   2.179   3.183  16.818 -0.2443  0.3212 -0.8930
  298TMC3     H 4493   2.168   3.115  16.446  2.3828  1.7534 -0.0046
  298TMC3    H1 4494   1.964   3.310  16.776  1.2462  2.4361  0.6119
  298TMC3    H2 4495   1.867   3.394  16.367 -1.1828 -0.5184  1.0211
  298TMC3    C7 4496   1.812   3.460  16.638  0.3727 -0.7000  0.6384
  298TMC3    C8 4497   2.013   3.202  16.262 -0.3781  0.5247 -0.2614
  298TMC3    O1 4498   1.807   3.488  16.758 -0.2942  0.0729 -0.2436
  298TMC3    O2 4499   2.112   3.140  16.229  0.2851 -0.0168 -0.0160
  299MPD2     C 4500   3.646   3.052  11.222  0.1843 -0.1072 -0.3450
  299MPD2    C1 4501   3.644   3.150  11.124  0.9991  0.0554 -0.5748
  299MPD2    C2 4502   3.588   3.124  11.005 -0.2566 -0.2965  0.0117
  299MPD2    C3 4503   3.539   2.996  10.977  0.5872  0.2118 -0.4549
  299MPD2    C4 4504   3.564   2.889  11.068  0.3304 -0.6167 -0.1869
  299MPD2    C5 4505   3.611   2.927  11.194  0.4001 -0.4903  0.6906
  299MPD2     H 4506   3.591   3.197  10.926 -0.3896 -1.5836 -1.1812
  299MPD2    H1 4507   3.541   2.785  11.049 -1.0347 -1.0650  3.9521
  299MPD2    H2 4508   3.706   3.063  11.312 -0.4144  0.0650  0.0353
  299MPD2    H3 4509   3.635   2.849  11.266 -1.1275 -1.6568 -0.0754
  299MPD2     N 4510   3.470   2.960  10.857  0.4890  0.2840 -0.9231
  299MPD2    H5 4511   3.477   2.862  10.831 -2.1224 -0.3347  0.7610
  299MPD2    N1 4512   3.726   3.263  11.143 -0.2073  0.0883 -0.1120
  299MPD2    H7 4513   3.766   3.270  11.236 -1.4598 -0.2975  0.4530
  300TMC3    C1 4514   3.301   2.983  10.698  0.3794 -0.0455  0.2429
  300TMC3    C2 4515   3.225   3.083  10.639 -0.3380 -1.1446 -0.1089
  300TMC3    C3 4516   3.096   3.072  10.652 -0.6833  0.9536 -0.3195
  300TMC3    C4 4517   3.248   2.878  10.764  0.3357  0.6141  0.4858
  300TMC3    C5 4518   3.111   2.875  10.772 -0.8735  0.4305  0.4636
  300TMC3    C6 4519   3.030   2.975  10.721  0.6450  0.2546  1.0641
  300TMC3     C 4520   3.396   3.044  10.788  0.3945 -0.4436 -0.1868
  300TMC3     O 4521   3.382   3.162  10.813  0.1413 -0.0899  0.2436
  300TMC3     H 4522   3.271   3.174  10.601 -1.2825 -0.2198  0.9457
  300TMC3    H1 4523   3.307   2.792  10.795  1.0219  0.8009 -0.3150
  300TMC3    H2 4524   2.921   2.973  10.725  0.5361  3.4996 -0.2031
  300TMC3    C7 4525   3.056   2.794  10.880  0.1511  0.1897  0.6001
  300TMC3    C8 4526   3.025   3.199  10.647 -0.4532  0.0710  0.0147
  300TMC3    O1 4527   3.101   2.682  10.909 -0.5311 -0.1768  0.5331
  300TMC3    O2 4528   2.930   3.206  10.576 -0.1712 -0.1050  0.3501
  301MPD2     C 4529   1.363   0.137   0.669 -0.8286 -0.5703 -0.5788
  301MPD2    C1 4530   1.229   0.176   0.680  0.5899 -0.0362 -0.3092
  301MPD2    C2 4531   1.134   0.114   0.598 -0.7064  0.3669  0.1658
  301MPD2    C3 4532   1.170   0.020   0.506 -0.7271 -0.2050 -0.1701
  301MPD2    C4 4533   1.304   4.716   0.486  0.2266 -0.0846 -0.1964
  301MPD2    C5 4534   1.401   0.048   0.572 -0.1888  0.2781 -0.0051
  301MPD2     H 4535   1.029   0.140   0.609 -0.5825  0.6219  0.7798
  301MPD2    H1 4536   1.330   4.643   0.410  0.3083  1.4963 -1.7088
  301MPD2    H2 4537   1.432   0.186   0.737 -0.5734 -2.6760  0.6706
  301MPD2    H3 4538   1.500   0.012   0.549  0.7126  0.8386  2.9304
  301MPD2     N 4539   1.083   4.658   0.436 -0.4888 -0.8356  0.3651
  301MPD2    H5 4540   1.115   4.581   0.379 -1.5766  0.5900 -2.1453
  301MPD2    N1 4541   1.180   0.275   0.767  0.9852  0.5005 -0.5329
  301MPD2    H7 4542   1.086   0.314   0.757  0.2904 -0.9126  0.4316
  302TMC3    C1 4543   0.880   4.540   0.437  0.2354  0.7104 -0.3110
  302TMC3    C2 4544   0.952   4.424   0.462  0.3580  0.0002 -0.8273
  302TMC3    C3 4545   0.886   4.317   0.523 -0.2267 -0.3860 -0.0606
  302TMC3    C4 4546   0.745   4.539   0.471  0.3080 -0.1444 -0.3054
  302TMC3    C5 4547   0.681   4.434   0.534 -0.0056 -0.6575  0.5959
  302TMC3    C6 4548   0.750   4.321   0.565 -0.5007  0.4722  0.5921
  302TMC3     C 4549   0.946   4.669   0.453  0.2673 -1.1773  0.1899
  302TMC3     O 4550   0.875   0.024   0.518  0.0465  0.6513  0.1781
  302TMC3     H 4551   1.060   4.428   0.461  0.3543  0.3393  0.6660
  302TMC3    H1 4552   0.684   4.629   0.464  0.0124 -0.5461 -2.9419
  302TMC3    H2 4553   0.689   4.243   0.608 -2.7004  1.1743 -1.2489
  302TMC3    C7 4554   0.572   4.475   0.631  0.0203 -0.6828 -0.4631
  302TMC3    C8 4555   0.977   4.243   0.618 -0.4551 -0.1055 -0.3230
  302TMC3    O1 4556   0.574   4.584   0.680  0.0355  0.0463  0.7600
  302TMC3    O2 4557   1.100   4.237   0.595 -0.3498 -0.8351 -0.1842
  303MPD2     C 4558   1.271   3.595  10.378  0.9968 -0.0959  0.1530
  303MPD2    C1 4559   1.182   3.499  10.418  0.1303 -0.1238  0.4641
  303MPD2    C2 4560   1.184   3.374  10.358  0.4266 -0.3560  0.2530
  303MPD2    C3 4561   1.271   3.353  10.251 -0.4831 -0.1868  0.1600
  303MPD2    C4 4562   1.363   3.455  10.214 -0.7832  0.7532  0.4446
  303MPD2    C5 4563   1.351   3.577  10.275  0.1187 -0.5903  0.0936
  303MPD2     H 4564   1.117   3.297  10.393  0.1406 -0.8790 -1.4338
  303MPD2    H1 4565   1.436   3.443  10.135 -0.6154  0.2672  0.6743
  303MPD2    H2 4566   1.267   3.692  10.426 -0.0853 -0.4723  0.8376
  303MPD2    H3 4567   1.419   3.655  10.242 -0.5245  0.1814  0.6106
  303MPD2     N 4568   1.288   3.237  10.177 -0.2604 -0.1394  0.1104
  303MPD2    H5 4569   1.349   3.236  10.096  0.1641  3.9587  0.3934
  303MPD2    N1 4570   1.100   3.536  10.527 -0.2632  0.1071  0.5298
  303MPD2    H7 4571   1.086   3.635  10.547  0.4752  0.1011  1.0628
  304TMC3    C1 4572   0.919   3.520  10.676 -0.3159  0.9378  0.1100
  304TMC3    C2 4573   0.825   3.596  10.613 -0.1048 -0.9507 -0.1677
  304TMC3    C3 4574   0.699   3.594  10.659 -1.2737 -0.2854 -0.0954
  304TMC3    C4 4575   0.880   3.443  10.779  0.0532  0.0704  0.3248
  304TMC3    C5 4576   0.754   3.445  10.834 -0.3056 -0.8058  0.1456
  304TMC3    C6 4577   0.667   3.538  10.779  0.7808 -0.5987 -0.1137
  304TMC3     C 4578   1.017   3.456  10.600  0.4216 -0.2789 -0.0942
  304TMC3     O 4579   1.023   3.337  10.626 -0.1429 -0.1541 -0.2401
  304TMC3     H 4580   0.859   3.642  10.521 -0.6226  0.4311  0.3291
  304TMC3    H1 4581   0.941   3.370  10.831  0.6188  0.0609 -0.3576
  304TMC3    H2 4582   0.560   3.536  10.797  0.6668 -1.4009 -0.8962
  304TMC3    C7 4583   0.685   3.321  10.864 -0.4570 -0.0220  0.8527
  304TMC3    C8 4584   0.599   3.558  10.557  0.5443  0.9452 -0.1051
  304TMC3    O1 4585   0.726   3.224  10.797 -0.0369  0.3747 -0.1968
  304TMC3    O2 4586   0.485   3.539  10.590  0.3379 -0.1584  0.5871
  305MPD2     C 4587   3.549   0.028  14.347  0.5012  0.1952 -0.1800
  305MPD2    C1 4588   3.681   4.707  14.326  0.3237 -0.3674  0.4315
  305MPD2    C2 4589   3.714   4.641  14.208 -0.4383  0.5365  0.1873
  305MPD2    C3 4590   3.618   4.613  14.119 -0.5215 -0.6173  0.1205
  305MPD2    C4 4591   3.490   4.644  14.142  0.4317 -0.2118 -0.0325
  305MPD2    C5 4592   3.457   4.723  14.247 -0.0260 -0.1387  0.3318
  305MPD2     H 4593   3.818   4.617  14.189 -0.2382  1.4657  0.1513
  305MPD2    H1 4594   3.416   4.620  14.067 -0.3457  1.3145  0.2545
  305MPD2    H2 4595   3.522   0.081  14.437 -0.6122  0.9128 -0.9417
  305MPD2    H3 4596   3.354   0.029  14.258 -0.5465 -1.8619  0.0229
  305MPD2     N 4597   3.648   4.552  13.995  0.2817  0.8100  0.6205
  305MPD2    H5 4598   3.566   4.542  13.935  0.2501 -0.8622  0.9554
  305MPD2    N1 4599   3.764   4.723  14.436  0.2328 -0.0301  0.0648
  305MPD2    H7 4600   3.722   0.036  14.520 -1.3451  2.4774 -1.8204
  306TMC3    C1 4601   3.922   4.677  14.600 -0.1870 -0.2364 -0.7544
  306TMC3    C2 4602   3.998   4.572  14.637 -0.5934  0.1305  0.2640
  306TMC3    C3 4603   4.018   4.547  14.768  0.4292  0.3107 -0.1791
  306TMC3    C4 4604   3.858   0.027  14.695 -0.4179  0.7480  0.2766
  306TMC3    C5 4605   3.889   0.001  14.825  0.4091  0.6707 -0.3255
  306TMC3    C6 4606   3.973   4.626  14.867 -0.6833  0.6744 -0.3244
  306TMC3     C 4607   3.889   4.674  14.456 -0.0425  0.8668  0.2309
  306TMC3     O 4608   3.967   4.626  14.378 -0.2235 -0.3430 -0.2688
  306TMC3     H 4609   4.043   4.502  14.567 -2.1185 -0.5333 -0.0620
  306TMC3    H1 4610   3.802   0.118  14.677 -0.5895  0.7608  0.8642
  306TMC3    H2 4611   3.976   4.597  14.971  2.0263 -2.2056 -1.2238
  306TMC3    C7 4612   3.822   0.084  14.924 -0.0276 -0.1358 -0.2550
  306TMC3    C8 4613   4.120   4.443  14.787  0.3101  1.0823  0.4435
  306TMC3    O1 4614   3.713   0.128  14.897 -0.2068 -0.4959  0.2306
  306TMC3    O2 4615   4.123   4.345  14.711  0.1705 -0.1837 -0.1294
  307MPD2     C 4616   1.503   2.754   0.894 -0.1010 -0.0132 -0.3486
  307MPD2    C1 4617   1.396   2.718   0.814  0.2383  0.4336  0.9067
  307MPD2    C2 4618   1.295   2.808   0.790  0.3298  0.6272  0.6375
  307MPD2    C3 4619   1.302   2.939   0.845 -0.3990  0.2880  0.1637
  307MPD2    C4 4620   1.417   2.979   0.914 -0.4668 -0.1989 -0.2135
  307MPD2    C5 4621   1.516   2.887   0.926  0.1541  0.2520  0.5520
  307MPD2     H 4622   1.203   2.771   0.746  0.6242 -0.3836  0.8608
  307MPD2    H1 4623   1.424   3.078   0.957  3.0773  0.2103 -1.6762
  307MPD2    H2 4624   1.583   2.686   0.922  1.2374  1.0971 -1.4922
  307MPD2    H3 4625   1.603   2.927   0.977 -1.4730  1.0684  2.6891
  307MPD2     N 4626   1.207   3.032   0.806 -0.3715  0.4684  0.5354
  307MPD2    H5 4627   1.145   3.015   0.728  2.9502 -1.3466 -1.7214
  307MPD2    N1 4628   1.397   2.594   0.745 -0.2029 -0.2464 -0.0580
  307MPD2    H7 4629   1.316   2.572   0.687 -1.4731 -2.7097  2.6718
  308TMC3    C1 4630   0.881   3.296   0.852  0.3056  0.3738 -0.2776
  308TMC3    C2 4631   0.842   3.266   0.726 -0.1914 -0.8113 -0.7081
  308TMC3    C3 4632   0.934   3.213   0.637  0.0498  0.1032  0.2003
  308TMC3    C4 4633   1.007   3.278   0.897 -0.4731 -0.3310  0.3390
  308TMC3    C5 4634   1.098   3.229   0.807  0.3435 -0.2011  0.4958
  308TMC3    C6 4635   1.064   3.203   0.676 -0.1105  0.2953 -0.0065
  308TMC3     C 4636   0.792   3.315   0.956 -0.2060  0.7437  1.1620
  308TMC3     O 4637   0.831   3.357   1.066 -0.1267 -0.2831 -0.1865
  308TMC3     H 4638   0.741   3.293   0.696 -0.0014  0.3220 -0.3108
  308TMC3    H1 4639   1.032   3.292   1.002  0.0852  0.0602  0.1528
  308TMC3    H2 4640   1.141   3.172   0.605 -1.1814 -1.0516 -0.5815
  308TMC3    C7 4641   1.201   3.154   0.867 -0.9272  0.0547 -0.4475
  308TMC3    C8 4642   0.916   3.210   0.495  0.4938 -0.6431  1.0791
  308TMC3    O1 4643   1.234   3.184   0.979 -0.5312 -0.2101  0.3024
  308TMC3    O2 4644   1.015   3.222   0.424 -0.2214 -0.2407  0.3834
  309MPD2     C 4645   4.646   2.340  17.500  0.1821 -0.2085  0.0691
  309MPD2    C1 4646   4.685   2.436  17.408 -0.7321 -0.1551  0.4198
  309MPD2    C2 4647   4.649   2.568  17.424 -0.0587  0.1900 -0.2062
  309MPD2    C3 4648   4.586   2.611  17.539  0.6413 -0.1221 -0.7510
  309MPD2    C4 4649   4.552   2.512  17.630  0.2621 -0.0821 -0.0033
  309MPD2    C5 4650   4.574   2.380  17.613  0.5734 -0.0194 -0.6694
  309MPD2     H 4651   4.683   2.641  17.351  1.6299 -0.8193 -0.4056
  309MPD2    H1 4652   4.505   2.541   0.026  0.6667  0.2109  0.1090
  309MPD2    H2 4653   4.664   2.234  17.485  0.6502  0.0281 -1.0082
  309MPD2    H3 4654   4.538   2.307  17.684 -2.0320  1.0890 -0.8664
  309MPD2     N 4655   4.564   2.747  17.573 -0.1943  0.0957 -0.8589
  309MPD2    H5 4656   4.518   2.772  17.660 -0.0120  2.5630 -1.4777
  309MPD2    N1 4657   0.039   2.412  17.298 -0.2114 -1.0035 -0.3560
  309MPD2    H7 4658   0.065   2.488  17.235 -1.0166  0.3177  0.9251
  310TMC3    C1 4659   0.153   2.303  17.130  0.1169 -0.3292 -0.5051
  310TMC3    C2 4660   0.129   2.410  17.052 -0.2229  0.0895  0.1863
  310TMC3    C3 4661   0.217   2.433  16.947  0.5386 -0.1960  0.0946
  310TMC3    C4 4662   0.262   2.228  17.117  0.3962 -0.0920  0.2270
  310TMC3    C5 4663   0.345   2.257  17.010  0.7162  0.4484  0.0572
  310TMC3    C6 4664   0.329   2.364  16.920  0.1642 -0.2525 -0.8364
  310TMC3     C 4665   0.081   2.287  17.256  0.4394 -0.3363  0.7762
  310TMC3     O 4666   0.093   2.182  17.316 -0.2279 -0.4006 -0.0643
  310TMC3     H 4667   0.042   2.473  17.066 -1.2760 -0.7574 -2.3556
  310TMC3    H1 4668   0.285   2.143  17.181  1.5966  0.2535  0.2337
  310TMC3    H2 4669   0.388   2.369  16.829 -0.9348  2.9675 -1.3732
  310TMC3    C7 4670   0.481   2.207  17.034 -0.3395  0.5666 -0.4559
  310TMC3    C8 4671   0.181   2.539  16.856  0.3207  0.0290 -0.8665
  310TMC3    O1 4672   0.497   2.116  17.113  0.4495  0.0978  0.5411
  310TMC3    O2 4673   0.197   2.514  16.738 -0.3636 -0.3110  0.1119
  311MPD2     C 4674   2.771   4.345  13.163  0.4950 -0.6166 -0.6972
  311MPD2    C1 4675   2.780   4.445  13.260 -0.4963 -0.0811 -0.2740
  311MPD2    C2 4676   2.658   4.482  13.329  0.2577 -0.7367  0.7147
  311MPD2    C3 4677   2.539   4.422  13.293  0.0709 -0.2291 -0.4586
  311MPD2    C4 4678   2.541   4.327  13.186 -0.3614 -0.3972  0.7189
  311MPD2    C5 4679   2.654   4.296  13.126  0.3700 -1.5125 -0.0257
  311MPD2     H 4680   2.665   4.563  13.400  1.6393 -1.0169  0.8969
  311MPD2    H1 4681   2.444   4.287  13.158  0.4834 -0.9656 -1.4120
  311MPD2    H2 4682   2.865   4.305  13.127  2.3610  1.8847  1.3034
  311MPD2    H3 4683   2.649   4.228  13.041  0.5415 -2.0281  0.3775
  311MPD2     N 4684   2.421   4.465  13.354  0.4331 -0.2628 -0.5630
  311MPD2    H5 4685   2.432   4.531  13.431  0.3560 -0.6807 -0.1889
  311MPD2    N1 4686   2.899   4.510  13.290 -0.1408 -0.7587 -0.4079
  311MPD2    H7 4687   2.901   4.576  13.366 -0.2714 -0.0379 -1.0295
  312TMC3    C1 4688   2.189   4.479  13.397  0.1368 -0.0955  0.3487
  312TMC3    C2 4689   2.082   4.493  13.312  0.6960 -0.0755  0.2534
  312TMC3    C3 4690   2.005   4.608  13.314 -0.0771  0.6302  0.0405
  312TMC3    C4 4691   2.203   4.571  13.494 -0.1044  0.6540  0.1406
  312TMC3    C5 4692   2.119   4.674  13.500 -0.2208 -0.0020  1.0062
  312TMC3    C6 4693   2.019   4.695  13.413  0.9834  0.1404  0.2901
  312TMC3     C 4694   2.301   4.408  13.344 -0.4701 -0.2474  1.1459
  312TMC3     O 4695   2.270   4.306  13.291 -0.2611  0.1565 -0.3671
  312TMC3     H 4696   2.075   4.421  13.232 -0.2172  1.1120 -0.7336
  312TMC3    H1 4697   2.284   4.561  13.566  1.1571 -0.9943 -1.5188
  312TMC3    H2 4698   1.948   0.051  13.430 -1.8439 -2.2894  0.0834
  312TMC3    C7 4699   2.114   0.020  13.624 -0.0034 -0.1113 -0.6259
  312TMC3    C8 4700   1.897   4.624  13.220  0.4081  1.1033  0.0017
  312TMC3    O1 4701   2.087   0.136  13.608 -0.9999  0.1828 -0.3055
  312TMC3    O2 4702   1.889   4.522  13.153  0.4538 -0.2317  0.0138
  313MPD2     C 4703   2.154   3.426  11.219  0.1615 -0.2545  0.5678
  313MPD2    C1 4704   2.231   3.538  11.179 -0.3677 -0.4897  0.0101
  313MPD2    C2 4705   2.342   3.526  11.103 -0.5202 -0.0580 -0.1990
  313MPD2    C3 4706   2.384   3.401  11.060 -0.1067 -0.5304  0.7255
  313MPD2    C4 4707   2.314   3.286  11.108  0.3211  0.1002 -0.2705
  313MPD2    C5 4708   2.205   3.306  11.179 -0.6671 -0.4864  0.0019
  313MPD2     H 4709   2.407   3.611  11.081 -0.5409  0.1289  0.4588
  313MPD2    H1 4710   2.344   3.183  11.090 -0.4407 -0.6520  2.6453
  313MPD2    H2 4711   2.069   3.441  11.284  1.6135  0.8738  2.1879
  313MPD2    H3 4712   2.156   3.216  11.214  1.9646 -1.0846  2.1652
  313MPD2     N 4713   2.490   3.375  10.969  0.0670  0.4423  0.1584
  313MPD2    H5 4714   2.494   3.278  10.937  3.2540  0.6104 -0.0003
  313MPD2    N1 4715   2.188   3.660  11.225  0.1007 -0.3396 -0.1853
  313MPD2    H7 4716   2.254   3.737  11.212 -1.1341  0.6582 -0.5413
  314TMC3    C1 4717   2.053   3.839  11.274  0.0977  0.4246 -0.4859
  314TMC3    C2 4718   2.157   3.917  11.310 -0.3720  0.7965  0.3495
  314TMC3    C3 4719   2.136   4.048  11.282  0.0547 -0.0789 -0.1134
  314TMC3    C4 4720   1.942   3.879  11.205  0.0443 -0.3472 -0.6230
  314TMC3    C5 4721   1.935   4.008  11.163 -0.2959 -0.2885  0.3949
  314TMC3    C6 4722   2.030   4.097  11.207  0.1110  0.6940 -0.8360
  314TMC3     C 4723   2.068   3.698  11.277  0.3475 -0.6219  0.2820
  314TMC3     O 4724   1.968   3.633  11.282  0.3329  0.1922 -0.1290
  314TMC3     H 4725   2.230   3.877  11.380  0.4821  0.7746 -0.5469
  314TMC3    H1 4726   1.871   3.811  11.162  0.1783  0.3770 -1.9714
  314TMC3    H2 4727   2.041   4.195  11.161 -2.1642  1.8185  0.9968
  314TMC3    C7 4728   1.870   4.026  11.033 -0.2791 -0.0478 -0.5169
  314TMC3    C8 4729   2.228   4.159  11.319  0.1790 -0.0613 -0.1522
  314TMC3    O1 4730   1.788   3.947  10.996 -0.4454 -0.1154 -0.3338
  314TMC3    O2 4731   2.182   4.270  11.335  0.5242 -0.0905 -0.4951
  315MPD2     C 4732   1.469   2.990   0.114 -0.2108  0.5213 -0.2443
  315MPD2    C1 4733   1.525   3.001   0.240 -0.7617 -0.3794  0.2123
  315MPD2    C2 4734   1.586   3.124   0.267  0.4535 -0.1940  0.0696
  315MPD2    C3 4735   1.597   3.218   0.164 -0.3983 -0.1532 -0.3525
  315MPD2    C4 4736   1.522   3.214   0.049  0.1894 -0.2766  0.1092
  315MPD2    C5 4737   1.461   3.096   0.029 -0.2331 -0.7562 -0.1829
  315MPD2     H 4738   1.630   3.146   0.364 -0.2087 -0.5970  0.4606
  315MPD2    H1 4739   1.515   3.287  17.667  1.3969  0.0598  0.3022
  315MPD2    H2 4740   1.413   2.902   0.083 -3.3411  2.3076  0.2999
  315MPD2    H3 4741   1.400   3.083  17.638  0.9208 -0.4363 -1.0227
  315MPD2     N 4742   1.679   3.333   0.200 -0.2251 -0.5085 -0.0519
  315MPD2    H5 4743   1.720   3.325   0.293  1.3172  1.1810 -0.5886
  315MPD2    N1 4744   1.535   2.902   0.347  1.0392 -0.0423  0.2950
  315MPD2    H7 4745   1.571   2.932   0.437  1.0402 -0.6786  0.5080
  316TMC3    C1 4746   1.822   3.522   0.172 -0.5382  0.8690 -0.5695
  316TMC3    C2 4747   1.900   3.482   0.276  0.4035  0.5660  0.2838
  316TMC3    C3 4748   2.016   3.552   0.279  0.2627 -0.5837  0.2031
  316TMC3    C4 4749   1.851   3.620   0.079  0.0757 -0.3403  0.3732
  316TMC3    C5 4750   1.967   3.689   0.102  0.0394 -0.5158  0.1768
  316TMC3    C6 4751   2.054   3.650   0.199 -0.3644  0.3304 -0.6738
  316TMC3     C 4752   1.707   3.439   0.120 -0.0552 -0.0888  0.3732
  316TMC3     O 4753   1.656   3.462   0.012 -0.1645  0.4700  0.2828
  316TMC3     H 4754   1.871   3.420   0.361 -2.5349 -0.4365 -1.4538
  316TMC3    H1 4755   1.781   3.637  17.695 -1.4785 -1.2540  1.4980
  316TMC3    H2 4756   2.144   3.706   0.221  0.6342 -2.4699  2.2494
  316TMC3    C7 4757   1.999   3.812   0.041 -0.1896  0.0031 -0.2025
  316TMC3    C8 4758   2.100   3.529   0.391 -0.0178  0.8032 -0.2381
  316TMC3    O1 4759   2.086   3.878   0.094 -0.4778  0.4451 -0.1973
  316TMC3    O2 4760   2.182   3.615   0.417 -0.7383 -0.0333 -0.5772
  317MPD2     C 4761   3.690   1.721  12.790  0.1037 -0.4574 -0.6225
  317MPD2    C1 4762   3.789   1.645  12.732  0.4106  0.3403  0.7360
  317MPD2    C2 4763   3.875   1.568  12.813 -0.1751 -0.2273 -0.6951
  317MPD2    C3 4764   3.875   1.585  12.944 -0.5801 -0.4899 -0.8144
  317MPD2    C4 4765   3.779   1.669  13.004 -0.4586 -0.1242 -0.7246
  317MPD2    C5 4766   3.678   1.730  12.928 -0.2258 -0.1274 -0.3151
  317MPD2     H 4767   3.942   1.495  12.767  0.5698 -1.7333  2.8045
  317MPD2    H1 4768   3.770   1.672  13.112  0.4037  0.7405 -0.6686
  317MPD2    H2 4769   3.634   1.793  12.732 -1.7867 -0.2118  1.5032
  317MPD2    H3 4770   3.596   1.787  12.971 -0.4019 -0.4789 -0.1911
  317MPD2     N 4771   3.968   1.512  13.016 -0.3669  0.6625  0.3209
  317MPD2    H5 4772   4.035   1.453  12.968 -0.4224  1.4746 -0.7485
  317MPD2    N1 4773   3.808   1.628  12.595 -0.1106  0.3363  0.3547
  317MPD2    H7 4774   3.877   1.561  12.562 -1.6184 -0.0932 -1.9765
  318TMC3    C1 4775   4.086   1.424  13.199  0.3431 -0.0796 -0.0363
  318TMC3    C2 4776   4.083   1.298  13.133  0.2513  0.7257  0.2855
  318TMC3    C3 4777   4.143   1.196  13.206  0.3889  0.1662  0.3345
  318TMC3    C4 4778   4.142   1.444  13.323  0.4852 -0.0176  0.6955
  318TMC3    C5 4779   4.207   1.336  13.382 -0.1059  0.3382 -0.3799
  318TMC3    C6 4780   4.207   1.210  13.321 -0.2115 -0.2752 -0.3393
  318TMC3     C 4781   3.984   1.514  13.153  0.3541 -0.6899  0.5349
  318TMC3     O 4782   3.944   1.591  13.239 -0.5498  0.4230 -0.5281
  318TMC3     H 4783   4.028   1.281  13.041  0.6537  0.8949  0.0108
  318TMC3    H1 4784   4.163   1.540  13.367  3.7876 -0.0047 -0.8900
  318TMC3    H2 4785   4.228   1.122  13.381  1.9244  0.8662  0.5820
  318TMC3    C7 4786   4.257   1.349  13.515  0.0426  0.5506 -0.1495
  318TMC3    C8 4787   4.121   1.053  13.174  0.5096 -0.3761  0.0545
  318TMC3    O1 4788   4.216   1.436  13.594  0.3347 -0.6326  0.4247
  318TMC3    O2 4789   4.183   0.969  13.233 -0.2007 -0.0256  0.1901
  319MPD2     C 4790   4.231   2.676  17.410  0.6699 -0.4149  0.4798
  319MPD2    C1 4791   4.179   2.558  17.370  0.8995 -0.1183  0.2088
  319MPD2    C2 4792   4.124   2.540  17.250  0.3902 -0.6923 -0.1442
  319MPD2    C3 4793   4.107   2.641  17.155 -0.4371 -0.0176  0.3581
  319MPD2    C4 4794   4.158   2.764  17.190  0.6184  0.2974  0.5360
  319MPD2    C5 4795   4.219   2.775  17.318  0.0905  0.0947 -0.1194
  319MPD2     H 4796   4.099   2.438  17.221 -4.8335  0.4350  0.2593
  319MPD2    H1 4797   4.154   2.845  17.117  0.3889  0.1758  0.4151
  319MPD2    H2 4798   4.285   2.691  17.503 -0.3983 -1.6017  1.2713
  319MPD2    H3 4799   4.246   2.876  17.344 -0.4747  0.3451 -0.5135
  319MPD2     N 4800   4.052   2.621  17.028  0.2184 -0.3504  0.1861
  319MPD2    H5 4801   4.048   2.698  16.962 -0.6269  1.5503  2.4714
  319MPD2    N1 4802   4.176   2.444  17.451 -0.0279 -0.5718 -0.4907
  319MPD2    H7 4803   4.137   2.359  17.411 -1.7898  0.4473 -0.9409
  320TMC3    C1 4804   3.959   2.495  16.842 -0.3737  0.3462  0.4123
  320TMC3    C2 4805   3.969   2.600  16.757 -0.0814 -0.1008  0.1392
  320TMC3    C3 4806   3.902   2.597  16.640 -0.1315 -0.0627  0.6447
  320TMC3    C4 4807   3.890   2.380  16.804 -0.1900 -0.3717 -0.0653
  320TMC3    C5 4808   3.824   2.384  16.684 -0.4943 -0.4139  0.2923
  320TMC3    C6 4809   3.834   2.487  16.597  0.7352 -0.4892 -0.6345
  320TMC3     C 4810   4.000   2.500  16.982 -0.5449  0.0757 -0.0766
  320TMC3     O 4811   3.975   2.394  17.040 -0.5160 -0.0316 -0.4884
  320TMC3     H 4812   4.029   2.687  16.782 -0.3186  0.1270 -0.0741
  320TMC3    H1 4813   3.890   2.292  16.866 -0.4632  0.3671  0.9935
  320TMC3    H2 4814   3.777   2.483  16.505  0.3937  2.0355 -0.5276
  320TMC3    C7 4815   3.783   2.260  16.628  0.1286  0.1553  0.2520
  320TMC3    C8 4816   3.906   2.726  16.559 -0.0426 -0.1110  0.2392
  320TMC3    O1 4817   3.792   2.259  16.504  0.0779  0.7951  0.2257
  320TMC3    O2 4818   3.913   2.831  16.619 -0.0271  0.0593 -0.8817
  321TMC3    C1 4819   4.230   2.310  17.639 -0.4100  0.2163  0.0068
  321TMC3    C2 4820   4.164   2.208  17.579  0.2623  0.1800  0.2300
  321TMC3    C3 4821   4.145   2.090  17.642 -0.1722  0.6928  0.6082
  321TMC3    C4 4822   4.274   2.288   0.065  0.1980 -0.0580 -0.1939
  321TMC3    C5 4823   4.259   2.168   0.131  0.0512  1.0008  0.2679
  321TMC3    C6 4824   4.185   2.071   0.075  0.1580 -0.3994  0.5109
  321TMC3     C 4825   4.213   2.449  17.583 -0.0644  0.2020  0.1948
  321TMC3     O 4826   4.213   2.543  17.662  0.3623 -0.1874  0.2582
  321TMC3     H 4827   4.148   2.212  17.472 -1.7890 -0.8403  0.4810
  321TMC3    H1 4828   4.331   2.362   0.119  0.0976 -0.9651  1.1404
  321TMC3    H2 4829   4.173   1.976   0.124  3.0364  1.0410  3.9856
  321TMC3    C7 4830   4.372   2.096   0.180 -0.9951 -0.4978 -0.7426
  321TMC3    C8 4831   4.144   1.972  17.561 -0.0495 -0.5381  0.3921
  321TMC3    O1 4832   4.463   2.090   0.097 -0.1208  0.0973  0.3883
  321TMC3    O2 4833   4.040   1.913  17.546 -0.1428  0.8703  0.2761
  322MPD2     C 4834   3.271   4.236  14.053 -0.4509  0.0401  0.1013
  322MPD2    C1 4835   3.382   4.162  14.073  0.2173 -0.3330  0.0803
  322MPD2    C2 4836   3.406   4.057  13.985 -0.3245  0.0209 -0.9254
  322MPD2    C3 4837   3.313   4.017  13.890 -0.2052 -0.1715  0.1212
  322MPD2    C4 4838   3.202   4.101  13.870  0.8182  0.4252 -0.1680
  322MPD2    C5 4839   3.182   4.209  13.950  0.6022  0.5711 -0.6392
  322MPD2     H 4840   3.494   3.994  13.995 -0.0440  0.5754  0.1151
  322MPD2    H1 4841   3.130   4.083  13.791 -1.8162  1.5255  1.9910
  322MPD2    H2 4842   3.260   4.330  14.105  0.8633 -0.0868  0.6003
  322MPD2    H3 4843   3.093   4.270  13.937 -1.0157 -1.5397  0.4656
  322MPD2     N 4844   3.329   3.890  13.827  0.4762 -0.1831 -0.1285
  322MPD2    H5 4845   3.424   3.856  13.822  0.4199 -0.3759  0.1164
  322MPD2    N1 4846   3.479   4.212  14.164 -0.0621 -0.0999  0.3590
  322MPD2    H7 4847   3.452   4.265  14.247  0.9478  1.7758 -0.4998
  323TMC3    C1 4848   3.692   4.238  14.263  0.7873 -0.2933  0.0213
  323TMC3    C2 4849   3.814   4.286  14.225 -0.2890 -0.1459  0.3765
  323TMC3    C3 4850   3.905   4.305  14.325 -0.1710  0.5223 -0.5038
  323TMC3    C4 4851   3.680   4.173  14.386 -0.3118  0.2661 -0.5617
  323TMC3    C5 4852   3.767   4.198  14.488  0.2800  0.3177  0.1713
  323TMC3    C6 4853   3.879   4.278  14.463 -0.0117  0.1011 -0.4766
  323TMC3     C 4854   3.616   4.196  14.142  0.5989 -0.9669  0.2618
  323TMC3     O 4855   3.667   4.176  14.032  0.2740  0.3158  0.0220
  323TMC3     H 4856   3.830   4.304  14.119  1.1816 -2.0218  0.2878
  323TMC3    H1 4857   3.596   4.105  14.392 -0.6518  1.0254  3.6695
  323TMC3    H2 4858   3.965   4.304  14.524 -2.3930  0.6137  2.6538
  323TMC3    C7 4859   3.778   4.096  14.590  0.4194  0.8029  0.0920
  323TMC3    C8 4860   4.041   4.328  14.288 -0.3315  0.3473  0.3677
  323TMC3    O1 4861   3.708   3.997  14.576  0.5399 -0.3716 -0.0348
  323TMC3    O2 4862   4.116   4.300  14.379  0.0044  0.5908  0.2149
  324MPD2     C 4863   1.060   1.178  14.362 -0.3815 -0.0903  0.3238
  324MPD2    C1 4864   1.081   1.054  14.423  0.8878 -0.1739 -0.2427
  324MPD2    C2 4865   0.970   0.990  14.473  0.9618  0.4446 -0.0532
  324MPD2    C3 4866   0.842   1.053  14.465 -0.5627  0.0645  0.1701
  324MPD2    C4 4867   0.828   1.183  14.414  0.0625 -0.2606 -0.3034
  324MPD2    C5 4868   0.936   1.237  14.359  0.4806 -0.1710  0.2700
  324MPD2     H 4869   0.972   0.891  14.515 -2.7380 -0.4356 -2.0429
  324MPD2    H1 4870   0.730   1.231  14.409 -0.3583 -1.1377 -0.5585
  324MPD2    H2 4871   1.138   1.221  14.299 -0.4340  1.2012  1.1295
  324MPD2    H3 4872   0.925   1.336  14.316  0.0660 -1.1549 -1.8980
  324MPD2     N 4873   0.723   0.997  14.505  0.1417 -0.1271  0.6593
  324MPD2    H5 4874   0.646   1.062  14.514  1.6944  1.5288  1.8266
  324MPD2    N1 4875   1.209   0.996  14.405 -0.6394 -0.0343 -0.6095
  324MPD2    H7 4876   1.282   1.051  14.359 -1.0781  0.5332 -0.6389
  325TMC3    C1 4877   0.556   0.847  14.566 -0.1561  0.1834 -0.0922
  325TMC3    C2 4878   0.523   0.722  14.614  0.1343  0.1865  0.1335
  325TMC3    C3 4879   0.392   0.695  14.647 -1.2102  0.7076  0.1705
  325TMC3    C4 4880   0.461   0.946  14.559 -0.3536  0.0640 -0.0857
  325TMC3    C5 4881   0.329   0.920  14.595 -0.5746  0.1419 -0.2485
  325TMC3    C6 4882   0.288   0.795  14.650  0.6075  0.2814  0.3375
  325TMC3     C 4883   0.697   0.869  14.529 -0.4244 -0.5999 -0.7768
  325TMC3     O 4884   0.772   0.777  14.515  0.2005 -0.1220  0.1978
  325TMC3     H 4885   0.591   0.637  14.608  1.0087  0.8218  1.2087
  325TMC3    H1 4886   0.485   1.044  14.520  1.1286 -0.8498 -1.4386
  325TMC3    H2 4887   0.183   0.771  14.647  0.8889 -0.8786 -0.5666
  325TMC3    C7 4888   0.239   1.005  14.527  0.3287  0.5317  0.1938
  325TMC3    C8 4889   0.348   0.559  14.677  0.2775  0.3513 -0.9498
  325TMC3    O1 4890   0.284   1.064  14.427 -0.1823 -0.1513 -0.5293
  325TMC3    O2 4891   0.420   0.465  14.647 -0.4349 -0.0858 -0.2554
  326MPD2     C 4892   1.871   1.347  11.421 -0.5431 -0.0513 -0.0107
  326MPD2    C1 4893   1.810   1.365  11.291 -0.0010 -0.1674 -0.9118
  326MPD2    C2 4894   1.889   1.429  11.194  0.6340 -0.2984 -0.3926
  326MPD2    C3 4895   2.014   1.474  11.225 -0.2020 -1.3213  0.5298
  326MPD2    C4 4896   2.070   1.454  11.349  0.2544  0.5781  0.9319
  326MPD2    C5 4897   1.999   1.391  11.443 -0.4243 -0.8297  0.7033
  326MPD2     H 4898   1.846   1.457  11.099 -1.0138 -2.9773 -0.4135
  326MPD2    H1 4899   2.165   1.498  11.377  1.9532 -2.0431 -0.7586
  326MPD2    H2 4900   1.810   1.312  11.503 -0.2891  1.3674  0.7843
  326MPD2    H3 4901   2.046   1.386  11.541 -2.9397  0.2947  1.9844
  326MPD2     N 4902   2.088   1.568  11.152  0.0205 -0.2407 -0.2611
  326MPD2    H5 4903   2.168   1.613  11.195 -1.1259  2.3956 -0.9035
  326MPD2    N1 4904   1.678   1.320  11.270  0.6677 -0.1197 -0.3956
  326MPD2    H7 4905   1.642   1.352  11.181 -0.0767  1.1181  0.3367
  327TMC3    C1 4906   1.486   1.193  11.270 -0.3124 -0.4364  0.4592
  327TMC3    C2 4907   1.406   1.298  11.236 -0.4856 -0.9385  0.2174
  327TMC3    C3 4908   1.350   1.291  11.114 -0.2659 -1.1258 -0.0996
  327TMC3    C4 4909   1.513   1.092  11.175 -0.0697  0.5014  0.1375
  327TMC3    C5 4910   1.473   1.105  11.044  0.4111  0.0721  0.3724
  327TMC3    C6 4911   1.386   1.203  11.015  0.7304  0.3969 -0.8247
  327TMC3     C 4912   1.599   1.239  11.343 -0.2660 -0.2814  0.1101
  327TMC3     O 4913   1.628   1.174  11.444 -0.2359 -0.4640 -0.7543
  327TMC3     H 4914   1.398   1.376  11.311  1.9870  0.6288 -1.1648
  327TMC3    H1 4915   1.581   1.013  11.206 -1.4351 -0.8032 -0.1523
  327TMC3    H2 4916   1.333   1.197  10.921 -1.1931  1.4259  0.1818
  327TMC3    C7 4917   1.579   1.109  10.945 -0.2638  0.2496  0.0742
  327TMC3    C8 4918   1.289   1.414  11.064 -0.2543  0.6025 -0.1027
  327TMC3    O1 4919   1.567   1.185  10.850  0.4565 -0.1275  0.1612
  327TMC3    O2 4920   1.291   1.429  10.940  0.4816 -0.1332  0.0166
  328MPD2     C 4921   4.009   1.421  17.697 -0.0629 -0.6633 -0.1411
  328MPD2    C1 4922   3.873   1.411   0.014 -0.8863  0.1862 -0.3846
  328MPD2    C2 4923   3.790   1.463  17.621  0.5191  0.2150  0.5619
  328MPD2    C3 4924   3.832   1.521  17.499  0.1828 -0.3046 -0.0299
  328MPD2    C4 4925   3.970   1.528  17.485 -0.7656 -0.0407  0.7474
  328MPD2    C5 4926   4.051   1.476  17.581 -0.8218 -0.6231 -0.2812
  328MPD2     H 4927   3.685   1.437  17.629  0.9938 -1.7682  0.2450
  328MPD2    H1 4928   4.012   1.554  17.388  0.9160 -0.3781  1.3762
  328MPD2    H2 4929   4.079   1.384   0.074  0.2201 -0.6350 -0.3925
  328MPD2    H3 4930   4.158   1.474  17.561 -1.0984 -2.8745 -1.5377
  328MPD2     N 4931   3.747   1.555  17.397 -0.0911 -0.5472 -0.0268
  328MPD2    H5 4932   3.786   1.586  17.309  0.0052  0.7841  0.4754
  328MPD2    N1 4933   3.823   1.351   0.129 -0.5649  0.0900 -0.4737
  328MPD2    H7 4934   3.870   1.354   0.219  0.5337  0.9774 -1.0772
  329TMC3    C1 4935   3.636   1.280   0.244 -0.3246  0.1005 -1.2129
  329TMC3    C2 4936   3.655   1.386   0.330 -0.3765  0.1245 -0.8282
  329TMC3    C3 4937   3.558   1.407   0.425 -0.3387 -0.0223 -0.2536
  329TMC3    C4 4938   3.517   1.205   0.248  0.6895 -0.2368  0.0186
  329TMC3    C5 4939   3.426   1.227   0.350  0.0775  0.3779  0.4619
  329TMC3    C6 4940   3.449   1.330   0.437 -0.4326  0.8581 -0.3348
  329TMC3     C 4941   3.702   1.288   0.120 -0.1856  0.4744  0.2432
  329TMC3     O 4942   3.643   1.232   0.027 -0.1455 -0.1110 -0.1304
  329TMC3     H 4943   3.747   1.444   0.334  0.2496 -1.1932  3.6270
  329TMC3    H1 4944   3.493   1.123   0.181 -0.9926 -1.3309  1.9595
  329TMC3    H2 4945   3.395   1.341   0.531 -0.8117  0.2513 -0.4866
  329TMC3    C7 4946   3.288   1.183   0.333 -0.2586  0.3764 -0.0651
  329TMC3    C8 4947   3.567   1.525   0.509 -0.0967  0.7742 -0.4652
  329TMC3    O1 4948   3.210   1.249   0.393 -0.8963  0.5781 -0.5513
  329TMC3    O2 4949   3.675   1.564   0.548 -0.0474 -0.2495 -0.0992
  330TMC3    C1 4950   1.033   1.235   9.438 -0.2187 -0.7174  0.5324
  330TMC3    C2 4951   1.021   1.117   9.366  0.1580 -0.0703 -0.7313
  330TMC3    C3 4952   1.114   1.018   9.386  0.4406  0.5640  0.4935
  330TMC3    C4 4953   1.138   1.259   9.525 -0.1298 -0.5650 -0.8320
  330TMC3    C5 4954   1.236   1.158   9.529  0.0604  0.8609 -0.4741
  330TMC3    C6 4955   1.222   1.035   9.473  0.1118  0.2928  0.3712
  330TMC3     C 4956   0.920   1.317   9.449  0.3699 -0.2542  0.0460
  330TMC3     O 4957   0.926   1.431   9.496  0.4539 -0.0737 -0.2164
  330TMC3     H 4958   0.937   1.106   9.298 -1.5495 -1.6479  1.6534
  330TMC3    H1 4959   1.152   1.358   9.567 -0.7965 -1.6494  1.8820
  330TMC3    H2 4960   1.295   0.958   9.495  0.6828  0.1706 -1.9431
  330TMC3    C7 4961   1.328   1.157   9.646 -0.2837  1.3464  0.6884
  330TMC3    C8 4962   1.112   0.898   9.297  0.0354 -0.6782  0.0931
  330TMC3    O1 4963   1.403   1.063   9.657  0.3444  0.8317 -0.7144
  330TMC3    O2 4964   1.057   0.910   9.191 -0.0659  0.4591  0.1309
  331MPD2     C 4965   4.690   4.624  13.051  0.1523  0.0938 -0.0771
  331MPD2    C1 4966   0.061   4.666  12.959 -0.8119  0.3829 -0.2859
  331MPD2    C2 4967   0.119   4.575  12.874 -0.4104 -0.2801 -0.1245
  331MPD2    C3 4968   0.069   4.448  12.873  0.6527 -0.6347 -0.2173
  331MPD2    C4 4969   4.699   4.403  12.957  0.4186 -0.6253 -0.0469
  331MPD2    C5 4970   4.656   4.491  13.057  0.5014 -0.3884  0.9560
  331MPD2     H 4971   0.210   4.604  12.823 -0.0930  0.7941  1.0610
  331MPD2    H1 4972   4.654   4.305  12.953 -1.7844  0.4589 -1.5970
  331MPD2    H2 4973   4.646   4.691  13.124  0.6136  0.5097 -0.1790
  331MPD2    H3 4974   4.582   4.464  13.132 -2.6355  0.7584 -1.6968
  331MPD2     N 4975   0.122   4.371  12.771  0.7011  0.0416  0.4267
  331MPD2    H5 4976   0.190   4.424  12.717  0.4318 -0.1202 -0.0794
  331MPD2    N1 4977   0.101   0.081  12.961  0.0801  0.2540 -0.1161
  331MPD2    H7 4978   0.042   0.150  13.008  1.0656  0.7074  0.4569
  332TMC3    C1 4979   0.190   4.187  12.643  0.5786 -0.7124 -0.2643
  332TMC3    C2 4980   0.212   4.273  12.541 -0.2053 -0.0914 -0.1737
  332TMC3    C3 4981   0.321   4.252  12.461  0.3793  0.3600  0.6161
  332TMC3    C4 4982   0.280   4.089  12.675  0.2751  0.0118 -0.3346
  332TMC3    C5 4983   0.399   4.090  12.613  0.0499  0.2995  0.3103
  332TMC3    C6 4984   0.426   4.169  12.507 -0.2797  0.0404 -0.2232
  332TMC3     C 4985   0.103   4.234  12.750  0.1927  0.1576  0.2162
  332TMC3     O 4986   0.045   4.154  12.822  0.0278 -0.2085 -0.0119
  332TMC3     H 4987   0.147   4.359  12.526 -0.9626 -0.4099  1.2301
  332TMC3    H1 4988   0.273   4.048  12.775 -2.6942  1.5198  0.0831
  332TMC3    H2 4989   0.522   4.160  12.458  0.1631 -1.0103  0.8282
  332TMC3    C7 4990   0.514   4.030  12.680  0.5326  0.2356  0.7602
  332TMC3    C8 4991   0.366   4.353  12.368  0.1264 -0.4399 -0.0442
  332TMC3    O1 4992   0.485   3.925  12.735 -0.7765  0.5371 -1.0612
  332TMC3    O2 4993   0.489   4.348  12.355  0.4063 -0.0078 -0.1140
  333MPD2     C 4994   4.621   4.617  11.179  0.8287 -0.0102  0.6548
  333MPD2    C1 4995   0.016   4.561  11.145 -0.5501 -0.5316  0.1392
  333MPD2    C2 4996   0.026   4.427  11.173  0.5308  0.1681  0.2193
  333MPD2    C3 4997   4.656   4.359  11.253  0.9168  0.1579  0.4895
  333MPD2    C4 4998   4.541   4.422  11.292 -0.4046  0.7009  0.1686
  333MPD2    C5 4999   4.521   4.550  11.244 -0.2491  0.2000  0.0725
  333MPD2     H 5000   0.111   4.363  11.151  1.5954  1.0141  1.8881
  333MPD2    H1 5001   4.461   4.380  11.352  0.7122 -2.0085 -0.2277
  333MPD2    H2 5002   4.610   4.722  11.152 -1.3880 -0.4925 -0.3304
  333MPD2    H3 5003   4.429   4.600  11.273  1.1101  3.5267 -1.4546
  333MPD2     N 5004   4.693   4.234  11.298  0.2831 -0.7457 -0.0322
  333MPD2    H5 5005   0.054   4.195  11.259  1.5404  2.4999 -0.5222
  333MPD2    N1 5006   0.110   4.635  11.070  0.2753 -0.0833 -0.2268
  333MPD2    H7 5007   0.095   0.011  11.062  2.1699  0.1531 -0.8485
  334TMC3    C1 5008   0.323   4.701  11.010 -0.5101  0.6753 -0.0322
  334TMC3    C2 5009   0.417   4.681  10.916  0.2811 -0.1263 -0.6152
  334TMC3    C3 5010   0.528   0.035  10.930  0.1092  0.0643 -0.5537
  334TMC3    C4 5011   0.323   0.075  11.108  0.1862  0.0407 -0.2222
  334TMC3    C5 5012   0.439   0.151  11.117 -0.3740 -0.2633 -0.2558
  334TMC3    C6 5013   0.538   0.133  11.021  0.3262  0.1655 -0.6133
  334TMC3     C 5014   0.225   4.594  11.024  0.3537 -0.6140  0.9699
  334TMC3     O 5015   0.267   4.481  11.008  0.0845 -0.3501 -0.2876
  334TMC3     H 5016   0.425   4.592  10.855  0.6734 -0.9798  0.7016
  334TMC3    H1 5017   0.249   0.079  11.188  0.9668 -0.7404  0.5446
  334TMC3    H2 5018   0.618   0.206  11.013 -0.1194  0.2639 -4.1813
  334TMC3    C7 5019   0.465   0.260  11.204 -0.1418 -1.4827 -0.4427
  334TMC3    C8 5020   0.616   0.031  10.818  0.2124 -0.5193 -0.0292
  334TMC3    O1 5021   0.548   0.343  11.177  0.0491  0.2835  0.1483
  334TMC3    O2 5022   0.574   4.702  10.715  0.6563 -0.1247  0.3069
  335TMC3    C1 5023   4.263   1.059  17.515 -0.1954 -0.1745 -0.3850
  335TMC3    C2 5024   4.195   0.998  17.412  0.0082 -0.9075 -0.2079
  335TMC3    C3 5025   4.256   0.979  17.295 -0.1348  0.3338  0.1851
  335TMC3    C4 5026   4.397   1.065  17.505  0.2191 -1.0095  0.0375
  335TMC3    C5 5027   4.460   1.032  17.393  0.9886 -0.1510  0.0019
  335TMC3    C6 5028   4.390   0.987  17.276  0.2965  0.0589 -0.2144
  335TMC3     C 5029   4.210   1.080  17.648  0.0197 -0.0710 -0.0477
  335TMC3     O 5030   4.259   1.175   0.008 -0.1083 -0.1113  0.2359
  335TMC3     H 5031   4.087   0.990  17.424  0.0056 -0.4787  0.0819
  335TMC3    H1 5032   4.455   1.110  17.585  1.2593 -1.9794 -0.1685
  335TMC3    H2 5033   4.444   0.963  17.185 -0.0705 -0.3848 -0.3138
  335TMC3    C7 5034   4.599   0.997  17.415  0.2105 -0.3912 -0.4935
  335TMC3    C8 5035   4.182   0.902  17.196 -0.1264  0.5039 -0.6064
  335TMC3    O1 5036   4.682   1.023  17.326 -0.0919  0.1626 -0.2502
  335TMC3    O2 5037   4.226   0.900  17.082 -0.0086 -0.0592 -0.2398
  336MPD2     C 5038   4.418   3.785  16.409 -0.4360  0.0931 -0.2221
  336MPD2    C1 5039   4.285   3.741  16.401 -0.8070 -0.5690  0.8577
  336MPD2    C2 5040   4.249   3.637  16.487 -0.2729  0.0525 -0.1459
  336MPD2    C3 5041   4.344   3.576  16.568  0.7239 -0.4382 -0.3815
  336MPD2    C4 5042   4.472   3.624  16.579 -0.6517 -0.2840 -0.2500
  336MPD2    C5 5043   4.510   3.726  16.494 -0.5367  0.4337  0.0688
  336MPD2     H 5044   4.152   3.590  16.475  0.2356 -0.9232 -0.4190
  336MPD2    H1 5045   4.550   3.581  16.640 -0.4284 -0.7454 -0.8675
  336MPD2    H2 5046   4.457   3.860  16.341 -0.8747 -0.2696 -0.8838
  336MPD2    H3 5047   4.614   3.753  16.494 -1.5661  4.3334 -0.0340
  336MPD2     N 5048   4.318   3.465  16.647  0.1678 -1.1667  0.5176
  336MPD2    H5 5049   4.387   3.434  16.715  3.1403  1.4002 -1.3562
  336MPD2    N1 5050   4.185   3.815  16.321 -0.5793 -0.5060  0.1071
  336MPD2    H7 5051   4.089   3.784  16.331 -0.8724 -0.9489 -4.1630
  337TMC3    C1 5052   4.093   4.010  16.209  0.2739  0.4186 -0.1383
  337TMC3    C2 5053   4.002   3.941  16.136  0.3190 -0.1689 -0.5658
  337TMC3    C3 5054   3.919   4.021  16.057 -0.3152  0.6008  0.3068
  337TMC3    C4 5055   4.103   4.143  16.204 -0.4117 -0.0027 -0.6082
  337TMC3    C5 5056   4.014   4.213  16.136 -0.7126 -0.4558  0.2013
  337TMC3    C6 5057   3.926   4.156  16.057  0.0079 -0.1595 -0.0975
  337TMC3     C 5058   4.208   3.942  16.276  0.3377  1.1243  0.4604
  337TMC3     O 5059   4.298   4.016  16.304  0.0858 -0.0848  0.9353
  337TMC3     H 5060   4.003   3.833  16.128 -1.6880 -0.1309 -1.4051
  337TMC3    H1 5061   4.174   4.199  16.264 -1.8195  0.2683  0.7676
  337TMC3    H2 5062   3.858   4.216  15.998 -0.4751 -2.5037 -1.9307
  337TMC3    C7 5063   3.992   4.353  16.180  0.2491  0.7371  0.3896
  337TMC3    C8 5064   3.810   3.958  15.977 -0.2076  0.0570 -0.3022
  337TMC3    O1 5065   4.052   4.386  16.283  0.2506  0.4480 -0.2172
  337TMC3    O2 5066   3.749   3.862  16.019  0.0046  0.4040 -0.1288
  338MPD2     C 5067   4.293   2.540   1.127 -0.3640 -0.2474 -0.1491
  338MPD2    C1 5068   4.258   2.667   1.092  0.9053 -0.1408 -0.0595
  338MPD2    C2 5069   4.129   2.714   1.098  0.3124  0.8620 -0.2314
  338MPD2    C3 5070   4.027   2.626   1.134  0.1619 -0.0541  0.0023
  338MPD2    C4 5071   4.061   2.497   1.176 -0.3876 -0.8882 -0.4844
  338MPD2    C5 5072   4.192   2.451   1.161  0.1112 -0.4620  0.0228
  338MPD2     H 5073   4.099   2.809   1.055 -0.6443  0.5141 -0.3481
  338MPD2    H1 5074   3.984   2.423   1.197 -1.0803 -0.4334 -1.4249
  338MPD2    H2 5075   4.396   2.508   1.123 -0.4190 -0.0418 -2.9863
  338MPD2    H3 5076   4.216   2.348   1.182  1.8564  0.2747  1.5983
  338MPD2     N 5077   3.890   2.670   1.139  0.1007 -0.1809 -0.2681
  338MPD2    H5 5078   3.870   2.767   1.117  1.5743  0.0730 -0.4548
  338MPD2    N1 5079   4.362   2.756   1.047  0.0219 -0.6027 -0.5721
  338MPD2    H7 5080   4.333   2.849   1.022  0.5591 -0.4130 -0.4984
  339TMC3    C1 5081   3.654   2.669   1.158  0.0730  0.5904  0.1373
  339TMC3    C2 5082   3.561   2.654   1.248 -0.2764  0.1465 -0.3807
  339TMC3    C3 5083   3.464   2.750   1.271  0.0640 -0.7550 -0.5974
  339TMC3    C4 5084   3.650   2.776   1.075 -0.1680 -0.5167 -0.3717
  339TMC3    C5 5085   3.545   2.856   1.081  0.1272  0.5776  0.3546
  339TMC3    C6 5086   3.461   2.857   1.184  0.4521  0.0797 -0.8511
  339TMC3     C 5087   3.778   2.597   1.180  0.7534 -0.0317 -0.1219
  339TMC3     O 5088   3.778   2.490   1.240 -0.3098 -0.0120  0.0189
  339TMC3     H 5089   3.568   2.568   1.314  2.3682  1.8137  1.5497
  339TMC3    H1 5090   3.724   2.797   0.998 -0.0455  1.8607  0.3833
  339TMC3    H2 5091   3.390   2.939   1.189  1.1022  0.6122 -0.2693
  339TMC3    C7 5092   3.528   2.960   0.984 -0.2363 -0.2947 -0.4347
  339TMC3    C8 5093   3.346   2.729   1.354 -0.8884  0.3298 -0.3713
  339TMC3    O1 5094   3.629   2.999   0.933  0.1721  0.2095  0.2090
  339TMC3    O2 5095   3.250   2.808   1.345  0.5765 -0.6175  0.3409
  340MPD2     C 5096   0.119   1.808  10.413  0.2548  0.2528 -0.2465
  340MPD2    C1 5097   0.112   1.695  10.488  0.4729  0.2289  0.3105
  340MPD2    C2 5098   0.150   1.707  10.620 -0.0702 -0.2446 -0.5612
  340MPD2    C3 5099   0.208   1.817  10.661 -0.0083 -0.1840 -0.2243
  340MPD2    C4 5100   0.215   1.930  10.578 -0.3661 -0.1914  0.4350
  340MPD2    C5 5101   0.170   1.932  10.452 -0.3136  0.5979 -0.3244
  340MPD2     H 5102   0.156   1.614  10.675 -0.0900 -0.1684 -0.4296
  340MPD2    H1 5103   0.268   2.016  10.616 -0.5309 -0.3127  0.9421
  340MPD2    H2 5104   0.069   1.795  10.317  0.3934  0.7700 -0.3892
  340MPD2    H3 5105   0.177   2.020  10.390  0.5180  1.0215  0.3590
  340MPD2     N 5106   0.272   1.826  10.785 -0.2035 -0.1457  0.2160
  340MPD2    H5 5107   0.328   1.910  10.797 -0.0615 -0.3235  0.7679
  340MPD2    N1 5108   0.082   1.572  10.423 -0.2470 -0.5244  0.2330
  340MPD2    H7 5109   0.080   1.563  10.322 -1.0943 -1.3930  0.3294
  341TMC3    C1 5110   0.060   1.345  10.396  0.9143 -0.1040  0.2919
  341TMC3    C2 5111   4.723   1.230  10.451  0.3106  0.6445  0.3845
  341TMC3    C3 5112   4.707   1.126  10.371  0.0908 -0.2283 -0.2049
  341TMC3    C4 5113   0.083   1.360  10.259 -0.5872  0.7856  0.4622
  341TMC3    C5 5114   0.049   1.252  10.188 -0.5860 -0.1263 -0.4483
  341TMC3    C6 5115   0.010   1.131  10.241  0.1646  0.3421 -0.2445
  341TMC3     C 5116   0.061   1.456  10.485  0.4816  0.5307  1.3407
  341TMC3     O 5117   0.055   1.429  10.602 -0.1172  0.1146  0.0375
  341TMC3     H 5118   4.697   1.221  10.556  0.3857  1.9788  0.5214
  341TMC3    H1 5119   0.113   1.451  10.209  1.8489 -0.0934  0.3186
  341TMC3    H2 5120   0.019   1.041  10.182 -0.0601  0.4002 -0.3670
  341TMC3    C7 5121   0.107   1.242  10.062 -1.0728 -0.0907 -0.4200
  341TMC3    C8 5122   4.657   1.001  10.427  0.0372  0.4169 -0.3378
  341TMC3    O1 5123   0.057   1.162   9.983 -0.1803  0.0710  0.1680
  341TMC3    O2 5124   4.595   1.002  10.532  0.0842  0.1141  0.1300
  342MPD2     C 5125   2.643   4.321   0.184  0.4713 -0.0031 -0.1528
  342MPD2    C1 5126   2.704   4.323   0.066 -0.1326 -0.2353 -0.5844
  342MPD2    C2 5127   2.739   4.443   0.018  0.0631 -0.5056  0.0618
  342MPD2    C3 5128   2.717   4.561   0.083 -0.6597 -0.7707  0.2709
  342MPD2    C4 5129   2.644   4.562   0.200  0.3005 -0.3810 -0.5264
  342MPD2    C5 5130   2.603   4.440   0.241  0.5252 -0.0987  0.0351
  342MPD2     H 5131   2.789   4.452  17.620  0.9043  0.1673  0.5617
  342MPD2    H1 5132   2.621   4.651   0.258 -0.3821 -0.4650 -0.6733
  342MPD2    H2 5133   2.599   4.230   0.222  1.6707 -1.0937 -1.4052
  342MPD2    H3 5134   2.544   4.443   0.332  2.3280  0.3467  1.1914
  342MPD2     N 5135   2.761   4.683   0.027 -0.1453 -0.8055 -0.1450
  342MPD2    H5 5136   2.714   0.034   0.077  1.1252  1.3875 -2.2796
  342MPD2    N1 5137   2.731   4.209  17.677  0.2385 -0.2200  0.3407
  342MPD2    H7 5138   2.784   4.229  17.592 -0.5971  1.9410  0.3409
  343TMC3    C1 5139   2.690   3.995  17.585 -0.3659 -0.5392  0.8097
  343TMC3    C2 5140   2.710   4.051  17.456  0.0851 -0.1888 -0.1681
  343TMC3    C3 5141   2.703   3.968  17.343 -0.1297 -0.4326 -0.4935
  343TMC3    C4 5142   2.651   3.862  17.594 -0.2956  0.1868  0.5024
  343TMC3    C5 5143   2.621   3.794  17.475 -0.0138 -0.3611 -0.1498
  343TMC3    C6 5144   2.647   3.844  17.352  0.0140 -0.6043 -0.5258
  343TMC3     C 5145   2.679   4.089   0.000  1.1445 -0.0121  0.4080
  343TMC3     O 5146   2.629   4.045   0.105  0.2055 -0.2821 -0.1917
  343TMC3     H 5147   2.724   4.158  17.447  1.5698 -0.3399  0.2415
  343TMC3    H1 5148   2.633   3.817  17.691 -0.4210  0.4081  0.5829
  343TMC3    H2 5149   2.615   3.792  17.263 -0.8928 -2.4275  0.8595
  343TMC3    C7 5150   2.581   3.651  17.483 -0.5576  0.6801  0.7557
  343TMC3    C8 5151   2.821   3.983  17.261 -0.3843  0.0838 -0.4796
  343TMC3    O1 5152   2.550   3.597  17.375 -0.7914  0.0470  0.1028
  343TMC3    O2 5153   2.890   4.081  17.277 -0.2235  0.0159 -0.2913
  344MPD2     C 5154   3.641   3.929  10.839 -0.0270  0.0298  0.1004
  344MPD2    C1 5155   3.727   3.956  10.945 -0.5615 -0.4976  0.0627
  344MPD2    C2 5156   3.748   4.084  10.998 -0.1399  0.3274 -0.5068
  344MPD2    C3 5157   3.687   4.191  10.928 -0.0261  0.3469  0.4629
  344MPD2    C4 5158   3.613   4.164  10.811  0.3678  0.2141 -0.1409
  344MPD2    C5 5159   3.587   4.035  10.767 -0.4580  0.2971  0.3745
  344MPD2     H 5160   3.787   4.096  11.098 -1.6552 -2.5865  0.4443
  344MPD2    H1 5161   3.576   4.241  10.745  3.5216  0.0582 -2.0789
  344MPD2    H2 5162   3.622   3.826  10.811  3.3803 -0.4426 -0.5456
  344MPD2    H3 5163   3.521   4.036  10.681 -0.4968  1.7652  0.4133
  344MPD2     N 5164   3.704   4.328  10.959  0.4308  0.2302  0.1149
  344MPD2    H5 5165   3.663   4.399  10.899  1.6672  1.2071  0.4381
  344MPD2    N1 5166   3.763   3.837  11.009  0.1797  0.7229  0.1499
  344MPD2    H7 5167   3.739   3.753  10.957 -0.1339 -0.3442  2.0435
  345TMC3    C1 5168   3.808   4.518  11.061  0.0098 -0.1111 -0.1029
  345TMC3    C2 5169   3.892   4.566  11.162 -0.5038 -0.0337 -0.3073
  345TMC3    C3 5170   3.916   4.705  11.167 -0.4794  0.2272  0.0130
  345TMC3    C4 5171   3.735   4.600  10.988 -0.3568  0.4174 -0.5825
  345TMC3    C5 5172   3.737   0.012  11.019 -0.0577  1.1189  0.7844
  345TMC3    C6 5173   3.825   0.066  11.110 -0.3053 -0.1345  0.1565
  345TMC3     C 5174   3.790   4.372  11.054  0.4981  0.2829 -0.7066
  345TMC3     O 5175   3.845   4.310  11.148 -0.4273 -0.0930 -0.1164
  345TMC3     H 5176   3.961   4.510  11.224  0.6269 -1.2370 -2.6360
  345TMC3    H1 5177   3.683   4.562  10.900 -1.8716 -0.3061  0.6291
  345TMC3    H2 5178   3.819   0.173  11.123  1.1403  0.3295 -2.9017
  345TMC3    C7 5179   3.691   0.104  10.917  0.0659  0.2899 -0.1561
  345TMC3    C8 5180   4.050   0.033  11.205  0.1731  0.3292 -0.2878
  345TMC3    O1 5181   3.747   0.214  10.917  0.1380 -0.1166  0.0534
  345TMC3    O2 5182   4.140   4.674  11.201 -0.5842  0.3667  0.9594
  346MPD2     C 5183   3.853   0.662  14.163  0.5184  0.1335 -0.3574
  346MPD2    C1 5184   3.872   0.793  14.131  0.3321 -0.2814  0.1606
  346MPD2    C2 5185   3.857   0.900  14.222  0.4597  0.1428  0.0102
  346MPD2    C3 5186   3.828   0.868  14.358 -0.5669 -0.6311  0.1153
  346MPD2    C4 5187   3.800   0.737  14.387  0.5088 -0.2953 -0.0141
  346MPD2    C5 5188   3.821   0.637  14.288 -0.0414  0.2692 -0.5967
  346MPD2     H 5189   3.885   1.002  14.198 -0.4164  0.8599  1.9725
  346MPD2    H1 5190   3.778   0.710  14.490  0.2073  0.3698  0.0980
  346MPD2    H2 5191   3.857   0.588  14.084  0.9622 -0.0880 -0.1269
  346MPD2    H3 5192   3.802   0.536  14.323 -0.5252 -0.4819 -3.0272
  346MPD2     N 5193   3.843   0.973  14.452 -0.2327 -0.3616 -0.1305
  346MPD2    H5 5194   3.862   1.065  14.414  2.3312 -1.5215 -1.6242
  346MPD2    N1 5195   3.930   0.823  14.005  0.2570 -0.0380  0.1342
  346MPD2    H7 5196   3.933   0.921  13.979 -0.6894 -0.2549 -0.7941
  347TMC3    C1 5197   3.917   1.071  14.649  0.3117 -0.1156  0.0880
  347TMC3    C2 5198   4.037   1.112  14.600  0.0858 -0.2218  0.0652
  347TMC3    C3 5199   4.146   1.139  14.678  0.3522 -0.4242  0.5991
  347TMC3    C4 5200   3.903   1.065  14.784 -0.5315 -0.3150 -0.9795
  347TMC3    C5 5201   4.013   1.096  14.862  0.0897  0.5616  0.6666
  347TMC3    C6 5202   4.140   1.122  14.813 -0.6470 -0.0615  0.6413
  347TMC3     C 5203   3.872   0.947  14.579  0.0128 -0.1122 -0.3865
  347TMC3     O 5204   3.881   0.836  14.634  0.1528 -0.3730  0.0623
  347TMC3     H 5205   4.048   1.142  14.497  2.1146 -2.3482 -0.3335
  347TMC3    H1 5206   3.825   1.002  14.826  0.5949 -0.3517  1.0316
  347TMC3    H2 5207   4.225   1.135  14.879 -0.8092  0.7027  0.7005
  347TMC3    C7 5208   3.987   1.110  15.000  0.4127  0.4273 -0.0778
  347TMC3    C8 5209   4.267   1.184  14.609 -0.1888  0.1616  0.3717
  347TMC3    O1 5210   4.083   1.117  15.072 -0.2466  0.2121  0.3276
  347TMC3    O2 5211   4.249   1.256  14.517  0.2275  0.2472 -0.5652
  348MPD2     C 5212   2.414   0.342  12.516  0.4658 -0.0668 -0.4369
  348MPD2    C1 5213   2.526   0.431  12.499  0.3133 -0.4579 -0.5882
  348MPD2    C2 5214   2.539   0.509  12.386  0.6638 -0.2909 -0.0033
  348MPD2    C3 5215   2.452   0.484  12.286 -0.3525 -0.0335  0.7145
  348MPD2    C4 5216   2.344   0.392  12.291 -0.1342 -1.0033 -0.5813
  348MPD2    C5 5217   2.335   0.316  12.404 -0.2250  0.0422 -0.0095
  348MPD2     H 5218   2.620   0.582  12.382  0.6286 -0.2906 -0.7087
  348MPD2    H1 5219   2.264   0.373  12.221  0.1015  1.9881 -1.6246
  348MPD2    H2 5220   2.383   0.294  12.607  2.2530  0.7880  0.6243
  348MPD2    H3 5221   2.258   0.240  12.397  1.9553 -2.1355 -0.0287
  348MPD2     N 5222   2.469   0.551  12.168  1.3112 -0.4734 -0.7448
  348MPD2    H5 5223   2.520   0.638  12.177  0.9707 -0.0640 -2.6202
  348MPD2    N1 5224   2.626   0.436  12.591  0.1878 -0.1767  0.5427
  348MPD2    H7 5225   2.704   0.499  12.578  0.7545 -0.9776  0.0098
  349TMC3    C1 5226   2.746   0.346  12.770  0.3575 -0.3850  0.0836
  349TMC3    C2 5227   2.763   0.208  12.790  0.1596 -0.1943  0.0602
  349TMC3    C3 5228   2.880   0.157  12.755  0.2646 -0.2628  0.0964
  349TMC3    C4 5229   2.850   0.429  12.728 -0.2076  0.1826 -0.1957
  349TMC3    C5 5230   2.970   0.378  12.696  0.0956 -0.4710 -0.0530
  349TMC3    C6 5231   2.985   0.241  12.710 -0.4168 -0.5207 -0.2648
  349TMC3     C 5232   2.614   0.390  12.720 -0.1793  0.3088 -0.3701
  349TMC3     O 5233   2.521   0.331  12.780  0.5032  0.3419 -0.1892
  349TMC3     H 5234   2.678   0.143  12.802  0.9426 -0.6939  2.8251
  349TMC3    H1 5235   2.845   0.537  12.726 -0.4334  0.1666 -0.3744
  349TMC3    H2 5236   3.065   0.195  12.654 -1.8738 -2.1534 -1.0080
  349TMC3    C7 5237   3.038   0.442  12.578  0.2092 -0.6863  0.0124
  349TMC3    C8 5238   2.896   0.013  12.774 -0.0603 -0.3614  1.0349
  349TMC3    O1 5239   3.078   0.374  12.486 -0.1010  0.3623 -0.1680
  349TMC3    O2 5240   2.808   4.679  12.844 -0.1208  0.0573 -0.0625
  350MPD2     C 5241   2.074   3.421  10.250  0.0905  0.6408  0.5280
  350MPD2    C1 5242   2.117   3.300  10.307 -0.2621 -0.1075  0.2605
  350MPD2    C2 5243   2.241   3.286  10.361  0.1897  0.6567 -0.0567
  350MPD2    C3 5244   2.327   3.387  10.362  0.8211 -0.3957 -0.8284
  350MPD2    C4 5245   2.280   3.512  10.316 -0.4015  0.2220 -0.5919
  350MPD2    C5 5246   2.155   3.529  10.263  0.5693 -0.2126 -0.2847
  350MPD2     H 5247   2.284   3.197  10.405 -1.5426  0.6762  1.6428
  350MPD2    H1 5248   2.348   3.597  10.318 -0.0829 -0.0673  0.8907
  350MPD2    H2 5249   1.978   3.440  10.204 -0.4089  2.1752  2.1969
  350MPD2    H3 5250   2.124   3.621  10.215  0.3377  0.3417  0.9244
  350MPD2     N 5251   2.449   3.367  10.430 -0.0213  0.2061  0.5762
  350MPD2    H5 5252   2.454   3.271  10.464  1.9103 -0.3827 -1.3365
  350MPD2    N1 5253   2.041   3.186  10.326 -0.0379  0.4779 -0.1278
  350MPD2    H7 5254   2.094   3.105  10.355 -0.7242  0.3707  0.8442
  351TMC3    C1 5255   1.848   3.049  10.323  0.1667 -0.1152  0.0318
  351TMC3    C2 5256   1.918   2.933  10.302  0.7325 -0.0710  0.1157
  351TMC3    C3 5257   1.856   2.814  10.338  0.0893 -0.5642 -0.0020
  351TMC3    C4 5258   1.714   3.047  10.357 -0.3891  0.4323  0.0286
  351TMC3    C5 5259   1.656   2.923  10.379  0.1818  0.7659 -0.6061
  351TMC3    C6 5260   1.725   2.802  10.377  0.3472 -0.3678  0.3822
  351TMC3     C 5261   1.904   3.179  10.296 -0.1455  0.8996  0.5394
  351TMC3     O 5262   1.823   3.267  10.269 -0.2846  0.2973  0.3072
  351TMC3     H 5263   2.026   2.936  10.291  1.1131 -0.3978  3.9303
  351TMC3    H1 5264   1.661   3.140  10.376 -0.1912  0.8430 -1.4204
  351TMC3    H2 5265   1.675   2.714  10.414 -0.3086  0.2178  0.8887
  351TMC3    C7 5266   1.519   2.933  10.427 -0.3920 -0.2508  0.1285
  351TMC3    C8 5267   1.928   2.688  10.319  0.1261  0.1082 -0.2065
  351TMC3    O1 5268   1.480   3.044  10.463 -0.2937 -0.2608 -0.5528
  351TMC3    O2 5269   2.043   2.696  10.282 -0.2905  0.1898 -0.0583
  352MPD2     C 5270   0.464   0.699   0.653 -0.3973 -0.3978 -0.7367
  352MPD2    C1 5271   0.494   0.729   0.783  0.2685 -0.7740  0.1220
  352MPD2    C2 5272   0.610   0.676   0.836  0.7698  0.0560 -0.1860
  352MPD2    C3 5273   0.703   0.599   0.765 -0.1602 -0.1946 -0.6743
  352MPD2    C4 5274   0.680   0.569   0.632 -0.0288 -0.1771 -0.2872
  352MPD2    C5 5275   0.559   0.625   0.577 -0.5452 -0.0072 -0.4501
  352MPD2     H 5276   0.630   0.700   0.940 -0.0730 -1.0224  0.2206
  352MPD2    H1 5277   0.758   0.524   0.571 -1.6781 -0.0459 -2.5026
  352MPD2    H2 5278   0.377   0.746   0.609 -0.6551 -1.6931 -1.6181
  352MPD2    H3 5279   0.534   0.601   0.474  1.0754  1.2541 -1.1485
  352MPD2     N 5280   0.830   0.557   0.822 -0.0619 -0.2829  0.3487
  352MPD2    H5 5281   0.875   0.481   0.771 -1.7611 -1.0416  0.0035
  352MPD2    N1 5282   0.392   0.802   0.858 -0.0056 -0.1811  0.0569
  352MPD2    H7 5283   0.302   0.810   0.813 -0.9575  0.0252  1.9897
  353TMC3    C1 5284   0.975   0.515   0.985 -0.7329  0.5223  0.3745
  353TMC3    C2 5285   1.070   0.465   0.903 -0.0174  0.7676  0.5544
  353TMC3    C3 5286   1.176   0.400   0.967  0.2897  0.5597 -0.5602
  353TMC3    C4 5287   0.976   0.489   1.120 -0.4858 -0.5956  0.3673
  353TMC3    C5 5288   1.072   0.407   1.168  0.1548 -0.0850 -0.7750
  353TMC3    C6 5289   1.174   0.363   1.098  0.2020 -0.1995 -0.6662
  353TMC3     C 5290   0.875   0.599   0.942  0.1023  0.1582 -0.6264
  353TMC3     O 5291   0.838   0.681   1.025  0.2941 -0.3991 -0.7205
  353TMC3     H 5292   1.080   0.504   0.802 -0.0733  1.2636  0.7410
  353TMC3    H1 5293   0.891   0.521   1.178  0.4520 -0.2439  1.5459
  353TMC3    H2 5294   1.252   0.306   1.147 -1.3855 -0.6225  1.3327
  353TMC3    C7 5295   1.033   0.336   1.285  0.2326 -0.3333 -0.7143
  353TMC3    C8 5296   1.249   0.311   0.881 -0.4235  0.2509 -0.3597
  353TMC3    O1 5297   1.123   0.294   1.356 -0.4627 -0.0915 -0.6129
  353TMC3    O2 5298   1.341   0.257   0.937 -0.0113  0.1097 -0.2623
  354TMC3    C1 5299   1.418   2.074  13.480  0.3989 -0.4677 -0.3445
  354TMC3    C2 5300   1.382   2.195  13.528  1.0950 -0.8827 -0.6121
  354TMC3    C3 5301   1.388   2.300  13.434  0.1162  0.1464  1.0106
  354TMC3    C4 5302   1.448   2.056  13.346  0.3558  0.0623  0.7387
  354TMC3    C5 5303   1.409   2.158  13.263 -0.1136  0.0065 -0.1495
  354TMC3    C6 5304   1.394   2.290  13.300  0.0190  0.1133 -0.0086
  354TMC3     C 5305   1.377   1.963  13.564  0.6280 -0.2438  0.4192
  354TMC3     O 5306   1.450   1.866  13.554 -0.4258 -0.2401 -0.3122
  354TMC3     H 5307   1.384   2.209  13.636 -1.0057 -4.2273 -0.1559
  354TMC3    H1 5308   1.450   1.954  13.308 -0.5701  0.6593 -0.9244
  354TMC3    H2 5309   1.387   2.372  13.230 -0.6529  0.0773  0.0121
  354TMC3    C7 5310   1.426   2.138  13.126  0.0344 -0.2487  0.3227
  354TMC3    C8 5311   1.463   2.414  13.487  1.1317  0.1343 -0.4405
  354TMC3    O1 5312   1.385   2.229  13.054  0.0956 -0.2946  0.7239
  354TMC3    O2 5313   1.459   2.425  13.608 -0.0802  0.0646  0.4493
  355MPD2     C 5314   1.852   2.528  12.042  0.1386  0.6935  0.2825
  355MPD2    C1 5315   1.956   2.516  11.951  0.0259 -0.4855  0.1162
  355MPD2    C2 5316   2.084   2.519  11.995 -0.3246  0.2131  0.5373
  355MPD2    C3 5317   2.113   2.573  12.118  0.0356  0.5421 -0.4049
  355MPD2    C4 5318   2.005   2.597  12.202 -0.1133 -0.3353  0.3293
  355MPD2    C5 5319   1.876   2.564  12.168  1.0192  0.0368  0.4615
  355MPD2     H 5320   2.162   2.489  11.926  0.1433  0.3973  0.9779
  355MPD2    H1 5321   2.021   2.634  12.303  0.8931 -0.6576  0.2849
  355MPD2    H2 5322   1.752   2.493  12.022  1.1040  0.1693 -3.6528
  355MPD2    H3 5323   1.798   2.576  12.241  0.5242 -1.2177  0.1334
  355MPD2     N 5324   2.242   2.618  12.156 -0.5446  0.3797 -0.2386
  355MPD2    H5 5325   2.244   2.679  12.237 -3.3480  2.6551 -1.8740
  355MPD2    N1 5326   1.911   2.483  11.814 -0.1627 -0.0375  0.2643
  355MPD2    H7 5327   1.812   2.466  11.799 -0.5846  2.5735  0.1043
  356TMC3    C1 5328   2.460   2.699  12.109  0.0540 -0.5394  0.7836
  356TMC3    C2 5329   2.544   2.737  12.007 -0.2772  0.2788 -0.9524
  356TMC3    C3 5330   2.653   2.811  12.035  0.4983  0.2744  0.3433
  356TMC3    C4 5331   2.473   2.755  12.236 -0.7413  0.7481  0.0466
  356TMC3    C5 5332   2.579   2.842  12.257 -0.1604  0.3114 -0.3468
  356TMC3    C6 5333   2.670   2.874  12.156  0.0665  0.7093 -0.6167
  356TMC3     C 5334   2.355   2.605  12.075  0.6540 -0.6345 -0.2329
  356TMC3     O 5335   2.380   2.531  11.980 -0.0451  0.2618  0.2100
  356TMC3     H 5336   2.540   2.696  11.907 -1.0299 -0.1892 -0.7299
  356TMC3    H1 5337   2.407   2.725  12.317 -1.5333  0.5101 -0.6763
  356TMC3    H2 5338   2.761   2.927  12.181  1.6131 -1.7020 -1.0754
  356TMC3    C7 5339   2.603   2.884  12.396 -0.0973 -0.3521  0.5474
  356TMC3    C8 5340   2.742   2.841  11.926  0.6723  0.1591 -0.1140
  356TMC3    O1 5341   2.555   2.814  12.485  1.1184  0.1304  1.1864
  356TMC3    O2 5342   2.735   2.768  11.827  0.0310  0.2884 -0.0092
  357MPD2     C 5343   0.709   1.593   1.119 -1.1786  0.3609  0.0644
  357MPD2    C1 5344   0.812   1.603   1.210  0.5164  0.5909 -0.6771
  357MPD2    C2 5345   0.813   1.704   1.305 -0.1455 -0.7485  0.5132
  357MPD2    C3 5346   0.719   1.800   1.307  0.2768  0.2100 -0.2415
  357MPD2    C4 5347   0.618   1.796   1.208 -0.4396  0.0952  0.3710
  357MPD2    C5 5348   0.616   1.694   1.119 -0.3745  0.0032  0.1904
  357MPD2     H 5349   0.901   1.719   1.366  0.6786 -0.3345 -0.7820
  357MPD2    H1 5350   0.540   1.871   1.218 -1.4609 -0.8002 -0.9398
  357MPD2    H2 5351   0.707   1.528   1.032 -0.6054 -0.0044  0.3222
  357MPD2    H3 5352   0.530   1.697   1.053 -2.6821  1.6234  3.2186
  357MPD2     N 5353   0.707   1.902   1.403  0.1586  0.1551 -0.3842
  357MPD2    H5 5354   0.651   1.983   1.380  0.4327  0.0438 -1.4182
  357MPD2    N1 5355   0.932   1.525   1.191  0.2109  0.3127 -0.3513
  357MPD2    H7 5356   0.919   1.456   1.118 -1.3748 -0.3959  0.6297
  358TMC3    C1 5357   1.168   1.470   1.189 -0.7774 -0.1282 -0.2860
  358TMC3    C2 5358   1.137   1.371   1.103 -0.5178  0.0972 -0.9377
  358TMC3    C3 5359   1.236   1.294   1.051  0.3883  1.0926 -0.3992
  358TMC3    C4 5360   1.300   1.482   1.232 -0.4865 -0.2347 -0.4283
  358TMC3    C5 5361   1.402   1.406   1.176 -0.2122  0.7548 -1.2661
  358TMC3    C6 5362   1.372   1.311   1.074 -0.8079  0.1623 -0.4679
  358TMC3     C 5363   1.061   1.548   1.246  0.1098 -0.4836 -0.4415
  358TMC3     O 5364   1.093   1.619   1.339  0.1424 -0.0854 -0.2761
  358TMC3     H 5365   1.034   1.361   1.070 -1.4446  1.5632  1.5288
  358TMC3    H1 5366   1.314   1.548   1.316  0.4107 -0.3922 -0.4562
  358TMC3    H2 5367   1.443   1.230   1.067 -0.1553  0.5673  1.5131
  358TMC3    C7 5368   1.534   1.413   1.232 -0.1797 -0.2817 -0.3850
  358TMC3    C8 5369   1.199   1.222   0.929 -0.5245 -0.0116  0.3292
  358TMC3    O1 5370   1.620   1.339   1.189 -0.1085 -0.3440 -0.2725
  358TMC3    O2 5371   1.088   1.235   0.888 -0.0290 -0.4694 -0.4471
  359MPD2     C 5372   2.190   0.375  12.898 -0.0507  0.3279  0.0076
  359MPD2    C1 5373   2.162   0.510  12.900 -0.5924 -0.9565 -0.2156
  359MPD2    C2 5374   2.084   0.560  13.002 -0.5610 -0.3226  0.4093
  359MPD2    C3 5375   2.044   0.483  13.112  0.8715  0.2728  0.3404
  359MPD2    C4 5376   2.087   0.352  13.108  0.3659 -0.5263  0.0424
  359MPD2    C5 5377   2.148   0.300  13.001  0.7986 -0.8556  0.0766
  359MPD2     H 5378   2.059   0.665  12.995  3.6330  0.6127 -0.3128
  359MPD2    H1 5379   2.061   0.286  13.190 -0.0470  0.4197  0.6728
  359MPD2    H2 5380   2.241   0.320  12.820  0.1361  0.6159 -0.0779
  359MPD2    H3 5381   2.178   0.198  13.018 -0.2838 -1.0687  0.6832
  359MPD2     N 5382   1.975   0.537  13.225  0.4958  0.5436 -0.4115
  359MPD2    H5 5383   1.961   0.472  13.302  1.7061  1.7580  0.8114
  359MPD2    N1 5384   2.182   0.594  12.791 -0.7165 -0.1511  0.1930
  359MPD2    H7 5385   2.191   0.692  12.817  1.6031  0.1493 -1.7217
  360TMC3    C1 5386   2.249   0.669  12.580 -0.4982 -0.2123  0.7634
  360TMC3    C2 5387   2.328   0.771  12.633 -0.1497  0.4932  0.0017
  360TMC3    C3 5388   2.387   0.862  12.550 -0.0032  0.5967 -0.7090
  360TMC3    C4 5389   2.201   0.683  12.452  0.3945 -0.1265  0.3423
  360TMC3    C5 5390   2.244   0.791  12.380 -0.1259 -1.1801 -0.8464
  360TMC3    C6 5391   2.344   0.877  12.423  0.0243 -0.3271  0.1801
  360TMC3     C 5392   2.206   0.555  12.660  0.1228  0.4132  0.6545
  360TMC3     O 5393   2.154   0.460  12.616 -0.3310  0.6559 -0.0790
  360TMC3     H 5394   2.370   0.769  12.733 -0.5944 -0.3603  0.1743
  360TMC3    H1 5395   2.140   0.611  12.400  1.4967 -0.1375 -0.9325
  360TMC3    H2 5396   2.375   0.961  12.362 -0.4864 -1.5704 -1.7904
  360TMC3    C7 5397   2.214   0.797  12.237  0.3088  0.1825  0.2109
  360TMC3    C8 5398   2.488   0.947  12.616 -0.4908  0.7551  0.5009
  360TMC3    O1 5399   2.282   0.882  12.181  0.5719  0.1707  0.3902
  360TMC3    O2 5400   2.488   0.944  12.742  0.5196  0.4286 -0.5239
  361MPD2     C 5401   3.826   4.501  16.897 -0.0216  0.1764 -0.2312
  361MPD2    C1 5402   3.845   4.577  17.012 -0.1085  0.5828 -1.2055
  361MPD2    C2 5403   3.916   4.524  17.120 -0.3344  0.0597  0.2344
  361MPD2    C3 5404   3.959   4.390  17.111 -0.4308  0.0701  0.8719
  361MPD2    C4 5405   3.944   4.319  16.990  0.0729 -0.3460  0.5920
  361MPD2    C5 5406   3.888   4.379  16.882 -0.0194  0.2345  0.4863
  361MPD2     H 5407   3.925   4.589  17.207 -1.9918 -1.8684  1.8575
  361MPD2    H1 5408   3.983   4.218  16.978  0.0447 -0.2388 -0.3886
  361MPD2    H2 5409   3.764   4.535  16.815 -0.4831 -1.2692 -0.4818
  361MPD2    H3 5410   3.878   4.327  16.788  1.5170 -0.4262  0.6860
  361MPD2     N 5411   4.045   4.325  17.203 -0.2126  0.1484  0.6963
  361MPD2    H5 5412   4.060   4.225  17.189  0.2748 -0.1925  3.5406
  361MPD2    N1 5413   3.805   4.711  17.019  0.2482 -0.1002  0.2747
  361MPD2    H7 5414   3.854   0.043  17.088  2.2672 -1.8019  0.2124
  362TMC3    C1 5415   3.705   0.191  16.977  0.0126  0.2292 -0.3728
  362TMC3    C2 5416   3.679   0.219  17.104 -0.3021  0.3490 -0.4775
  362TMC3    C3 5417   3.584   0.324  17.130 -0.0717  0.2544  0.0549
  362TMC3    C4 5418   3.647   0.261  16.874  0.2655 -0.4579  1.5695
  362TMC3    C5 5419   3.571   0.368  16.892 -0.5837  0.6852  0.6077
  362TMC3    C6 5420   3.535   0.398  17.023  0.4447  0.1454  0.2416
  362TMC3     C 5421   3.723   0.053  16.933  0.1260  1.3443 -0.3717
  362TMC3     O 5422   3.666   0.006  16.835 -0.2266  0.2652  0.2263
  362TMC3     H 5423   3.709   0.153  17.184  1.1978  2.6183  0.8417
  362TMC3    H1 5424   3.663   0.223  16.773  0.6308  0.9628  1.0881
  362TMC3    H2 5425   3.459   0.473  17.042  2.1216  1.5422  1.3651
  362TMC3    C7 5426   3.512   0.451  16.780  0.4620  0.2447  0.5841
  362TMC3    C8 5427   3.544   0.356  17.263 -0.5287 -0.0303  0.3164
  362TMC3    O1 5428   3.423   0.522  16.814 -0.7651  0.0457  0.2166
  362TMC3    O2 5429   3.608   0.297  17.347  0.4560 -0.4976 -0.0941
  363TMC3    C1 5430   2.971   3.340   9.269  0.9366  0.2768  0.3182
  363TMC3    C2 5431   3.072   3.309   9.355  0.3400 -0.0822  0.2451
  363TMC3    C3 5432   3.034   3.229   9.462  0.0996 -0.3413 -0.3618
  363TMC3    C4 5433   2.839   3.309   9.286  0.8357  0.3280 -0.5406
  363TMC3    C5 5434   2.809   3.244   9.404 -0.5409 -0.4848  0.2586
  363TMC3    C6 5435   2.908   3.191   9.486  0.4393  0.5546  0.1695
  363TMC3     C 5436   3.000   3.404   9.144  0.3700  0.3286 -0.3913
  363TMC3     O 5437   2.905   3.457   9.089 -0.8136 -0.7487  0.1142
  363TMC3     H 5438   3.173   3.345   9.337  1.0764 -0.4066  3.6629
  363TMC3    H1 5439   2.768   3.314   9.203  0.7044  0.9175 -0.3920
  363TMC3    H2 5440   2.882   3.127   9.570  3.4777 -0.0037  0.6758
  363TMC3    C7 5441   2.674   3.216   9.446  0.1417 -0.0720  0.5193
  363TMC3    C8 5442   3.134   3.204   9.564  0.2204  0.0176  0.6292
  363TMC3    O1 5443   2.655   3.118   9.517 -0.0999  0.2074  0.1248
  363TMC3    O2 5444   3.222   3.291   9.570  0.1362 -0.5691  0.5610
  364MPD2     C 5445   1.221   1.928  11.151 -0.3613  0.0851 -0.0113
  364MPD2    C1 5446   1.215   1.853  11.034  0.2134  0.0063  0.3615
  364MPD2    C2 5447   1.233   1.716  11.038  0.0198  1.7478  0.2332
  364MPD2    C3 5448   1.247   1.649  11.156  0.4747  0.2539  0.6207
  364MPD2    C4 5449   1.245   1.718  11.276 -0.6449 -0.2032  0.1642
  364MPD2    C5 5450   1.227   1.851  11.271  0.4101  0.2719  0.1809
  364MPD2     H 5451   1.249   1.659  10.947 -0.8489  1.5524  0.2039
  364MPD2    H1 5452   1.236   1.675  11.375 -0.3979 -1.3730 -0.3222
  364MPD2    H2 5453   1.215   2.036  11.155 -0.9375  0.1399 -2.7761
  364MPD2    H3 5454   1.208   1.895  11.369 -0.5976 -0.6583  0.4023
  364MPD2     N 5455   1.279   1.511  11.162 -0.3365  0.5004  0.1713
  364MPD2    H5 5456   1.301   1.483  11.257 -1.8195  0.7782  0.5865
  364MPD2    N1 5457   1.196   1.930  10.912  0.2749 -0.0191  0.4397
  364MPD2    H7 5458   1.187   2.031  10.924 -2.1664  0.0038 -1.5558
  365TMC3    C1 5459   1.226   1.972  10.681 -0.3844  0.2419  0.0471
  365TMC3    C2 5460   1.217   1.929  10.551  0.3041  0.2392  0.3898
  365TMC3    C3 5461   1.279   2.006  10.458 -0.1601 -0.4243 -0.2229
  365TMC3    C4 5462   1.294   2.085  10.718  0.0090 -0.2723 -0.1200
  365TMC3    C5 5463   1.357   2.158  10.619  0.4183 -1.5182  0.9629
  365TMC3    C6 5464   1.351   2.108  10.490  1.2221 -0.0477 -0.5838
  365TMC3     C 5465   1.208   1.878  10.787  0.4141  0.0112 -0.9305
  365TMC3     O 5466   1.220   1.762  10.755  0.1554  0.5623  0.1248
  365TMC3     H 5467   1.172   1.833  10.527 -0.2230  0.4985  0.3280
  365TMC3    H1 5468   1.293   2.120  10.820  1.1371 -2.0306  0.4972
  365TMC3    H2 5469   1.408   2.153  10.410  1.0633  0.0381 -0.6494
  365TMC3    C7 5470   1.386   2.304  10.631  0.2538 -0.0841  0.3283
  365TMC3    C8 5471   1.273   1.953  10.327  0.2710 -0.3898  0.8991
  365TMC3    O1 5472   1.426   2.365  10.535  0.2431 -0.1646  0.1728
  365TMC3    O2 5473   1.374   1.972  10.261  0.1678  0.4721 -0.0111
  366MPD2     C 5474   3.986   2.779  15.216  0.5550 -0.5828  0.0708
  366MPD2    C1 5475   3.951   2.796  15.347 -1.0164 -0.0015 -0.1641
  366MPD2    C2 5476   3.987   2.705  15.443 -0.8938 -0.4919  0.3932
  366MPD2    C3 5477   4.076   2.602  15.409 -0.6658 -0.8708 -0.2141
  366MPD2    C4 5478   4.112   2.582  15.276  0.1029  0.9095  0.4286
  366MPD2    C5 5479   4.065   2.671  15.178  0.5219  0.3227  0.3022
  366MPD2     H 5480   3.969   2.729  15.547 -0.8618  1.3096 -0.0265
  366MPD2    H1 5481   4.191   2.513  15.247 -1.1316 -0.4645  0.3176
  366MPD2    H2 5482   3.957   2.850  15.140 -2.0377 -0.6264  0.9964
  366MPD2    H3 5483   4.113   2.654  15.082  2.4953  1.6920  1.0499
  366MPD2     N 5484   4.144   2.522  15.500 -0.2482  0.2060 -0.1451
  366MPD2    H5 5485   4.235   2.487  15.471 -0.4080  1.3551 -2.0355
  366MPD2    N1 5486   3.894   2.918  15.396 -0.4784 -0.0094  0.4464
  366MPD2    H7 5487   3.897   2.919  15.498  0.8103 -1.8764  0.4485
  367TMC3    C1 5488   3.878   3.152  15.415  0.1193  0.9292 -0.5523
  367TMC3    C2 5489   3.906   3.147  15.551  0.3900 -0.0618 -0.5578
  367TMC3    C3 5490   3.892   3.266  15.618 -0.5013 -0.2463  0.3590
  367TMC3    C4 5491   3.825   3.263  15.354 -0.1869  0.1374 -0.7425
  367TMC3    C5 5492   3.820   3.382  15.424 -0.0487  0.3147  0.5525
  367TMC3    C6 5493   3.863   3.384  15.557 -0.0505  0.2896 -0.5846
  367TMC3     C 5494   3.875   3.033  15.329  1.1386 -0.2609  0.1817
  367TMC3     O 5495   3.864   3.054  15.209 -0.3383  0.6008  0.9635
  367TMC3     H 5496   3.955   3.062  15.597  0.5542  0.2604 -0.1365
  367TMC3    H1 5497   3.820   3.256  15.246 -0.7634  0.7278 -0.7545
  367TMC3    H2 5498   3.864   3.483  15.602  1.0701  0.2426 -0.5082
  367TMC3    C7 5499   3.762   3.496  15.365 -0.3067 -0.3549 -0.3296
  367TMC3    C8 5500   3.921   3.257  15.761 -0.0040  0.5382 -0.0428
  367TMC3    O1 5501   3.786   3.605  15.415 -0.3570 -0.1674  0.0427
  367TMC3    O2 5502   3.920   3.144  15.803  0.6842 -0.0461  0.4502
  368MPD2     C 5503   0.574   4.393  13.624 -0.3654 -0.6446  0.0374
  368MPD2    C1 5504   0.564   4.430  13.493  0.4220  0.3901  0.2116
  368MPD2    C2 5505   0.680   4.451  13.419 -0.3280 -0.8051 -0.3654
  368MPD2    C3 5506   0.802   4.451  13.484 -0.7164  0.1424  0.6490
  368MPD2    C4 5507   0.810   4.412  13.613 -0.1556 -0.6611 -0.2745
  368MPD2    C5 5508   0.697   4.384  13.685 -0.6666  0.2967  0.0736
  368MPD2     H 5509   0.671   4.486  13.317  1.5182  0.9087  0.0499
  368MPD2    H1 5510   0.899   4.437  13.669  0.5502  0.1333 -1.7322
  368MPD2    H2 5511   0.487   4.393  13.688 -1.4050 -0.6726 -1.3658
  368MPD2    H3 5512   0.700   4.362  13.791  1.3867  1.5488  0.2835
  368MPD2     N 5513   0.922   4.492  13.422  0.5857  0.1532 -0.2714
  368MPD2    H5 5514   1.008   4.482  13.475 -0.0475 -0.4038  0.6367
  368MPD2    N1 5515   0.431   4.443  13.436  0.1863 -0.1487  0.7380
  368MPD2    H7 5516   0.346   4.449  13.492  0.5845  1.4052  1.1674
  369TMC3    C1 5517   0.284   4.513  13.280  0.2656 -0.0016  0.6114
  369TMC3    C2 5518   0.309   4.634  13.222  0.9636  0.5376  0.0205
  369TMC3    C3 5519   0.269   0.024  13.287  0.0902  0.3030 -0.5277
  369TMC3    C4 5520   0.203   4.500  13.381  0.0346  0.1408  0.1912
  369TMC3    C5 5521   0.147   4.611  13.433 -0.5886  0.4231 -1.3656
  369TMC3    C6 5522   0.173   0.014  13.378 -0.9970 -0.8077 -0.6476
  369TMC3     C 5523   0.408   4.451  13.297  0.4755 -0.3439 -0.3280
  369TMC3     O 5524   0.480   4.460  13.198  0.3222  0.4131 -0.1039
  369TMC3     H 5525   0.374   4.655  13.138  0.9711  1.0809  0.1576
  369TMC3    H1 5526   0.172   4.401  13.414 -0.1313  0.8637  2.2237
  369TMC3    H2 5527   0.144   0.103  13.433 -3.5809 -1.0423 -1.6401
  369TMC3    C7 5528   0.094   4.606  13.571  0.0729 -0.6923  0.3657
  369TMC3    C8 5529   0.330   0.155  13.258 -0.4296  1.2157 -0.6237
  369TMC3    O1 5530   0.129   4.511  13.642  0.4037 -0.6887  0.1839
  369TMC3    O2 5531   0.271   0.251  13.302 -0.0745  0.3124  0.0480
  370TMC3    C1 5532   4.482   0.548  16.492  0.0014 -0.2425 -0.3333
  370TMC3    C2 5533   4.428   0.467  16.587 -0.0331 -0.2350  0.2705
  370TMC3    C3 5534   4.416   0.334  16.566  0.5456 -0.2282  0.4992
  370TMC3    C4 5535   4.509   0.501  16.367 -0.8226 -0.3330  0.3378
  370TMC3    C5 5536   4.500   0.363  16.346 -0.4362 -0.0178  0.0339
  370TMC3    C6 5537   4.462   0.278  16.446 -0.2151  0.1478  0.1648
  370TMC3     C 5538   4.572   0.646  16.548 -0.3144 -0.5788 -0.1133
  370TMC3     O 5539   4.567   0.658  16.668  0.5546 -0.2354  0.2812
  370TMC3     H 5540   4.414   0.506  16.687  1.7276  0.3482  0.2950
  370TMC3    H1 5541   4.562   0.562  16.295  0.2163  0.4013  1.7338
  370TMC3    H2 5542   4.442   0.174  16.420 -1.3841  0.2323  0.7211
  370TMC3    C7 5543   4.583   0.317  16.238  0.5317 -0.0535 -0.0962
  370TMC3    C8 5544   4.406   0.241  16.683 -0.6095  0.0729 -0.5549
  370TMC3    O1 5545   4.635   0.396  16.161  0.0548  0.3398 -0.0158
  370TMC3    O2 5546   4.445   0.126  16.672 -0.0128 -0.1721  0.7006
  371TMC3    C1 5547   1.139   3.752  15.540 -0.1366 -0.4147 -0.5714
  371TMC3    C2 5548   1.065   3.800  15.643 -0.3081  0.0330 -0.8507
  371TMC3    C3 5549   1.032   3.928  15.646  0.2340  0.5739  0.3487
  371TMC3    C4 5550   1.212   3.836  15.459 -0.0768  0.0837  0.2204
  371TMC3    C5 5551   1.171   3.965  15.466  0.1476  1.0801 -0.0325
  371TMC3    C6 5552   1.078   4.017  15.551 -0.5266  0.3723  0.5203
  371TMC3     C 5553   1.205   3.625  15.556  0.0834 -0.2560 -0.0652
  371TMC3     O 5554   1.319   3.618  15.513 -0.2914  0.3086 -0.1943
  371TMC3     H 5555   1.047   3.730  15.723 -4.0774 -0.3356 -2.0417
  371TMC3    H1 5556   1.283   3.790  15.392 -1.2970  1.3536 -1.9584
  371TMC3    H2 5557   1.062   4.124  15.552 -0.9601  0.3159 -0.0485
  371TMC3    C7 5558   1.240   4.067  15.392 -0.2549 -0.1505  0.2039
  371TMC3    C8 5559   0.970   3.992  15.759  0.3614  0.4657 -0.5769
  371TMC3    O1 5560   1.240   4.182  15.425 -0.1949  0.1767  0.3207
  371TMC3    O2 5561   0.968   4.116  15.758  0.4967  0.1013 -0.0772
  372MPD2     C 5562   0.392   4.599  13.803 -0.1583  0.2324  0.0386
  372MPD2    C1 5563   0.518   4.641  13.830  0.4953 -0.3855 -0.3739
  372MPD2    C2 5564   0.584   4.598  13.943  0.6509 -0.1015 -0.5995
  372MPD2    C3 5565   0.515   4.509  14.026 -0.2787 -0.0900  0.5949
  372MPD2    C4 5566   0.384   4.472  13.999 -0.0253  0.0820  0.2230
  372MPD2    C5 5567   0.323   4.518  13.886 -0.3123 -0.0318 -0.1436
  372MPD2     H 5568   0.688   4.624  13.960  0.2739 -0.4336  2.1805
  372MPD2    H1 5569   0.329   4.406  14.065 -0.5393  1.7858  1.4660
  372MPD2    H2 5570   0.336   4.655  13.728 -0.9541  1.2463  1.3907
  372MPD2    H3 5571   0.219   4.494  13.866 -0.7646  0.0425  2.1060
  372MPD2     N 5572   0.578   4.453  14.141 -0.1569  0.0073 -0.2647
  372MPD2    H5 5573   0.676   4.479  14.142 -0.2507  0.4329 -1.2176
  372MPD2    N1 5574   0.587   0.012  13.741  0.0165 -0.1190  0.2568
  372MPD2    H7 5575   0.677   0.038  13.779  0.2203  0.5816 -0.6972
  373TMC3    C1 5576   0.628   4.347  14.330 -0.3859 -0.3143 -0.0736
  373TMC3    C2 5577   0.648   4.451  14.417  0.2889  0.4777  0.2567
  373TMC3    C3 5578   0.776   4.469  14.465  0.2738  0.1742  0.0800
  373TMC3    C4 5579   0.731   4.272  14.281 -0.6863 -0.2333  0.6635
  373TMC3    C5 5580   0.855   4.297  14.329 -0.1885  0.0781  0.5806
  373TMC3    C6 5581   0.884   4.397  14.418  0.0783  0.2671  0.0327
  373TMC3     C 5582   0.520   4.377  14.237  0.8024 -0.2102 -0.2198
  373TMC3     O 5583   0.405   4.343  14.257 -0.2232 -0.6549  0.3519
  373TMC3     H 5584   0.560   4.490  14.466 -0.2462  0.2156 -0.5013
  373TMC3    H1 5585   0.718   4.200  14.201 -1.2587  1.4585 -0.7555
  373TMC3    H2 5586   0.988   4.413  14.443  0.2735 -1.5305  0.3929
  373TMC3    C7 5587   0.968   4.227  14.283 -0.2483 -0.1431  0.3500
  373TMC3    C8 5588   0.810   4.608  14.495  0.8060  0.0386  0.1400
  373TMC3    O1 5589   1.080   4.282  14.273  0.1177 -1.1004  0.1849
  373TMC3    O2 5590   0.926   4.619  14.542  0.5110 -0.7073 -0.1786
  374TMC3    C1 5591   1.026   0.768  10.340 -0.1246 -0.6459 -0.3904
  374TMC3    C2 5592   1.159   0.782  10.330  0.5333  0.5151 -0.7437
  374TMC3    C3 5593   1.205   0.756  10.204 -0.0385 -0.1520 -0.2471
  374TMC3    C4 5594   0.940   0.742  10.240  0.0146  0.5020 -0.4409
  374TMC3    C5 5595   0.990   0.712  10.117  0.1604  0.3302 -0.9181
  374TMC3    C6 5596   1.121   0.724  10.096  0.4554 -0.0224  0.1434
  374TMC3     C 5597   0.975   0.781  10.474 -0.3197 -0.0500 -1.2136
  374TMC3     O 5598   1.063   0.746  10.552 -0.2239  0.2092 -0.2110
  374TMC3     H 5599   1.225   0.809  10.411  1.5304 -0.9664 -1.0621
  374TMC3    H1 5600   0.832   0.739  10.251 -0.0897  2.1623 -1.0445
  374TMC3    H2 5601   1.167   0.713   9.999  0.0803  0.6726 -0.1160
  374TMC3    C7 5602   0.919   0.634  10.016  0.0871 -0.1486 -0.2586
  374TMC3    C8 5603   1.343   0.791  10.169  0.4689 -0.0117  0.1849
  374TMC3    O1 5604   0.855   0.540  10.059 -0.3902 -0.5331  0.1432
  374TMC3    O2 5605   1.372   0.803  10.053  0.5118  0.4873 -0.0171
  375MPD2     C 5606   1.247   0.817  17.491  1.0215  0.5021 -0.3342
  375MPD2    C1 5607   1.180   0.819  17.375 -0.2487  0.6565 -0.1988
  375MPD2    C2 5608   1.238   0.787  17.252 -0.4502  0.5416  0.2965
  375MPD2    C3 5609   1.377   0.744  17.252  0.0324 -0.6659  0.2413
  375MPD2    C4 5610   1.444   0.746  17.374  0.3727 -0.2671  0.0942
  375MPD2    C5 5611   1.380   0.783  17.486  0.2814  0.0191  0.0962
  375MPD2     H 5612   1.180   0.791  17.160 -0.5963 -0.0978  0.3620
  375MPD2    H1 5613   1.542   0.700  17.369  0.2717 -0.3384 -1.2411
  375MPD2    H2 5614   1.195   0.845  17.582  2.1240 -2.4837  1.2303
  375MPD2    H3 5615   1.438   0.778  17.577 -0.1777 -1.3906  0.3137
  375MPD2     N 5616   1.444   0.695  17.132  0.1967  0.3091  0.2031
  375MPD2    H5 5617   1.538   0.661  17.148 -0.0075 -1.6493 -2.7513
  375MPD2    N1 5618   1.046   0.851  17.374  1.1263 -0.3052 -0.9922
  375MPD2    H7 5619   1.004   0.851  17.281 -1.5975  1.0431  0.2475
  376TMC3    C1 5620   1.476   0.619  16.922 -0.3239  0.2604 -0.4490
  376TMC3    C2 5621   1.596   0.676  16.904  0.0388 -0.1500 -0.7976
  376TMC3    C3 5622   1.655   0.666  16.780  0.3201  0.0847  0.3377
  376TMC3    C4 5623   1.410   0.548  16.822 -0.2958  0.5940  0.1843
  376TMC3    C5 5624   1.463   0.559  16.697 -0.7942 -0.1695 -0.1270
  376TMC3    C6 5625   1.588   0.613  16.676 -0.1034 -0.1633  0.4817
  376TMC3     C 5626   1.382   0.670  17.016  0.0460 -0.5978  0.9307
  376TMC3     O 5627   1.259   0.669  16.994 -0.4720 -0.6148 -0.2059
  376TMC3     H 5628   1.642   0.738  16.979  0.0832 -0.4950 -0.5365
  376TMC3    H1 5629   1.305   0.522  16.826 -0.0574 -0.7095 -1.5083
  376TMC3    H2 5630   1.636   0.603  16.579  2.0194  0.3005  1.4834
  376TMC3    C7 5631   1.370   0.545  16.588 -0.4371 -0.9041 -0.1716
  376TMC3    C8 5632   1.794   0.693  16.769  0.7460 -0.0598 -0.0064
  376TMC3    O1 5633   1.254   0.506  16.607 -0.6218  0.4101  0.3341
  376TMC3    O2 5634   1.837   0.696  16.656  0.3458 -0.9704 -0.9958
  377MPD2     C 5635   4.465   0.560  12.660  0.9753  0.0725  0.5953
  377MPD2    C1 5636   4.556   0.567  12.765  0.3105 -0.5668 -0.0968
  377MPD2    C2 5637   4.516   0.542  12.899 -0.2397  1.0944 -0.1817
  377MPD2    C3 5638   4.382   0.518  12.928  0.5448 -0.1400  0.1048
  377MPD2    C4 5639   4.295   0.503  12.816 -0.2191 -0.6479 -0.1443
  377MPD2    C5 5640   4.339   0.514  12.690  0.7212  0.1789  0.1427
  377MPD2     H 5641   4.588   0.554  12.980 -0.6838 -0.4682  0.4502
  377MPD2    H1 5642   4.193   0.470  12.831 -0.7402  0.7325 -0.6809
  377MPD2    H2 5643   4.492   0.568  12.555 -0.0477 -0.0301  0.3194
  377MPD2    H3 5644   4.276   0.491  12.605  1.3218 -1.5749  0.1812
  377MPD2     N 5645   4.333   0.495  13.063  0.4369  0.1303 -0.2588
  377MPD2    H5 5646   4.233   0.479  13.069  0.2988  1.2358  0.4487
  377MPD2    N1 5647   4.691   0.593  12.726  0.6008 -0.2683  0.4819
  377MPD2    H7 5648   4.707   0.585  12.626 -1.7629 -0.0793  0.0890
  378TMC3    C1 5649   0.270   0.746  12.510 -0.0882 -0.2935  0.2202
  378TMC3    C2 5650   0.165   0.712  12.594  0.2088  0.0581 -0.1239
  378TMC3    C3 5651   0.191   0.662  12.721  0.0830  0.3213  0.0896
  378TMC3    C4 5652   0.392   0.743  12.562  0.9449  0.0337  0.1140
  378TMC3    C5 5653   0.415   0.698  12.692 -0.2823 -0.1317 -0.6185
  378TMC3    C6 5654   0.314   0.660  12.781  0.1962  0.2840 -0.7000
  378TMC3     C 5655   0.249   0.836  12.391  0.3902 -0.9477 -0.6219
  378TMC3     O 5656   0.345   0.892  12.347 -0.3597 -0.0604 -0.2691
  378TMC3     H 5657   0.063   0.730  12.563 -0.2362 -1.7054  0.3244
  378TMC3    H1 5658   0.477   0.788  12.513  1.3603 -1.9205 -0.9571
  378TMC3    H2 5659   0.336   0.624  12.881  0.4087  1.9711 -0.1466
  378TMC3    C7 5660   0.550   0.699  12.746  0.7120  0.0700 -0.0696
  378TMC3    C8 5661   0.078   0.627  12.804 -0.1790  0.3120 -0.2527
  378TMC3    O1 5662   0.564   0.681  12.867 -0.5530 -0.3231 -0.1913
  378TMC3    O2 5663   0.084   0.637  12.927  0.1968  0.2992 -0.4155
  379MPD2     C 5664   0.030   3.026  16.799 -0.3585 -0.0601  0.0798
  379MPD2    C1 5665   0.030   2.926  16.699  0.3819  0.0868 -0.5418
  379MPD2    C2 5666   0.083   2.802  16.740 -0.2221 -0.4389  0.3019
  379MPD2    C3 5667   0.115   2.775  16.871 -0.5692  0.8500  0.4115
  379MPD2    C4 5668   0.100   2.871  16.968  0.1060 -0.2467 -0.3224
  379MPD2    C5 5669   0.055   2.990  16.927  0.6086  0.5782 -0.4033
  379MPD2     H 5670   0.085   2.718  16.671 -2.0941  1.2759 -1.8563
  379MPD2    H1 5671   0.135   2.857  17.070  1.9192 -0.8322 -1.0136
  379MPD2    H2 5672   4.699   3.118  16.780  1.6852  0.6230 -2.4812
  379MPD2    H3 5673   0.024   3.057  17.007  0.7387  0.3105 -0.1291
  379MPD2     N 5674   0.150   2.653  16.922  0.6198  0.0105 -0.3910
  379MPD2    H5 5675   0.150   2.651  17.024  2.0334 -1.4948 -0.4141
  379MPD2    N1 5676   4.682   2.944  16.580  0.0204  0.1571 -0.1474
  379MPD2    H7 5677   4.647   3.039  16.571  0.0372  0.1840  0.0841
  380TMC3    C1 5678   4.601   2.920  16.360  0.2524 -0.4713  0.3110
  380TMC3    C2 5679   4.650   2.885  16.233  0.0110  0.6033 -0.0106
  380TMC3    C3 5680   4.588   2.941  16.121 -0.1685 -0.2096  0.6155
  380TMC3    C4 5681   4.502   3.013  16.373  0.8752  0.0947  0.5211
  380TMC3    C5 5682   4.441   3.057  16.257 -0.2298 -0.5261  0.4568
  380TMC3    C6 5683   4.486   3.023  16.134  0.5849  0.6486  0.5576
  380TMC3     C 5684   4.666   2.856  16.474  0.1349 -0.1790 -0.1123
  380TMC3     O 5685   4.717   2.741  16.458  0.6699  0.1763  0.0321
  380TMC3     H 5686   0.007   2.814  16.222 -1.1195 -0.7193  0.1115
  380TMC3    H1 5687   4.451   3.024  16.468 -1.3382 -1.7697 -0.4458
  380TMC3    H2 5688   4.428   3.064  16.052  1.6237  1.6871  0.3408
  380TMC3    C7 5689   4.344   3.169  16.270 -0.4865  0.3351 -0.1072
  380TMC3    C8 5690   4.643   2.923  15.987  0.2453 -0.2420  0.0397
  380TMC3    O1 5691   4.377   3.250  16.358  0.5612 -0.0625  0.1638
  380TMC3    O2 5692   4.706   2.818  15.964 -0.3422 -0.3574 -0.5112
  381TMC3    C1 5693   4.717   4.261  16.544 -0.4529 -0.0585 -0.2199
  381TMC3    C2 5694   0.048   4.380  16.504 -1.0261  0.1291 -0.1325
  381TMC3    C3 5695   0.040   4.480  16.599  0.7997 -0.1474 -0.6696
  381TMC3    C4 5696   4.676   4.240  16.670  0.0001 -0.0225  0.2743
  381TMC3    C5 5697   4.667   4.345  16.762  0.3626 -0.3719  0.9884
  381TMC3    C6 5698   4.709   4.469  16.725 -0.2042 -0.4138 -0.1867
  381TMC3     C 5699   0.028   4.148  16.459  0.0126  0.9593  0.1766
  381TMC3     O 5700   0.049   4.163  16.341 -0.1783  0.5441 -0.0883
  381TMC3     H 5701   0.078   4.401  16.402 -1.1549  2.2439  0.2624
  381TMC3    H1 5702   4.639   4.144  16.705 -0.6259 -0.4513 -1.5479
  381TMC3    H2 5703   4.720   4.546  16.801  1.2541  1.0815 -1.9164
  381TMC3    C7 5704   4.649   4.311  16.906 -0.0630 -0.0269 -0.2328
  381TMC3    C8 5705   0.110   4.595  16.563  0.3752  0.5379 -0.4531
  381TMC3    O1 5706   4.686   4.198  16.941 -0.1488 -1.3185 -0.2974
  381TMC3    O2 5707   0.200   4.587  16.480 -0.2011 -0.1766  0.4205
  382MPD2     C 5708   3.854   2.680  17.351 -0.5034  0.3464 -0.4577
  382MPD2    C1 5709   3.881   2.637  17.479  0.1210  0.0551 -0.2883
  382MPD2    C2 5710   3.854   2.508  17.520  0.7445  0.4096 -0.0164
  382MPD2    C3 5711   3.802   2.419  17.432  0.0598 -0.4253  0.0144
  382MPD2    C4 5712   3.786   2.464  17.299  0.0322 -0.1868 -0.1654
  382MPD2    C5 5713   3.793   2.595  17.262  0.4075 -0.6434 -0.5402
  382MPD2     H 5714   3.875   2.480  17.623  0.9244 -1.5573 -0.6057
  382MPD2    H1 5715   3.751   2.393  17.224 -2.2667 -0.7601  1.4521
  382MPD2    H2 5716   3.865   2.787  17.336 -1.3173  0.8098  2.3907
  382MPD2    H3 5717   3.770   2.624  17.160  1.1570  0.1009 -0.4969
  382MPD2     N 5718   3.765   2.285  17.455 -0.2629  0.4067  0.3040
  382MPD2    H5 5719   3.708   2.239  17.385  0.0100  1.0933 -0.3637
  382MPD2    N1 5720   3.934   2.741  17.566 -0.2718 -0.3200 -0.2210
  382MPD2    H7 5721   3.967   2.823  17.517  0.4062 -1.7319 -2.1462
  383TMC3    C1 5722   3.706   2.096  17.585 -0.1071 -0.2364 -0.5171
  383TMC3    C2 5723   3.593   2.078  17.516 -0.1040  0.4948 -0.1811
  383TMC3    C3 5724   3.527   1.964  17.539  1.0439  0.1944  0.3131
  383TMC3    C4 5725   3.752   2.008  17.676  0.4529 -0.0857  1.0314
  383TMC3    C5 5726   3.687   1.889  17.692  0.5313 -0.6287 -0.6977
  383TMC3    C6 5727   3.573   1.870  17.624  0.2000  0.6439  0.2392
  383TMC3     C 5728   3.782   2.221  17.577 -0.0378 -0.0264  0.0556
  383TMC3     O 5729   3.837   2.270  17.675 -0.4453 -0.0186 -0.2058
  383TMC3     H 5730   3.574   2.125  17.420  0.3975  0.6590 -0.2007
  383TMC3    H1 5731   3.847   2.021   0.029 -0.2449  2.4651  1.6703
  383TMC3    H2 5732   3.525   1.773  17.634  0.1482  0.6392 -0.0749
  383TMC3    C7 5733   3.746   1.789   0.080 -0.1671  0.4686 -0.1616
  383TMC3    C8 5734   3.392   1.955  17.489  0.2979 -0.2519  0.0946
  383TMC3    O1 5735   3.676   1.706   0.131  0.0059  0.0279 -0.1708
  383TMC3    O2 5736   3.328   1.851  17.490  0.6701  0.0341 -0.0462
  384MPD2     C 5737   0.961   3.962  12.149 -0.1056  0.3386 -0.2044
  384MPD2    C1 5738   0.972   3.874  12.252  0.0173  0.9508 -0.1214
  384MPD2    C2 5739   1.088   3.788  12.248  0.0955  0.1398  0.3670
  384MPD2    C3 5740   1.194   3.805  12.157  0.4128 -0.4552  0.1681
  384MPD2    C4 5741   1.180   3.904  12.064 -0.0402  0.3331  0.1938
  384MPD2    C5 5742   1.065   3.984  12.062 -0.2564  0.1430  0.1099
  384MPD2     H 5743   1.101   3.716  12.329  0.3007  1.8501  1.8458
  384MPD2    H1 5744   1.251   3.911  11.983  1.2471  1.0948  1.3925
  384MPD2    H2 5745   0.890   4.044  12.145  1.6409  1.7850 -1.8421
  384MPD2    H3 5746   1.066   4.068  11.993  1.4692  0.6975  0.8116
  384MPD2     N 5747   1.307   3.718  12.143  0.0250  0.6314  0.3937
  384MPD2    H5 5748   1.388   3.741  12.085  0.0459 -0.7467 -0.1309
  384MPD2    N1 5749   0.878   3.850  12.352  0.2589 -0.0077 -0.0461
  384MPD2    H7 5750   0.899   3.765  12.404  0.9937  1.0938  1.4910
  385TMC3    C1 5751   1.446   3.523  12.209 -0.2283 -0.4859 -0.2355
  385TMC3    C2 5752   1.483   3.490  12.077 -0.3897 -0.3868 -0.2503
  385TMC3    C3 5753   1.510   3.356  12.056  0.2102  1.0056  0.6164
  385TMC3    C4 5754   1.446   3.424  12.305 -0.0815 -0.1345 -0.1383
  385TMC3    C5 5755   1.466   3.291  12.277 -0.0602 -0.6054 -0.3376
  385TMC3    C6 5756   1.503   3.252  12.147 -0.0437 -0.0469  0.2245
  385TMC3     C 5757   1.324   3.603  12.222  0.6302 -0.3021 -0.4963
  385TMC3     O 5758   1.241   3.551  12.295  0.3236  0.0067 -0.8558
  385TMC3     H 5759   1.504   3.553  11.992  0.9136  0.5770  0.7958
  385TMC3    H1 5760   1.421   3.451  12.407 -0.0943  0.4860 -0.3037
  385TMC3    H2 5761   1.529   3.150  12.121 -3.0411 -0.0935 -2.4370
  385TMC3    C7 5762   1.349   3.209  12.316  0.4153 -0.3268 -0.2773
  385TMC3    C8 5763   1.579   3.334  11.928 -0.8338 -0.0299 -0.3055
  385TMC3    O1 5764   1.357   3.097  12.275  0.0564 -0.2116 -0.6487
  385TMC3    O2 5765   1.636   3.427  11.873 -0.9859  1.1666  0.1235
  386TMC3    C1 5766   1.352   0.905  12.560 -0.2074  0.3556 -0.1944
  386TMC3    C2 5767   1.367   0.908  12.424 -0.5858  0.2430 -0.7710
  386TMC3    C3 5768   1.265   0.964  12.355 -0.2311 -0.1856 -0.4016
  386TMC3    C4 5769   1.250   0.975  12.627  0.0691  0.5876  0.5038
  386TMC3    C5 5770   1.156   1.047  12.557 -0.4605  0.5075  0.3555
  386TMC3    C6 5771   1.160   1.029  12.423  0.0684 -0.8557 -0.0246
  386TMC3     C 5772   1.457   0.853  12.649 -0.4093  0.0949  0.2891
  386TMC3     O 5773   1.433   0.860  12.768  0.0202 -0.3357  0.2238
  386TMC3     H 5774   1.452   0.860  12.379 -1.5244 -0.1900 -2.0692
  386TMC3    H1 5775   1.227   0.956  12.731  0.9465  2.8507  1.1213
  386TMC3    H2 5776   1.101   1.091  12.357  1.1828 -0.4634 -0.6535
  386TMC3    C7 5777   1.030   1.069  12.619  0.2440 -1.1803  0.0107
  386TMC3    C8 5778   1.232   0.922  12.224 -0.1687  0.7745  0.1098
  386TMC3    O1 5779   1.020   1.090  12.741 -0.0108 -0.4693 -0.5985
  386TMC3    O2 5780   1.116   0.917  12.199  0.5166  0.1970 -0.5879
  387MPD2     C 5781   3.542   1.238   9.841  0.5849 -0.2386  0.8106
  387MPD2    C1 5782   3.674   1.214   9.875 -0.1696  0.7889 -0.6726
  387MPD2    C2 5783   3.699   1.156   9.999  0.1739 -0.1657  0.4964
  387MPD2    C3 5784   3.601   1.110  10.083  0.4557 -0.6705  0.4264
  387MPD2    C4 5785   3.471   1.140  10.049  0.3937 -0.0115 -0.2018
  387MPD2    C5 5786   3.442   1.208   9.932 -0.6388 -0.4844 -0.0949
  387MPD2     H 5787   3.801   1.135  10.027 -0.2872  0.3620  2.5405
  387MPD2    H1 5788   3.393   1.097  10.110  0.8828  1.5951  1.5542
  387MPD2    H2 5789   3.511   1.284   9.749 -0.2322 -0.1784  1.1115
  387MPD2    H3 5790   3.338   1.236   9.916 -0.0315  1.0757 -1.2527
  387MPD2     N 5791   3.639   1.017  10.193 -0.1287 -0.5909  0.0147
  387MPD2    H5 5792   3.739   1.013  10.213 -0.4059 -1.0393  1.2714
  387MPD2    N1 5793   3.781   1.245   9.794  0.0925 -0.1361  0.0827
  387MPD2    H7 5794   3.875   1.229   9.827 -0.1857 -0.8706  0.5093
  388TMC3    C1 5795   3.912   1.251   9.608 -0.1261 -0.7210 -0.3774
  388TMC3    C2 5796   3.964   1.329   9.510  0.0108 -0.3076 -0.3027
  388TMC3    C3 5797   4.101   1.332   9.489 -0.4608  0.0427 -1.0491
  388TMC3    C4 5798   3.991   1.173   9.685 -0.1366  0.1820  0.5518
  388TMC3    C5 5799   4.131   1.176   9.668 -0.6092 -0.2832 -0.2472
  388TMC3    C6 5800   4.191   1.251   9.565  0.1951  0.4912 -0.3718
  388TMC3     C 5801   3.777   1.286   9.661 -0.3729 -0.4806  0.4761
  388TMC3     O 5802   3.688   1.325   9.586 -0.3197 -0.0411 -0.0859
  388TMC3     H 5803   3.894   1.404   9.476  0.7992  1.2360  1.4607
  388TMC3    H1 5804   3.955   1.082   9.732 -0.7090  0.1648  0.0775
  388TMC3    H2 5805   4.299   1.246   9.559  0.1410  0.6836 -1.5381
  388TMC3    C7 5806   4.203   1.061   9.717 -0.3688 -0.3409  0.6998
  388TMC3    C8 5807   4.153   1.452   9.425 -0.1709  0.8169 -0.7237
  388TMC3    O1 5808   4.283   1.004   9.647  0.6371  0.6487  0.2033
  388TMC3    O2 5809   4.074   1.543   9.403  0.1495  0.1741  0.3780
  389MPD2     C 5810   3.407   3.978  11.667 -0.2370  0.5995 -0.1612
  389MPD2    C1 5811   3.339   3.909  11.575 -0.4938 -0.1450  0.0377
  389MPD2    C2 5812   3.233   3.839  11.623  0.1456 -0.3451  0.3026
  389MPD2    C3 5813   3.212   3.818  11.758 -0.6513 -0.6110  0.1739
  389MPD2    C4 5814   3.288   3.879  11.853 -0.4080  1.3402 -0.2595
  389MPD2    C5 5815   3.388   3.963  11.801 -0.0385 -0.1095  0.3105
  389MPD2     H 5816   3.160   3.792  11.558  1.5883 -0.6599 -1.1020
  389MPD2    H1 5817   3.272   3.859  11.958  0.7462 -2.5470 -0.8129
  389MPD2    H2 5818   3.496   4.035  11.646  0.5054  0.0966  1.6190
  389MPD2    H3 5819   3.467   4.003  11.864 -0.8197  0.1519  1.1456
  389MPD2     N 5820   3.105   3.741  11.819  0.0651  0.1128 -0.3184
  389MPD2    H5 5821   3.088   3.754  11.918 -1.8041  0.1418 -0.6551
  389MPD2    N1 5822   3.362   3.932  11.437 -0.8308  0.3236  0.6146
  389MPD2    H7 5823   3.444   3.989  11.416 -1.0474  0.3060 -0.2847
  390TMC3    C1 5824   2.907   3.634  11.832  0.4403 -0.1368 -0.3410
  390TMC3    C2 5825   2.844   3.521  11.793 -0.0912 -0.4345 -0.3451
  390TMC3    C3 5826   2.709   3.526  11.803 -0.0388  0.3720  0.7799
  390TMC3    C4 5827   2.841   3.747  11.878  0.4878 -0.3172 -0.2428
  390TMC3    C5 5828   2.708   3.749  11.888  0.3223  0.7359 -0.1187
  390TMC3    C6 5829   2.636   3.642  11.841 -0.4644  0.3954  0.4927
  390TMC3     C 5830   3.028   3.656  11.751 -0.4365  0.1896 -0.3603
  390TMC3     O 5831   3.052   3.594  11.649 -0.0139 -0.1835 -0.2451
  390TMC3     H 5832   2.903   3.433  11.772 -1.2642 -0.7899 -2.1181
  390TMC3    H1 5833   2.890   3.843  11.878 -2.4976  1.2123 -3.1652
  390TMC3    H2 5834   2.528   3.634  11.849 -0.7161  2.1381 -1.1094
  390TMC3    C7 5835   2.648   3.877  11.929  0.1601 -0.1084  0.0859
  390TMC3    C8 5836   2.639   3.400  11.789  0.2227  0.1280  0.0284
  390TMC3    O1 5837   2.723   3.976  11.913 -0.2291 -0.4400 -0.2796
  390TMC3    O2 5838   2.679   3.313  11.713  0.4063  0.7593 -0.0896
  391MPD2     C 5839   1.958   0.535  11.574  0.6837 -0.5106 -1.0651
  391MPD2    C1 5840   2.080   0.597  11.528 -0.6572  0.1605 -0.2660
  391MPD2    C2 5841   2.096   0.635  11.395  0.0964  0.6681  0.2195
  391MPD2    C3 5842   1.985   0.635  11.310  0.5078 -0.6003  0.1679
  391MPD2    C4 5843   1.872   0.570  11.351  0.2972  0.2497 -0.1573
  391MPD2    C5 5844   1.859   0.530  11.481 -0.4503 -0.3117  0.3727
  391MPD2     H 5845   2.181   0.686  11.353 -0.2038 -0.5090 -1.8270
  391MPD2    H1 5846   1.778   0.566  11.297  0.7195 -0.1703 -0.8626
  391MPD2    H2 5847   1.947   0.494  11.673  0.3510  2.3679  0.1015
  391MPD2    H3 5848   1.766   0.486  11.516  0.7962  0.5815  4.8314
  391MPD2     N 5849   2.008   0.692  11.178 -0.3428 -0.7979 -0.6715
  391MPD2    H5 5850   2.101   0.730  11.164 -0.3373  0.2809  2.2112
  391MPD2    N1 5851   2.190   0.609  11.611  0.2479 -0.1252 -0.2148
  391MPD2    H7 5852   2.174   0.585  11.708 -1.9461  0.6318 -0.3940
  392TMC3    C1 5853   1.957   0.764  10.952 -0.5779  0.0760  0.6084
  392TMC3    C2 5854   1.862   0.770  10.853 -0.9853  0.4328  0.3752
  392TMC3    C3 5855   1.901   0.810  10.732  0.1392 -0.2011 -0.1437
  392TMC3    C4 5856   2.088   0.804  10.935 -0.2012 -0.4218 -0.1838
  392TMC3    C5 5857   2.120   0.849  10.815  0.2736 -0.0608  0.2356
  392TMC3    C6 5858   2.033   0.846  10.707  0.5943 -0.0100  0.2007
  392TMC3     C 5859   1.907   0.717  11.088  0.3773 -0.6598 -0.2172
  392TMC3     O 5860   1.789   0.683  11.095  0.5085  0.3571 -0.3028
  392TMC3     H 5861   1.758   0.750  10.876 -0.3325 -1.0297  2.0937
  392TMC3    H1 5862   2.153   0.817  11.021 -1.4015  0.6888  0.5441
  392TMC3    H2 5863   2.053   0.895  10.612  0.0265  1.9648  1.1053
  392TMC3    C7 5864   2.261   0.886  10.799 -0.8289 -0.1836  0.0344
  392TMC3    C8 5865   1.806   0.781  10.629  0.1421 -0.4955  0.2955
  392TMC3    O1 5866   2.340   0.864  10.892  0.1519 -0.0903 -0.2794
  392TMC3    O2 5867   1.694   0.744  10.656 -0.3484 -0.1490 -0.0343
  393TMC3    C1 5868   1.899   3.623  10.820 -0.0436  0.1512  0.1724
  393TMC3    C2 5869   1.792   3.667  10.901  0.4024  0.5400 -0.7540
  393TMC3    C3 5870   1.760   3.581  11.000 -0.2181 -0.2576  0.2034
  393TMC3    C4 5871   1.962   3.503  10.837  0.2699 -0.1735 -0.4239
  393TMC3    C5 5872   1.918   3.422  10.936 -1.0415  0.5508 -0.4484
  393TMC3    C6 5873   1.815   3.458  11.016 -0.6204 -0.0791 -0.1889
  393TMC3     C 5874   1.902   3.682  10.690  0.3959  0.0151 -0.5600
  393TMC3     O 5875   1.787   3.704  10.649  0.3418  0.6204  0.0912
  393TMC3     H 5876   1.737   3.756  10.874 -1.1872 -0.1452  0.2186
  393TMC3    H1 5877   2.014   3.461  10.752 -1.6386  0.4699 -1.9047
  393TMC3    H2 5878   1.789   3.393  11.099 -1.0089  0.1083 -0.1653
  393TMC3    C7 5879   1.963   3.282  10.939 -0.2180 -0.1017  0.0176
  393TMC3    C8 5880   1.640   3.606  11.078 -0.1656 -0.3182 -0.0719
  393TMC3    O1 5881   1.900   3.215  11.018 -0.2296 -0.3589  0.2366
  393TMC3    O2 5882   1.582   3.513  11.125 -0.1014  0.5286  0.9620
  394TMC3    C1 5883   3.319   3.936  11.204  0.2617  0.6694 -0.3550
  394TMC3    C2 5884   3.264   3.870  11.093  0.0413 -0.9131  0.4901
  394TMC3    C3 5885   3.273   3.931  10.970  0.2546  0.7272 -0.1205
  394TMC3    C4 5886   3.365   4.066  11.192 -0.4969  0.4813  0.1545
  394TMC3    C5 5887   3.365   4.129  11.070 -0.3551  0.2561 -0.4032
  394TMC3    C6 5888   3.320   4.057  10.965 -0.2783 -0.2402 -0.0684
  394TMC3     C 5889   3.288   3.890  11.332 -0.1336 -0.1901 -0.2005
  394TMC3     O 5890   3.179   3.838  11.339  0.5464 -0.7915  0.0226
  394TMC3     H 5891   3.219   3.775  11.117  0.2842 -1.4198 -1.0551
  394TMC3    H1 5892   3.368   4.123  11.284 -0.0387  0.9005 -0.1198
  394TMC3    H2 5893   3.320   4.111  10.870  0.6036 -0.5121 -0.2141
  394TMC3    C7 5894   3.376   4.277  11.061 -0.2004 -0.3419  0.0326
  394TMC3    C8 5895   3.201   3.871  10.852  0.1248 -0.4345  0.0007
  394TMC3    O1 5896   3.325   4.328  10.961  0.1728 -0.7872  0.3611
  394TMC3    O2 5897   3.175   3.949  10.759  0.2549 -0.2499  0.3327
  395TMC3    C1 5898   2.100   1.100  14.761 -0.2287 -0.0461  0.7443
  395TMC3    C2 5899   1.982   1.095  14.827  0.4137 -0.3233 -0.3344
  395TMC3    C3 5900   1.956   1.178  14.933  0.4671 -0.2206 -0.3238
  395TMC3    C4 5901   2.198   1.186  14.798 -0.0135  0.2299  0.3681
  395TMC3    C5 5902   2.165   1.274  14.900  0.0956  0.1021  0.7713
  395TMC3    C6 5903   2.047   1.272  14.963 -0.0153  0.8181 -0.2970
  395TMC3     C 5904   2.149   0.961  14.767  0.1739  0.4190 -0.0339
  395TMC3     O 5905   2.064   0.879  14.796  0.4852  0.2922 -0.5749
  395TMC3     H 5906   1.899   1.032  14.796 -1.0045  0.9476  0.8715
  395TMC3    H1 5907   2.279   1.216  14.733  2.0443 -1.9859  1.9183
  395TMC3    H2 5908   2.028   1.342  15.043 -2.0642 -0.2281  0.1261
  395TMC3    C7 5909   2.278   1.324  14.972 -0.0357  0.1210  0.2258
  395TMC3    C8 5910   1.899   1.115  15.055 -0.3852 -0.0804 -0.4039
  395TMC3    O1 5911   2.263   1.434  15.019 -0.2454 -0.3439  0.2980
  395TMC3    O2 5912   1.888   1.177  15.161  0.9375 -0.2593 -0.5996
  396MPD2     C 5913   1.982   1.595  17.231  0.1944  0.7647  0.1799
  396MPD2    C1 5914   2.055   1.674  17.322  0.5167 -0.0691 -0.8788
  396MPD2    C2 5915   2.092   1.806  17.285  0.2906 -0.2632 -0.1982
  396MPD2    C3 5916   2.059   1.852  17.165 -0.5072  0.0205 -0.0170
  396MPD2    C4 5917   1.979   1.772  17.081 -0.5191 -0.0249 -0.2551
  396MPD2    C5 5918   1.930   1.650  17.117 -0.4063 -0.0089 -0.5594
  396MPD2     H 5919   2.152   1.870  17.348 -1.1572  1.3225 -0.4321
  396MPD2    H1 5920   1.948   1.799  16.980  1.6677  1.1204 -0.6081
  396MPD2    H2 5921   1.952   1.494  17.258  2.8808 -0.4057 -1.1671
  396MPD2    H3 5922   1.887   1.585  17.041 -0.3453  0.2817 -0.8431
  396MPD2     N 5923   2.114   1.979  17.124  0.3634  0.3793 -0.4809
  396MPD2    H5 5924   2.155   2.031  17.200 -1.9232 -0.7724  1.5499
  396MPD2    N1 5925   2.076   1.618  17.450  0.1004 -0.4622  0.5343
  396MPD2    H7 5926   2.063   1.517  17.453  0.1367 -0.5381 -1.5001
  397TMC3    C1 5927   2.220   1.591  17.632  0.3354 -0.3119 -0.1374
  397TMC3    C2 5928   2.354   1.621  17.622 -0.1956 -0.4108  0.3579
  397TMC3    C3 5929   2.433   1.520  17.572  0.0691  0.2891  0.1895
  397TMC3    C4 5930   2.174   1.463  17.637  0.2112 -0.6238 -0.0127
  397TMC3    C5 5931   2.268   1.365  17.619 -0.0577 -1.0737  0.0971
  397TMC3    C6 5932   2.394   1.392  17.578  0.1473  0.4624 -0.3138
  397TMC3     C 5933   2.136   1.682  17.555  0.1856 -0.2814 -0.0480
  397TMC3     O 5934   2.166   1.799  17.564 -0.7263 -0.0845 -0.0335
  397TMC3     H 5935   2.376   1.723  17.594 -1.8913 -0.0428  0.3928
  397TMC3    H1 5936   2.069   1.437  17.638  0.2170 -0.6964 -1.3542
  397TMC3    H2 5937   2.470   1.320  17.553 -2.3622 -2.9103  1.7230
  397TMC3    C7 5938   2.239   1.230  17.665 -0.4022  0.0415  0.0052
  397TMC3    C8 5939   2.479   1.550  17.438  0.7331  0.3522  0.3338
  397TMC3    O1 5940   2.293   1.135  17.610  0.2291 -0.0980  0.0194
  397TMC3    O2 5941   2.424   1.491  17.345  0.0654 -0.5228 -0.3522
  398MPD2     C 5942   0.081   1.931   0.574  0.1840  0.4042 -0.4085
  398MPD2    C1 5943   0.218   1.920   0.576 -0.0072 -0.1506 -0.3686
  398MPD2    C2 5944   0.290   2.020   0.517 -0.0144 -0.0592 -0.2311
  398MPD2    C3 5945   0.225   2.132   0.464  0.5091  0.0445  0.4498
  398MPD2    C4 5946   0.087   2.145   0.474 -0.1238 -0.4670 -0.5693
  398MPD2    C5 5947   0.019   2.044   0.533 -0.5638 -0.3680  0.3814
  398MPD2     H 5948   0.398   2.009   0.514  0.0479 -0.0327  1.8443
  398MPD2    H1 5949   0.037   2.234   0.440 -2.5977 -1.8646 -0.6056
  398MPD2    H2 5950   0.022   1.850   0.614 -1.5194  1.5766 -0.5302
  398MPD2    H3 5951   4.640   2.068   0.557  0.2156  0.8286  2.5100
  398MPD2     N 5952   0.303   2.239   0.416 -0.5221 -0.4158  0.3916
  398MPD2    H5 5953   0.404   2.228   0.421 -0.6043 -0.5371  1.7360
  398MPD2    N1 5954   0.286   1.806   0.625 -0.2180 -0.0413  0.1555
  398MPD2    H7 5955   0.387   1.802   0.615 -0.1829  1.3865 -0.0650
  399TMC3    C1 5956   0.331   1.628   0.757  0.6748  0.1616  0.0505
  399TMC3    C2 5957   0.442   1.593   0.692  0.0947 -0.3840 -0.2906
  399TMC3    C3 5958   0.518   1.482   0.736 -0.7178 -0.1224 -0.0494
  399TMC3    C4 5959   0.306   1.562   0.878 -0.4297  0.2901 -0.5604
  399TMC3    C5 5960   0.389   1.463   0.929 -0.3789 -0.3157 -0.3844
  399TMC3    C6 5961   0.501   1.424   0.860  0.1777 -0.4447 -0.4419
  399TMC3     C 5962   0.230   1.717   0.710 -0.0506  0.1123 -0.2962
  399TMC3     O 5963   0.129   1.734   0.780  0.2119  0.3378  0.5678
  399TMC3     H 5964   0.460   1.633   0.593  0.2183 -1.2596 -0.6229
  399TMC3    H1 5965   0.215   1.589   0.930  0.8209 -1.1821  2.3802
  399TMC3    H2 5966   0.552   1.332   0.887  0.6741 -0.1156 -0.2693
  399TMC3    C7 5967   0.366   1.404   1.054  1.1516  0.1668  0.4221
  399TMC3    C8 5968   0.651   1.455   0.677 -0.0804  0.2992 -0.1593
  399TMC3    O1 5969   0.255   1.417   1.100  0.3453  0.2735  0.0281
  399TMC3    O2 5970   0.702   1.346   0.702 -0.4330 -0.2681  0.5186
  400TMC3    C1 5971   3.543   1.575  17.272 -0.0140 -0.0542 -0.1873
  400TMC3    C2 5972   3.423   1.517  17.265 -0.2836 -1.1013  0.4882
  400TMC3    C3 5973   3.320   1.571  17.197  1.0999 -0.1313 -0.5137
  400TMC3    C4 5974   3.564   1.698  17.214 -0.3854 -0.0567  0.0181
  400TMC3    C5 5975   3.453   1.756  17.156  0.0722  0.2449  0.0453
  400TMC3    C6 5976   3.329   1.695  17.139  0.0645 -1.0470 -0.7812
  400TMC3     C 5977   3.608   1.559  17.401  0.5539 -0.7880  0.4552
  400TMC3     O 5978   3.531   1.532  17.492  0.0607  0.1125 -0.5122
  400TMC3     H 5979   3.410   1.414  17.295 -0.9274 -1.1932 -0.0854
  400TMC3    H1 5980   3.655   1.746  17.248  0.7789 -0.5964 -2.3064
  400TMC3    H2 5981   3.238   1.737  17.097  0.6261  1.9406  0.9662
  400TMC3    C7 5982   3.455   1.895  17.145  0.0507 -0.1209 -0.6089
  400TMC3    C8 5983   3.198   1.491  17.170 -0.8777  0.1265  0.4073
  400TMC3    O1 5984   3.551   1.953  17.197  0.3913 -0.0583 -0.3792
  400TMC3    O2 5985   3.167   1.419  17.266 -0.7771 -0.4363  0.3595
  401MPD2     C 5986   2.304   1.164   1.979 -1.0616  0.3923 -0.5255
  401MPD2    C1 5987   2.349   1.075   1.881 -0.1327  0.1281  0.1952
  401MPD2    C2 5988   2.249   0.985   1.833 -0.5665 -0.3292 -0.4029
  401MPD2    C3 5989   2.111   0.991   1.875 -0.0566 -0.7268 -0.1142
  401MPD2    C4 5990   2.082   1.093   1.964  0.5317  0.4720 -0.0126
  401MPD2    C5 5991   2.178   1.181   2.024 -0.4925 -0.0573  0.6247
  401MPD2     H 5992   2.277   0.923   1.749  1.7837  0.7977 -0.4513
  401MPD2    H1 5993   1.984   1.106   2.009 -0.4376 -2.3077 -1.3416
  401MPD2    H2 5994   2.377   1.221   2.035  0.0870  1.0930 -2.7135
  401MPD2    H3 5995   2.145   1.247   2.104 -0.0969  0.7087  0.1606
  401MPD2     N 5996   2.024   0.894   1.824 -0.1253  0.4622 -0.2120
  401MPD2    H5 5997   2.054   0.832   1.750 -0.6913  0.5288 -0.4958
  401MPD2    N1 5998   2.477   1.079   1.828  0.0460 -0.3076 -0.0490
  401MPD2    H7 5999   2.496   1.030   1.741  0.7755 -1.9494  1.0264
  402TMC3    C1 6000   1.825   0.795   1.772 -0.0022 -0.0635  0.5265
  402TMC3    C2 6001   1.780   0.680   1.819  0.3339 -0.3539 -0.0133
  402TMC3    C3 6002   1.785   0.575   1.730 -0.3159 -0.4693  0.4165
  402TMC3    C4 6003   1.864   0.821   1.639 -0.1282  0.0591 -0.0181
  402TMC3    C5 6004   1.870   0.706   1.562  0.3451  0.5897  0.1382
  402TMC3    C6 6005   1.838   0.586   1.610  0.2508  0.4864  0.3589
  402TMC3     C 6006   1.891   0.887   1.854  0.4840  0.4845  0.8614
  402TMC3     O 6007   1.822   0.947   1.931  0.0742 -0.2291 -0.0391
  402TMC3     H 6008   1.745   0.678   1.921  1.4313  4.0630  0.4672
  402TMC3    H1 6009   1.887   0.922   1.607 -0.2752 -0.0726 -0.5356
  402TMC3    H2 6010   1.834   0.495   1.551 -1.7023  0.1001  1.0974
  402TMC3    C7 6011   1.916   0.726   1.429 -0.7918  0.3864 -0.0389
  402TMC3    C8 6012   1.821   0.456   1.794  0.4837  0.4347 -0.3225
  402TMC3    O1 6013   1.956   0.836   1.406 -0.4790  0.3868 -0.6520
  402TMC3    O2 6014   1.911   0.393   1.740 -0.0483 -0.1148  0.7633
  403MPD2     C 6015   0.892   3.239  13.653  0.3267  0.4990  0.7618
  403MPD2    C1 6016   0.768   3.222  13.711 -0.4517  0.6512  0.1927
  403MPD2    C2 6017   0.762   3.168  13.836 -0.0982 -0.5471  0.1583
  403MPD2    C3 6018   0.880   3.138  13.907 -0.3514 -0.5115  0.5324
  403MPD2    C4 6019   0.998   3.147  13.841  0.3929 -0.5129  0.8111
  403MPD2    C5 6020   1.007   3.198  13.717  0.0295 -0.6061 -0.2252
  403MPD2     H 6021   0.663   3.160  13.879 -1.1176  1.7406 -1.7521
  403MPD2    H1 6022   1.088   3.103  13.881  1.7765  1.9420  0.3894
  403MPD2    H2 6023   0.901   3.276  13.552  0.2079 -1.9018 -0.1120
  403MPD2    H3 6024   1.101   3.215  13.666  0.3357  0.1200  0.5846
  403MPD2     N 6025   0.870   3.077  14.037 -0.7349 -0.1103  0.0167
  403MPD2    H5 6026   0.777   3.062  14.076 -1.5523 -0.6165 -2.1046
  403MPD2    N1 6027   0.654   3.252  13.635 -0.4040 -0.5455  0.6020
  403MPD2    H7 6028   0.678   3.284  13.541  0.3688 -2.7367  0.0562
  404TMC3    C1 6029   0.433   3.266  13.568  0.6753 -0.1489 -0.6569
  404TMC3    C2 6030   0.322   3.186  13.572 -0.4111  0.6176  0.2022
  404TMC3    C3 6031   0.274   3.153  13.450 -0.1158  0.6563  0.4550
  404TMC3    C4 6032   0.480   3.322  13.457 -0.7185  0.1455  0.0195
  404TMC3    C5 6033   0.423   3.299  13.339 -0.0864  0.4795  0.2903
  404TMC3    C6 6034   0.323   3.206  13.334 -0.0434 -0.7378  0.3272
  404TMC3     C 6035   0.520   3.245  13.677  0.5781 -0.2362 -0.2441
  404TMC3     O 6036   0.474   3.208  13.786  0.2715 -0.3470  0.2221
  404TMC3     H 6037   0.290   3.145  13.667  2.0633 -1.9741 -0.0892
  404TMC3    H1 6038   0.545   3.408  13.468 -0.4915 -0.2904  2.2264
  404TMC3    H2 6039   0.284   3.162  13.242 -2.1279  0.7769  0.4813
  404TMC3    C7 6040   0.462   3.375  13.224 -0.1059 -0.3005 -0.6643
  404TMC3    C8 6041   0.194   3.034  13.432  0.3818 -0.2434  0.2383
  404TMC3    O1 6042   0.559   3.451  13.230  0.2417  0.1720  0.0553
  404TMC3    O2 6043   0.207   2.971  13.325 -0.2281  0.5259 -0.2203
  405MPD2     C 6044   0.441   3.492  15.067  0.5404  0.2568 -0.0001
  405MPD2    C1 6045   0.449   3.531  14.933 -0.9828  0.1477 -0.2824
  405MPD2    C2 6046   0.413   3.660  14.907  0.0954  0.1700  0.4884
  405MPD2    C3 6047   0.377   3.758  15.001 -0.4292 -0.1361 -0.3118
  405MPD2    C4 6048   0.382   3.724  15.134 -0.2822 -0.2075  0.0587
  405MPD2    C5 6049   0.404   3.590  15.161  0.2332 -0.1101 -0.0160
  405MPD2     H 6050   0.419   3.695  14.805 -0.2755 -2.4789 -0.4286
  405MPD2    H1 6051   0.364   3.793  15.215  3.7747  1.5251 -0.4949
  405MPD2    H2 6052   0.454   3.390  15.102  2.0023  0.7130  0.7932
  405MPD2    H3 6053   0.395   3.552  15.262 -1.5068  2.1061  0.6479
  405MPD2     N 6054   0.360   3.890  14.957 -0.2227 -0.7375 -0.5252
  405MPD2    H5 6055   0.365   3.896  14.856  0.8239  0.8419 -0.3770
  405MPD2    N1 6056   0.481   3.449  14.826  0.0961 -0.1959 -0.4352
  405MPD2    H7 6057   0.463   3.487  14.733 -0.5284  0.6883  0.0448
  406TMC3    C1 6058   0.266   4.290  14.793 -0.0128 -0.3457 -0.3101
  406TMC3    C2 6059   0.378   4.286  14.714 -0.5766  0.4829  0.0293
  406TMC3    C3 6060   0.463   4.188  14.739  0.0609  0.2148 -0.0067
  406TMC3    C4 6061   0.255   4.211  14.909 -0.2556 -0.0752 -0.6234
  406TMC3    C5 6062   0.357   4.121  14.937 -0.5924  0.1505  0.3011
  406TMC3    C6 6063   0.462   4.105  14.849  0.0793 -0.4746  0.3570
  406TMC3     C 6064   0.141   4.347  14.752  0.0204 -0.3377  0.2016
  406TMC3     O 6065   0.076   4.404  14.836 -0.5000  0.4368 -0.3079
  406TMC3     H 6066   0.377   4.329  14.614 -0.0518 -2.4834 -1.2515
  406TMC3    H1 6067   0.156   4.197  14.950  0.0035  0.4781  0.2003
  406TMC3    H2 6068   0.544   4.035  14.859  0.5340  0.0489  0.2577
  406TMC3    C7 6069   0.326   4.005  15.024 -0.0785 -0.4754 -0.1005
  406TMC3    C8 6070   0.556   4.154  14.635 -0.4532 -0.7362 -0.5646
  406TMC3    O1 6071   0.269   4.028  15.131 -0.3618 -0.2622  0.0860
  406TMC3    O2 6072   0.631   4.245  14.597  0.3543  0.2727  0.2896
  407MPD2     C 6073   2.916   0.872  10.334 -0.2328  0.3913 -0.3434
  407MPD2    C1 6074   3.044   0.914  10.306 -0.0938 -0.2308  0.1302
  407MPD2    C2 6075   3.087   1.041  10.344  0.9403 -0.3599 -0.5890
  407MPD2    C3 6076   3.006   1.119  10.416 -0.5225  0.2278 -1.3843
  407MPD2    C4 6077   2.878   1.082  10.438 -0.0598 -0.6670 -0.0129
  407MPD2    C5 6078   2.832   0.957  10.399 -1.1875  0.2098  0.8052
  407MPD2     H 6079   3.187   1.074  10.319 -0.1337  2.7353 -0.7598
  407MPD2    H1 6080   2.812   1.139  10.501 -3.1476 -2.2390 -1.8430
  407MPD2    H2 6081   2.882   0.779  10.289 -0.8227  0.2280  0.4361
  407MPD2    H3 6082   2.731   0.932  10.427 -1.8371  1.4726 -0.4356
  407MPD2     N 6083   3.069   1.229  10.473 -0.3592 -0.1762 -0.1920
  407MPD2    H5 6084   3.168   1.242  10.458 -0.5146  1.1602 -0.0355
  407MPD2    N1 6085   3.141   0.829  10.243  0.1594  0.7415 -0.0706
  407MPD2    H7 6086   3.232   0.870  10.227 -0.0880  1.6978  0.9734
  408TMC3    C1 6087   3.241   0.642  10.129 -0.0058 -1.2046 -0.3090
  408TMC3    C2 6088   3.262   0.507  10.133  0.0306  0.8457  0.1693
  408TMC3    C3 6089   3.371   0.445  10.073 -0.6217 -0.8842  0.5326
  408TMC3    C4 6090   3.327   0.722  10.063  0.5243  0.4241  1.0990
  408TMC3    C5 6091   3.438   0.654  10.003 -0.0261  0.6338  0.2332
  408TMC3    C6 6092   3.462   0.517  10.005 -0.0946  0.9592 -0.2688
  408TMC3     C 6093   3.127   0.691  10.210 -0.2556 -1.0133  0.3777
  408TMC3     O 6094   3.029   0.620  10.234 -0.3075 -0.9152  0.2045
  408TMC3     H 6095   3.191   0.449  10.192  1.3502  0.8794  1.7727
  408TMC3    H1 6096   3.312   0.830  10.067 -0.3783  0.2455  2.6090
  408TMC3    H2 6097   3.551   0.482   9.955  0.5126 -0.1208  1.6144
  408TMC3    C7 6098   3.552   0.740   9.957 -0.0212  0.6964  1.1247
  408TMC3    C8 6099   3.418   0.323  10.135 -0.1150 -0.2396  0.2334
  408TMC3    O1 6100   3.666   0.697   9.983  0.1133  0.5008 -0.2649
  408TMC3    O2 6101   3.344   0.225  10.150 -0.3849 -0.3704 -0.4027
  409MPD2     C 6102   2.442   0.996  17.103 -0.6423 -0.4098  0.1068
  409MPD2    C1 6103   2.529   1.045  17.203  0.7465  0.0428 -0.4030
  409MPD2    C2 6104   2.581   1.173  17.192 -0.3314 -0.8876  0.3927
  409MPD2    C3 6105   2.538   1.256  17.086  0.2730 -1.3275 -0.3243
  409MPD2    C4 6106   2.445   1.205  16.994  0.0928  0.2585  0.4591
  409MPD2    C5 6107   2.399   1.075  17.002 -0.0715 -0.1698 -0.5135
  409MPD2     H 6108   2.644   1.201  17.276  1.2818 -2.1855 -0.3703
  409MPD2    H1 6109   2.407   1.263  16.910  0.1827 -0.4250 -0.0598
  409MPD2    H2 6110   2.403   0.896  17.115 -0.5433 -0.5904 -1.1101
  409MPD2    H3 6111   2.327   1.040  16.929  0.7258 -3.3120  0.2150
  409MPD2     N 6112   2.580   1.389  17.067 -0.0412  0.9393 -0.0492
  409MPD2    H5 6113   2.543   1.438  16.986  0.4331  0.5969 -0.4730
  409MPD2    N1 6114   2.573   0.964  17.315 -0.3051  0.0297  0.2449
  409MPD2    H7 6115   2.629   1.017  17.380  0.2648  1.4217 -1.3786
  410TMC3    C1 6116   2.746   1.566  17.076 -0.1344 -0.2177 -0.4136
  410TMC3    C2 6117   2.844   1.626  17.149  0.5892 -0.1198  0.0918
  410TMC3    C3 6118   2.901   1.739  17.104  0.8053  0.3012  0.0210
  410TMC3    C4 6119   2.704   1.612  16.955 -0.1156  1.2629  0.1722
  410TMC3    C5 6120   2.770   1.727  16.909 -0.2206  0.4997  0.0051
  410TMC3    C6 6121   2.872   1.790  16.978  0.3662  0.2772 -0.7656
  410TMC3     C 6122   2.681   1.452  17.139  0.0132  0.4465 -1.1969
  410TMC3     O 6123   2.740   1.399  17.232  0.1679  0.3008  0.1751
  410TMC3     H 6124   2.867   1.592  17.249 -1.3176 -1.5877  0.0366
  410TMC3    H1 6125   2.618   1.566  16.908  0.1498 -0.2490  1.1643
  410TMC3    H2 6126   2.923   1.874  16.933 -1.9017  0.9281 -2.1237
  410TMC3    C7 6127   2.720   1.776  16.780 -0.1000 -0.1109  0.5091
  410TMC3    C8 6128   2.977   1.817  17.194  1.1242 -0.3596  0.0449
  410TMC3    O1 6129   2.647   1.698  16.722  0.3679 -0.0388 -0.1363
  410TMC3    O2 6130   2.999   1.765  17.303  0.3997  0.6935 -0.1364
  411MPD2     C 6131   2.925   1.873  14.855 -0.7323 -0.1061 -0.1380
  411MPD2    C1 6132   2.786   1.887  14.858  0.0894 -0.8589 -0.3954
  411MPD2    C2 6133   2.707   1.784  14.811 -0.1498 -0.0495 -0.5342
  411MPD2    C3 6134   2.760   1.669  14.762 -0.6490 -0.0698 -0.3453
  411MPD2    C4 6135   2.895   1.662  14.752 -0.2186 -0.5048  0.4263
  411MPD2    C5 6136   2.976   1.758  14.799 -0.4058 -0.3119  0.3458
  411MPD2     H 6137   2.600   1.789  14.828 -0.1009  4.0661 -1.5290
  411MPD2    H1 6138   2.944   1.570  14.720 -1.7057 -1.2463  0.2688
  411MPD2    H2 6139   2.992   1.947  14.897 -0.2472  0.0175 -1.1324
  411MPD2    H3 6140   3.084   1.745  14.793  0.2458  4.2362  1.5694
  411MPD2     N 6141   2.684   1.556  14.721 -0.2911  0.1853 -0.1507
  411MPD2    H5 6142   2.729   1.471  14.689 -0.8606  0.8500 -2.6743
  411MPD2    N1 6143   2.726   1.999  14.911  0.1335 -0.7076  0.3159
  411MPD2    H7 6144   2.632   2.018  14.876 -0.9771 -1.3603  2.8817
  412TMC3    C1 6145   2.489   1.449  14.636  0.3154 -0.2305  0.3055
  412TMC3    C2 6146   2.366   1.473  14.576 -0.4054  0.2609 -0.4559
  412TMC3    C3 6147   2.316   1.377  14.492 -0.1799 -0.3518  0.2472
  412TMC3    C4 6148   2.563   1.334  14.608 -0.0393 -0.6130 -0.2947
  412TMC3    C5 6149   2.501   1.250  14.520 -0.3109  0.2016  0.3626
  412TMC3    C6 6150   2.383   1.263  14.458  0.0718 -0.6195  0.4796
  412TMC3     C 6151   2.545   1.557  14.715 -0.4957 -0.4819  0.5925
  412TMC3     O 6152   2.458   1.630  14.763 -0.6250 -0.2387 -0.5572
  412TMC3     H 6153   2.312   1.566  14.593 -1.9034 -0.8740  1.0635
  412TMC3    H1 6154   2.662   1.307  14.643 -0.7828 -1.8653  0.8251
  412TMC3    H2 6155   2.337   1.180  14.406 -0.2605 -1.0956  1.5433
  412TMC3    C7 6156   2.534   1.116  14.550  0.8357  0.8609  0.1592
  412TMC3    C8 6157   2.172   1.372  14.480  0.3180  0.8573  0.0391
  412TMC3    O1 6158   2.471   1.075  14.645 -0.4451  0.3062  0.2016
  412TMC3    O2 6159   2.125   1.266  14.510  0.3779  0.1946  0.3490
  413MPD2     C 6160   4.623   4.551  16.035 -0.6107  0.2690  0.3673
  413MPD2    C1 6161   4.618   4.564  15.899  0.0974 -0.1568  0.2502
  413MPD2    C2 6162   4.675   4.477  15.813 -0.1035 -0.7545 -0.4733
  413MPD2    C3 6163   0.031   4.375  15.862  0.4983  0.1866  0.5161
  413MPD2    C4 6164   0.038   4.353  15.995  0.0086  0.8430  0.6312
  413MPD2    C5 6165   4.701   4.445  16.082  0.2499 -0.6770 -0.1094
  413MPD2     H 6166   4.660   4.477  15.706  1.4609 -0.7644 -0.7030
  413MPD2    H1 6167   0.097   4.274  16.038 -0.6393  0.3022  0.5363
  413MPD2    H2 6168   4.577   4.614  16.110  0.2235  1.1633  0.1228
  413MPD2    H3 6169   4.713   4.432  16.189 -0.6429  1.7711  0.2879
  413MPD2     N 6170   0.101   4.292  15.771 -0.2427  0.4592  0.0190
  413MPD2    H5 6171   0.082   4.308  15.673 -0.0913  3.0930  0.4018
  413MPD2    N1 6172   4.540   4.675  15.857  0.4217 -0.2923  0.3427
  413MPD2    H7 6173   4.479   4.721  15.924  1.0825 -0.5379  1.1132
  414TMC3    C1 6174   0.232   4.126  15.683  0.0425  0.1534  0.7045
  414TMC3    C2 6175   0.129   4.080  15.609 -0.1000 -0.5845 -0.6073
  414TMC3    C3 6176   0.160   4.020  15.492 -0.7882 -0.9761  0.0070
  414TMC3    C4 6177   0.363   4.127  15.653  0.4898 -0.2288  0.4941
  414TMC3    C5 6178   0.389   4.081  15.528 -0.1809  0.0190 -0.5804
  414TMC3    C6 6179   0.295   4.020  15.449  0.7589 -0.3845 -0.1172
  414TMC3     C 6180   0.190   4.193  15.809  0.9235  0.6055  0.8870
  414TMC3     O 6181   0.270   4.184  15.901  0.1056 -0.6352 -0.3730
  414TMC3     H 6182   0.036   4.063  15.663 -0.4598  0.3872 -0.9042
  414TMC3    H1 6183   0.434   4.160  15.727  0.2741 -1.6394  1.3464
  414TMC3    H2 6184   0.316   3.979  15.351 -0.1624 -2.1065  0.4117
  414TMC3    C7 6185   0.526   4.088  15.490  0.2688 -0.5155 -0.1573
  414TMC3    C8 6186   0.060   3.936  15.435 -0.3137  0.3098  0.3319
  414TMC3    O1 6187   0.595   4.166  15.553  0.3960 -0.0938  0.0564
  414TMC3    O2 6188   4.692   3.897  15.511 -0.5711  0.4713  0.2603
  415TMC3    C1 6189   1.233   3.010  10.112  0.1890  0.0028 -0.1905
  415TMC3    C2 6190   1.366   2.979  10.098 -0.1615  0.7977 -0.2794
  415TMC3    C3 6191   1.396   2.856  10.049  0.1912  0.2185 -0.6349
  415TMC3    C4 6192   1.130   2.921  10.098 -0.0161 -1.1067  0.2672
  415TMC3    C5 6193   1.170   2.795  10.057  0.1767  0.2241 -0.3715
  415TMC3    C6 6194   1.299   2.759  10.033  0.0095 -0.7087 -0.0030
  415TMC3     C 6195   1.214   3.127  10.191  0.7983 -0.1999  0.4357
  415TMC3     O 6196   1.121   3.115  10.273 -0.7987  0.1285  0.9829
  415TMC3     H 6197   1.445   3.048  10.123 -1.4173  1.2578  2.3863
  415TMC3    H1 6198   1.030   2.958  10.078 -0.5435 -2.5869  0.1696
  415TMC3    H2 6199   1.307   2.661   9.987  0.7236 -0.0951 -1.2050
  415TMC3    C7 6200   1.074   2.688  10.079 -0.5390 -0.4042 -0.0666
  415TMC3    C8 6201   1.539   2.811  10.034 -0.0829  0.5194  0.4373
  415TMC3    O1 6202   1.096   2.576  10.046 -0.3865 -0.6585 -0.3353
  415TMC3    O2 6203   1.548   2.692  10.002  0.1749 -1.5311 -0.7105
  416MPD2     C 6204   2.380   1.781  11.787 -0.7384  0.9698  0.1084
  416MPD2    C1 6205   2.263   1.714  11.825 -0.4634  0.3620 -1.0497
  416MPD2    C2 6206   2.234   1.589  11.777  0.3773  0.6761 -0.3275
  416MPD2    C3 6207   2.327   1.539  11.682 -1.2824  0.5874 -0.2511
  416MPD2    C4 6208   2.432   1.612  11.636 -0.2911  0.1778  0.5459
  416MPD2    C5 6209   2.467   1.725  11.701 -0.1196 -0.7621 -0.1026
  416MPD2     H 6210   2.149   1.531  11.811  0.6860  1.3537  1.5720
  416MPD2    H1 6211   2.504   1.553  11.580  0.3920  0.3236  1.2666
  416MPD2    H2 6212   2.393   1.882  11.824 -0.8086  0.3772  1.7798
  416MPD2    H3 6213   2.565   1.771  11.693 -0.5027  0.2257  0.9122
  416MPD2     N 6214   2.300   1.404  11.640 -0.2914 -0.6553 -0.1865
  416MPD2    H5 6215   2.233   1.352  11.696  0.8431  0.8060  2.5610
  416MPD2    N1 6216   2.167   1.796  11.891 -0.7190  0.5592  0.5349
  416MPD2    H7 6217   2.197   1.891  11.909 -0.1951  0.4792  0.0744
  417TMC3    C1 6218   1.967   1.874  11.987 -0.2585 -0.5997 -0.6962
  417TMC3    C2 6219   2.031   1.966  12.070  0.2065  0.1541  0.5409
  417TMC3    C3 6220   1.966   2.083  12.109 -0.2927 -0.1461 -0.8888
  417TMC3    C4 6221   1.841   1.904  11.932 -0.1028  0.9652 -0.2846
  417TMC3    C5 6222   1.785   2.027  11.973 -0.9859  0.2035 -0.9377
  417TMC3    C6 6223   1.839   2.113  12.067  0.0769 -0.7125  0.0450
  417TMC3     C 6224   2.036   1.765  11.925  0.9502  0.1314  0.8909
  417TMC3     O 6225   1.970   1.668  11.886 -0.0348 -0.8652 -0.0010
  417TMC3     H 6226   2.128   1.945  12.114 -0.6911 -0.9203  2.0095
  417TMC3    H1 6227   1.800   1.836  11.859  2.3534 -1.0969  0.2687
  417TMC3    H2 6228   1.811   2.217  12.071 -1.1941 -1.0073 -1.0547
  417TMC3    C7 6229   1.733   2.104  11.860  0.3276 -0.0018  0.0770
  417TMC3    C8 6230   2.022   2.183  12.202 -0.1890 -0.6053  0.5327
  417TMC3    O1 6231   1.789   2.214  11.832 -0.0094  0.4106  0.2891
  417TMC3    O2 6232   1.944   2.260  12.253 -0.8387  0.2958  0.4672
  418TMC3    C1 6233   0.548   2.418   0.179 -0.9521 -0.0939  0.0417
  418TMC3    C2 6234   0.433   2.348   0.212 -0.5975 -0.0751 -0.2667
  418TMC3    C3 6235   0.342   2.424   0.277  0.0389 -0.5885 -0.0935
  418TMC3    C4 6236   0.573   2.554   0.187  0.6704  0.1864 -0.3116
  418TMC3    C5 6237   0.470   2.623   0.249  0.0366 -0.6891 -0.0714
  418TMC3    C6 6238   0.357   2.560   0.295  0.0099 -0.6301  0.4074
  418TMC3     C 6239   0.655   2.341   0.121  0.0500 -0.2149  0.3525
  418TMC3     O 6240   0.626   2.256   0.041 -0.7835 -0.6026  0.3622
  418TMC3     H 6241   0.424   2.241   0.200 -0.8141  0.0638 -1.2726
  418TMC3    H1 6242   0.668   2.601   0.163  1.3757 -2.0345 -1.8881
  418TMC3    H2 6243   0.282   2.621   0.345 -0.7982 -0.8388 -0.5442
  418TMC3    C7 6244   0.486   2.766   0.277 -0.1330  0.7654  0.6515
  418TMC3    C8 6245   0.254   2.360   0.374  0.6819  0.2245 -0.5517
  418TMC3    O1 6246   0.448   2.811   0.386 -0.1798  0.3566 -0.7122
  418TMC3    O2 6247   0.149   2.414   0.411 -0.6457  0.5560  0.0028
  419MPD2     C 6248   4.465   1.666  12.258 -0.1645  0.2310  0.4139
  419MPD2    C1 6249   4.401   1.787  12.253  0.0742  0.2576  1.0425
  419MPD2    C2 6250   4.319   1.825  12.360 -0.1319 -0.6949  0.6315
  419MPD2    C3 6251   4.304   1.748  12.472 -0.2025  0.2705 -0.6528
  419MPD2    C4 6252   4.377   1.628  12.471  0.6019  0.0710  0.1954
  419MPD2    C5 6253   4.464   1.593  12.369  0.1196 -0.1078 -0.8803
  419MPD2     H 6254   4.284   1.927  12.369  0.8823 -0.3588  0.7362
  419MPD2    H1 6255   4.377   1.565  12.560 -0.2108  2.2539  1.7436
  419MPD2    H2 6256   4.530   1.631  12.179  0.2474  1.7428  0.0778
  419MPD2    H3 6257   4.499   1.491  12.373 -2.8623 -1.0936 -0.0137
  419MPD2     N 6258   4.223   1.788  12.580 -1.1340 -0.0459 -0.2346
  419MPD2    H5 6259   4.175   1.876  12.564  1.4186  1.5495  1.0997
  419MPD2    N1 6260   4.425   1.878  12.150 -0.0615  0.1212  0.8055
  419MPD2    H7 6261   4.380   1.968  12.163  0.3168  0.4315 -0.0415
  420TMC3    C1 6262   4.126   1.783  12.793  0.3972 -0.8338  0.1081
  420TMC3    C2 6263   4.058   1.885  12.739 -0.0503  0.8119  0.0259
  420TMC3    C3 6264   4.038   2.001  12.810  0.0418  0.3502  0.4539
  420TMC3    C4 6265   4.176   1.788  12.917 -0.3647 -0.7988 -0.3139
  420TMC3    C5 6266   4.141   1.898  12.991 -0.4555 -0.1805 -0.2219
  420TMC3    C6 6267   4.097   2.017  12.935 -0.3383 -0.8434 -0.0185
  420TMC3     C 6268   4.212   1.718  12.703 -0.4739 -0.0070 -0.1952
  420TMC3     O 6269   4.229   1.601  12.722 -0.0650 -0.0867  0.1699
  420TMC3     H 6270   4.007   1.885  12.644  1.7511 -1.4276 -0.9440
  420TMC3    H1 6271   4.218   1.700  12.964 -0.3217 -0.2390  0.6905
  420TMC3    H2 6272   4.065   2.101  12.995 -0.7083 -0.6057 -0.5610
  420TMC3    C7 6273   4.173   1.892  13.130  0.0137 -0.5154 -0.2198
  420TMC3    C8 6274   3.910   2.061  12.790 -0.3604  0.2216 -0.5765
  420TMC3    O1 6275   4.164   1.786  13.196 -0.4648 -0.6024 -0.2607
  420TMC3    O2 6276   3.885   2.095  12.675  0.2906 -0.1059  0.3494
  421TMC3    C1 6277   0.937   2.973  14.244  0.0981  0.3067 -0.2235
  421TMC3    C2 6278   0.910   3.067  14.333  0.3479 -0.1174  0.2273
  421TMC3    C3 6279   0.895   3.033  14.463  0.3009  0.0217  1.2293
  421TMC3    C4 6280   0.975   2.846  14.285 -0.1747  0.3080 -0.3400
  421TMC3    C5 6281   0.981   2.818  14.421  0.3732 -0.0838  0.3554
  421TMC3    C6 6282   0.933   2.911  14.508  0.0451 -0.0304 -0.3091
  421TMC3     C 6283   0.973   3.016  14.110 -0.2900 -0.0773  0.4568
  421TMC3     O 6284   1.076   2.966  14.066 -0.0683 -1.1095 -0.1703
  421TMC3     H 6285   0.874   3.160  14.289 -0.4451 -0.4300  0.2072
  421TMC3    H1 6286   1.029   2.787  14.211 -1.4534 -2.0613  0.6385
  421TMC3    H2 6287   0.922   2.891  14.614 -0.3082 -1.3526 -0.5909
  421TMC3    C7 6288   1.095   2.736  14.461  0.3122 -0.1612 -0.2224
  421TMC3    C8 6289   0.904   3.130  14.570 -0.2721 -0.4945 -0.3935
  421TMC3    O1 6290   1.129   2.765  14.575  0.7906  0.9538 -0.3716
  421TMC3    O2 6291   0.856   3.107  14.679 -0.0783 -0.1389 -0.6408
  422TMC3    C1 6292   3.369   4.572  13.265  0.2566  0.3044  0.0250
  422TMC3    C2 6293   3.369   4.705  13.284  0.6337  0.0519 -0.4558
  422TMC3    C3 6294   3.244   0.038  13.297 -0.6870  0.7155 -0.4018
  422TMC3    C4 6295   3.259   4.498  13.266  0.3099 -0.2614  0.0677
  422TMC3    C5 6296   3.137   4.554  13.292 -0.4176 -0.0473  0.5595
  422TMC3    C6 6297   3.128   4.689  13.315 -0.0700 -0.2641 -0.9589
  422TMC3     C 6298   3.491   4.499  13.240  0.2267 -0.3316  0.3990
  422TMC3     O 6299   3.485   4.387  13.188 -0.4027  0.4281 -0.5857
  422TMC3     H 6300   3.455   0.047  13.275 -0.6831  1.6414 -1.3017
  422TMC3    H1 6301   3.256   4.395  13.232  2.8992 -0.1610 -0.4750
  422TMC3    H2 6302   3.033   0.012  13.337  0.4907  0.3148  0.1820
  422TMC3    C7 6303   3.022   4.487  13.236 -0.2514  0.2240  0.4996
  422TMC3    C8 6304   3.243   0.169  13.244 -0.3337  0.4566 -0.0892
  422TMC3    O1 6305   3.042   4.436  13.126  0.4241 -0.5489 -0.6979
  422TMC3    O2 6306   3.340   0.243  13.259 -0.0044 -0.1561  0.5296
  423MPD2     C 6307   4.472   1.076   0.763  0.6468  1.1684  0.2129
  423MPD2    C1 6308   4.553   0.964   0.779 -0.0709 -0.1146  1.2276
  423MPD2    C2 6309   4.522   0.855   0.700  0.0435 -0.6860 -0.9345
  423MPD2    C3 6310   4.412   0.853   0.614 -0.1547  0.0573 -0.3370
  423MPD2    C4 6311   4.332   0.967   0.612 -0.1761  0.3918 -0.1729
  423MPD2    C5 6312   4.363   1.076   0.686 -0.4389 -0.6517  1.0720
  423MPD2     H 6313   4.593   0.773   0.704 -1.8513 -2.1816  1.8680
  423MPD2    H1 6314   4.247   0.979   0.546  0.7791  0.2877 -1.4302
  423MPD2    H2 6315   4.498   1.171   0.808 -0.5386  2.2665 -1.4021
  423MPD2    H3 6316   4.304   1.165   0.666  0.6322  0.1524  1.5108
  423MPD2     N 6317   4.366   0.739   0.548 -0.4425 -0.2020 -0.5779
  423MPD2    H5 6318   4.281   0.757   0.495 -1.9657 -0.5131  1.7442
  423MPD2    N1 6319   4.666   0.956   0.870  0.7312  0.0509  0.0131
  423MPD2    H7 6320   0.013   0.887   0.847  0.1485  0.0107 -1.6485
  424TMC3    C1 6321   0.081   1.007   1.040 -0.3135 -0.0363 -0.1009
  424TMC3    C2 6322   0.178   0.940   0.978 -0.0207 -0.9387  0.5826
  424TMC3    C3 6323   0.281   0.897   1.052 -0.0141  0.3428 -0.3601
  424TMC3    C4 6324   0.081   1.025   1.177 -0.6387 -0.6685 -0.8958
  424TMC3    C5 6325   0.183   0.965   1.252 -0.4562 -0.1473  0.2851
  424TMC3    C6 6326   0.291   0.902   1.193  0.1284  0.2993 -0.0285
  424TMC3     C 6327   4.682   1.032   0.978 -0.1368  0.5534  0.4176
  424TMC3     O 6328   4.596   1.103   1.033 -0.2221  0.3519 -0.5120
  424TMC3     H 6329   0.183   0.940   0.869  1.8325  1.6813  0.6872
  424TMC3    H1 6330   4.711   1.055   1.222 -0.1738 -2.1740  1.0893
  424TMC3    H2 6331   0.365   0.846   1.247  0.1550 -0.1879 -0.5703
  424TMC3    C7 6332   0.176   0.952   1.390 -0.5618 -0.0363  0.0697
  424TMC3    C8 6333   0.404   0.859   0.984  0.1070  0.3363 -0.8639
  424TMC3    O1 6334   0.273   0.903   1.443  0.0927 -0.1523 -0.0015
  424TMC3    O2 6335   0.508   0.862   1.046  0.4852 -0.4290  0.0061
  425MPD2     C 6336   3.330   0.044  16.972  0.1072 -0.1776 -0.3534
  425MPD2    C1 6337   3.354   4.724  17.102 -0.8556  0.2964  0.0087
  425MPD2    C2 6338   3.276   0.058  17.204  0.4778  0.2218  0.0204
  425MPD2    C3 6339   3.185   0.160  17.183  0.3123 -0.7845  0.0595
  425MPD2    C4 6340   3.172   0.205  17.055  0.7300  0.2920 -0.4981
  425MPD2    C5 6341   3.238   0.142  16.957 -0.1276  0.2052 -0.1585
  425MPD2     H 6342   3.294   0.027  17.306 -0.0749  0.2508  0.1283
  425MPD2    H1 6343   3.089   0.270  17.028 -0.3224 -0.5957  0.6087
  425MPD2    H2 6344   3.381   0.016  16.881 -2.4606 -1.7739 -1.3006
  425MPD2    H3 6345   3.208   0.176  16.859  1.8024 -2.6391 -1.7234
  425MPD2     N 6346   3.103   0.194  17.298 -0.1419  0.5928 -0.2369
  425MPD2    H5 6347   3.129   0.146  17.383  1.4510  0.0818 -1.0256
  425MPD2    N1 6348   3.471   4.648  17.116  0.1811  0.7393  0.3451
  425MPD2    H7 6349   3.519   4.621  17.031  1.1993  1.1838  0.7762
  426TMC3    C1 6350   3.619   4.493  17.226 -0.0101  0.7122 -0.1572
  426TMC3    C2 6351   3.569   4.388  17.154 -0.3052 -0.8671 -0.1069
  426TMC3    C3 6352   3.622   4.264  17.187 -0.2977 -0.0541 -0.3856
  426TMC3    C4 6353   3.682   4.472  17.342  0.2596  0.4568 -0.8089
  426TMC3    C5 6354   3.712   4.346  17.379 -0.4876  0.6980 -0.1857
  426TMC3    C6 6355   3.697   4.239  17.296  0.6870  0.2564  0.5084
  426TMC3     C 6356   3.526   4.603  17.238 -0.1739 -0.3108 -0.0965
  426TMC3     O 6357   3.496   4.632  17.355  0.9643 -0.0105 -0.1814
  426TMC3     H 6358   3.501   4.406  17.072 -1.8803  1.5226  1.7495
  426TMC3    H1 6359   3.722   4.552  17.405 -0.4428 -0.7162  1.1296
  426TMC3    H2 6360   3.733   4.140  17.323  1.0741 -0.0013 -0.9369
  426TMC3    C7 6361   3.781   4.317  17.504 -0.1240 -0.0164  0.0077
  426TMC3    C8 6362   3.590   4.152  17.098  0.6844 -0.6258  0.5538
  426TMC3    O1 6363   3.841   4.210  17.521 -0.3369 -0.3123 -0.1251
  426TMC3    O2 6364   3.614   4.042  17.146 -0.1819  0.1289 -0.2238
  427MPD2     C 6365   1.875   1.924  15.064 -0.0748  0.0442 -0.1930
  427MPD2    C1 6366   1.840   1.918  15.194 -0.2746 -0.0176 -0.8106
  427MPD2    C2 6367   1.710   1.936  15.237 -0.1299 -0.0139  0.4485
  427MPD2    C3 6368   1.612   1.952  15.140  0.0805 -0.8872  1.0699
  427MPD2    C4 6369   1.646   1.964  15.010 -0.4777 -0.4115 -1.1056
  427MPD2    C5 6370   1.775   1.945  14.971 -0.0660  0.4371 -0.0166
  427MPD2     H 6371   1.682   1.933  15.341  2.2772 -0.9334  1.0601
  427MPD2    H1 6372   1.573   1.982  14.932 -0.0786  0.7711 -1.1940
  427MPD2    H2 6373   1.968   1.890  15.018 -0.5416  0.1497 -1.2221
  427MPD2    H3 6374   1.805   1.939  14.867  0.6427  0.0526  0.2087
  427MPD2     N 6375   1.476   1.978  15.173  0.2254 -0.0503  0.5406
  427MPD2    H5 6376   1.405   1.993  15.102  1.7948 -1.6502 -1.3451
  427MPD2    N1 6377   1.930   1.899  15.299 -0.0565  0.2182  0.6953
  427MPD2    H7 6378   1.902   1.866  15.391 -2.5463  0.4270  0.0041
  428TMC3    C1 6379   2.128   1.838  15.401  0.0098  0.1348  0.0579
  428TMC3    C2 6380   2.069   1.729  15.456 -0.5087 -0.6859  0.3575
  428TMC3    C3 6381   2.153   1.647  15.528 -0.6449 -0.0958  0.3692
  428TMC3    C4 6382   2.264   1.872  15.413  0.7104  0.0090 -0.2233
  428TMC3    C5 6383   2.333   1.794  15.498  0.4666 -0.5188 -0.2666
  428TMC3    C6 6384   2.284   1.681  15.557  1.0412 -0.3840 -0.1595
  428TMC3     C 6385   2.067   1.895  15.281  0.5393  0.1966  0.4284
  428TMC3     O 6386   2.132   1.938  15.188 -0.0869 -0.3703 -0.7071
  428TMC3     H 6387   1.961   1.718  15.456 -0.5116 -0.6586  0.3361
  428TMC3    H1 6388   2.300   1.965  15.370 -0.1290  0.5338  0.2124
  428TMC3    H2 6389   2.352   1.612  15.607  0.9335 -0.0273  0.4738
  428TMC3    C7 6390   2.447   1.849  15.557 -0.3737  0.0415 -0.1527
  428TMC3    C8 6391   2.114   1.514  15.561 -0.8562 -0.1526  0.0544
  428TMC3    O1 6392   2.451   1.818  15.675  0.0988  0.5818  0.5178
  428TMC3    O2 6393   2.201   1.444  15.606 -0.6366  0.8478 -0.0863
  429MPD2     C 6394   2.902   2.228   0.166 -0.3315 -0.3578 -0.3850
  429MPD2    C1 6395   3.032   2.186   0.146 -0.1258 -0.0513 -0.5634
  429MPD2    C2 6396   3.128   2.269   0.093  0.6639  0.2611 -0.9810
  429MPD2    C3 6397   3.094   2.393   0.044  0.6975  0.2097  0.0719
  429MPD2    C4 6398   2.964   2.430   0.050  0.6702  0.2425 -0.3331
  429MPD2    C5 6399   2.870   2.350   0.103 -0.2974  0.3867 -0.6850
  429MPD2     H 6400   3.227   2.229   0.079  0.2679 -1.3154  0.6709
  429MPD2    H1 6401   2.926   2.523   0.009 -1.1747 -0.2013  0.3934
  429MPD2    H2 6402   2.824   2.160   0.200  0.9190 -2.6031 -1.9865
  429MPD2    H3 6403   2.765   2.378   0.097 -0.4338  0.3391  1.4836
  429MPD2     N 6404   3.197   2.464  17.678 -0.0144 -0.1200 -0.1435
  429MPD2    H5 6405   3.284   2.413  17.673  0.1485  0.2343 -1.0475
  429MPD2    N1 6406   3.064   2.047   0.176  0.5137 -0.2885 -0.4973
  429MPD2    H7 6407   3.164   2.032   0.180  0.6033  0.6405  0.7342
  430TMC3    C1 6408   3.298   2.619  17.518  0.3810 -0.7145  0.1523
  430TMC3    C2 6409   3.260   2.726  17.439  0.3064  1.2244 -0.3063
  430TMC3    C3 6410   3.319   2.740  17.322  0.2434  0.1396 -0.3630
  430TMC3    C4 6411   3.386   2.522  17.485 -0.5620 -0.2746  0.5583
  430TMC3    C5 6412   3.436   2.531  17.359  0.4674 -0.4651 -0.6442
  430TMC3    C6 6413   3.416   2.646  17.291  0.0101  0.3725 -0.6094
  430TMC3     C 6414   3.190   2.589  17.619  0.2149  0.0126  0.0004
  430TMC3     O 6415   3.091   2.664  17.619 -0.4000 -0.0439  0.9177
  430TMC3     H 6416   3.195   2.801  17.484 -2.3602 -2.8397  2.6708
  430TMC3    H1 6417   3.397   2.435  17.549 -0.2794  0.5897  1.6781
  430TMC3    H2 6418   3.457   2.651  17.191  0.2751  3.2422 -0.3590
  430TMC3    C7 6419   3.450   2.409  17.277  0.2161  0.1322  0.2610
  430TMC3    C8 6420   3.235   2.755  17.208 -0.3541  0.2577 -0.1683
  430TMC3    O1 6421   3.501   2.315  17.338 -0.1956  0.4280  0.0183
  430TMC3    O2 6422   3.252   2.684  17.111  0.7489  0.4076  0.2558
  431MPD2     C 6423   4.477   2.659  12.462  0.7154 -0.2358 -0.5111
  431MPD2    C1 6424   4.566   2.685  12.360  0.4071 -0.0200 -0.5207
  431MPD2    C2 6425   4.590   2.585  12.270 -0.1756  0.4752 -0.7150
  431MPD2    C3 6426   4.525   2.463  12.278 -0.1833 -0.0437  0.0482
  431MPD2    C4 6427   4.434   2.441  12.376  0.3337 -0.3191 -0.2721
  431MPD2    C5 6428   4.411   2.537  12.463  0.4880  0.1500 -0.2788
  431MPD2     H 6429   4.666   2.607  12.197  1.2543  0.3891  0.7500
  431MPD2    H1 6430   4.385   2.346  12.392 -0.5298  0.1252 -0.3196
  431MPD2    H2 6431   4.457   2.720  12.549  0.5632  1.1060 -1.4835
  431MPD2    H3 6432   4.350   2.520  12.551 -1.4403 -0.6147 -1.7598
  431MPD2     N 6433   4.539   2.355  12.192 -0.1054  0.0508 -0.6428
  431MPD2    H5 6434   4.472   2.279  12.196  0.8026 -0.6100  2.2099
  431MPD2    N1 6435   4.642   2.807  12.353  0.3248  0.2829 -0.0644
  431MPD2    H7 6436   4.682   2.836  12.264  1.6638 -0.3027  0.3478
  432TMC3    C1 6437   4.637   2.222  12.030  0.0121 -0.7595 -0.2633
  432TMC3    C2 6438   4.691   2.221  11.909  0.7748 -0.4138  0.2442
  432TMC3    C3 6439   4.685   2.108  11.838 -0.0932  0.2434  0.2778
  432TMC3    C4 6440   4.568   2.107  12.077  0.0978  0.0538  0.1157
  432TMC3    C5 6441   4.543   2.006  11.987 -0.1596  0.2162  0.7066
  432TMC3    C6 6442   4.606   2.003  11.867 -0.3906 -0.0300 -0.4339
  432TMC3     C 6443   4.628   2.346  12.093 -0.1332 -0.2083  0.0113
  432TMC3     O 6444   4.701   2.438  12.051 -0.1842 -0.2756  0.3234
  432TMC3     H 6445   0.032   2.303  11.883  0.6266 -0.6751 -0.9282
  432TMC3    H1 6446   4.536   2.103  12.180  0.8617 -0.2892  0.3417
  432TMC3    H2 6447   4.605   1.912  11.807  1.1085  0.2810 -0.9480
  432TMC3    C7 6448   4.518   1.873  12.045  0.2301 -0.1962  0.2867
  432TMC3    C8 6449   0.075   2.085  11.753 -0.0314 -0.9293  1.1317
  432TMC3    O1 6450   4.602   1.794  12.021  0.2404  0.0142 -0.2310
  432TMC3    O2 6451   0.043   2.021  11.652 -0.4386  0.1066  0.2942
  433MPD2     C 6452   3.125   1.332  11.269  0.6852  0.0502  0.1676
  433MPD2    C1 6453   3.053   1.223  11.314 -0.4032  0.8129  0.3778
  433MPD2    C2 6454   3.010   1.216  11.448  0.1582  0.5554  0.0584
  433MPD2    C3 6455   3.041   1.321  11.535  1.0167 -0.1715 -1.1008
  433MPD2    C4 6456   3.097   1.436  11.483 -0.8586  0.1391 -0.0884
  433MPD2    C5 6457   3.140   1.439  11.354 -0.1073 -0.1663 -0.0466
  433MPD2     H 6458   2.953   1.129  11.480 -0.5088  1.3672  1.0812
  433MPD2    H1 6459   3.122   1.516  11.551 -0.3438  2.0483 -2.5173
  433MPD2    H2 6460   3.191   1.333  11.183  0.3820 -0.3112 -0.0664
  433MPD2    H3 6461   3.186   1.527  11.311 -1.5474  0.8399  0.4391
  433MPD2     N 6462   3.026   1.302  11.673 -0.0282 -0.3191  0.1803
  433MPD2    H5 6463   3.009   1.209  11.712 -0.9793 -2.3643 -5.0881
  433MPD2    N1 6464   3.033   1.111  11.235  0.0926  0.5382 -0.2764
  433MPD2    H7 6465   3.102   1.101  11.162  0.0286  0.9326 -0.3952
  434TMC3    C1 6466   2.945   0.891  11.194  0.0103  0.2985  0.2553
  434TMC3    C2 6467   3.078   0.858  11.167  0.0378  0.3418  0.7185
  434TMC3    C3 6468   3.114   0.731  11.126  0.3776  0.1122 -0.2815
  434TMC3    C4 6469   2.854   0.787  11.185 -0.0755 -0.7851  0.1120
  434TMC3    C5 6470   2.891   0.658  11.156 -0.0650 -0.1661  0.3312
  434TMC3    C6 6471   3.023   0.630  11.135  0.2381 -0.1420  0.0776
  434TMC3     C 6472   2.925   1.024  11.249  0.2227 -0.1092  0.5563
  434TMC3     O 6473   2.816   1.049  11.295 -0.0937  0.3722  0.5901
  434TMC3     H 6474   3.158   0.931  11.174 -0.1061  0.5369  0.3195
  434TMC3    H1 6475   2.750   0.809  11.206 -0.2073 -0.0762 -1.3035
  434TMC3    H2 6476   3.060   0.535  11.098  2.0502  0.6551 -0.1970
  434TMC3    C7 6477   2.787   0.564  11.136  0.5800 -0.5776  0.3994
  434TMC3    C8 6478   3.235   0.687  11.182  0.6686 -0.2190  0.4309
  434TMC3    O1 6479   2.670   0.600  11.133 -0.0697  0.1065 -0.0956
  434TMC3    O2 6480   3.227   0.601  11.269 -0.3597 -0.0865  0.0516
  435MPD2     C 6481   4.535   0.489  15.698  0.4213 -0.2748 -1.3022
  435MPD2    C1 6482   4.559   0.554  15.821  0.3741 -0.4464 -0.1297
  435MPD2    C2 6483   4.680   0.540  15.888  0.9488  0.0980 -0.5909
  435MPD2    C3 6484   0.061   0.467  15.826  0.2118  0.5776 -1.2649
  435MPD2    C4 6485   0.038   0.406  15.705 -0.9028  0.2243 -0.1071
  435MPD2    C5 6486   4.638   0.424  15.643 -0.8756  0.4110 -0.0782
  435MPD2     H 6487   4.690   0.578  15.989 -3.0749  1.2773 -0.6330
  435MPD2    H1 6488   0.118   0.353  15.654 -1.7758 -2.0357  0.9085
  435MPD2    H2 6489   4.444   0.499  15.640 -1.6820  0.4370  2.1123
  435MPD2    H3 6490   4.614   0.365  15.556 -0.4622 -0.1657  0.1950
  435MPD2     N 6491   0.187   0.463  15.896 -0.0599  0.6568 -0.0766
  435MPD2    H5 6492   0.194   0.497  15.992 -0.0859 -1.2771  0.5975
  435MPD2    N1 6493   4.461   0.633  15.881 -0.4433  0.0201 -0.1898
  435MPD2    H7 6494   4.492   0.668  15.971 -0.7098  1.3879 -0.6313
  436TMC3    C1 6495   4.211   0.849  16.120 -0.4666  0.4756  0.2555
  436TMC3    C2 6496   4.266   0.740  16.050 -0.0747 -0.3013 -0.2958
  436TMC3    C3 6497   4.244   0.736  15.918 -0.7274 -0.4036  0.2216
  436TMC3    C4 6498   4.136   0.948  16.056 -0.3950  0.4668 -1.0471
  436TMC3    C5 6499   4.119   0.939  15.920  0.2584 -0.1797 -0.2193
  436TMC3    C6 6500   4.175   0.833  15.850  0.0770 -0.4106 -0.2181
  436TMC3     C 6501   4.236   0.860  16.262  0.0926 -0.7936 -0.7312
  436TMC3     O 6502   4.339   0.802  16.300  0.4532 -0.5551  0.3373
  436TMC3     H 6503   4.318   0.663  16.105 -1.8010 -1.1571  0.1355
  436TMC3    H1 6504   4.097   1.025  16.121 -0.3025 -0.2269 -0.1612
  436TMC3    H2 6505   4.174   0.840  15.742  1.2915 -1.6399 -0.3069
  436TMC3    C7 6506   4.011   1.009  15.849  0.4903 -0.8353 -0.2839
  436TMC3    C8 6507   4.333   0.661  15.830  0.0514 -0.0838 -0.4696
  436TMC3    O1 6508   4.048   1.056  15.744 -0.2904 -0.3165  0.5295
  436TMC3    O2 6509   4.297   0.653  15.713  0.0403  0.1422  1.0515
  437TMC3    C1 6510   4.070   2.372  12.511  0.5004  0.2251  0.3440
  437TMC3    C2 6511   3.991   2.441  12.606  0.3735  0.6504  0.3431
  437TMC3    C3 6512   3.950   2.567  12.587 -0.2024 -0.5050  0.0784
  437TMC3    C4 6513   4.080   2.423  12.383 -0.0125  0.5771 -0.1625
  437TMC3    C5 6514   4.029   2.543  12.361 -0.1968 -0.6435 -0.6381
  437TMC3    C6 6515   3.960   2.615  12.458  0.6322 -0.0869 -0.2909
  437TMC3     C 6516   4.141   2.258  12.550  0.1487 -0.1772 -0.4984
  437TMC3     O 6517   4.187   2.198  12.453 -0.5081  0.0495 -0.0781
  437TMC3     H 6518   3.967   2.383  12.695  0.9362  1.8982  1.3116
  437TMC3    H1 6519   4.147   2.373  12.314  0.2495  2.6746 -1.4412
  437TMC3    H2 6520   3.932   2.718  12.441 -0.0226 -0.6248 -2.4636
  437TMC3    C7 6521   4.107   2.630  12.276  0.3211 -0.0309 -0.2183
  437TMC3    C8 6522   3.872   2.645  12.686  0.0005  1.0379 -0.0967
  437TMC3    O1 6523   4.144   2.594  12.166  0.1758 -0.2442  0.0561
  437TMC3    O2 6524   3.873   2.766  12.676  0.1686 -0.5017 -0.0896
  438MPD2     C 6525   0.708   3.335  16.927  0.9281 -0.5102 -0.1189
  438MPD2    C1 6526   0.800   3.360  17.021  0.2274 -0.3299  0.3498
  438MPD2    C2 6527   0.760   3.364  17.154  0.3376  0.1157 -0.2447
  438MPD2    C3 6528   0.630   3.325  17.190 -0.7284 -0.0517 -0.3136
  438MPD2    C4 6529   0.543   3.289  17.096  0.1876  0.1710  0.1759
  438MPD2    C5 6530   0.581   3.297  16.962 -0.8069  0.2318 -0.0687
  438MPD2     H 6531   0.827   3.393  17.234  1.1884  0.4179 -1.0696
  438MPD2    H1 6532   0.450   3.240  17.121  1.9475 -3.1020  0.2057
  438MPD2    H2 6533   0.726   3.321  16.821  0.9247  0.0017 -0.1869
  438MPD2    H3 6534   0.509   3.282  16.882 -1.2277  0.8827  0.1873
  438MPD2     N 6535   0.579   3.304  17.320  0.0343 -0.2713  0.6319
  438MPD2    H5 6536   0.490   3.255  17.325 -0.6916  1.1481  1.4846
  438MPD2    N1 6537   0.938   3.373  16.988  0.3010 -0.1654  0.0787
  438MPD2    H7 6538   1.002   3.386  17.066  2.8025 -0.2846 -1.9443
  439TMC3    C1 6539   1.132   3.368  16.839  0.6187  0.0287 -0.5492
  439TMC3    C2 6540   1.174   3.379  16.708  0.0785  0.2850  0.1381
  439TMC3    C3 6541   1.308   3.376  16.692 -0.4510  0.0289 -0.5630
  439TMC3    C4 6542   1.217   3.355  16.947 -0.3191  0.4771  0.1362
  439TMC3    C5 6543   1.353   3.369  16.927 -0.1863 -0.0838  0.2226
  439TMC3    C6 6544   1.402   3.380  16.794  0.4179  0.2310 -0.1999
  439TMC3     C 6545   0.986   3.367  16.859  0.1107 -0.2820  0.0863
  439TMC3     O 6546   0.929   3.352  16.751  0.0719  0.1196  0.0981
  439TMC3     H 6547   1.116   3.383  16.617  1.7420 -0.2308 -0.9520
  439TMC3    H1 6548   1.180   3.358  17.049 -2.1022  1.8096 -0.5322
  439TMC3    H2 6549   1.507   3.360  16.778  0.3501 -1.6712  1.6922
  439TMC3    C7 6550   1.443   3.308  17.029 -0.5850  0.6975 -0.2790
  439TMC3    C8 6551   1.365   3.329  16.561 -0.0389  0.0947 -0.1738
  439TMC3    O1 6552   1.559   3.349  17.023 -0.2145  0.0242 -0.6085
  439TMC3    O2 6553   1.465   3.262  16.568 -0.2774 -0.3294 -0.0257
  440MPD2     C 6554   4.462   3.779  16.026 -0.2347  0.3365  0.3037
  440MPD2    C1 6555   4.413   3.867  15.933  0.8297  0.1101  0.3537
  440MPD2    C2 6556   4.356   3.815  15.819  0.6169 -0.4391  0.7507
  440MPD2    C3 6557   4.343   3.676  15.802  0.6770  0.3646  0.0547
  440MPD2    C4 6558   4.400   3.590  15.893  0.7030 -0.0170 -0.3533
  440MPD2    C5 6559   4.469   3.647  15.999  0.2593  0.4595  0.5025
  440MPD2     H 6560   4.312   3.878  15.742  1.5417 -0.2900  0.3467
  440MPD2    H1 6561   4.412   3.484  15.876 -1.7005 -0.8055  3.0145
  440MPD2    H2 6562   4.502   3.810  16.122 -1.6760 -1.0689  1.3608
  440MPD2    H3 6563   4.528   3.599  16.075  0.4338 -0.9802 -0.5496
  440MPD2     N 6564   4.275   3.616  15.693 -0.0624 -0.5284 -0.2938
  440MPD2    H5 6565   4.281   3.515  15.692  1.3627 -0.4406 -0.6263
  440MPD2    N1 6566   4.404   4.005  15.956 -0.5715  0.1071  0.5476
  440MPD2    H7 6567   4.342   4.055  15.892 -1.6257 -1.3879  0.3998
  441TMC3    C1 6568   4.182   3.568  15.487  0.2440 -0.4047  0.2520
  441TMC3    C2 6569   4.216   3.585  15.354 -0.2884 -0.5643 -0.0841
  441TMC3    C3 6570   4.250   3.474  15.281 -0.3587  0.6992 -0.0730
  441TMC3    C4 6571   4.179   3.444  15.542  0.2491 -0.3970 -0.0066
  441TMC3    C5 6572   4.236   3.338  15.476  0.1436 -0.0956 -0.8875
  441TMC3    C6 6573   4.269   3.353  15.347 -0.6959 -0.5796  0.2910
  441TMC3     C 6574   4.226   3.674  15.579  0.7018 -0.7585  0.3150
  441TMC3     O 6575   4.236   3.784  15.532  0.2633  0.1422 -0.1814
  441TMC3     H 6576   4.209   3.685  15.312 -0.9298  0.5671  2.7184
  441TMC3    H1 6577   4.137   3.425  15.640  1.3346  0.3922  0.6194
  441TMC3    H2 6578   4.339   3.283  15.301 -0.2332 -0.6678  1.1391
  441TMC3    C7 6579   4.341   3.281  15.553 -0.2978 -0.0824 -0.0429
  441TMC3    C8 6580   4.349   3.509  15.183  0.1446 -0.6119 -0.3064
  441TMC3    O1 6581   4.352   3.336  15.663 -0.3151 -0.1530 -1.4601
  441TMC3    O2 6582   4.377   3.428  15.096 -0.1535 -0.3252  0.8263
  442MPD2     C 6583   3.132   4.399  17.100 -0.2468 -0.8358 -0.0584
  442MPD2    C1 6584   3.004   4.404  17.048 -0.2379  0.1301  0.2463
  442MPD2    C2 6585   2.965   4.308  16.949  0.4708  0.5489  0.0041
  442MPD2    C3 6586   3.058   4.215  16.897 -0.1707 -0.4611 -0.7209
  442MPD2    C4 6587   3.177   4.205  16.957  0.1970 -0.0434  0.4298
  442MPD2    C5 6588   3.207   4.296  17.056 -0.1140 -0.0942 -0.0367
  442MPD2     H 6589   2.868   4.314  16.901  0.0599  1.8382  1.0082
  442MPD2    H1 6590   3.248   4.135  16.914  0.5982  0.6315 -0.0061
  442MPD2    H2 6591   3.166   4.460  17.183  1.3493 -0.0388 -1.2857
  442MPD2    H3 6592   3.306   4.286  17.098 -1.2026 -2.7153  1.9084
  442MPD2     N 6593   3.024   4.107  16.812  0.2350 -0.1567  0.4865
  442MPD2    H5 6594   3.104   4.058  16.772  0.4776  0.0071  0.7685
  442MPD2    N1 6595   2.906   4.498  17.093 -0.4848 -0.6206 -0.7646
  442MPD2    H7 6596   2.818   4.501  17.043 -0.1793 -0.7260 -1.3008
  443TMC3    C1 6597   2.812   4.679  17.216  0.4790 -0.1023  0.7199
  443TMC3    C2 6598   2.796   0.025  17.101  0.1910 -0.4737 -0.1115
  443TMC3    C3 6599   2.667   0.048  17.064 -0.8672 -0.5900 -0.0052
  443TMC3    C4 6600   2.713   4.647  17.308 -0.2390  0.2812  0.4208
  443TMC3    C5 6601   2.585   4.670  17.263 -0.4700 -0.3962 -0.1864
  443TMC3    C6 6602   2.563   0.006  17.139 -0.0043 -0.1611 -0.1132
  443TMC3     C 6603   2.920   4.581  17.202 -0.1691 -0.1707  0.1803
  443TMC3     O 6604   2.999   4.573  17.297 -0.2031 -1.0620  0.0358
  443TMC3     H 6605   2.880   0.045  17.036  0.6008  0.2363  0.6326
  443TMC3    H1 6606   2.730   4.579  17.391 -1.4941  0.1775  0.5871
  443TMC3    H2 6607   2.458   0.022  17.115  0.8313  0.3389 -3.4303
  443TMC3    C7 6608   2.482   4.577  17.296 -0.6251  0.4954  0.3744
  443TMC3    C8 6609   2.639   0.021  16.925  0.2253  1.0273  0.7376
  443TMC3    O1 6610   2.441   4.514  17.202 -0.6164 -0.3629 -0.5057
  443TMC3    O2 6611   2.549   4.670  16.891  0.0528  0.0206 -0.0927
  444MPD2     C 6612   3.099   3.926  17.168 -0.2291 -0.3146 -0.0312
  444MPD2    C1 6613   2.998   3.830  17.177  0.4949  0.0898 -0.0615
  444MPD2    C2 6614   3.012   3.698  17.142  0.3491  0.0989 -0.0011
  444MPD2    C3 6615   3.144   3.649  17.118 -0.1990  0.4047  0.3506
  444MPD2    C4 6616   3.247   3.742  17.102 -0.0719  0.0190 -0.2957
  444MPD2    C5 6617   3.217   3.873  17.132  0.2125 -0.4213 -0.5016
  444MPD2     H 6618   2.929   3.629  17.132  2.2101 -1.9209 -1.7495
  444MPD2    H1 6619   3.350   3.717  17.081  0.2250 -2.6614  4.3011
  444MPD2    H2 6620   3.086   4.030  17.195 -0.1901 -0.8619  2.0987
  444MPD2    H3 6621   3.298   3.945  17.127 -0.4920  0.1767 -3.5204
  444MPD2     N 6622   3.160   3.515  17.083  0.5323 -0.0884 -0.2178
  444MPD2    H5 6623   3.072   3.464  17.082 -0.0294  0.8485  0.9815
  444MPD2    N1 6624   2.867   3.860  17.216  0.4562 -0.1685 -0.1973
  444MPD2    H7 6625   2.794   3.790  17.204 -0.0586  0.6497 -1.8493
  445TMC3    C1 6626   3.276   3.300  17.082  0.0197  0.1601 -0.3733
  445TMC3    C2 6627   3.193   3.249  16.988  0.2225  0.5899 -1.1158
  445TMC3    C3 6628   3.230   3.134  16.918  0.4093 -0.0129 -0.1571
  445TMC3    C4 6629   3.392   3.232  17.121  0.3059 -0.4500  0.2216
  445TMC3    C5 6630   3.417   3.118  17.049  0.2493  0.4933 -0.0481
  445TMC3    C6 6631   3.341   3.066  16.952 -0.0600 -0.0196  0.0053
  445TMC3     C 6632   3.282   3.446  17.085 -0.0534  0.0895  0.5009
  445TMC3     O 6633   3.395   3.487  17.106  0.2774 -0.1234  0.8241
  445TMC3     H 6634   3.097   3.295  16.965 -0.5393  0.0975  1.0227
  445TMC3    H1 6635   3.463   3.276  17.190 -0.5342  1.8248 -0.3434
  445TMC3    H2 6636   3.372   2.978  16.898 -2.8489 -2.1703  1.9320
  445TMC3    C7 6637   3.549   3.051  17.062 -0.2612  0.3276 -0.3340
  445TMC3    C8 6638   3.179   3.139  16.784  0.3626 -0.2371 -0.4152
  445TMC3    O1 6639   3.589   2.984  16.966 -0.1859 -0.1930  0.0993
  445TMC3    O2 6640   3.173   3.251  16.735  0.7298 -0.0284  0.0488
  446MPD2     C 6641   3.045   0.336  11.655 -0.0182 -0.0923 -0.7691
  446MPD2    C1 6642   2.975   0.418  11.563 -0.0249  0.2904 -0.0183
  446MPD2    C2 6643   3.026   0.553  11.547  0.2664  0.6418  0.8862
  446MPD2    C3 6644   3.137   0.596  11.613 -0.4495 -0.4601  0.5386
  446MPD2    C4 6645   3.190   0.512  11.709  1.1391  0.2252  0.1960
  446MPD2    C5 6646   3.152   0.385  11.723 -0.2725 -0.4198  0.5865
  446MPD2     H 6647   2.972   0.616  11.478 -1.7300 -1.6334  0.3494
  446MPD2    H1 6648   3.255   0.550  11.786  0.0005  1.9541  0.2996
  446MPD2    H2 6649   3.005   0.247  11.702  0.3712 -1.3043 -2.7413
  446MPD2    H3 6650   3.198   0.321  11.798 -0.7397 -1.9051 -0.3978
  446MPD2     N 6651   3.190   0.727  11.581 -0.0928 -0.3279 -0.3197
  446MPD2    H5 6652   3.125   0.786  11.531 -0.2717  0.0517  0.3576
  446MPD2    N1 6653   2.855   0.374  11.500  0.1238  0.2540  0.2549
  446MPD2    H7 6654   2.785   0.440  11.467 -0.7572 -0.5547  0.5207
  447TMC3    C1 6655   3.329   0.921  11.608  0.0096 -0.1129 -0.4218
  447TMC3    C2 6656   3.321   0.966  11.474 -0.0111  0.9339  0.5684
  447TMC3    C3 6657   3.436   1.023  11.429 -0.0904 -0.4379  0.8920
  447TMC3    C4 6658   3.428   0.954  11.692 -0.0801  0.6991  0.3349
  447TMC3    C5 6659   3.540   1.018  11.636 -0.2966  0.4200 -0.5663
  447TMC3    C6 6660   3.548   1.051  11.505 -0.1889  0.2020  0.3754
  447TMC3     C 6661   3.308   0.780  11.633 -0.8363 -0.3162  0.0920
  447TMC3     O 6662   3.388   0.722  11.705  0.3215  0.4123 -0.7281
  447TMC3     H 6663   3.244   0.930  11.407  1.4743 -0.5840 -0.3205
  447TMC3    H1 6664   3.415   0.939  11.799 -1.4097  0.9093  0.2089
  447TMC3    H2 6665   3.632   1.113  11.476  0.1412 -0.5266 -0.2378
  447TMC3    C7 6666   3.673   0.981  11.686 -0.3980 -0.2679  0.1010
  447TMC3    C8 6667   3.439   1.066  11.291  0.1335 -0.0297 -0.4594
  447TMC3    O1 6668   3.770   0.981  11.608  0.0622  0.2975  0.1401
  447TMC3    O2 6669   3.335   1.051  11.227  0.5476 -0.3180 -0.6466
  448TMC3    C1 6670   0.737   4.436   0.039 -0.3611  0.6797 -0.8115
  448TMC3    C2 6671   0.818   4.413  17.628  0.1938  0.1429  0.1743
  448TMC3    C3 6672   0.881   4.521  17.571  0.2660  0.7322  0.1736
  448TMC3    C4 6673   0.745   4.554   0.109 -0.0025  0.7831  0.3495
  448TMC3    C5 6674   0.813   4.656   0.047  0.0264 -0.4467  0.1060
  448TMC3    C6 6675   0.877   4.641  17.626  0.1020  0.2333 -0.7552
  448TMC3     C 6676   0.677   4.326   0.106  0.3639 -0.2109 -0.3831
  448TMC3     O 6677   0.732   4.220   0.114  0.1649 -0.1221  0.2549
  448TMC3     H 6678   0.832   4.313  17.588  0.2702 -1.1711  3.5539
  448TMC3    H1 6679   0.685   4.576   0.197  1.7473  0.2976  1.6632
  448TMC3    H2 6680   0.940   4.714  17.576  1.3774 -0.6415 -0.4444
  448TMC3    C7 6681   0.861   0.032   0.135  0.2537 -0.3995 -0.1299
  448TMC3    C8 6682   0.967   4.489  17.465  0.3223 -0.4689 -0.2006
  448TMC3    O1 6683   0.780   0.083   0.213 -0.4130 -0.0376 -0.2878
  448TMC3    O2 6684   0.991   4.370  17.457  0.0046  0.0039 -0.6451
  449MPD2     C 6685   2.930   3.351  14.267  0.1376 -0.0439  0.0095
  449MPD2    C1 6686   2.808   3.374  14.218  0.2040  0.4646  0.6152
  449MPD2    C2 6687   2.701   3.296  14.247 -0.0017  0.4519 -0.2423
  449MPD2    C3 6688   2.714   3.186  14.333 -0.1211 -0.2236 -0.9688
  449MPD2    C4 6689   2.838   3.166  14.397 -0.2609  0.1660  0.7156
  449MPD2    C5 6690   2.945   3.245  14.356 -0.2116  0.3573  0.0350
  449MPD2     H 6691   2.600   3.319  14.215 -0.7946 -0.7809  1.3941
  449MPD2    H1 6692   2.861   3.103  14.483 -0.8404  1.0250  1.4879
  449MPD2    H2 6693   3.011   3.422  14.262 -0.3997  0.6045  0.4742
  449MPD2    H3 6694   3.040   3.242  14.408  0.0608  0.4431 -0.4687
  449MPD2     N 6695   2.596   3.117  14.359 -0.3896  0.4887 -0.4145
  449MPD2    H5 6696   2.527   3.129  14.286 -0.0366  1.4547 -0.5872
  449MPD2    N1 6697   2.780   3.484  14.133 -0.9756  0.2344 -0.2533
  449MPD2    H7 6698   2.682   3.497  14.109 -0.7703  1.0291 -0.6881
  450TMC3    C1 6699   2.793   3.665  13.993 -0.6286  0.2352  0.2057
  450TMC3    C2 6700   2.839   3.655  13.864 -0.4797  0.2689 -0.0319
  450TMC3    C3 6701   2.747   3.654  13.764 -0.0857  0.1918  0.9369
  450TMC3    C4 6702   2.663   3.671  14.021  0.1943 -0.0070  0.3016
  450TMC3    C5 6703   2.573   3.661  13.919  0.0739 -0.6229  0.3369
  450TMC3    C6 6704   2.610   3.662  13.789  0.1044 -0.7037 -0.2342
  450TMC3     C 6705   2.868   3.576  14.082  0.0586  0.6819  0.0275
  450TMC3     O 6706   2.990   3.576  14.077  0.2320 -0.4278 -0.0821
  450TMC3     H 6707   2.947   3.656  13.848 -0.0899 -0.5425  2.5827
  450TMC3    H1 6708   2.634   3.680  14.125 -0.4501  0.5583  0.0688
  450TMC3    H2 6709   2.544   3.664  13.703  0.1221  3.1090 -0.1233
  450TMC3    C7 6710   2.473   3.571  13.966  0.5295 -0.5045 -0.1701
  450TMC3    C8 6711   2.793   3.639  13.628  0.4741  0.0817 -0.5245
  450TMC3    O1 6712   2.506   3.514  14.068  0.1353  0.4693  0.0705
  450TMC3    O2 6713   2.721   3.664  13.533 -0.1969  0.2388 -0.2753
  451MPD2     C 6714   3.087   1.822   2.001 -0.1749  0.5129 -1.2349
  451MPD2    C1 6715   3.172   1.889   1.902 -0.0231 -0.0494  1.0712
  451MPD2    C2 6716   3.302   1.873   1.919  0.0844  0.0446  0.3169
  451MPD2    C3 6717   3.364   1.795   2.019 -0.0598  0.3648 -0.9178
  451MPD2    C4 6718   3.281   1.716   2.099  0.1021 -0.1680  0.0746
  451MPD2    C5 6719   3.144   1.745   2.096 -0.0681  0.1931  0.6670
  451MPD2     H 6720   3.359   1.922   1.841  1.0650  0.4020  1.2530
  451MPD2    H1 6721   3.315   1.648   2.177 -0.3281  1.2121  1.4851
  451MPD2    H2 6722   2.979   1.825   2.005 -0.1480  0.4809 -0.4700
  451MPD2    H3 6723   3.089   1.693   2.174 -0.5141 -1.2537 -0.6117
  451MPD2     N 6724   3.504   1.799   2.035  0.0983  0.7303 -0.1450
  451MPD2    H5 6725   3.538   1.741   2.111  0.5676  0.1535 -0.7891
  451MPD2    N1 6726   3.109   1.954   1.793 -0.5729 -0.3780  0.4881
  451MPD2    H7 6727   3.008   1.951   1.784 -0.4936  0.5649 -0.9067
  452TMC3    C1 6728   3.720   1.871   2.012 -0.3452  0.2437 -0.4407
  452TMC3    C2 6729   3.733   1.883   2.147 -0.2937  0.1477  0.4228
  452TMC3    C3 6730   3.860   1.868   2.198  0.4878  0.0157  0.2253
  452TMC3    C4 6731   3.830   1.866   1.928 -0.4043 -0.6346 -0.3357
  452TMC3    C5 6732   3.952   1.841   1.982  0.3122 -0.4835  0.2998
  452TMC3    C6 6733   3.970   1.845   2.119 -0.1249 -0.1198 -0.1865
  452TMC3     C 6734   3.590   1.874   1.957  0.1901  1.2352 -0.1522
  452TMC3     O 6735   3.573   1.941   1.856 -0.3853 -0.9715  0.1453
  452TMC3     H 6736   3.653   1.900   2.218 -0.4211 -0.1957  0.3630
  452TMC3    H1 6737   3.816   1.846   1.822  0.9163  1.2494 -0.8698
  452TMC3    H2 6738   4.070   1.837   2.161 -0.5256  0.0763  0.8258
  452TMC3    C7 6739   4.067   1.790   1.909  0.6024 -0.1021  0.0994
  452TMC3    C8 6740   3.881   1.854   2.348 -0.7140  0.4466  0.2690
  452TMC3    O1 6741   4.157   1.735   1.971  0.4247  0.6444  0.3206
  452TMC3    O2 6742   3.978   1.794   2.388 -0.0027 -0.1092 -0.1782
  453TMC3    C1 6743   0.745   4.280  11.760 -0.4327 -1.0501  0.2936
  453TMC3    C2 6744   0.661   4.190  11.824 -0.0758  0.3044  0.1419
  453TMC3    C3 6745   0.544   4.155  11.761 -0.1117 -0.4703 -0.0899
  453TMC3    C4 6746   0.713   4.334  11.639 -0.4404 -0.1526 -0.5159
  453TMC3    C5 6747   0.594   4.298  11.580 -1.3439  0.4594  0.1031
  453TMC3    C6 6748   0.506   4.215  11.645  0.3539  0.3745  0.5762
  453TMC3     C 6749   0.848   4.343  11.833 -0.3574  0.0640 -0.0914
  453TMC3     O 6750   0.939   4.402  11.771  0.9747  0.0436  0.1857
  453TMC3     H 6751   0.683   4.146  11.920 -2.4018 -1.9036 -0.3356
  453TMC3    H1 6752   0.770   4.419  11.604  1.2817 -0.3987  1.7199
  453TMC3    H2 6753   0.417   4.182  11.592  0.2125 -1.3153  1.8603
  453TMC3    C7 6754   0.568   4.352  11.449 -0.4635  0.3071 -0.1882
  453TMC3    C8 6755   0.457   4.056  11.814  0.6314  0.7733  0.3637
  453TMC3    O1 6756   0.446   4.363  11.418  0.0512 -0.2995  0.1489
  453TMC3    O2 6757   0.345   4.051  11.770 -0.0583  0.5333 -0.3886
  454MPD2     C 6758   3.971   3.757  16.661 -0.6440  0.3906 -0.0835
  454MPD2    C1 6759   3.914   3.640  16.627 -0.6305  0.0903 -0.3569
  454MPD2    C2 6760   3.903   3.545  16.723  0.3981 -0.3225  0.6083
  454MPD2    C3 6761   3.937   3.565  16.857 -0.5352  0.4209  0.1983
  454MPD2    C4 6762   3.990   3.682  16.893  0.7021  0.4586 -0.0011
  454MPD2    C5 6763   4.009   3.770  16.794 -0.0943 -0.5876  0.1777
  454MPD2     H 6764   3.854   3.452  16.696  0.5992 -0.1661 -0.3008
  454MPD2    H1 6765   4.007   3.728  16.990  0.1654 -0.4994  0.5556
  454MPD2    H2 6766   4.000   3.837  16.593  0.0463  0.6195  0.4795
  454MPD2    H3 6767   4.063   3.860  16.819 -0.2389 -0.4771  0.0906
  454MPD2     N 6768   3.919   3.454  16.939 -0.0085 -0.3335 -0.5812
  454MPD2    H5 6769   3.928   3.465  17.040 -0.6629 -2.5648 -0.2875
  454MPD2    N1 6770   3.887   3.584  16.500  0.4407  0.1605 -0.5379
  454MPD2    H7 6771   3.839   3.495  16.503  0.7158 -0.0321 -2.1108
  455TMC3    C1 6772   3.734   3.326  16.921  0.8603  0.3345  0.3128
  455TMC3    C2 6773   3.682   3.449  16.968 -0.0027 -0.1493 -0.3645
  455TMC3    C3 6774   3.589   3.516  16.893 -0.2285 -0.0730 -0.4892
  455TMC3    C4 6775   3.672   3.263  16.816  0.0500  0.1179 -0.5446
  455TMC3    C5 6776   3.561   3.322  16.768 -0.4833  0.3821  0.2807
  455TMC3    C6 6777   3.525   3.450  16.795 -0.1635 -0.4119 -0.3213
  455TMC3     C 6778   3.879   3.328  16.910  0.2058  0.2321 -0.1687
  455TMC3     O 6779   3.917   3.255  16.815 -0.5553 -0.1570  0.4898
  455TMC3     H 6780   3.723   3.491  17.059 -1.8481 -0.3907  0.5652
  455TMC3    H1 6781   3.724   3.178  16.773 -0.2121  0.4768 -1.5700
  455TMC3    H2 6782   3.462   3.505  16.726  0.4513  0.3753 -0.2655
  455TMC3    C7 6783   3.514   3.257  16.650 -0.4520 -0.4443 -0.4892
  455TMC3    C8 6784   3.586   3.662  16.910 -0.5101 -0.0542 -0.4561
  455TMC3    O1 6785   3.479   3.323  16.556 -0.4652 -0.3368  0.1323
  455TMC3    O2 6786   3.632   3.708  17.012 -0.2741  0.3115 -0.4634
  456MPD2     C 6787   1.540   3.600  16.452 -0.4790  0.2505  0.3583
  456MPD2    C1 6788   1.610   3.579  16.565 -0.5025  0.5718 -0.1287
  456MPD2    C2 6789   1.579   3.649  16.681 -0.1815 -0.2507  0.3792
  456MPD2    C3 6790   1.476   3.738  16.687 -0.2049  0.1863  0.1982
  456MPD2    C4 6791   1.399   3.751  16.573  0.8725 -0.3222  0.1179
  456MPD2    C5 6792   1.431   3.681  16.456 -0.2563  0.0422  0.3286
  456MPD2     H 6793   1.630   3.635  16.776  3.0349  0.0636 -1.2966
  456MPD2    H1 6794   1.312   3.815  16.570  1.5094  0.5212 -0.5437
  456MPD2    H2 6795   1.572   3.556  16.358  0.2142  0.0065  0.7098
  456MPD2    H3 6796   1.372   3.706  16.369  1.0738 -0.6024 -0.7544
  456MPD2     N 6797   1.466   3.823  16.801  0.5212  0.4683  0.3889
  456MPD2    H5 6798   1.542   3.817  16.868 -1.9493 -1.4966  3.0149
  456MPD2    N1 6799   1.723   3.499  16.542 -0.2141 -0.0900  0.6124
  456MPD2    H7 6800   1.742   3.463  16.449  0.5499 -0.7593  1.0201
  457TMC3    C1 6801   1.443   4.010  16.933  0.0973  0.1850  0.0555
  457TMC3    C2 6802   1.368   4.118  16.969  0.3667  0.0437 -0.0803
  457TMC3    C3 6803   1.400   4.181  17.088  0.7259  0.4142  0.8827
  457TMC3    C4 6804   1.545   3.961  17.015  0.7139 -0.2623 -0.4247
  457TMC3    C5 6805   1.569   4.034  17.128 -0.3435 -0.8003  0.4710
  457TMC3    C6 6806   1.505   4.146  17.162 -0.6748  0.8355 -0.6783
  457TMC3     C 6807   1.395   3.938  16.815 -0.2695  0.6130  0.5317
  457TMC3     O 6808   1.300   3.985  16.753 -0.1792  0.8360 -0.5877
  457TMC3     H 6809   1.280   4.144  16.909  0.2254  0.3328  0.2500
  457TMC3    H1 6810   1.598   3.867  17.006 -0.0917 -0.5806 -1.8272
  457TMC3    H2 6811   1.526   4.190  17.259 -1.5946  0.3610 -0.2544
  457TMC3    C7 6812   1.681   3.992  17.209 -0.5328 -0.9592  0.0988
  457TMC3    C8 6813   1.315   4.269  17.147  0.0682  0.2233  0.3027
  457TMC3    O1 6814   1.721   3.877  17.199  0.2992  0.2442  0.0511
  457TMC3    O2 6815   1.308   4.267  17.272 -0.1357  0.7171 -0.1052
  458MPD2     C 6816   4.404   3.051  12.259  0.0923 -0.3183  0.0320
  458MPD2    C1 6817   4.330   3.050  12.373  0.1530 -0.1595  0.5272
  458MPD2    C2 6818   4.238   2.952  12.393  0.5856  0.1849 -0.0178
  458MPD2    C3 6819   4.229   2.850  12.301  0.1646  0.0892 -0.2711
  458MPD2    C4 6820   4.296   2.860  12.188 -0.4929  0.0748  0.7039
  458MPD2    C5 6821   4.388   2.959  12.166  0.8736 -0.6612 -0.2575
  458MPD2     H 6822   4.177   2.940  12.482  0.5933  2.4568  0.2769
  458MPD2    H1 6823   4.301   2.773  12.123 -0.5319  0.4405  0.2068
  458MPD2    H2 6824   4.481   3.126  12.246 -0.3660 -0.3415 -2.8518
  458MPD2    H3 6825   4.456   2.956  12.082  0.2721 -0.3618 -0.7606
  458MPD2     N 6826   4.146   2.743  12.344  0.3579  0.2029  0.3263
  458MPD2    H5 6827   4.100   2.757  12.433  0.8710  2.6805  0.1913
  458MPD2    N1 6828   4.365   3.138  12.478  0.0295 -0.1534 -0.7007
  458MPD2    H7 6829   4.444   3.201  12.468  2.9272 -3.7661 -0.2839
  459TMC3    C1 6830   4.379   3.234  12.698  0.4748 -0.0983 -0.0650
  459TMC3    C2 6831   4.443   3.348  12.668  0.1888 -1.2670  0.2357
  459TMC3    C3 6832   4.468   3.436  12.774  0.7096 -0.1735 -0.2221
  459TMC3    C4 6833   4.365   3.198  12.829 -0.0993 -0.0501  0.0125
  459TMC3    C5 6834   4.395   3.286  12.927  0.2630  0.2301  0.5576
  459TMC3    C6 6835   4.454   3.403  12.903 -0.1644 -0.2019  0.3355
  459TMC3     C 6836   4.308   3.147  12.604  0.3177 -0.0725 -0.4281
  459TMC3     O 6837   4.222   3.077  12.658 -0.0441  0.6126 -0.0587
  459TMC3     H 6838   4.425   3.385  12.568 -0.0792 -0.9524  0.4025
  459TMC3    H1 6839   4.315   3.108  12.862  2.1161 -1.1833  0.2689
  459TMC3    H2 6840   4.500   3.467  12.977  1.6020 -0.8472 -0.2155
  459TMC3    C7 6841   4.427   3.220  13.048 -0.3454  0.5040 -0.3667
  459TMC3    C8 6842   4.526   3.562  12.749  0.1927  0.1023  1.2685
  459TMC3    O1 6843   4.461   3.098  13.042  0.7840 -0.0858 -0.4866
  459TMC3    O2 6844   4.499   3.652  12.826  1.0144 -0.3036 -0.3997
  460MPD2     C 6845   3.716   1.153  11.067 -0.3590 -0.3972  0.2928
  460MPD2    C1 6846   3.594   1.153  11.109 -0.4128 -0.0495 -0.5094
  460MPD2    C2 6847   3.496   1.212  11.036 -0.2228  0.3565  0.4127
  460MPD2    C3 6848   3.524   1.257  10.910 -0.6414 -0.8311 -0.0358
  460MPD2    C4 6849   3.657   1.243  10.860  0.0283 -0.4684  0.1268
  460MPD2    C5 6850   3.750   1.200  10.946 -0.4552  0.0632 -0.4394
  460MPD2     H 6851   3.397   1.216  11.080 -0.1445  1.7540  0.4545
  460MPD2    H1 6852   3.692   1.281  10.765 -0.5118 -0.2091  0.0289
  460MPD2    H2 6853   3.799   1.130  11.134 -0.4986  0.7949  0.8746
  460MPD2    H3 6854   3.852   1.201  10.909 -0.3747  1.5253 -0.1813
  460MPD2     N 6855   3.424   1.328  10.844 -0.3154  0.2201 -0.4673
  460MPD2    H5 6856   3.331   1.322  10.884 -0.1094  1.7535  0.2221
  460MPD2    N1 6857   3.564   1.105  11.243  0.7643  0.2641 -0.4056
  460MPD2    H7 6858   3.651   1.079  11.288 -0.1383 -1.0674  0.5614
  461TMC3    C1 6859   3.321   1.461  10.676 -0.3393  0.2117 -0.5616
  461TMC3    C2 6860   3.223   1.370  10.654  0.1008  0.1587  0.1727
  461TMC3    C3 6861   3.114   1.427  10.592  0.0610  0.0002 -0.2941
  461TMC3    C4 6862   3.323   1.598  10.652 -0.3570 -0.3286  0.5600
  461TMC3    C5 6863   3.216   1.635  10.579 -0.3480 -0.3978  0.3106
  461TMC3    C6 6864   3.113   1.558  10.546 -0.1206  0.2576 -0.5923
  461TMC3     C 6865   3.441   1.418  10.737 -0.2721 -0.3711 -0.4172
  461TMC3     O 6866   3.543   1.469  10.694  0.4098 -0.3523 -0.7829
  461TMC3     H 6867   3.223   1.273  10.701  1.4715  0.3434  0.5510
  461TMC3    H1 6868   3.408   1.658  10.683 -0.0193  1.6211 -4.0010
  461TMC3    H2 6869   3.020   1.596  10.506  0.3407 -1.0889 -2.9641
  461TMC3    C7 6870   3.233   1.760  10.503 -0.0604 -0.5322 -0.4211
  461TMC3    C8 6871   3.011   1.329  10.552 -0.2088 -0.1583 -0.8334
  461TMC3    O1 6872   3.142   1.804  10.436  0.6073  0.2102 -0.3666
  461TMC3    O2 6873   2.901   1.339  10.604 -0.2792 -0.1950 -0.6027
  462TMC3    C1 6874   2.737   2.148   0.583  0.0642 -0.5696  0.3247
  462TMC3    C2 6875   2.871   2.178   0.607  0.4861 -0.2667  0.0077
  462TMC3    C3 6876   2.944   2.082   0.673  0.1530  0.5148 -0.5187
  462TMC3    C4 6877   2.682   2.026   0.621 -0.0736 -0.6066  0.6611
  462TMC3    C5 6878   2.754   1.941   0.698 -0.7539  0.5624  0.6111
  462TMC3    C6 6879   2.886   1.964   0.726 -0.0507  0.9171  0.1768
  462TMC3     C 6880   2.654   2.260   0.542 -0.7072 -0.2383  0.0466
  462TMC3     O 6881   2.700   2.345   0.468  0.0756  0.3298  0.0174
  462TMC3     H 6882   2.918   2.266   0.564 -0.1937 -0.3191 -0.8438
  462TMC3    H1 6883   2.582   2.008   0.581  0.1753  0.9011 -0.6440
  462TMC3    H2 6884   2.930   1.901   0.802 -0.1607 -0.6472 -1.0504
  462TMC3    C7 6885   2.707   1.804   0.710 -0.0230 -0.9894 -0.0088
  462TMC3    C8 6886   3.087   2.076   0.651  1.0045 -0.4012  0.0657
  462TMC3    O1 6887   2.793   1.719   0.734 -0.2468 -0.0118 -0.4917
  462TMC3    O2 6888   3.143   2.186   0.637  0.4803  0.2693  0.6335
  463MPD2     C 6889   4.318   0.910   1.178 -0.2667  0.3754 -0.1925
  463MPD2    C1 6890   4.343   0.894   1.311 -0.1715 -0.2482  0.2227
  463MPD2    C2 6891   4.464   0.829   1.347 -0.3018  0.6437  0.9114
  463MPD2    C3 6892   4.546   0.769   1.249 -0.0999 -0.9981 -0.1437
  463MPD2    C4 6893   4.511   0.786   1.117 -0.0972 -0.2568 -0.0247
  463MPD2    C5 6894   4.396   0.854   1.085  0.0032  0.3808 -0.3398
  463MPD2     H 6895   4.494   0.829   1.451  1.4405  1.2024  0.4000
  463MPD2    H1 6896   4.581   0.757   1.040  0.6924 -3.4199  1.9098
  463MPD2    H2 6897   4.228   0.949   1.133  0.3158 -0.0603 -1.7190
  463MPD2    H3 6898   4.385   0.879   0.980  1.1515 -0.7136 -0.7194
  463MPD2     N 6899   4.660   0.694   1.279 -0.1975 -0.0609  0.1187
  463MPD2    H5 6900   4.699   0.651   1.196 -2.2149  0.6483 -1.1967
  463MPD2    N1 6901   4.256   0.932   1.416 -0.8340 -0.1976 -0.1485
  463MPD2    H7 6902   4.285   0.922   1.513 -1.5448 -0.9529 -0.0097
  464TMC3    C1 6903   4.054   1.052   1.506  0.0672 -0.8962 -0.1910
  464TMC3    C2 6904   3.945   1.131   1.479 -0.3869  1.0017  0.0772
  464TMC3    C3 6905   3.827   1.125   1.548 -0.1667  0.3239 -0.5724
  464TMC3    C4 6906   4.043   0.959   1.605 -0.5531  0.5509  0.6576
  464TMC3    C5 6907   3.920   0.945   1.669  0.1684  0.1792  0.6638
  464TMC3    C6 6908   3.810   1.023   1.644 -0.1441 -0.3591  0.3304
  464TMC3     C 6909   4.145   1.016   1.399  0.0647 -0.0828  0.1252
  464TMC3     O 6910   4.128   1.080   1.292 -0.4635  0.0516  0.0504
  464TMC3     H 6911   3.953   1.191   1.389  1.7665 -2.5619 -2.1171
  464TMC3    H1 6912   4.111   0.878   1.629 -0.3473  1.6212  3.6919
  464TMC3    H2 6913   3.722   1.018   1.707  0.5516  2.8235  1.5605
  464TMC3    C7 6914   3.895   0.822   1.740 -0.3845  0.6015  0.7290
  464TMC3    C8 6915   3.707   1.159   1.468 -0.8938 -0.3739 -0.0984
  464TMC3    O1 6916   3.980   0.789   1.823 -0.7087  0.0547 -0.3605
  464TMC3    O2 6917   3.719   1.143   1.346 -0.6596  0.1230 -0.5687
  465MPD2     C 6918   1.384   3.735  17.214 -0.0688  0.6221  0.8380
  465MPD2    C1 6919   1.284   3.810  17.292  0.2124 -0.1773  0.6046
  465MPD2    C2 6920   1.150   3.817  17.252  0.2556 -0.3655 -0.0672
  465MPD2    C3 6921   1.106   3.744  17.146  0.2037  0.3083 -0.2076
  465MPD2    C4 6922   1.200   3.678  17.065  0.1547  0.0808  0.7221
  465MPD2    C5 6923   1.337   3.686  17.092 -0.6148 -0.0523  0.2335
  465MPD2     H 6924   1.074   3.854  17.320  0.9069  0.6415  0.1117
  465MPD2    H1 6925   1.162   3.625  16.979 -2.1909 -0.7771  2.2901
  465MPD2    H2 6926   1.485   3.708  17.245 -0.0857 -0.9561 -0.4748
  465MPD2    H3 6927   1.398   3.630  17.022 -1.1160  0.8079 -0.8914
  465MPD2     N 6928   0.967   3.752  17.116 -0.3747  0.3852 -0.1488
  465MPD2    H5 6929   0.902   3.804  17.173  0.4651  1.1484  0.1072
  465MPD2    N1 6930   1.318   3.867  17.414  0.4109  0.4583  0.0339
  465MPD2    H7 6931   1.255   3.934  17.457 -0.1399 -0.1928  0.2408
  466TMC3    C1 6932   0.562   3.682  17.097  0.0799  0.1402 -0.7430
  466TMC3    C2 6933   0.494   3.691  16.979 -0.1116 -0.5563  0.4532
  466TMC3    C3 6934   0.569   3.725  16.867 -0.1587 -0.3946 -0.0216
  466TMC3    C4 6935   0.696   3.703  17.108  0.1405  0.5634 -0.6244
  466TMC3    C5 6936   0.769   3.730  16.993  0.2724 -0.0472 -0.2509
  466TMC3    C6 6937   0.704   3.741  16.872 -0.3704  0.4977  0.2792
  466TMC3     C 6938   0.489   3.647  17.218 -0.1514 -0.4737 -0.2621
  466TMC3     O 6939   0.555   3.648  17.322  0.0022 -0.3846  0.2454
  466TMC3     H 6940   0.388   3.674  16.964 -0.0625 -0.8782  0.4774
  466TMC3    H1 6941   0.748   3.695  17.203 -0.8688  0.4340 -0.0848
  466TMC3    H2 6942   0.761   3.788  16.792  1.6289 -0.0823  1.3733
  466TMC3    C7 6943   0.912   3.716  16.999 -0.0570  0.1989  0.0491
  466TMC3    C8 6944   0.515   3.833  16.784 -0.1242  0.8563  0.3052
  466TMC3    O1 6945   0.960   3.666  16.896 -0.6872  0.0222 -0.4375
  466TMC3    O2 6946   0.564   3.841  16.673  0.4902 -0.1658  0.2142
  467TMC3    C1 6947   1.197   2.703  13.810  0.9053 -0.1526 -0.2808
  467TMC3    C2 6948   1.228   2.670  13.678 -0.3613 -1.0108  0.0258
  467TMC3    C3 6949   1.121   2.661  13.595  0.4342  0.1242  0.6040
  467TMC3    C4 6950   1.077   2.733  13.860  0.1425 -0.0923 -0.3325
  467TMC3    C5 6951   0.970   2.717  13.775 -0.7042 -0.0210  0.0874
  467TMC3    C6 6952   0.991   2.690  13.637  0.2931 -0.5902  0.5533
  467TMC3     C 6953   1.310   2.706  13.902 -0.5794  0.4007 -0.3223
  467TMC3     O 6954   1.408   2.653  13.859 -0.1137 -0.0641  0.4314
  467TMC3     H 6955   1.329   2.644  13.648 -0.5456 -2.7734  0.9526
  467TMC3    H1 6956   1.056   2.738  13.966  2.0776  1.8959 -0.0412
  467TMC3    H2 6957   0.909   2.677  13.568 -0.1524  1.0416  0.7734
  467TMC3    C7 6958   0.856   2.788  13.807  0.1551  0.8929 -0.3079
  467TMC3    C8 6959   1.146   2.646  13.452 -0.0036  0.1238 -0.6232
  467TMC3    O1 6960   0.793   2.844  13.718 -0.0738  0.3886  0.5052
  467TMC3    O2 6961   1.067   2.580  13.389 -0.4418 -0.5355 -0.0894
  468MPD2     C 6962   0.386   0.564  11.610 -0.3382  0.2293 -0.5598
  468MPD2    C1 6963   0.498   0.531  11.539 -0.1233  0.2305  0.1131
  468MPD2    C2 6964   0.498   0.432  11.441  0.3756 -0.3085  0.3314
  468MPD2    C3 6965   0.387   0.354  11.414  0.0759 -0.2964  0.0270
  468MPD2    C4 6966   0.281   0.380  11.501  0.5533 -0.5744  0.3118
  468MPD2    C5 6967   0.269   0.488  11.591  0.6798 -0.0665 -0.2489
  468MPD2     H 6968   0.590   0.416  11.386 -0.1250 -0.1501 -0.5605
  468MPD2    H1 6969   0.195   0.314  11.507  0.5116 -0.6855 -1.4658
  468MPD2    H2 6970   0.379   0.640  11.687 -0.7505 -0.1173 -0.2520
  468MPD2    H3 6971   0.179   0.502  11.650  0.5803  0.3006 -0.4931
  468MPD2     N 6972   0.371   0.267  11.302 -0.0408  1.1998 -0.2951
  468MPD2    H5 6973   0.285   0.214  11.297  2.0218 -2.3024  1.9356
  468MPD2    N1 6974   0.606   0.628  11.551 -0.3140 -0.6772  0.3227
  468MPD2    H7 6975   0.678   0.617  11.481  1.0570 -2.3854  2.0233
  469TMC3    C1 6976   0.750   0.793  11.627 -0.2730  0.4117 -0.0159
  469TMC3    C2 6977   0.859   0.738  11.569  0.3795  0.0486  0.7066
  469TMC3    C3 6978   0.973   0.802  11.564 -0.2125  0.1475 -0.3091
  469TMC3    C4 6979   0.754   0.917  11.683 -0.2233  0.5259 -1.1134
  469TMC3    C5 6980   0.869   0.981  11.679 -0.1373  0.6660  0.0920
  469TMC3    C6 6981   0.982   0.928  11.613  0.3804 -0.6145  0.0071
  469TMC3     C 6982   0.629   0.724  11.647  0.6739 -0.9091  0.5059
  469TMC3     O 6983   0.563   0.745  11.744  0.5211 -0.7615 -0.1848
  469TMC3     H 6984   0.865   0.633  11.543  3.3164  0.1779  0.8816
  469TMC3    H1 6985   0.667   0.962  11.729  1.6087  1.6521  1.2580
  469TMC3    H2 6986   1.081   0.972  11.619 -0.5301  1.3991  0.2944
  469TMC3    C7 6987   0.893   1.079  11.788  0.2512  0.1553  0.8647
  469TMC3    C8 6988   1.082   0.722  11.608  0.3028 -0.0002  0.4919
  469TMC3    O1 6989   0.794   1.103  11.856 -0.3075  0.3535 -0.1736
  469TMC3    O2 6990   1.171   0.694  11.528 -0.0763  0.4341  0.2184
  470TMC3    C1 6991   2.246   1.406   0.867  0.0079 -0.0919  0.7451
  470TMC3    C2 6992   2.160   1.513   0.858 -0.7812 -0.2963  1.0116
  470TMC3    C3 6993   2.203   1.611   0.940 -0.0816 -0.3501  0.0142
  470TMC3    C4 6994   2.376   1.406   0.914  0.8211  1.0168 -0.0385
  470TMC3    C5 6995   2.420   1.510   0.987  0.0750  0.2706 -0.8029
  470TMC3    C6 6996   2.331   1.618   0.998 -0.2853  0.4884 -0.1406
  470TMC3     C 6997   2.201   1.275   0.826 -0.3088 -0.3453 -0.7269
  470TMC3     O 6998   2.135   1.268   0.719 -0.6540  0.7299 -0.5381
  470TMC3     H 6999   2.069   1.509   0.799  0.4047  0.3804 -0.8527
  470TMC3    H1 7000   2.445   1.324   0.895 -1.1042 -1.2442  2.7460
  470TMC3    H2 7001   2.362   1.704   1.057 -0.8620  1.1427 -0.7911
  470TMC3    C7 7002   2.550   1.522   1.039  1.1162 -0.3695  0.2179
  470TMC3    C8 7003   2.123   1.730   0.962 -0.1831  0.2555 -0.3254
  470TMC3    O1 7004   2.645   1.474   0.978  0.4954  0.0349  0.0033
  470TMC3    O2 7005   2.157   1.796   1.058 -0.2325  0.9084 -0.1166
  471MPD2     C 7006   2.823   2.972  16.984 -0.1494  0.5496  0.2050
  471MPD2    C1 7007   2.899   2.861  16.949  0.2340 -1.1879 -0.4578
  471MPD2    C2 7008   3.002   2.824  17.028 -0.0768 -0.1185 -0.1857
  471MPD2    C3 7009   3.044   2.906  17.131  0.6089  0.7399 -0.0441
  471MPD2    C4 7010   2.983   3.026  17.148 -0.0228  0.0249 -0.2605
  471MPD2    C5 7011   2.868   3.062  17.085  0.0125 -0.2591 -0.8108
  471MPD2     H 7012   3.070   2.743  17.009  1.6965  1.0683  1.0560
  471MPD2    H1 7013   3.032   3.093  17.216 -0.9468 -0.6423  1.0582
  471MPD2    H2 7014   2.729   3.013  16.946 -0.2384  0.0125 -0.1628
  471MPD2    H3 7015   2.815   3.154  17.107 -0.7227 -1.1034  0.9723
  471MPD2     N 7016   3.146   2.868  17.221 -0.0152 -0.2819 -0.0594
  471MPD2    H5 7017   3.172   2.930  17.297 -2.6669 -1.2327  1.5920
  471MPD2    N1 7018   2.870   2.787  16.831  0.2880 -0.2748  0.2329
  471MPD2    H7 7019   2.916   2.697  16.824  0.3183 -0.0487 -2.4024
  472TMC3    C1 7020   2.794   2.728  16.611 -0.5894  0.6557  0.5618
  472TMC3    C2 7021   2.696   2.738  16.510 -0.3562 -0.5152 -0.0791
  472TMC3    C3 7022   2.700   2.661  16.398  0.2895  0.9312  0.1887
  472TMC3    C4 7023   2.875   2.619  16.614 -0.4370  1.2202  0.2421
  472TMC3    C5 7024   2.867   2.532  16.506  0.3974  0.4464 -0.6095
  472TMC3    C6 7025   2.789   2.554  16.396  0.2395 -0.2548  0.1264
  472TMC3     C 7026   2.776   2.810  16.727 -0.2865 -0.2615 -0.1944
  472TMC3     O 7027   2.686   2.897  16.724 -0.1615  0.0594  0.2346
  472TMC3     H 7028   2.621   2.817  16.507 -0.1355 -0.3430 -0.9389
  472TMC3    H1 7029   2.941   2.590  16.694  2.9552  1.0825 -2.5867
  472TMC3    H2 7030   2.800   2.494  16.307  0.9876 -0.4372  0.3395
  472TMC3    C7 7031   2.864   2.387  16.550  0.7465 -0.0756 -0.1117
  472TMC3    C8 7032   2.575   2.606  16.351 -0.5096 -0.2003  0.7848
  472TMC3    O1 7033   2.883   2.374  16.671  0.5676 -0.3820  0.2791
  472TMC3    O2 7034   2.544   2.660  16.243 -0.0351 -0.3862 -0.1200
  473MPD2     C 7035   2.768   0.038  14.404 -0.2509  1.3216 -0.1226
  473MPD2    C1 7036   2.799   0.110  14.291  0.4914  0.1151 -0.1263
  473MPD2    C2 7037   2.914   0.189  14.291 -0.4021  0.5433  0.0311
  473MPD2    C3 7038   3.011   0.174  14.388  0.5950 -0.4142  0.3625
  473MPD2    C4 7039   2.980   0.093  14.499  0.4146 -0.2023  0.4841
  473MPD2    C5 7040   2.866   0.027  14.501 -0.8031 -0.2641  0.1251
  473MPD2     H 7041   2.929   0.240  14.196  2.3862 -0.2977  0.0216
  473MPD2    H1 7042   3.051   0.070  14.577  0.2997  0.3744  0.7537
  473MPD2    H2 7043   2.676   4.706  14.416 -0.3109  1.0434 -1.8717
  473MPD2    H3 7044   2.845   4.703  14.596  1.0036 -1.6502 -0.1767
  473MPD2     N 7045   3.129   0.249  14.397 -0.2708 -0.6504 -0.0529
  473MPD2    H5 7046   3.191   0.223  14.473  0.1222 -0.3704 -0.2776
  473MPD2    N1 7047   2.711   0.117  14.184  0.5185 -0.0203  0.8205
  473MPD2    H7 7048   2.731   0.180  14.107  0.7713 -1.5403 -0.3457
  474TMC3    C1 7049   3.273   0.443  14.377  0.0802  0.8188  0.0699
  474TMC3    C2 7050   3.257   0.577  14.379  0.6054  0.8177  0.4106
  474TMC3    C3 7051   3.345   0.656  14.448  0.6150  0.0135 -0.0916
  474TMC3    C4 7052   3.384   0.386  14.433  0.0301  0.0368 -1.4245
  474TMC3    C5 7053   3.477   0.472  14.493 -0.6477 -0.1314 -0.0795
  474TMC3    C6 7054   3.457   0.609  14.510  0.8236  1.4766  0.7100
  474TMC3     C 7055   3.159   0.366  14.331 -0.2185 -0.1823  0.0642
  474TMC3     O 7056   3.087   0.429  14.261 -0.6426  0.3992  0.3379
  474TMC3     H 7057   3.166   0.620  14.336  0.3956  0.8146  0.8521
  474TMC3    H1 7058   3.414   0.282  14.426  1.7232  0.3862  0.4934
  474TMC3    H2 7059   3.522   0.681  14.558  1.8624 -0.0052  1.5339
  474TMC3    C7 7060   3.586   0.404  14.555 -0.5361  0.0867 -0.1459
  474TMC3    C8 7061   3.308   0.787  14.480  0.6485  1.0628 -0.4432
  474TMC3    O1 7062   3.624   0.292  14.513 -0.3401 -0.0485  0.0406
  474TMC3    O2 7063   3.396   0.861  14.525  0.5711 -0.1280 -0.0529
  475MPD2     C 7064   2.341   2.941  10.960  0.0141 -0.1251  0.0465
  475MPD2    C1 7065   2.371   3.039  10.862  0.0197  0.9890  0.7487
  475MPD2    C2 7066   2.278   3.137  10.834  0.8086  0.0957  0.1137
  475MPD2    C3 7067   2.157   3.137  10.897  0.0972 -0.2827  0.6605
  475MPD2    C4 7068   2.126   3.032  10.980  0.1590  0.4926  0.2308
  475MPD2    C5 7069   2.218   2.932  11.009  0.7752  0.5929  0.1431
  475MPD2     H 7070   2.297   3.218  10.764 -1.2279 -0.4161 -1.0157
  475MPD2    H1 7071   2.025   3.011  11.013 -0.3217 -1.3655 -2.4939
  475MPD2    H2 7072   2.410   2.867  10.997  1.1331  0.9658  0.1205
  475MPD2    H3 7073   2.188   2.862  11.086 -0.8047 -0.9588 -1.8623
  475MPD2     N 7074   2.082   3.251  10.877  0.9906 -0.1912  0.8880
  475MPD2    H5 7075   2.130   3.316  10.816  1.1657 -1.2304 -0.1035
  475MPD2    N1 7076   2.500   3.045  10.803  0.1370 -0.1388 -0.0994
  475MPD2    H7 7077   2.573   2.993  10.850 -1.8437 -0.7698  2.2581
  476TMC3    C1 7078   2.643   3.191  10.687  0.4274  0.3058  0.2808
  476TMC3    C2 7079   2.641   3.254  10.566 -0.2111 -0.1582 -0.0807
  476TMC3    C3 7080   2.640   3.390  10.553 -0.4913  0.0516  0.8158
  476TMC3    C4 7081   2.649   3.262  10.804  0.8329 -0.0559  0.1889
  476TMC3    C5 7082   2.645   3.402  10.783  0.2221  0.6409 -0.5353
  476TMC3    C6 7083   2.643   3.468  10.665  0.1274 -0.0428  0.6311
  476TMC3     C 7084   2.527   3.107  10.683  0.1507  0.3985 -0.2255
  476TMC3     O 7085   2.445   3.138  10.594 -0.2950  0.2313 -0.3386
  476TMC3     H 7086   2.641   3.193  10.476 -1.0139 -0.1391 -0.0862
  476TMC3    H1 7087   2.667   3.215  10.900  2.9041 -0.3010 -0.3195
  476TMC3    H2 7088   2.619   3.573  10.665  0.9187  0.1403 -0.0148
  476TMC3    C7 7089   2.563   3.467  10.895  0.2499 -0.1546  0.1315
  476TMC3    C8 7090   2.551   3.450  10.451 -0.1899  0.5413 -1.0286
  476TMC3    O1 7091   2.563   3.589  10.894 -0.3006  0.3596  0.3414
  476TMC3    O2 7092   2.555   3.572  10.437  0.1774  0.0656 -0.4474
  477MPD2     C 7093   4.206   0.132  11.652 -0.0131 -0.0281  0.1505
  477MPD2    C1 7094   4.128   0.145  11.765  0.4986 -0.5927 -0.1674
  477MPD2    C2 7095   4.166   0.069  11.878  1.1198  0.3173  0.2339
  477MPD2    C3 7096   4.289   4.723  11.879  0.5417  0.0874  0.3840
  477MPD2    C4 7097   4.366   4.720  11.762  0.6377  0.1038  0.1386
  477MPD2    C5 7098   4.326   0.063  11.646 -0.2813 -0.4953  0.4747
  477MPD2     H 7099   4.105   0.074  11.967  0.1622  0.7201 -0.4476
  477MPD2    H1 7100   4.471   4.691  11.760  0.8402  0.8316  0.0927
  477MPD2    H2 7101   4.179   0.184  11.561 -0.7993  0.8391  0.8863
  477MPD2    H3 7102   4.395   0.065  11.563  0.0550 -1.8053  0.7316
  477MPD2     N 7103   4.347   4.654  11.994  0.3884  0.3894  0.5814
  477MPD2    H5 7104   4.424   4.589  11.983 -1.4673 -1.6503 -0.3875
  477MPD2    N1 7105   4.019   0.235  11.762 -0.3929  0.3414  0.0332
  477MPD2    H7 7106   3.997   0.282  11.674 -0.2383  1.5185  0.6187
  478TMC3    C1 7107   3.837   0.360  11.830  0.1992  0.4456 -0.6587
  478TMC3    C2 7108   3.721   0.354  11.895  0.2511  0.4110 -0.0101
  478TMC3    C3 7109   3.629   0.452  11.860  0.5110 -0.4488  0.5074
  478TMC3    C4 7110   3.858   0.440  11.721 -0.8071 -0.5924  0.0593
  478TMC3    C5 7111   3.757   0.522  11.686  0.0386 -0.1389 -0.2504
  478TMC3    C6 7112   3.640   0.531  11.748 -0.2244 -0.0638  0.1704
  478TMC3     C 7113   3.938   0.267  11.872 -0.0617 -0.6815 -0.1453
  478TMC3     O 7114   3.950   0.231  11.989  0.1820 -0.1689  0.3368
  478TMC3     H 7115   3.709   0.282  11.975  0.4139 -0.4529 -0.7629
  478TMC3    H1 7116   3.955   0.449  11.675 -1.2720 -1.7248 -1.1640
  478TMC3    H2 7117   3.575   0.612  11.717 -1.7646 -1.0588  0.7965
  478TMC3    C7 7118   3.772   0.581  11.553 -0.0150 -0.4656  0.4601
  478TMC3    C8 7119   3.532   0.480  11.960 -0.2846 -0.0063 -0.2990
  478TMC3    O1 7120   3.881   0.610  11.515  0.9012 -0.0494 -0.2806
  478TMC3    O2 7121   3.541   0.402  12.053 -0.6136 -0.0164  0.4012
  479MPD2     C 7122   2.719   2.027  15.403  0.3970 -0.1700 -0.5485
  479MPD2    C1 7123   2.653   1.971  15.503  0.1954 -0.5817 -0.0018
  479MPD2    C2 7124   2.701   1.983  15.637 -0.2910  0.4696  0.3129
  479MPD2    C3 7125   2.824   2.055  15.661  0.6677 -0.4004  0.4420
  479MPD2    C4 7126   2.885   2.119  15.557  0.3955 -0.4871  0.3013
  479MPD2    C5 7127   2.832   2.106  15.430 -0.8099  0.8653 -0.0584
  479MPD2     H 7128   2.642   1.932  15.712 -0.6358  2.2788  1.2845
  479MPD2    H1 7129   2.980   2.171  15.570 -0.0537  0.2316  0.7041
  479MPD2    H2 7130   2.685   2.029  15.300 -0.6008  1.7034 -0.1845
  479MPD2    H3 7131   2.884   2.149  15.345  0.1777 -1.6131 -0.7315
  479MPD2     N 7132   2.881   2.067  15.788  1.0059 -0.5783 -0.0742
  479MPD2    H5 7133   2.971   2.113  15.789  1.0656 -0.7072  1.2752
  479MPD2    N1 7134   2.537   1.903  15.472 -0.8417  0.0456  0.1467
  479MPD2    H7 7135   2.512   1.905  15.373 -1.5671 -1.8492  0.2791
  480TMC3    C1 7136   2.558   1.866  16.069 -0.0886 -0.1356  0.4989
  480TMC3    C2 7137   2.455   1.952  16.041  0.0409  0.0206 -0.0527
  480TMC3    C3 7138   2.484   2.057  15.955  0.1351  0.0643  0.2298
  480TMC3    C4 7139   2.681   1.877  16.012 -0.7483  0.0411  0.1385
  480TMC3    C5 7140   2.703   1.995  15.938  0.5156  0.0932 -0.2386
  480TMC3    C6 7141   2.608   2.084  15.907  0.1451  0.7424  0.6220
  480TMC3     C 7142   2.524   1.746  16.141 -0.6369 -0.8606 -0.2879
  480TMC3     O 7143   2.604   1.683  16.202 -0.7186  0.2408 -0.0855
  480TMC3     H 7144   2.354   1.942  16.081  0.6618 -1.9952  0.9779
  480TMC3    H1 7145   2.761   1.805  16.024  0.9009  1.5312 -1.9823
  480TMC3    H2 7146   2.636   2.172  15.850 -0.9900  1.3945  1.0843
  480TMC3    C7 7147   2.841   2.028  15.912 -0.7142  0.7846  0.3043
  480TMC3    C8 7148   2.370   2.094  15.872  0.0893 -0.8505  0.1067
  480TMC3    O1 7149   2.912   2.041  16.011 -0.0323  0.0562 -0.0681
  480TMC3    O2 7150   2.265   2.049  15.910 -0.1248 -0.2195 -0.0437
  481MPD2     C 7151   4.410   2.141  14.430  1.0236  0.8684  0.6979
  481MPD2    C1 7152   4.371   2.017  14.400 -0.0665  0.4944  0.1399
  481MPD2    C2 7153   4.417   1.914  14.485  0.3160 -0.0081  0.2840
  481MPD2    C3 7154   4.473   1.937  14.612  0.0261 -0.3139 -0.1498
  481MPD2    C4 7155   4.504   2.068  14.642  0.6579 -0.9351  0.1821
  481MPD2    C5 7156   4.472   2.168  14.550 -0.0858 -0.6795 -0.1682
  481MPD2     H 7157   4.403   1.809  14.463  0.9001  0.8272 -4.2349
  481MPD2    H1 7158   4.554   2.088  14.736  0.6931 -0.2251  0.0142
  481MPD2    H2 7159   4.387   2.227  14.367 -1.2144  0.4667  0.9662
  481MPD2    H3 7160   4.491   2.272  14.572 -0.2307 -0.8268  0.6426
  481MPD2     N 7161   4.520   1.839  14.708 -1.0656  0.2887  0.2879
  481MPD2    H5 7162   4.574   1.871  14.787  3.2463 -1.4411 -1.9324
  481MPD2    N1 7163   4.307   2.000  14.275  0.1376 -0.0394 -0.5783
  481MPD2    H7 7164   4.290   2.083  14.220  2.2329  0.1662 -0.9223
  482TMC3    C1 7165   4.188   1.874  14.105  0.1401 -0.0420 -0.7872
  482TMC3    C2 7166   4.114   1.762  14.080  0.4629 -0.0727 -0.1177
  482TMC3    C3 7167   4.064   1.741  13.954  0.1901  0.3539 -0.7674
  482TMC3    C4 7168   4.222   1.969  14.010 -0.3642  0.2717  0.0210
  482TMC3    C5 7169   4.171   1.937  13.890  0.2745 -1.0398  0.0837
  482TMC3    C6 7170   4.087   1.835  13.856 -0.4281  0.4520 -0.6203
  482TMC3     C 7171   4.245   1.879  14.241 -0.1612  0.2899 -0.5653
  482TMC3     O 7172   4.225   1.787  14.319  0.1363 -0.0930 -0.3906
  482TMC3     H 7173   4.111   1.684  14.155 -0.4264 -1.5571 -1.6797
  482TMC3    H1 7174   4.292   2.048  14.035  0.3116 -0.6745  1.1332
  482TMC3    H2 7175   4.045   1.824  13.757  1.1526  0.3440 -1.2696
  482TMC3    C7 7176   4.220   2.020  13.785  0.0053  0.4098 -0.2296
  482TMC3    C8 7177   3.994   1.617  13.912  0.1370  0.2306  0.4377
  482TMC3    O1 7178   4.272   2.118  13.830 -0.3298  0.9690 -0.6868
  482TMC3    O2 7179   4.020   1.521  13.986  0.6277  0.1675 -0.1796
  483TMC3    C1 7180   2.707   1.153   1.816 -0.3732  0.4781 -0.6369
  483TMC3    C2 7181   2.708   1.175   1.684  0.0772  0.2132 -0.0550
  483TMC3    C3 7182   2.830   1.184   1.628  0.2853 -0.0815  0.4221
  483TMC3    C4 7183   2.821   1.137   1.893  0.5756 -0.0465  0.3176
  483TMC3    C5 7184   2.945   1.142   1.837  0.0002  0.1130 -0.2987
  483TMC3    C6 7185   2.947   1.175   1.704 -0.0771  0.1291  0.5194
  483TMC3     C 7186   2.581   1.146   1.894 -0.1526 -0.2007 -0.1729
  483TMC3     O 7187   2.589   1.199   2.000 -0.0932 -0.0931  0.0810
  483TMC3     H 7188   2.615   1.179   1.629 -0.8895  0.6235  1.6194
  483TMC3    H1 7189   2.809   1.105   1.996  2.4518  1.3841  0.9777
  483TMC3    H2 7190   3.039   1.202   1.653 -0.8747  0.0203 -1.0024
  483TMC3    C7 7191   3.023   1.016   1.845  0.8769  0.5387 -0.1424
  483TMC3    C8 7192   2.838   1.162   1.486  0.1972  0.3030  0.2004
  483TMC3    O1 7193   2.949   0.919   1.851  0.0766 -0.2029  0.2150
  483TMC3    O2 7194   2.733   1.158   1.428  0.4354 -0.1574  0.0263
  484MPD2     C 7195   4.636   3.799  12.617  1.0139  0.0812  0.7129
  484MPD2    C1 7196   4.694   3.675  12.611  0.0458  0.0786 -0.1518
  484MPD2    C2 7197   0.089   3.659  12.538 -0.3873 -0.8027  0.2718
  484MPD2    C3 7198   0.148   3.773  12.481 -0.8314 -0.4582  0.0663
  484MPD2    C4 7199   0.092   3.896  12.510 -0.0645  0.4326  1.4590
  484MPD2    C5 7200   4.688   3.914  12.567 -0.7327  0.1898  0.0555
  484MPD2     H 7201   0.123   3.557  12.521 -0.6084 -1.0530  1.3754
  484MPD2    H1 7202   0.143   3.983  12.471 -0.9999  0.0045 -0.6669
  484MPD2    H2 7203   4.541   3.808  12.668 -0.3276  2.0787 -2.1210
  484MPD2    H3 7204   4.648   4.013  12.583  1.8571  1.5347 -1.6475
  484MPD2     N 7205   0.273   3.767  12.416 -0.1749 -0.6146 -0.3577
  484MPD2    H5 7206   0.317   3.857  12.401  1.3944 -1.2251  0.5478
  484MPD2    N1 7207   4.628   3.560  12.660 -0.1332 -0.2804 -0.0098
  484MPD2    H7 7208   4.669   3.468  12.647 -3.5354 -1.7490 -0.2955
  485TMC3    C1 7209   0.501   3.675  12.393  0.3973  0.1837 -0.0070
  485TMC3    C2 7210   0.573   3.575  12.457 -0.0141  0.2819 -0.5336
  485TMC3    C3 7211   0.690   3.607  12.525 -0.2901  0.1379 -0.1338
  485TMC3    C4 7212   0.549   3.806  12.393  0.0585 -0.8404 -0.0574
  485TMC3    C5 7213   0.671   3.832  12.457 -0.5022  0.1190 -0.4879
  485TMC3    C6 7214   0.741   3.734  12.530  0.3883 -0.5030  0.1383
  485TMC3     C 7215   0.350   3.648  12.395  0.7047 -0.1737 -0.4789
  485TMC3     O 7216   0.316   3.530  12.404  0.3651  0.6769 -0.0072
  485TMC3     H 7217   0.523   3.480  12.472  2.4738 -1.0420 -0.6203
  485TMC3    H1 7218   0.499   3.884  12.337 -0.4559  0.1733  1.8359
  485TMC3    H2 7219   0.830   3.760  12.586 -0.8218  1.7958  1.0236
  485TMC3    C7 7220   0.757   3.916  12.374  0.6539  0.6612 -0.4283
  485TMC3    C8 7221   0.800   3.527  12.481 -0.0416 -0.1836  0.8040
  485TMC3    O1 7222   0.702   3.996  12.299  0.3525 -0.6226  0.5563
  485TMC3    O2 7223   0.897   3.596  12.449 -0.1937  0.3645  0.5146
  486MPD2     C 7224   2.602   2.581  13.139 -0.6831 -0.5352  0.4145
  486MPD2    C1 7225   2.501   2.554  13.046  0.5173  0.3544 -0.2711
  486MPD2    C2 7226   2.441   2.659  12.979  0.4359  0.5376  0.0794
  486MPD2    C3 7227   2.496   2.784  12.984 -0.1685 -0.5172  0.2723
  486MPD2    C4 7228   2.606   2.802  13.061  0.3362 -0.3614 -0.2543
  486MPD2    C5 7229   2.662   2.704  13.145 -0.2245 -0.3906 -0.5211
  486MPD2     H 7230   2.354   2.641  12.917  2.0405 -1.5134 -1.5789
  486MPD2    H1 7231   2.652   2.900  13.065  1.8936 -1.0030 -2.9931
  486MPD2    H2 7232   2.655   2.505  13.195  0.9332 -1.9576 -3.0529
  486MPD2    H3 7233   2.752   2.725  13.202 -1.9038  1.0524  1.6179
  486MPD2     N 7234   2.435   2.885  12.906  0.1774  0.0676  0.1265
  486MPD2    H5 7235   2.377   2.849  12.831  2.6555  1.3729 -2.4123
  486MPD2    N1 7236   2.453   2.420  13.045  0.7025 -0.9274 -0.0528
  486MPD2    H7 7237   2.499   2.352  13.104  0.3937 -0.1572  1.0698
  487TMC3    C1 7238   2.310   2.229  12.995  0.6123 -0.1615  0.3824
  487TMC3    C2 7239   2.201   2.170  12.924  0.1676 -0.1374  0.5283
  487TMC3    C3 7240   2.180   2.039  12.941 -0.3717  0.5102  0.6823
  487TMC3    C4 7241   2.384   2.157  13.091 -0.1645  0.1233  0.2147
  487TMC3    C5 7242   2.355   2.025  13.095  0.0511 -0.2253 -0.4085
  487TMC3    C6 7243   2.261   1.963  13.023  0.3183  0.3755  0.2365
  487TMC3     C 7244   2.342   2.375  12.981  0.2434  1.0252 -0.2715
  487TMC3     O 7245   2.271   2.435  12.901 -0.3336 -0.4011  0.2710
  487TMC3     H 7246   2.121   2.232  12.884  1.0060  0.4808 -0.1827
  487TMC3    H1 7247   2.452   2.206  13.160 -0.7650  0.5595  0.4953
  487TMC3    H2 7248   2.228   1.861  13.042 -2.2894  0.9860 -0.9706
  487TMC3    C7 7249   2.393   1.954  13.208 -0.5634 -0.4549  0.2151
  487TMC3    C8 7250   2.039   2.016  12.977  0.5687  0.2130 -0.5080
  487TMC3    O1 7251   2.433   2.014  13.309 -0.5258 -0.0117 -0.1785
  487TMC3    O2 7252   2.008   1.993  13.092 -0.0796 -0.1837 -0.2612
  488MPD2     C 7253   2.451   3.748  16.530  0.0939 -0.0601 -0.3524
  488MPD2    C1 7254   2.482   3.869  16.594 -0.2277  0.2998 -0.6007
  488MPD2    C2 7255   2.451   3.873  16.730  0.3846  0.4113 -0.3637
  488MPD2    C3 7256   2.406   3.767  16.808 -0.5185  0.4515 -0.0577
  488MPD2    C4 7257   2.370   3.653  16.739 -0.3324 -0.5770 -0.3581
  488MPD2    C5 7258   2.377   3.657  16.600 -0.2227 -0.1051 -0.2906
  488MPD2     H 7259   2.469   3.966  16.783 -0.9896  0.1869  0.4787
  488MPD2    H1 7260   2.330   3.568  16.792  0.0978 -1.1657 -0.9774
  488MPD2    H2 7261   2.453   3.729  16.423  1.0875 -0.2263 -0.3104
  488MPD2    H3 7262   2.338   3.572  16.546 -0.4509  1.2051 -2.1900
  488MPD2     N 7263   2.391   3.781  16.946  0.4867  0.1268  0.4809
  488MPD2    H5 7264   2.395   3.874  16.986 -0.6226  0.1990  0.4292
  488MPD2    N1 7265   2.535   3.981  16.524  0.2651 -0.1833 -0.3721
  488MPD2    H7 7266   2.554   4.069  16.570 -1.6904 -0.1892  0.4391
  489TMC3    C1 7267   2.297   3.741  17.159  0.2135  0.3080 -0.3307
  489TMC3    C2 7268   2.306   3.882  17.177  0.2244  0.1975 -1.2552
  489TMC3    C3 7269   2.279   3.924  17.307 -0.3578  0.3127  0.1274
  489TMC3    C4 7270   2.255   3.647  17.253  0.1228  0.2678 -0.5205
  489TMC3    C5 7271   2.235   3.697  17.376 -0.6502  0.0712  0.2655
  489TMC3    C6 7272   2.246   3.833  17.404  0.2866 -0.0118  0.3518
  489TMC3     C 7273   2.339   3.688  17.031 -0.3133 -0.3670  0.5388
  489TMC3     O 7274   2.350   3.566  17.019 -0.0939  0.4323  0.0204
  489TMC3     H 7275   2.340   3.951  17.101  2.1250 -1.5627 -2.0154
  489TMC3    H1 7276   2.253   3.541  17.231  1.0387  0.3493 -0.9871
  489TMC3    H2 7277   2.212   3.871  17.500  0.6585 -0.4036  0.6372
  489TMC3    C7 7278   2.231   3.606  17.496 -0.4332 -0.1808  0.0325
  489TMC3    C8 7279   2.305   4.072  17.327  0.0511  0.4498 -0.2376
  489TMC3    O1 7280   2.276   3.651  17.600 -0.5554  0.4236  0.1159
  489TMC3    O2 7281   2.345   4.136  17.232  0.3027  0.2766  0.2296
  490MPD2     C 7282   2.908   3.474  17.456 -0.6456 -0.2249  0.3840
  490MPD2    C1 7283   2.996   3.402  17.528 -0.5785 -0.2697 -0.1328
  490MPD2    C2 7284   3.112   3.458  17.578 -0.1464  0.0161 -0.5403
  490MPD2    C3 7285   3.143   3.586  17.555  0.5214 -0.8037 -0.2786
  490MPD2    C4 7286   3.050   3.659  17.483  0.4500  0.2446  0.4492
  490MPD2    C5 7287   2.930   3.604  17.437  0.3749  0.2111 -0.5804
  490MPD2     H 7288   3.177   3.394  17.637  0.2046  0.1246 -0.8087
  490MPD2    H1 7289   3.056   3.765  17.461  0.1717  0.0869 -0.3847
  490MPD2    H2 7290   2.810   3.433  17.432 -0.4425 -0.0917 -0.6728
  490MPD2    H3 7291   2.854   3.665  17.390 -1.2687 -1.6357 -0.3572
  490MPD2     N 7292   3.252   3.658  17.605  0.4137  0.0024 -0.4423
  490MPD2    H5 7293   3.252   3.759  17.604  1.5727  0.0377  1.7127
  490MPD2    N1 7294   2.969   3.266  17.561 -0.1797  0.4806 -0.1161
  490MPD2    H7 7295   3.029   3.236  17.637 -0.8102  0.5382  0.4089
  491TMC3    C1 7296   2.869   3.060  17.546 -0.4476  0.0886  0.9321
  491TMC3    C2 7297   2.913   3.033  17.674 -0.2135  0.8741  0.1400
  491TMC3    C3 7298   2.894   2.905   0.018 -0.5066 -0.7454  0.6615
  491TMC3    C4 7299   2.807   2.962  17.468  0.2706  0.2470  0.8407
  491TMC3    C5 7300   2.774   2.843  17.525 -0.0491  0.3182 -0.2985
  491TMC3    C6 7301   2.823   2.810  17.653  0.4193  0.3826 -0.6549
  491TMC3     C 7302   2.874   3.194  17.497  0.2504  0.3566  0.3041
  491TMC3     O 7303   2.816   3.221  17.397 -0.4960 -0.0583 -0.9616
  491TMC3     H 7304   2.963   3.100   0.045  0.8611 -0.6826  0.8688
  491TMC3    H1 7305   2.770   2.991  17.371  1.0716  1.4291  0.8878
  491TMC3    H2 7306   2.812   2.710  17.692 -0.1851  0.9622  0.6564
  491TMC3    C7 7307   2.659   2.784  17.469 -0.1222  0.0543  0.1588
  491TMC3    C8 7308   2.935   2.890   0.157  0.2549  0.6568 -0.4062
  491TMC3    O1 7309   2.630   2.793  17.350 -0.4349  0.5519  0.4711
  491TMC3    O2 7310   2.916   2.981   0.231  0.0627  0.7048  0.0163
  492MPD2     C 7311   4.061   3.618  11.782  0.7839 -0.3073  0.0765
  492MPD2    C1 7312   3.982   3.543  11.696  1.1309 -0.0342  0.3225
  492MPD2    C2 7313   3.886   3.452  11.751  0.5485  0.5600  0.1151
  492MPD2    C3 7314   3.868   3.432  11.886  0.5216  0.2451  0.6415
  492MPD2    C4 7315   3.946   3.506  11.970 -0.4900 -0.2952  0.0550
  492MPD2    C5 7316   4.040   3.597  11.919  0.0896 -0.2953  0.1479
  492MPD2     H 7317   3.819   3.408  11.678  0.3047  2.5057 -0.8327
  492MPD2    H1 7318   3.952   3.505  12.079  0.5997  0.0727 -0.0030
  492MPD2    H2 7319   4.122   3.700  11.747 -0.4563  0.8190  0.5780
  492MPD2    H3 7320   4.091   3.666  11.985  0.7475 -0.0089 -0.6620
  492MPD2     N 7321   3.778   3.341  11.942  0.2629  0.5115  0.6739
  492MPD2    H5 7322   3.775   3.324  12.042  0.0300 -2.1691  0.2150
  492MPD2    N1 7323   3.989   3.564  11.554 -0.3371 -0.5119  0.0161
  492MPD2    H7 7324   4.048   3.640  11.521  2.5583 -2.9166 -0.3886
  493TMC3    C1 7325   3.945   3.526  11.320  0.1280  1.2649  0.3868
  493TMC3    C2 7326   3.928   3.655  11.278  0.3312  0.2341  0.3991
  493TMC3    C3 7327   3.865   3.681  11.161  0.1110  0.1610  0.0169
  493TMC3    C4 7328   3.907   3.424  11.233  0.4015  0.0268  0.7970
  493TMC3    C5 7329   3.838   3.459  11.115  0.1016  0.5458 -0.5390
  493TMC3    C6 7330   3.823   3.585  11.073 -0.6034 -0.1232  0.3115
  493TMC3     C 7331   3.920   3.489  11.458  0.9749 -0.0138  0.1236
  493TMC3     O 7332   3.847   3.390  11.465 -0.1083 -0.1740  0.0982
  493TMC3     H 7333   3.950   3.732  11.351 -4.4160  1.8165  0.1577
  493TMC3    H1 7334   3.926   3.321  11.262  1.9008  0.1473  0.2741
  493TMC3    H2 7335   3.779   3.604  10.975 -2.0349  0.0751  0.9881
  493TMC3    C7 7336   3.746   3.364  11.056  0.1016  0.4485  0.1202
  493TMC3    C8 7337   3.847   3.819  11.117 -0.3070  0.1935  0.3355
  493TMC3    O1 7338   3.677   3.408  10.964 -0.1218 -0.0153 -0.0542
  493TMC3    O2 7339   3.896   3.895  11.193  0.3167 -0.2070 -0.3878
  494TMC3    C1 7340   4.079   0.754   0.754  0.1483 -0.6373 -0.6061
  494TMC3    C2 7341   4.156   0.692   0.845  0.2105 -0.3431 -0.0735
  494TMC3    C3 7342   4.202   0.564   0.826  0.1237 -0.0182 -0.7141
  494TMC3    C4 7343   4.029   0.688   0.648  0.0192 -0.3243 -0.4196
  494TMC3    C5 7344   4.057   0.556   0.637  0.7698 -0.6822  0.6127
  494TMC3    C6 7345   4.152   0.493   0.714  0.6646  0.1369  0.2283
  494TMC3     C 7346   4.031   0.887   0.779  0.3648  0.0047  0.3230
  494TMC3     O 7347   4.106   0.964   0.840 -0.1052 -0.1945  0.2975
  494TMC3     H 7348   4.165   0.740   0.942  3.2461 -0.7287 -0.1874
  494TMC3    H1 7349   3.972   0.750   0.579  1.6248  0.1422 -1.3229
  494TMC3    H2 7350   4.176   0.389   0.696 -2.0650 -0.1561 -1.5688
  494TMC3    C7 7351   4.020   0.485   0.509 -0.5931  1.3649  0.1728
  494TMC3    C8 7352   4.290   0.498   0.920 -0.6897  0.2658 -0.1555
  494TMC3    O1 7353   4.089   0.389   0.476 -0.0275 -0.6476 -0.0877
  494TMC3    O2 7354   4.338   0.394   0.886  0.1358  0.8814  0.4130
  495TMC3    C1 7355   2.699   2.213  15.002 -0.2745  0.3153 -0.0696
  495TMC3    C2 7356   2.608   2.240  14.899  0.0763  0.3465 -0.4906
  495TMC3    C3 7357   2.493   2.303  14.927 -0.0143 -0.0873 -0.5938
  495TMC3    C4 7358   2.690   2.277  15.122  0.7385 -1.3328 -0.3645
  495TMC3    C5 7359   2.574   2.350  15.149  0.6328 -0.0649  0.4123
  495TMC3    C6 7360   2.469   2.348  15.056  0.4008  0.3072 -0.0692
  495TMC3     C 7361   2.777   2.088  14.998 -0.1467 -0.0728 -0.1504
  495TMC3     O 7362   2.871   2.070  15.072  0.0965  0.3326  0.3689
  495TMC3     H 7363   2.624   2.213  14.795  0.8940 -0.3512 -0.1800
  495TMC3    H1 7364   2.755   2.247  15.203  1.2504  0.3236 -0.1661
  495TMC3    H2 7365   2.376   2.398  15.078  0.4418  0.8119 -1.0743
  495TMC3    C7 7366   2.534   2.340  15.293 -0.0935  0.6885 -0.1975
  495TMC3    C8 7367   2.376   2.311  14.840  0.3896 -0.1172  0.1675
  495TMC3    O1 7368   2.621   2.363  15.380 -0.8696  0.1803  0.2327
  495TMC3    O2 7369   2.274   2.347  14.893  0.1251  0.7010  0.3739
  496MPD2     C 7370   4.205   2.183  15.459  0.1430 -0.5485  0.5416
  496MPD2    C1 7371   4.285   2.218  15.561 -0.7854 -0.4323 -0.0471
  496MPD2    C2 7372   4.231   2.251  15.684  0.6647 -0.0483  0.2306
  496MPD2    C3 7373   4.099   2.222  15.714 -0.4894  0.5770  0.0590
  496MPD2    C4 7374   4.018   2.176  15.613 -0.5661  0.4938  0.2331
  496MPD2    C5 7375   4.073   2.153  15.485 -0.9637  0.2650  0.7863
  496MPD2     H 7376   4.299   2.292  15.758 -0.6070 -1.6387  2.2514
  496MPD2    H1 7377   3.915   2.147  15.630 -0.4542  0.9610  1.6496
  496MPD2    H2 7378   4.249   2.196  15.361 -1.7505  2.3837  0.0660
  496MPD2    H3 7379   4.014   2.125  15.398  0.2852 -0.7576  0.2606
  496MPD2     N 7380   4.037   2.242  15.842  0.0403 -0.0928 -0.3984
  496MPD2    H5 7381   3.941   2.213  15.859 -0.6147  0.0369 -3.8235
  496MPD2    N1 7382   4.421   2.224  15.531 -1.2317  0.5688 -0.2412
  496MPD2    H7 7383   4.441   2.216  15.432  0.3841 -0.8288  0.2149
  497TMC3    C1 7384   4.051   2.280  16.071  0.5146  0.5796 -0.3501
  497TMC3    C2 7385   4.019   2.145  16.093 -0.4007  0.9855  0.1398
  497TMC3    C3 7386   4.027   2.097  16.214 -0.2162 -0.2317  0.0656
  497TMC3    C4 7387   4.090   2.362  16.176 -0.4357 -0.1087  0.2477
  497TMC3    C5 7388   4.082   2.307  16.299 -0.4359 -0.1433  0.6567
  497TMC3    C6 7389   4.058   2.174  16.321 -0.2784 -0.2640  0.0619
  497TMC3     C 7390   4.105   2.307  15.943  0.1339 -0.5126  0.5482
  497TMC3     O 7391   4.214   2.361  15.947  0.3982  0.9262  0.6119
  497TMC3     H 7392   4.006   2.083  16.006  1.5906 -2.2364  2.1561
  497TMC3    H1 7393   4.129   2.462  16.165 -1.2403  0.2415  0.6141
  497TMC3    H2 7394   4.047   2.133  16.421  0.3180 -1.7646 -0.4756
  497TMC3    C7 7395   4.128   2.376  16.408 -0.3532  0.1432  0.0141
  497TMC3    C8 7396   4.028   1.948  16.226 -0.4132 -0.2039  0.5107
  497TMC3    O1 7397   4.090   2.492  16.427  0.0208 -0.2434 -0.0853
  497TMC3    O2 7398   4.013   1.883  16.124 -0.4598 -0.2815  0.2575
  498MPD2     C 7399   2.028   2.899   9.961 -0.1930  0.0942  0.2982
  498MPD2    C1 7400   1.960   3.016   9.967 -0.3883  0.6330  0.5656
  498MPD2    C2 7401   1.825   3.016   9.982 -0.6629  0.5328 -0.6205
  498MPD2    C3 7402   1.762   2.897  10.001 -0.2114 -0.6176 -0.5184
  498MPD2    C4 7403   1.826   2.773   9.989 -0.0993  0.2365 -0.8483
  498MPD2    C5 7404   1.962   2.777   9.966 -0.1748  0.1629 -0.1054
  498MPD2     H 7405   1.765   3.106   9.976 -0.0982  0.8023 -2.1327
  498MPD2    H1 7406   1.790   2.671   9.980 -0.4674  0.0530  2.8894
  498MPD2    H2 7407   2.136   2.894   9.964 -0.1985 -1.3950 -1.8787
  498MPD2    H3 7408   2.018   2.684   9.960  1.7142  1.1737  1.8381
  498MPD2     N 7409   1.624   2.909  10.020  0.0027  0.0877 -0.1460
  498MPD2    H5 7410   1.602   3.008  10.020 -2.2095 -0.4080  2.1362
  498MPD2    N1 7411   2.032   3.136   9.946 -0.8022 -0.3487  0.2893
  498MPD2    H7 7412   1.977   3.220   9.963 -0.4522 -0.0366 -0.1456
  499TMC3    C1 7413   2.202   3.290   9.940  0.2349  0.0219 -0.4740
  499TMC3    C2 7414   2.315   3.323  10.005  0.6059  0.3512  0.4145
  499TMC3    C3 7415   2.364   3.452  10.008 -0.1341  0.6971  0.7503
  499TMC3    C4 7416   2.124   3.389   9.887 -0.1524  0.2753  0.2854
  499TMC3    C5 7417   2.164   3.519   9.894 -0.0733 -0.1462 -0.4349
  499TMC3    C6 7418   2.291   3.550   9.947 -0.6558  0.4909  0.3952
  499TMC3     C 7419   2.172   3.155   9.940  0.1940  0.1239  0.0674
  499TMC3     O 7420   2.263   3.079   9.929  0.1835 -0.3372  0.0099
  499TMC3     H 7421   2.374   3.244  10.050  0.2613 -0.1481 -0.0213
  499TMC3    H1 7422   2.033   3.351   9.840 -1.0160  1.1841  1.2150
  499TMC3    H2 7423   2.319   3.653   9.966  0.7284 -0.0535  1.3466
  499TMC3    C7 7424   2.104   3.622   9.814  0.0360 -0.3842 -0.1729
  499TMC3    C8 7425   2.495   3.492  10.058 -0.3701  0.2067 -0.9168
  499TMC3    O1 7426   2.146   3.734   9.825  0.0933  0.1905  0.2840
  499TMC3    O2 7427   2.521   3.611  10.066  0.4352 -0.4792  0.0820
  500MPD2     C 7428   2.815   3.939  10.898  0.1675 -1.0894  0.0152
  500MPD2    C1 7429   2.828   4.069  10.857 -0.1845  0.1712 -0.0249
  500MPD2    C2 7430   2.771   4.101  10.731 -0.6295  0.4834 -0.5685
  500MPD2    C3 7431   2.704   4.003  10.657 -0.2654 -0.3101 -0.3551
  500MPD2    C4 7432   2.692   3.878  10.707 -0.0412 -0.2743 -0.0981
  500MPD2    C5 7433   2.750   3.844  10.827  0.1378  0.0201 -0.0967
  500MPD2     H 7434   2.792   4.203  10.701 -0.2471  0.0385 -1.7868
  500MPD2    H1 7435   2.638   3.801  10.654 -0.6059  0.1753 -0.1831
  500MPD2    H2 7436   2.859   3.904  10.990  2.6721 -0.8154 -1.0808
  500MPD2    H3 7437   2.743   3.740  10.858 -0.3493  0.0966  0.0473
  500MPD2     N 7438   2.636   4.043  10.538  1.1424 -0.1225 -0.3176
  500MPD2    H5 7439   2.598   3.967  10.483  0.9183 -0.1044 -0.1901
  500MPD2    N1 7440   2.891   4.166  10.937  0.0411  0.0039 -0.0796
  500MPD2    H7 7441   2.899   4.254  10.889  1.6978  0.0017  0.1848
  501TMC3    C1 7442   2.975   4.273  11.138  0.1456  0.1140 -0.0813
  501TMC3    C2 7443   2.942   4.402  11.086 -0.0233 -0.1151  0.6926
  501TMC3    C3 7444   2.996   4.517  11.147 -0.2055  0.4356  0.7948
  501TMC3    C4 7445   3.056   4.262  11.252  0.3626  0.6564  0.1675
  501TMC3    C5 7446   3.095   4.380  11.306 -0.4687  0.2343  0.2773
  501TMC3    C6 7447   3.081   4.504  11.253 -0.1772  0.0546 -0.1258
  501TMC3     C 7448   2.925   4.153  11.071 -0.0347 -0.6450  0.3414
  501TMC3     O 7449   2.922   4.060  11.148  0.0352 -0.6945  0.1711
  501TMC3     H 7450   2.866   4.419  11.011  0.7401 -0.1485 -0.0837
  501TMC3    H1 7451   3.067   4.167  11.303  0.4081  1.4745  1.6605
  501TMC3    H2 7452   3.120   4.588  11.310  0.2834  0.0342 -0.4130
  501TMC3    C7 7453   3.186   4.371  11.417  0.6645  0.2492 -0.0067
  501TMC3    C8 7454   2.959   4.652  11.119 -0.0562  0.3305  0.3816
  501TMC3    O1 7455   3.246   4.264  11.427 -0.4010  0.2525  0.0434
  501TMC3    O2 7456   3.041   0.007  11.159  0.2118  0.5395  0.7147
  502TMC3    C1 7457   1.792   2.848  15.178  0.1105  0.1990 -0.2505
  502TMC3    C2 7458   1.795   2.986  15.150  0.0714 -0.0445  0.1367
  502TMC3    C3 7459   1.689   3.070  15.181  0.3028 -0.1662 -0.1392
  502TMC3    C4 7460   1.667   2.802  15.218  0.3575  0.4117 -0.3972
  502TMC3    C5 7461   1.566   2.887  15.243  0.4981 -0.2763  0.7643
  502TMC3    C6 7462   1.572   3.026  15.227  0.1796  0.4362 -0.3100
  502TMC3     C 7463   1.912   2.805  15.251  0.2498  0.2070  0.3603
  502TMC3     O 7464   2.021   2.822  15.198 -0.2285 -0.2316  0.3467
  502TMC3     H 7465   1.894   3.027  15.130 -0.2100 -0.6715 -2.6076
  502TMC3    H1 7466   1.649   2.697  15.235 -1.6121  1.0269  1.2780
  502TMC3    H2 7467   1.483   3.086  15.244  1.2274  2.5733 -2.4645
  502TMC3    C7 7468   1.493   2.842  15.349  0.1132 -0.1914 -0.1971
  502TMC3    C8 7469   1.712   3.208  15.162 -1.0130  0.3492  1.0198
  502TMC3    O1 7470   1.548   2.765  15.430 -0.0556 -0.0360  0.6681
  502TMC3    O2 7471   1.795   3.232  15.075  0.6290  0.1866  0.0457
  503MPD2     C 7472   4.601   3.814  17.279 -0.4868 -0.5082 -0.0964
  503MPD2    C1 7473   4.515   3.807  17.393 -0.0324 -0.1778 -0.3510
  503MPD2    C2 7474   4.511   3.688  17.464  0.1653 -0.0294 -0.3489
  503MPD2    C3 7475   4.570   3.574  17.406  0.5072  0.3159 -0.1428
  503MPD2    C4 7476   4.633   3.583  17.289  0.0779  0.9501 -0.5675
  503MPD2    C5 7477   4.660   3.703  17.230  0.2945 -0.2873 -0.0994
  503MPD2     H 7478   4.467   3.689  17.562 -0.3490  3.1511 -0.6112
  503MPD2    H1 7479   4.684   3.506  17.232  1.0875  1.2299 -0.0618
  503MPD2    H2 7480   4.614   3.913  17.236 -2.7974  0.2426  0.9100
  503MPD2    H3 7481   4.712   3.692  17.136 -0.3894  0.4928 -0.5672
  503MPD2     N 7482   4.559   3.449  17.475  0.1328  0.0542  0.2331
  503MPD2    H5 7483   4.508   3.449  17.563 -0.8067  0.8292 -0.3098
  503MPD2    N1 7484   4.437   3.911  17.438  0.3781  0.8138  0.4002
  503MPD2    H7 7485   4.390   3.895  17.526 -0.5957  0.0688 -0.2576
  504TMC3    C1 7486   4.566   3.215  17.514  0.2482  0.5223 -0.5679
  504TMC3    C2 7487   4.569   3.241  17.646 -0.2755 -0.3391  0.8873
  504TMC3    C3 7488   4.565   3.132   0.030  0.0428  0.1335  0.7196
  504TMC3    C4 7489   4.554   3.089  17.458 -0.9144  0.2648 -0.6400
  504TMC3    C5 7490   4.546   2.985  17.543  0.0438 -0.6171  0.1078
  504TMC3    C6 7491   4.536   3.006  17.682  0.6600  0.1037  0.7024
  504TMC3     C 7492   4.584   3.326  17.419 -0.0556  0.0353 -0.3730
  504TMC3     O 7493   4.628   3.285  17.310  0.5657  0.3479  0.0689
  504TMC3     H 7494   4.589   3.341  17.682 -0.0974 -0.4551  1.1060
  504TMC3    H1 7495   4.553   3.076  17.350  1.5022 -3.7284 -0.1727
  504TMC3    H2 7496   4.538   2.925   0.057 -0.5470  0.2116  0.8501
  504TMC3    C7 7497   4.577   2.852  17.488 -0.2476 -0.0993 -0.1573
  504TMC3    C8 7498   4.544   3.161   0.171  0.3578 -0.0190 -0.8163
  504TMC3    O1 7499   4.620   2.854  17.372 -0.0044  0.0783  0.0231
  504TMC3    O2 7500   4.552   3.060   0.240  0.0989 -0.8280 -0.3471
  505MPD2     C 7501   0.518   3.272  10.132  0.2536  0.0708 -0.0774
  505MPD2    C1 7502   0.460   3.270  10.259  0.1902 -0.0204 -0.7198
  505MPD2    C2 7503   0.498   3.362  10.346  0.4016  0.2533  0.2644
  505MPD2    C3 7504   0.598   3.457  10.324  0.3822 -0.2868  0.2879
  505MPD2    C4 7505   0.658   3.455  10.199 -0.6987 -0.0156 -0.0566
  505MPD2    C5 7506   0.617   3.360  10.110  0.2762  0.1718 -0.3985
  505MPD2     H 7507   0.462   3.368  10.448 -0.4624 -2.5343  0.1157
  505MPD2    H1 7508   0.740   3.518  10.168 -0.1293 -0.2100  1.0442
  505MPD2    H2 7509   0.504   3.198  10.054  0.5300  0.5179 -0.5550
  505MPD2    H3 7510   0.666   3.350  10.013  1.0485  2.8036 -0.2804
  505MPD2     N 7511   0.650   3.542  10.425  0.0627  0.0451 -0.1972
  505MPD2    H5 7512   0.731   3.599  10.403  0.3494  1.1980  3.7338
  505MPD2    N1 7513   0.364   3.166  10.287  0.0399 -0.5499 -0.1199
  505MPD2    H7 7514   0.341   3.102  10.213 -3.3912 -0.9359  1.2883
  506TMC3    C1 7515   0.224   3.018  10.402 -0.5931 -0.3415 -0.5409
  506TMC3    C2 7516   0.302   2.907  10.360 -0.4426  0.8939  0.7447
  506TMC3    C3 7517   0.312   2.793  10.430 -0.8587 -1.1365  0.2724
  506TMC3    C4 7518   0.161   3.003  10.520  0.1489  0.2215 -0.7892
  506TMC3    C5 7519   0.170   2.889  10.589 -0.0902  0.2583 -0.2770
  506TMC3    C6 7520   0.248   2.786  10.549  0.3749  0.2076 -0.2564
  506TMC3     C 7521   0.291   3.139  10.403  0.3030 -0.0011  0.6754
  506TMC3     O 7522   0.305   3.194  10.508  0.3968 -0.3843 -0.4303
  506TMC3     H 7523   0.353   2.910  10.264 -0.0046 -0.3265  0.9448
  506TMC3    H1 7524   0.104   3.086  10.559 -1.4006 -2.5147  2.8393
  506TMC3    H2 7525   0.254   2.706  10.622 -0.6455  0.7052  0.3677
  506TMC3    C7 7526   0.180   2.908  10.729  0.0123 -0.0593 -1.0654
  506TMC3    C8 7527   0.411   2.689  10.394  0.5194 -0.5953 -0.5599
  506TMC3    O1 7528   0.139   2.824  10.808 -0.8276  0.1355 -0.1747
  506TMC3    O2 7529   0.416   2.590  10.461  0.2631 -0.5474 -0.4883
  507TMC3    C1 7530   0.472   3.241  14.485 -0.1447  0.1356 -0.2470
  507TMC3    C2 7531   0.562   3.327  14.425 -0.4433  0.1003  0.1001
  507TMC3    C3 7532   0.650   3.397  14.499 -0.7517  0.2197 -0.6428
  507TMC3    C4 7533   0.484   3.219  14.617 -0.0803 -0.7758  0.5973
  507TMC3    C5 7534   0.567   3.298  14.694 -0.1419 -0.4983  0.1278
  507TMC3    C6 7535   0.649   3.389  14.635 -0.3899  0.4822  0.7969
  507TMC3     C 7536   0.332   3.274  14.464 -0.0842 -0.2112 -0.9464
  507TMC3     O 7537   0.261   3.241  14.556 -0.3547 -0.7037  0.4756
  507TMC3     H 7538   0.541   3.349  14.321  2.6594  0.6989 -0.3886
  507TMC3    H1 7539   0.421   3.147  14.667 -0.5486 -1.3466 -0.8267
  507TMC3    H2 7540   0.709   3.449  14.702 -0.5849 -0.7664  2.0843
  507TMC3    C7 7541   0.522   3.322  14.827  0.2399 -0.5021 -0.2358
  507TMC3    C8 7542   0.672   3.533  14.459  0.7563 -0.2430 -1.1752
  507TMC3    O1 7543   0.523   3.241  14.913 -0.3033  0.3776 -0.2124
  507TMC3    O2 7544   0.584   3.583  14.395  0.2777  0.9007  0.1536
  508MPD2     C 7545   1.217   0.564  16.329 -0.2810  0.1580  0.3269
  508MPD2    C1 7546   1.325   0.642  16.366  0.6529  0.6887  0.0788
  508MPD2    C2 7547   1.372   0.733  16.272  0.0098 -0.4573 -0.4994
  508MPD2    C3 7548   1.307   0.758  16.154 -0.2440 -0.7180  0.6485
  508MPD2    C4 7549   1.187   0.689  16.132  0.0151 -0.5023  0.3631
  508MPD2    C5 7550   1.149   0.589  16.214 -0.0888  0.3925  0.2324
  508MPD2     H 7551   1.450   0.801  16.306  0.7926  0.3103 -3.8477
  508MPD2    H1 7552   1.121   0.711  16.049  1.9498  0.8433 -0.8188
  508MPD2    H2 7553   1.183   0.485  16.395  1.4929 -0.6889  0.2356
  508MPD2    H3 7554   1.057   0.533  16.207  0.6200 -0.8893  1.1585
  508MPD2     N 7555   1.341   0.867  16.071  0.9733  0.4131 -0.2731
  508MPD2    H5 7556   1.405   0.935  16.110  0.3354  1.1605 -0.5295
  508MPD2    N1 7557   1.405   0.624  16.481  0.0609  0.2817 -0.1348
  508MPD2    H7 7558   1.499   0.663  16.482 -0.4966  1.6676 -1.0197
  509TMC3    C1 7559   1.224   1.227  15.905  0.1811 -0.8094  0.9556
  509TMC3    C2 7560   1.343   1.289  15.908  0.0161 -0.2288  0.4953
  509TMC3    C3 7561   1.461   1.213  15.917 -0.0867 -0.1317  0.4517
  509TMC3    C4 7562   1.212   1.094  15.899  0.2983  0.4009 -0.9566
  509TMC3    C5 7563   1.326   1.025  15.915 -0.1734 -0.4588 -0.4692
  509TMC3    C6 7564   1.448   1.078  15.928 -0.5440 -0.7753  0.0926
  509TMC3     C 7565   1.106   1.310  15.891 -0.5935 -0.5343 -0.1157
  509TMC3     O 7566   1.003   1.270  15.950  0.1484 -0.3102  0.1746
  509TMC3     H 7567   1.348   1.397  15.912  0.7569 -0.1817 -1.7381
  509TMC3    H1 7568   1.112   1.051  15.898  0.4723  0.0120 -2.1227
  509TMC3    H2 7569   1.538   1.016  15.925  0.5126  0.9022 -2.1959
  509TMC3    C7 7570   1.289   0.889  15.950  0.2507  0.0683  0.9519
  509TMC3    C8 7571   1.590   1.277  15.898  0.1105 -0.6448  0.0601
  509TMC3    O1 7572   1.220   0.818  15.879  0.4092 -0.2054  0.1987
  509TMC3    O2 7573   1.685   1.220  15.956 -0.6149  0.5554 -0.4866
  510MPD2     C 7574   3.752   2.919  14.236  0.2930  0.8558  0.0444
  510MPD2    C1 7575   3.806   2.874  14.356  0.7779 -0.5533  0.5288
  510MPD2    C2 7576   3.946   2.865  14.367 -0.7047  0.0553 -0.0340
  510MPD2    C3 7577   4.030   2.882  14.263  0.8571  0.0707  0.5968
  510MPD2    C4 7578   3.976   2.944  14.151  0.1001 -0.2162  1.1321
  510MPD2    C5 7579   3.841   2.955  14.133  0.3354  0.1552 -0.5528
  510MPD2     H 7580   3.987   2.810  14.452 -1.4091 -2.1495 -1.1112
  510MPD2    H1 7581   4.035   2.968  14.063  0.7009  0.7141  1.7835
  510MPD2    H2 7582   3.647   2.944  14.231 -0.3797 -1.8339  0.8725
  510MPD2    H3 7583   3.804   2.992  14.039  0.1246 -0.6166 -0.7752
  510MPD2     N 7584   4.166   2.840  14.277  0.2896  0.6029 -0.2070
  510MPD2    H5 7585   4.191   2.789  14.361  0.1471  1.4091  0.3199
  510MPD2    N1 7586   3.714   2.851  14.460  0.9516 -1.1402  0.4968
  510MPD2    H7 7587   3.616   2.866  14.438  0.9920  1.8144  2.2491
  511TMC3    C1 7588   3.675   2.769  14.665  0.1475  0.0274  0.3724
  511TMC3    C2 7589   3.698   2.783  14.801  0.9234  0.3592  0.3972
  511TMC3    C3 7590   3.681   2.672  14.889  0.0602  0.5008  0.2880
  511TMC3    C4 7591   3.659   2.648  14.611 -0.2274  0.7707 -0.4093
  511TMC3    C5 7592   3.653   2.531  14.691 -0.6876  0.1601 -0.5490
  511TMC3    C6 7593   3.651   2.549  14.831  0.4569 -0.2315 -0.0794
  511TMC3     C 7594   3.754   2.853  14.585  0.7288 -0.2308 -0.5786
  511TMC3     O 7595   3.856   2.894  14.636  0.4211 -0.8007  0.6317
  511TMC3     H 7596   3.716   2.880  14.847 -2.5574  0.2756  1.9172
  511TMC3    H1 7597   3.648   2.620  14.507 -0.9784 -0.8011  0.0838
  511TMC3    H2 7598   3.606   2.476  14.896 -1.4737  0.7595 -0.3147
  511TMC3    C7 7599   3.625   2.403  14.637  0.4807 -0.4000 -0.1779
  511TMC3    C8 7600   3.660   2.686  15.027  0.0171 -0.8477 -0.2832
  511TMC3    O1 7601   3.593   2.390  14.522  0.6222  0.0437 -0.1404
  511TMC3    O2 7602   3.611   2.785  15.075 -0.1022  0.0400  0.5587
  512TMC3    C1 7603   2.783   1.819  13.020 -0.7278  0.2625 -0.1645
  512TMC3    C2 7604   2.796   1.803  13.159  0.2227 -0.1885  0.2533
  512TMC3    C3 7605   2.895   1.724  13.209  1.3187 -0.1022 -0.1280
  512TMC3    C4 7606   2.870   1.759  12.936  0.7365  0.5009  0.5101
  512TMC3    C5 7607   2.966   1.675  12.984 -0.0202  0.4506 -0.3695
  512TMC3    C6 7608   2.980   1.650  13.120 -0.5948 -0.1170 -0.3618
  512TMC3     C 7609   2.678   1.902  12.966 -0.1987 -0.2738  0.9281
  512TMC3     O 7610   2.632   1.991  13.039  0.1274  0.1331  0.1757
  512TMC3     H 7611   2.724   1.854  13.222 -0.6678 -2.8810  1.4208
  512TMC3    H1 7612   2.877   1.792  12.833  2.1187  0.0616  0.4667
  512TMC3    H2 7613   3.053   1.580  13.158  0.6474  0.3319 -1.8945
  512TMC3    C7 7614   3.084   1.661  12.904  0.0198  0.7896 -0.0806
  512TMC3    C8 7615   2.940   1.723  13.345  0.7488  0.1358 -0.0614
  512TMC3    O1 7616   3.109   1.755  12.830 -0.2922 -0.1323 -0.1416
  512TMC3    O2 7617   3.003   1.627  13.377  0.2065  0.3682 -0.2252
  513MPD2     C 7618   4.467   1.511  12.918  1.0849  0.2870 -0.2067
  513MPD2    C1 7619   4.548   1.621  12.912 -0.0781 -0.2984 -0.1626
  513MPD2    C2 7620   4.556   1.713  13.012 -0.0211 -0.1627  1.1585
  513MPD2    C3 7621   4.481   1.695  13.128 -0.2104 -0.9397  0.0645
  513MPD2    C4 7622   4.412   1.578  13.140 -0.0933  0.4121 -0.7568
  513MPD2    C5 7623   4.403   1.498  13.037 -0.7047  0.2133  0.0868
  513MPD2     H 7624   4.621   1.800  13.005 -0.1731  0.0646  2.4253
  513MPD2    H1 7625   4.359   1.554  13.231 -1.1899 -1.4843 -1.9047
  513MPD2    H2 7626   4.465   1.437  12.838  2.2808  0.8445 -0.7565
  513MPD2    H3 7627   4.334   1.415  13.051 -1.2906  0.7041  0.1289
  513MPD2     N 7628   4.495   1.789  13.234  0.5203 -0.0465  0.1057
  513MPD2    H5 7629   4.532   1.881  13.211 -0.0050  0.1077 -0.1240
  513MPD2    N1 7630   4.627   1.645  12.792  0.8442 -0.4417  0.1495
  513MPD2    H7 7631   4.680   1.731  12.792  1.6621 -0.9439 -1.0917
  514TMC3    C1 7632   0.004   1.597  12.590  0.5053  0.3790 -0.2338
  514TMC3    C2 7633   0.110   1.519  12.566 -0.0603  0.0725 -0.3440
  514TMC3    C3 7634   0.228   1.586  12.560  0.6609  0.0866 -0.5872
  514TMC3    C4 7635   0.007   1.736  12.593 -0.1699  0.2675 -0.1900
  514TMC3    C5 7636   0.126   1.801  12.609  0.3344  0.3305 -0.6501
  514TMC3    C6 7637   0.243   1.721  12.593  0.0966  0.0400 -0.1408
  514TMC3     C 7638   4.647   1.549  12.697 -0.4140  0.1964 -0.2974
  514TMC3     O 7639   4.632   1.430  12.706 -0.7696 -0.2809 -0.5399
  514TMC3     H 7640   0.104   1.411  12.567 -0.0395  0.0565 -1.7719
  514TMC3    H1 7641   4.636   1.789  12.598  0.1209  0.8558 -0.8217
  514TMC3    H2 7642   0.335   1.757  12.637 -0.2601  2.4978 -1.4079
  514TMC3    C7 7643   0.126   1.870  12.732 -0.7680 -0.2312 -0.7099
  514TMC3    C8 7644   0.340   1.517  12.499  0.5109 -0.1121 -1.1092
  514TMC3    O1 7645   0.027   1.862  12.802  0.3812 -0.1903  0.3425
  514TMC3    O2 7646   0.335   1.397  12.477 -0.3097  0.8887  0.2409
  515MPD2     C 7647   3.119   3.599  15.151  0.7744  0.8066  0.3008
  515MPD2    C1 7648   3.126   3.653  15.025  0.5477 -0.0309  0.2907
  515MPD2    C2 7649   3.179   3.779  14.995  0.2127  0.9585 -1.0149
  515MPD2    C3 7650   3.222   3.855  15.110  1.0029  0.1598 -0.4463
  515MPD2    C4 7651   3.198   3.804  15.235 -0.6171  0.1549  0.9026
  515MPD2    C5 7652   3.159   3.679  15.259  0.3887  0.9573  0.3650
  515MPD2     H 7653   3.184   3.812  14.892 -2.5047  3.5850 -0.3185
  515MPD2    H1 7654   3.230   3.863  15.320  0.9347  0.4656  0.1008
  515MPD2    H2 7655   3.076   3.503  15.177  1.0759  1.1077  1.9228
  515MPD2    H3 7656   3.144   3.645  15.361 -1.1161  1.9954  0.4981
  515MPD2     N 7657   3.271   3.986  15.101  0.3063 -0.2896 -0.2217
  515MPD2    H5 7658   3.297   4.022  15.192 -0.0167 -1.5605  0.3690
  515MPD2    N1 7659   3.088   3.571  14.909  1.0533  0.1117  0.7053
  515MPD2    H7 7660   3.083   3.609  14.815 -0.0863  0.9871  1.1256
  516TMC3    C1 7661   3.016   3.366  14.805 -0.2014  0.4865  0.1992
  516TMC3    C2 7662   2.923   3.439  14.735 -0.2575  0.3390 -0.1230
  516TMC3    C3 7663   2.801   3.387  14.704 -0.6230 -0.5322 -1.0316
  516TMC3    C4 7664   2.986   3.232  14.830 -1.1012  0.0265 -0.0694
  516TMC3    C5 7665   2.870   3.179  14.793 -0.0898  0.5680  0.5626
  516TMC3    C6 7666   2.765   3.251  14.736  0.5796 -0.7111  0.6241
  516TMC3     C 7667   3.076   3.435  14.918  0.1108  0.4426  0.1198
  516TMC3     O 7668   3.085   3.356  15.008 -0.2788  0.3068 -0.1011
  516TMC3     H 7669   2.920   3.547  14.735 -0.3686  0.3423 -2.5202
  516TMC3    H1 7670   3.055   3.179  14.894  0.2865  0.1553 -1.4487
  516TMC3    H2 7671   2.670   3.209  14.706  0.7863  0.8341 -2.1735
  516TMC3    C7 7672   2.834   3.064  14.878  0.0520  0.1730  0.6200
  516TMC3    C8 7673   2.715   3.446  14.601 -0.6088 -0.6053 -0.3753
  516TMC3    O1 7674   2.868   3.062  14.996 -0.6092  0.4913  1.3931
  516TMC3    O2 7675   2.609   3.393  14.575 -0.1856  0.0846  0.3192
  517MPD2     C 7676   2.454   0.613  17.685  0.4417  0.3744 -0.6373
  517MPD2    C1 7677   2.566   0.567   0.049 -0.9284 -0.0088  0.2135
  517MPD2    C2 7678   2.604   0.632   0.163 -0.0352 -0.7914 -0.1474
  517MPD2    C3 7679   2.535   0.741   0.218 -0.6561  0.0579  0.3692
  517MPD2    C4 7680   2.424   0.784   0.149 -0.2091  0.0121 -0.3356
  517MPD2    C5 7681   2.383   0.723   0.025 -0.5225 -0.0885 -0.7627
  517MPD2     H 7682   2.692   0.588   0.209 -0.4948 -0.3674  1.1298
  517MPD2    H1 7683   2.361   0.865   0.182  0.8242  0.2854  0.9621
  517MPD2    H2 7684   2.419   0.571  17.592 -0.5230  1.9468 -0.9835
  517MPD2    H3 7685   2.297   0.761  17.670 -1.4383 -2.1895 -0.7552
  517MPD2     N 7686   2.560   0.815   0.337  0.3689  0.0882 -0.9105
  517MPD2    H5 7687   2.496   0.888   0.364 -0.1490 -0.9506  0.6659
  517MPD2    N1 7688   2.644   0.466  17.693 -0.2853 -0.4474  0.8520
  517MPD2    H7 7689   2.726   0.435   0.047  0.7919  0.4855 -0.3076
  518TMC3    C1 7690   2.739   0.325  17.532  1.1118  0.0202 -0.3563
  518TMC3    C2 7691   2.751   0.212  17.613 -0.7313 -0.4841 -0.5252
  518TMC3    C3 7692   2.852   0.124  17.582 -0.0354  0.0623 -0.1827
  518TMC3    C4 7693   2.821   0.352  17.426  0.7520 -0.2748  0.4121
  518TMC3    C5 7694   2.911   0.256  17.402  0.4505 -0.7101 -0.0046
  518TMC3    C6 7695   2.938   0.146  17.479 -0.7491 -0.7646  0.1849
  518TMC3     C 7696   2.630   0.414  17.567 -0.3607 -0.3257  0.1916
  518TMC3     O 7697   2.560   0.452  17.474 -0.0939 -0.2247  0.2882
  518TMC3     H 7698   2.680   0.200  17.694 -1.3052 -3.5032 -1.4718
  518TMC3    H1 7699   2.788   0.421  17.349 -0.4859  0.1552  1.3189
  518TMC3    H2 7700   2.983   0.059  17.434  0.7161  0.1835 -0.1764
  518TMC3    C7 7701   2.998   0.280  17.291 -0.3162 -0.2044 -0.5382
  518TMC3    C8 7702   2.856   4.709  17.633 -0.2066 -0.0959 -0.4015
  518TMC3    O1 7703   2.970   0.372  17.215  0.3607 -0.2134 -0.1194
  518TMC3    O2 7704   2.944   4.634  17.597 -0.7849  0.2345  0.9176
  519MPD2     C 7705   4.225   3.773  14.695 -0.1309  0.0253  0.3391
  519MPD2    C1 7706   4.130   3.722  14.603 -0.7104  0.1880 -0.4433
  519MPD2    C2 7707   4.108   3.585  14.595  0.2279  0.2630 -0.5243
  519MPD2    C3 7708   4.196   3.502  14.668  0.3189  0.6454  0.2730
  519MPD2    C4 7709   4.294   3.559  14.739  1.0798  0.4932 -0.6932
  519MPD2    C5 7710   4.318   3.691  14.749 -0.1741  0.1520  0.5396
  519MPD2     H 7711   4.051   3.549  14.510  0.0472 -1.0003  0.1225
  519MPD2    H1 7712   4.370   3.492  14.778 -0.8148 -1.7682 -0.8849
  519MPD2    H2 7713   4.234   3.881  14.702 -3.1492  0.2097  1.0466
  519MPD2    H3 7714   4.394   3.724  14.820 -0.5777 -0.6035  1.3303
  519MPD2     N 7715   4.202   3.365  14.636 -0.0861 -0.2747 -0.1109
  519MPD2    H5 7716   4.292   3.320  14.647 -0.2634 -0.2882  1.2155
  519MPD2    N1 7717   4.066   3.798  14.505  0.2661  0.1910 -0.1610
  519MPD2    H7 7718   3.987   3.756  14.459 -0.2297  1.3936 -0.4224
  520TMC3    C1 7719   4.171   3.199  14.473  0.4764 -0.8457  0.1710
  520TMC3    C2 7720   4.126   3.217  14.342 -0.4640 -0.1356 -0.1765
  520TMC3    C3 7721   4.215   3.205  14.236  0.4366  0.0135  0.3472
  520TMC3    C4 7722   4.300   3.171  14.485 -0.4859 -0.1115  0.4372
  520TMC3    C5 7723   4.395   3.156  14.386  0.4346 -0.4439  0.4622
  520TMC3    C6 7724   4.351   3.178  14.262  1.4552 -0.1154 -0.2060
  520TMC3     C 7725   4.108   3.300  14.554 -0.3375 -0.6851 -0.0041
  520TMC3     O 7726   3.985   3.314  14.548 -0.1436  0.1909 -0.4727
  520TMC3     H 7727   4.033   3.271  14.327 -0.7315 -1.0563 -1.8697
  520TMC3    H1 7728   4.332   3.148  14.586 -0.8220  1.2716  0.8593
  520TMC3    H2 7729   4.402   3.145  14.173  0.0569 -1.1669 -0.6025
  520TMC3    C7 7730   4.529   3.118  14.413  0.1877 -0.2391 -0.0554
  520TMC3    C8 7731   4.172   3.253  14.103  0.4956 -0.0957  0.2403
  520TMC3    O1 7732   4.558   3.094  14.530  0.1255  0.7428  0.1480
  520TMC3    O2 7733   4.258   3.269  14.021  0.1743  0.3349  0.5251
  521MPD2     C 7734   0.002   0.724  17.624  0.1495 -0.9834  0.4156
  521MPD2    C1 7735   0.006   0.819  17.530  0.2858  0.3021 -0.2846
  521MPD2    C2 7736   0.131   0.858  17.477  0.5971 -0.5318  0.1895
  521MPD2    C3 7737   0.239   0.777  17.510 -0.5101  0.5744 -0.8722
  521MPD2    C4 7738   0.233   0.674  17.599  0.3293  0.0224 -0.0698
  521MPD2    C5 7739   0.114   0.656  17.663 -1.2849  0.3454  0.3403
  521MPD2     H 7740   0.145   0.943  17.411 -1.1682 -0.6244 -0.3143
  521MPD2    H1 7741   0.303   0.594  17.620 -2.6899 -3.1404 -2.0778
  521MPD2    H2 7742   4.639   0.707  17.686  0.0782 -0.4053  0.4741
  521MPD2    H3 7743   0.097   0.575   0.035  0.0063 -1.2066 -1.1502
  521MPD2     N 7744   0.365   0.811  17.457 -0.4435 -0.7273  0.6613
  521MPD2    H5 7745   0.368   0.894  17.398  0.3464 -0.2288  1.4028
  521MPD2    N1 7746   4.610   0.893  17.508  0.4004  0.8559  0.2260
  521MPD2    H7 7747   4.527   0.863  17.558 -1.0728  1.1488 -2.0400
  522TMC3    C1 7748   0.595   0.820  17.429  0.7530  0.4030 -0.2010
  522TMC3    C2 7749   0.723   0.808  17.481 -0.8513  0.5188 -0.1498
  522TMC3    C3 7750   0.829   0.867  17.420  0.9399 -0.1255 -0.2387
  522TMC3    C4 7751   0.572   0.894  17.317 -0.3935  0.0905 -0.9527
  522TMC3    C5 7752   0.686   0.955  17.261  0.4911  0.0819  0.1633
  522TMC3    C6 7753   0.814   0.943  17.306  0.6471 -0.3040  0.0885
  522TMC3     C 7754   0.482   0.759  17.492 -0.3655 -0.1270  0.1759
  522TMC3     O 7755   0.510   0.689  17.587 -0.1202  0.2185  0.1825
  522TMC3     H 7756   0.732   0.735  17.560 -0.2789  0.6181 -0.1228
  522TMC3    H1 7757   0.479   0.891  17.262  0.1822  0.3442 -1.9487
  522TMC3    H2 7758   0.900   0.998  17.269 -0.0328  1.9883  1.9235
  522TMC3    C7 7759   0.666   1.024  17.140 -0.1496 -0.4837  0.1181
  522TMC3    C8 7760   0.957   0.840  17.477 -0.4122 -0.1165  0.1193
  522TMC3    O1 7761   0.766   1.041  17.074  0.0900 -0.6097  1.1101
  522TMC3    O2 7762   0.975   0.779  17.581 -0.3829  1.1776  0.7099
  523MPD2     C 7763   3.542   1.957  10.437 -0.2017  0.2898 -0.4481
  523MPD2    C1 7764   3.407   1.941  10.453  0.0954 -0.5492 -0.5249
  523MPD2    C2 7765   3.327   2.049  10.413 -0.1532  0.3863  0.7243
  523MPD2    C3 7766   3.372   2.173  10.381  0.1619  0.3837 -0.5384
  523MPD2    C4 7767   3.511   2.181  10.371 -0.3299  0.6701 -0.1705
  523MPD2    C5 7768   3.597   2.075  10.388 -0.4149  0.0577 -0.0090
  523MPD2     H 7769   3.222   2.041  10.436 -0.3213  1.7035  0.4163
  523MPD2    H1 7770   3.561   2.276  10.354  0.4336  0.4396  0.7334
  523MPD2    H2 7771   3.615   1.879  10.455 -0.7044  0.1515  0.9389
  523MPD2    H3 7772   3.704   2.084  10.373 -0.6774  0.4833 -1.6807
  523MPD2     N 7773   3.290   2.282  10.341  0.2680 -0.5291  0.3420
  523MPD2    H5 7774   3.326   2.376  10.334  1.5140 -1.1156 -1.0721
  523MPD2    N1 7775   3.363   1.817  10.505  0.2567  0.8826  0.1458
  523MPD2    H7 7776   3.436   1.759  10.544 -0.6163 -2.1121 -2.6296
  524TMC3    C1 7777   3.103   2.399  10.273 -0.0363 -0.2895  0.8886
  524TMC3    C2 7778   2.974   2.436  10.283  0.2607  0.0462  0.4878
  524TMC3    C3 7779   2.922   2.543  10.209 -0.4871 -0.2868 -0.5118
  524TMC3    C4 7780   3.190   2.472  10.194  0.7211 -0.6898  1.0912
  524TMC3    C5 7781   3.144   2.582  10.127 -0.3057 -0.3312 -0.3609
  524TMC3    C6 7782   3.009   2.625  10.139 -0.0444 -0.1457  0.2937
  524TMC3     C 7783   3.153   2.275  10.324 -0.4697 -0.3451 -0.1709
  524TMC3     O 7784   3.074   2.195  10.374  0.7275 -0.4707  0.3361
  524TMC3     H 7785   2.911   2.359  10.326  3.0127 -2.1970  0.4546
  524TMC3    H1 7786   3.282   2.426  10.161  1.2007  1.5675 -0.6727
  524TMC3    H2 7787   2.971   2.691  10.062  1.1953  2.7846  2.1800
  524TMC3    C7 7788   3.238   2.662  10.056 -0.2266  0.5146 -0.1438
  524TMC3    C8 7789   2.779   2.562  10.210  0.1052  0.9822  0.0421
  524TMC3    O1 7790   3.355   2.651  10.099 -0.3079 -0.6407  0.1409
  524TMC3    O2 7791   2.693   2.477  10.245 -0.3178 -0.9462  0.9029
  525MPD2     C 7792   0.847   3.035  15.182 -0.5959  0.0738  0.4385
  525MPD2    C1 7793   0.966   2.959  15.176  0.2093  0.2240 -0.1345
  525MPD2    C2 7794   1.072   3.016  15.119  0.0021 -0.3617  0.1858
  525MPD2    C3 7795   1.069   3.144  15.060  0.8123 -0.2675  0.7189
  525MPD2    C4 7796   0.948   3.212  15.067  0.1164  0.5594  0.1713
  525MPD2    C5 7797   0.841   3.162  15.119 -0.3318 -0.7097 -0.6288
  525MPD2     H 7798   1.168   2.966  15.132  0.7847  1.9379  3.2393
  525MPD2    H1 7799   0.942   3.312  15.027 -1.9884 -0.4276 -1.9552
  525MPD2    H2 7800   0.753   3.007  15.230 -2.0557  4.8171  0.2862
  525MPD2    H3 7801   0.750   3.220  15.122 -0.0425 -0.3906  2.1207
  525MPD2     N 7802   1.175   3.212  14.995 -0.5348 -0.0545  0.6143
  525MPD2    H5 7803   1.152   3.308  14.973  0.4405  0.3197  1.1866
  525MPD2    N1 7804   0.976   2.833  15.247  0.6335 -0.1160 -0.5889
  525MPD2    H7 7805   1.065   2.784  15.240  0.0453 -1.1731 -0.7257
  526TMC3    C1 7806   0.919   2.635  15.366  0.5231 -0.1880  0.5598
  526TMC3    C2 7807   0.831   2.576  15.454 -0.1282  0.7956  0.5879
  526TMC3    C3 7808   0.868   2.476  15.531 -0.3799  0.7453 -0.4453
  526TMC3    C4 7809   1.047   2.583  15.353  0.0522  0.0700  0.1997
  526TMC3    C5 7810   1.074   2.469  15.426  0.3321 -0.4547 -0.1130
  526TMC3    C6 7811   0.986   2.418  15.522 -0.3954  0.0912 -0.8353
  526TMC3     C 7812   0.874   2.754  15.306  0.3484  0.5266  0.5544
  526TMC3     O 7813   0.756   2.780  15.301 -0.1263 -0.1018  0.0896
  526TMC3     H 7814   0.731   2.619  15.457 -1.1574 -1.7209  2.0178
  526TMC3    H1 7815   1.124   2.618  15.286  0.4683 -0.2958  0.4897
  526TMC3    H2 7816   1.007   2.332  15.584 -1.4954 -0.0926 -0.7212
  526TMC3    C7 7817   1.211   2.427  15.419 -0.6480 -0.3191  0.1454
  526TMC3    C8 7818   0.787   2.440  15.646  0.2779  0.0739  1.0872
  526TMC3    O1 7819   1.238   2.376  15.526  0.7445  0.4238 -0.1615
  526TMC3    O2 7820   0.800   2.330  15.695  0.2731  0.0732  0.5336
  527MPD2     C 7821   0.000   1.055   1.860  0.1439 -0.9406 -0.8085
  527MPD2    C1 7822   4.622   1.091   1.772 -0.3175  0.1071 -0.5206
  527MPD2    C2 7823   4.657   1.074   1.640 -0.2294 -0.3447 -0.6051
  527MPD2    C3 7824   0.057   1.028   1.594 -0.3381 -0.2062  0.1452
  527MPD2    C4 7825   0.159   1.020   1.686  0.1307 -0.0293 -0.2557
  527MPD2    C5 7826   0.129   1.025   1.818 -0.4315 -0.5063 -0.5024
  527MPD2     H 7827   4.583   1.108   1.567 -1.5215 -1.4576  0.1852
  527MPD2    H1 7828   0.256   0.977   1.663  0.9544  1.9753 -0.5203
  527MPD2    H2 7829   4.710   1.043   1.967 -1.8878 -1.0615 -1.0856
  527MPD2    H3 7830   0.200   0.992   1.893  1.2294  1.4057 -1.2735
  527MPD2     N 7831   0.075   1.029   1.453  0.0687 -0.1223  0.6280
  527MPD2    H5 7832   0.006   1.078   1.398 -0.3518 -0.2702  1.0211
  527MPD2    N1 7833   4.491   1.130   1.818 -0.2245  0.4497 -0.0529
  527MPD2    H7 7834   4.424   1.161   1.748  0.8506  1.6147 -0.5698
  528TMC3    C1 7835   4.311   1.156   1.974  0.5975 -0.4603 -0.4583
  528TMC3    C2 7836   4.254   1.105   2.086 -0.8723 -0.6686 -0.3904
  528TMC3    C3 7837   4.120   1.093   2.100  0.1461 -0.1765 -0.0095
  528TMC3    C4 7838   4.236   1.211   1.873  0.7797 -0.2829  0.0325
  528TMC3    C5 7839   4.101   1.209   1.895  0.2389  0.0603  0.1694
  528TMC3    C6 7840   4.046   1.148   2.003  0.5572 -0.2488 -0.0156
  528TMC3     C 7841   4.452   1.116   1.949  0.3714 -0.7014 -0.6926
  528TMC3     O 7842   4.506   1.063   2.039  0.1352 -0.0347 -0.4158
  528TMC3     H 7843   4.317   1.068   2.167 -0.5831 -0.1102 -0.3656
  528TMC3    H1 7844   4.286   1.274   1.801  1.3219 -1.4929 -0.6523
  528TMC3    H2 7845   3.939   1.143   2.021  0.0764  3.5944 -1.8337
  528TMC3    C7 7846   4.013   1.290   1.812 -0.1756  0.2919 -0.4255
  528TMC3    C8 7847   4.068   1.087   2.238 -0.2072  0.1988  0.1932
  528TMC3    O1 7848   3.896   1.280   1.839 -0.5028 -0.4681  0.4293
  528TMC3    O2 7849   4.002   1.183   2.285  1.0461 -0.8194  0.1135
  529MPD2     C 7850   1.663   0.475   1.075  0.1911  0.3050 -0.3087
  529MPD2    C1 7851   1.682   0.345   1.056 -0.6407 -0.0993  0.2315
  529MPD2    C2 7852   1.724   0.299   0.930  0.2773 -0.7177  0.7405
  529MPD2    C3 7853   1.736   0.386   0.818 -0.1921  0.0945 -0.7303
  529MPD2    C4 7854   1.720   0.522   0.837 -0.2766 -0.4933 -0.0706
  529MPD2    C5 7855   1.690   0.566   0.969  0.2097 -0.6721  0.4340
  529MPD2     H 7856   1.740   0.191   0.930  0.8781 -0.6265  1.7914
  529MPD2    H1 7857   1.710   0.602   0.765 -0.9540  0.1311  0.7268
  529MPD2    H2 7858   1.627   0.521   1.167 -1.3331 -2.0951  0.2805
  529MPD2    H3 7859   1.679   0.673   0.977  1.1732 -0.5047 -0.4513
  529MPD2     N 7860   1.766   0.340   0.682 -0.3554 -0.1859  0.0928
  529MPD2    H5 7861   1.774   0.417   0.616 -2.1299  0.1276  0.2365
  529MPD2    N1 7862   1.671   0.248   1.161  0.1022  0.2475 -0.5142
  529MPD2    H7 7863   1.684   0.153   1.129 -2.2745 -0.1264 -0.3173
  530TMC3    C1 7864   1.741   0.173   1.383 -0.4520  0.0833  0.3894
  530TMC3    C2 7865   1.717   0.183   1.516 -0.0275 -0.7759 -0.6400
  530TMC3    C3 7866   1.790   0.118   1.607  0.5281  1.2068  0.1867
  530TMC3    C4 7867   1.848   0.107   1.335  0.2094 -0.3475 -0.1486
  530TMC3    C5 7868   1.927   0.052   1.432 -0.3199 -0.4463  0.1491
  530TMC3    C6 7869   1.906   0.060   1.565 -0.2240  0.0166  0.0237
  530TMC3     C 7870   1.678   0.279   1.303  0.6280  0.9268  0.5490
  530TMC3     O 7871   1.664   0.384   1.361  0.2501 -0.2877 -0.4679
  530TMC3     H 7872   1.631   0.238   1.553 -0.6720 -0.7660 -2.1563
  530TMC3    H1 7873   1.875   0.107   1.230  2.2761 -1.4539  0.3788
  530TMC3    H2 7874   1.983   0.011   1.625 -1.4782 -2.7356 -0.6178
  530TMC3    C7 7875   2.019   4.668   1.388 -0.4361 -0.8779  0.1256
  530TMC3    C8 7876   1.715   0.065   1.725 -0.0374  0.1089  0.0949
  530TMC3    O1 7877   2.103   4.631   1.467 -0.0066  0.1969 -0.6209
  530TMC3    O2 7878   1.612   0.119   1.751  0.1360  0.0750  0.0725
  531MPD2     C 7879   0.334   2.160  13.104 -0.5644  0.8505  0.4185
  531MPD2    C1 7880   0.216   2.091  13.111 -0.0869 -0.5156 -0.1978
  531MPD2    C2 7881   0.178   2.028  12.995  0.1555  0.3625  0.8556
  531MPD2    C3 7882   0.256   2.027  12.882 -0.0391 -0.0999 -0.5616
  531MPD2    C4 7883   0.373   2.096  12.885  0.6610  0.3497 -0.1346
  531MPD2    C5 7884   0.416   2.157  12.998  0.5617 -0.0847  0.1786
  531MPD2     H 7885   0.079   1.984  12.990  0.5259 -0.4027  0.2763
  531MPD2    H1 7886   0.436   2.099  12.797  0.5157  1.8934 -0.1785
  531MPD2    H2 7887   0.377   2.203  13.193  0.8325 -1.4701  0.8769
  531MPD2    H3 7888   0.513   2.204  13.000 -0.2962  1.6841  0.0294
  531MPD2     N 7889   0.234   1.950  12.764 -0.2624  0.2003  0.1816
  531MPD2    H5 7890   0.302   1.955  12.689 -0.2808  0.9672  0.2124
  531MPD2    N1 7891   0.145   2.099  13.235 -0.7454  0.2746 -0.4581
  531MPD2    H7 7892   0.190   2.142  13.315  0.2245  0.8259 -1.2920
  532TMC3    C1 7893   4.679   2.029  13.378 -1.0624  0.2466 -0.3609
  532TMC3    C2 7894   4.549   1.992  13.358  0.2417 -0.1305 -0.9501
  532TMC3    C3 7895   4.505   1.888  13.442 -0.9324  0.0999 -0.4459
  532TMC3    C4 7896   0.029   1.983  13.480 -0.5786 -0.2160  0.1718
  532TMC3    C5 7897   4.696   1.909  13.579  0.1092  0.4213  1.0423
  532TMC3    C6 7898   4.574   1.850  13.549  0.0771  0.6488 -0.3262
  532TMC3     C 7899   0.019   2.041  13.251 -0.3068 -0.2069 -0.1287
  532TMC3     O 7900   4.664   2.001  13.164 -0.4397  0.0794  0.1142
  532TMC3     H 7901   4.491   2.042  13.282  1.8691  0.7021 -1.6548
  532TMC3    H1 7902   0.125   2.029  13.500 -1.0943  0.2693  1.5982
  532TMC3    H2 7903   4.531   1.780  13.620 -0.6898  0.4208 -1.0188
  532TMC3    C7 7904   0.052   1.824  13.667  0.8177  0.1234 -0.1711
  532TMC3    C8 7905   4.452   1.776  13.365  0.3025  0.5120  0.0992
  532TMC3    O1 7906   0.004   1.760  13.764 -0.5149  0.2257  0.1798
  532TMC3    O2 7907   4.413   1.678  13.429 -0.3622 -0.0206  0.3595
  533TMC3    C1 7908   1.386   3.293  14.999  0.2424 -0.2933  0.3125
  533TMC3    C2 7909   1.430   3.327  14.872  0.3822 -0.2332 -0.3221
  533TMC3    C3 7910   1.433   3.460  14.836  0.7664 -0.0911  0.2239
  533TMC3    C4 7911   1.340   3.392  15.080  0.4265 -0.1998 -0.9483
  533TMC3    C5 7912   1.353   3.522  15.041  0.0750 -0.0717  0.6256
  533TMC3    C6 7913   1.397   3.561  14.920  0.2832 -0.1270  0.2429
  533TMC3     C 7914   1.308   3.172  15.005 -0.2109 -0.1767  0.7193
  533TMC3     O 7915   1.355   3.074  15.060  0.0312 -0.2080  0.0838
  533TMC3     H 7916   1.452   3.250  14.799  0.3488 -1.9312  1.4756
  533TMC3    H1 7917   1.322   3.360  15.182  0.5579 -0.9902 -1.1716
  533TMC3    H2 7918   1.401   3.664  14.888  0.8533 -0.5399 -1.0206
  533TMC3    C7 7919   1.256   3.615  15.102  0.8526  0.1771 -0.1109
  533TMC3    C8 7920   1.540   3.504  14.747 -0.1608 -0.7273 -0.0674
  533TMC3    O1 7921   1.255   3.731  15.068 -0.4143  0.2210  0.0251
  533TMC3    O2 7922   1.539   3.618  14.703 -0.0434  0.1162  0.5579
  534MPD2     C 7923   3.741   0.622   1.885  0.5832 -0.2559 -0.1929
  534MPD2    C1 7924   3.705   0.655   1.758  0.3685 -0.0312  0.5407
  534MPD2    C2 7925   3.609   0.575   1.694 -0.7846  0.2119 -0.8225
  534MPD2    C3 7926   3.549   0.474   1.765 -0.0715 -0.6517  0.1818
  534MPD2    C4 7927   3.581   0.449   1.892  0.1346  0.7169 -0.0863
  534MPD2    C5 7928   3.680   0.518   1.954 -0.0041 -0.2232 -0.5183
  534MPD2     H 7929   3.592   0.588   1.588 -1.5162  2.7600 -0.3828
  534MPD2    H1 7930   3.531   0.373   1.951 -0.2462  1.5634  0.6688
  534MPD2    H2 7931   3.826   0.668   1.934 -0.0618  0.3450  0.3597
  534MPD2    H3 7932   3.698   0.486   2.056  1.4855 -4.0945 -1.9719
  534MPD2     N 7933   3.436   0.403   1.708  0.5184 -0.0750 -0.2830
  534MPD2    H5 7934   3.383   0.351   1.776 -0.2493  1.0793 -0.0052
  534MPD2    N1 7935   3.775   0.759   1.691 -0.3500 -0.0074  0.1268
  534MPD2    H7 7936   3.751   0.779   1.594  1.9763 -1.3752 -0.7317
  535TMC3    C1 7937   3.287   0.313   1.539 -0.0341  0.1965 -0.1085
  535TMC3    C2 7938   3.200   0.285   1.642  0.1923  0.6657 -0.6479
  535TMC3    C3 7939   3.103   0.193   1.610 -0.1833 -0.1675  0.0247
  535TMC3    C4 7940   3.277   0.270   1.411 -0.6317  0.1674 -0.0961
  535TMC3    C5 7941   3.184   0.174   1.388  0.3623  0.2005 -0.4408
  535TMC3    C6 7942   3.089   0.137   1.486  0.4354  0.2283 -0.2909
  535TMC3     C 7943   3.403   0.398   1.573  0.2317 -0.1096 -0.4240
  535TMC3     O 7944   3.447   0.454   1.477  0.2052  0.3893  0.6607
  535TMC3     H 7945   3.212   0.344   1.732  2.5767  1.5156 -1.5273
  535TMC3    H1 7946   3.345   0.296   1.330 -1.0065  2.1775  0.2204
  535TMC3    H2 7947   3.027   0.052   1.462  0.4058  0.3976 -0.8167
  535TMC3    C7 7948   3.198   0.105   1.258 -0.1554 -0.7041 -0.4525
  535TMC3    C8 7949   3.022   0.128   1.712 -0.4760  0.9253  0.8613
  535TMC3    O1 7950   3.294   0.131   1.190 -0.2305 -0.1081  0.2481
  535TMC3    O2 7951   2.921   0.071   1.674 -0.6024 -0.3517 -0.5642
  536MPD2     C 7952   2.336   2.749  16.603 -0.5867  0.4610 -0.7407
  536MPD2    C1 7953   2.235   2.653  16.610  0.4241 -0.2327 -0.5487
  536MPD2    C2 7954   2.135   2.650  16.513  0.0867 -0.5071  0.0608
  536MPD2    C3 7955   2.126   2.754  16.428  0.6787 -0.8689  0.6425
  536MPD2    C4 7956   2.230   2.845  16.421 -0.5711 -1.1006  0.1583
  536MPD2    C5 7957   2.338   2.843  16.500 -0.8759 -0.4717  0.1171
  536MPD2     H 7958   2.056   2.575  16.515  1.1483 -1.5959  1.5354
  536MPD2    H1 7959   2.213   2.925  16.350  0.4252  0.9560  2.2454
  536MPD2    H2 7960   2.412   2.757  16.680  0.7297 -0.2326 -1.9766
  536MPD2    H3 7961   2.415   2.913  16.471 -1.2897 -0.7343 -1.6192
  536MPD2     N 7962   2.027   2.757  16.324  0.2727 -0.7518  0.0974
  536MPD2    H5 7963   2.050   2.812  16.243  0.3353  2.1597  2.0890
  536MPD2    N1 7964   2.247   2.547  16.708  0.3812 -0.2271 -0.2127
  536MPD2    H7 7965   2.324   2.554  16.773  0.1405  0.2160  0.0243
  537TMC3    C1 7966   2.187   2.367  16.851 -0.6034 -0.1632  0.5246
  537TMC3    C2 7967   2.254   2.432  16.957  0.3276 -0.3024  0.2889
  537TMC3    C3 7968   2.270   2.362  17.068 -0.0632 -0.6951 -0.3282
  537TMC3    C4 7969   2.131   2.245  16.863 -0.4116  0.5380  0.0548
  537TMC3    C5 7970   2.158   2.174  16.979  0.3441  0.0585  0.6236
  537TMC3    C6 7971   2.225   2.233  17.082  0.1864  0.0347 -0.6320
  537TMC3     C 7972   2.157   2.445  16.729 -0.8040  0.3760 -0.2387
  537TMC3     O 7973   2.049   2.415  16.666  0.7017 -0.1847 -0.2124
  537TMC3     H 7974   2.284   2.536  16.957  1.8603 -0.7364 -0.7800
  537TMC3    H1 7975   2.077   2.202  16.780  1.9721 -0.2575 -1.0836
  537TMC3    H2 7976   2.258   2.178  17.169 -0.1476 -0.4729 -0.8239
  537TMC3    C7 7977   2.102   2.039  16.995 -0.6111 -0.1199 -0.0556
  537TMC3    C8 7978   2.352   2.428  17.165 -0.3240 -0.6401 -0.1407
  537TMC3    O1 7979   2.039   2.008  16.895 -0.1845  0.0828 -0.0910
  537TMC3    O2 7980   2.427   2.516  17.122 -0.0809 -0.1568 -0.0853
  538TMC3    C1 7981   3.638   1.413  11.472  0.3264 -0.5350 -0.6244
  538TMC3    C2 7982   3.754   1.358  11.424  0.2031  0.7441  0.5498
  538TMC3    C3 7983   3.795   1.398  11.303  0.2442 -0.4731  0.7206
  538TMC3    C4 7984   3.558   1.487  11.392  0.3892 -0.1227  0.0558
  538TMC3    C5 7985   3.605   1.516  11.269 -0.4468  0.9751  1.6097
  538TMC3    C6 7986   3.727   1.469  11.213  0.3851  0.1034 -0.8128
  538TMC3     C 7987   3.587   1.375  11.594 -0.1939  0.5261 -0.3404
  538TMC3     O 7988   3.468   1.366  11.605  0.1115 -0.0841  0.1570
  538TMC3     H 7989   3.815   1.279  11.466  0.6270  1.0328  0.4720
  538TMC3    H1 7990   3.462   1.523  11.427  0.3696 -0.8423  0.7460
  538TMC3    H2 7991   3.768   1.514  11.123 -1.4373  0.2222 -1.5980
  538TMC3    C7 7992   3.496   1.546  11.178 -0.1681  0.6539  0.0015
  538TMC3    C8 7993   3.939   1.380  11.280 -0.2784  0.4410  0.0378
  538TMC3    O1 7994   3.389   1.486  11.209 -0.4150 -0.5055  0.0456
  538TMC3    O2 7995   4.008   1.370  11.380  0.3061 -0.5532 -0.2190
  539MPD2     C 7996   3.423   0.605  12.198  0.6021 -0.2968  0.3748
  539MPD2    C1 7997   3.413   0.659  12.072 -0.6334 -0.5171 -0.4193
  539MPD2    C2 7998   3.342   0.771  12.052 -0.4167  0.0724 -0.6884
  539MPD2    C3 7999   3.297   0.846  12.158  0.2129  0.0324 -0.6150
  539MPD2    C4 8000   3.310   0.797  12.282  0.3814 -0.5384  0.6512
  539MPD2    C5 8001   3.365   0.673  12.302  0.1754  0.7676  0.6321
  539MPD2     H 8002   3.338   0.808  11.950  1.6342  1.1838 -0.3795
  539MPD2    H1 8003   3.279   0.854  12.368  0.0198 -1.0471  0.8587
  539MPD2    H2 8004   3.463   0.510  12.229  1.6579 -0.2493 -0.8344
  539MPD2    H3 8005   3.362   0.632  12.403  0.4295 -3.1321 -0.9758
  539MPD2     N 8006   3.245   0.974  12.142  0.4431  0.1063 -0.0330
  539MPD2    H5 8007   3.213   1.014  12.230  0.4447 -0.1661  0.0890
  539MPD2    N1 8008   3.462   0.599  11.956  0.3291  0.5722  0.3438
  539MPD2    H7 8009   3.478   0.658  11.875  1.3461  2.1818  1.7157
  540TMC3    C1 8010   3.143   1.161  12.022 -0.7550  0.5318  0.0811
  540TMC3    C2 8011   3.150   1.239  11.912 -0.2337  0.2133  0.1898
  540TMC3    C3 8012   3.065   1.352  11.905 -0.2940  0.1508 -0.5336
  540TMC3    C4 8013   3.060   1.183  12.122  0.7986  0.0920  0.0852
  540TMC3    C5 8014   2.982   1.291  12.118  0.4506  0.1343 -0.4745
  540TMC3    C6 8015   2.980   1.371  12.008 -0.1277  0.6564  0.8126
  540TMC3     C 8016   3.213   1.032  12.016  0.3185 -0.1541  0.0101
  540TMC3     O 8017   3.248   1.008  11.897 -0.7464 -0.5512 -0.0057
  540TMC3     H 8018   3.212   1.226  11.824 -2.1981  0.2020 -1.2153
  540TMC3    H1 8019   3.047   1.119  12.208  0.1107  1.4234  0.9780
  540TMC3    H2 8020   2.904   1.448  12.009  0.8370  1.6028  0.8361
  540TMC3    C7 8021   2.875   1.292  12.220 -0.0263  0.2117  0.9369
  540TMC3    C8 8022   3.023   1.397  11.769 -0.4831  0.2362 -0.6415
  540TMC3    O1 8023   2.757   1.279  12.181 -0.2000 -0.5446  0.0666
  540TMC3    O2 8024   3.014   1.517  11.758 -0.2917  0.2504 -0.3960
  541MPD2     C 8025   1.673   2.610  13.514 -0.0109 -1.1835  0.5414
  541MPD2    C1 8026   1.644   2.550  13.400  0.2053 -0.3513  0.0146
  541MPD2    C2 8027   1.722   2.573  13.282  0.1921 -0.1611 -0.5014
  541MPD2    C3 8028   1.840   2.650  13.288  0.8913  0.3177 -0.7282
  541MPD2    C4 8029   1.867   2.715  13.403 -0.3448  0.3119 -0.6776
  541MPD2    C5 8030   1.778   2.698  13.510 -0.2226  0.3108  0.9486
  541MPD2     H 8031   1.687   2.524  13.191  1.4984 -0.5453 -0.7887
  541MPD2    H1 8032   1.945   2.788  13.421 -0.6828  0.6583 -0.6091
  541MPD2    H2 8033   1.623   2.601  13.610  0.5913 -0.7103  0.9016
  541MPD2    H3 8034   1.791   2.758  13.599  0.6790 -0.3020  1.2326
  541MPD2     N 8035   1.922   2.662  13.181 -0.4727 -0.7651  0.1855
  541MPD2    H5 8036   1.995   2.732  13.185 -1.6687  0.2912  4.0481
  541MPD2    N1 8037   1.545   2.461  13.392 -0.1909 -0.5324  0.0462
  541MPD2    H7 8038   1.534   2.423  13.298 -1.9835  0.5583 -0.1772
  542TMC3    C1 8039   1.979   2.637  12.946 -0.4848 -0.0970  0.6532
  542TMC3    C2 8040   2.004   2.550  12.840  0.4811  0.0621  0.7649
  542TMC3    C3 8041   2.064   2.601  12.727 -0.3303 -0.1771  0.8344
  542TMC3    C4 8042   2.014   2.769  12.931 -0.1243 -0.2505  0.0011
  542TMC3    C5 8043   2.074   2.812  12.816 -0.2697  0.8339 -0.2784
  542TMC3    C6 8044   2.097   2.729  12.707  0.0437 -0.2984  0.1485
  542TMC3     C 8045   1.912   2.584  13.065 -0.9353 -0.1214  0.0471
  542TMC3     O 8046   1.870   2.471  13.048 -0.0757  0.1810  0.2617
  542TMC3     H 8047   1.996   2.442  12.848 -1.5186  0.1777  0.4311
  542TMC3    H1 8048   2.004   2.842  13.011  1.5149 -0.7242  0.6426
  542TMC3    H2 8049   2.144   2.766  12.616  0.1557  1.5698  0.9585
  542TMC3    C7 8050   2.082   2.954  12.820 -0.4791  0.2035  0.6449
  542TMC3    C8 8051   2.095   2.506  12.627  0.3284  0.1097 -0.1546
  542TMC3    O1 8052   2.109   3.006  12.925 -0.0808 -0.1986  0.1705
  542TMC3    O2 8053   2.015   2.413  12.617  0.0713 -0.4707 -0.3459
  543TMC3    C1 8054   0.547   3.316  17.547 -0.3815 -0.1265 -0.0961
  543TMC3    C2 8055   0.473   3.196  17.546  0.0572  0.4209 -0.1295
  543TMC3    C3 8056   0.428   3.156  17.668  0.2579 -0.6989  0.2570
  543TMC3    C4 8057   0.578   3.377  17.660 -0.7309  0.6400 -0.7567
  543TMC3    C5 8058   0.527   3.337   0.080  0.1424  0.2472 -0.3369
  543TMC3    C6 8059   0.447   3.227   0.086  0.3992 -0.2253 -0.1423
  543TMC3     C 8060   0.636   3.338  17.442 -0.4840  0.3899  0.0297
  543TMC3     O 8061   0.738   3.388  17.471 -0.3129 -0.0746  0.4192
  543TMC3     H 8062   0.464   3.139  17.454  2.4360 -0.1918  0.0386
  543TMC3    H1 8063   0.636   3.469  17.654 -0.3505  0.5127  0.8426
  543TMC3    H2 8064   0.428   3.193   0.187  0.4391  0.8018  0.2146
  543TMC3    C7 8065   0.553   3.406   0.207 -0.7574  0.2333  0.3796
  543TMC3    C8 8066   0.347   3.032  17.664 -0.3546 -0.0385 -0.3063
  543TMC3    O1 8067   0.460   3.401   0.289  0.1077 -0.2835 -0.0626
  543TMC3    O2 8068   0.373   2.963  17.564 -0.0618 -0.5873  0.1974
  544MPD2     C 8069   0.089   2.624   0.132  0.1588  0.0826  0.1542
  544MPD2    C1 8070   0.181   2.636   0.031 -0.5443  0.1936 -0.4150
  544MPD2    C2 8071   0.247   2.758   0.016  0.3453  0.6082  0.6808
  544MPD2    C3 8072   0.207   2.873   0.086 -0.0308 -0.2339 -0.0217
  544MPD2    C4 8073   0.109   2.854   0.172 -0.1249 -0.3186  0.0046
  544MPD2    C5 8074   0.048   2.732   0.199 -0.7172 -0.2397 -0.3237
  544MPD2     H 8075   0.324   2.764  17.637 -0.7434  0.9125 -0.3744
  544MPD2    H1 8076   0.090   2.936   0.240 -1.1182 -1.3854  1.0121
  544MPD2    H2 8077   0.047   2.525   0.145  0.8869 -0.4644 -1.7361
  544MPD2    H3 8078   4.698   2.716   0.276 -0.4164 -0.5399 -0.0992
  544MPD2     N 8079   0.261   3.003   0.071 -0.3434 -0.7751  0.2460
  544MPD2    H5 8080   0.233   3.082   0.128  1.1683 -0.5353  0.6449
  544MPD2    N1 8081   0.211   2.518  17.654 -0.4715  0.3414  0.3875
  544MPD2    H7 8082   0.157   2.434  17.671 -0.8424  0.6626  0.7639
  545TMC3    C1 8083   0.332   2.367  17.517  0.3579  0.3537 -0.6036
  545TMC3    C2 8084   0.423   2.351  17.416 -0.1755  0.4072  0.2124
  545TMC3    C3 8085   0.496   2.237  17.413 -0.0644  0.9646  0.3797
  545TMC3    C4 8086   0.294   2.262  17.602  0.3687  0.6611 -0.5902
  545TMC3    C5 8087   0.357   2.145  17.578  0.3460 -1.3257  0.1326
  545TMC3    C6 8088   0.462   2.128  17.493  0.0614 -0.8124 -0.5799
  545TMC3     C 8089   0.308   2.502  17.558 -0.0300  0.1470  0.3519
  545TMC3     O 8090   0.382   2.588  17.510  0.3469  0.4744 -0.0326
  545TMC3     H 8091   0.433   2.429  17.341  0.0272 -0.6181 -0.8450
  545TMC3    H1 8092   0.229   2.282  17.687 -0.6926  0.7081 -1.4142
  545TMC3    H2 8093   0.520   2.037  17.480  1.6645 -0.0226  1.0551
  545TMC3    C7 8094   0.316   2.034  17.664 -0.0454  0.1188  0.3799
  545TMC3    C8 8095   0.643   2.262  17.409 -0.2553  0.2286  0.1367
  545TMC3    O1 8096   0.202   2.025   0.008  0.1307 -0.8322  0.1866
  545TMC3    O2 8097   0.715   2.164  17.431  0.3533  0.4683 -0.0867
  546MPD2     C 8098   2.557   3.201   0.013 -0.1966 -0.7205  0.3099
  546MPD2    C1 8099   2.487   3.244  17.599 -0.2020  0.3025  0.6582
  546MPD2    C2 8100   2.504   3.381  17.564  0.5574 -0.6602  0.2897
  546MPD2    C3 8101   2.590   3.460  17.637 -0.5603 -0.2344 -0.4861
  546MPD2    C4 8102   2.649   3.410   0.055  0.5370  0.2988  0.4134
  546MPD2    C5 8103   2.634   3.280   0.089  0.3041  1.0411  0.2344
  546MPD2     H 8104   2.458   3.410  17.470  0.4460  1.6008  1.0239
  546MPD2    H1 8105   2.716   3.459   0.124  0.2927 -1.6266  2.0503
  546MPD2    H2 8106   2.533   3.101   0.048 -0.9017 -0.2918  1.0730
  546MPD2    H3 8107   2.684   3.237   0.175  0.0059  0.4686  0.1205
  546MPD2     N 8108   2.616   3.596  17.601  0.5624  0.3643 -0.2180
  546MPD2    H5 8109   2.681   3.651  17.656 -0.1819  0.7114  0.3131
  546MPD2    N1 8110   2.391   3.159  17.540 -0.1446 -0.4706  0.6283
  546MPD2    H7 8111   2.355   3.090  17.606  1.5869 -1.4925  0.4945
  547TMC3    C1 8112   2.216   3.075  17.419  0.6251  0.4061  0.1798
  547TMC3    C2 8113   2.109   3.098  17.335 -0.0775 -0.4647  0.0207
  547TMC3    C3 8114   1.997   3.017  17.338 -0.4362 -0.5137  0.0437
  547TMC3    C4 8115   2.209   2.973  17.511 -1.0269  0.2226  0.2901
  547TMC3    C5 8116   2.100   2.888  17.501  0.1472  0.1688  0.2592
  547TMC3    C6 8117   1.991   2.906  17.426  0.8292 -0.3259  0.4967
  547TMC3     C 8118   2.321   3.174  17.428  0.9693 -0.8221  0.6714
  547TMC3     O 8119   2.350   3.252  17.338  0.5996 -0.4490 -0.0447
  547TMC3     H 8120   2.110   3.191  17.278  1.7936  0.0574  0.8799
  547TMC3    H1 8121   2.286   2.950  17.584 -2.4114 -1.2460  1.2782
  547TMC3    H2 8122   1.906   2.838  17.433  1.3682 -0.9698  0.8365
  547TMC3    C7 8123   2.075   2.801  17.618 -0.7822 -0.2814 -0.3360
  547TMC3    C8 8124   1.871   3.076  17.296  0.2058  0.0865 -0.2869
  547TMC3    O1 8125   2.107   2.846   0.031  1.1052 -0.4824 -0.8546
  547TMC3    O2 8126   1.881   3.160  17.204  1.1418 -0.1666 -0.3750
  548MPD2     C 8127   2.553   4.248  12.391 -0.4175 -0.5221  0.6363
  548MPD2    C1 8128   2.580   4.214  12.519  0.2713 -1.0232 -0.3468
  548MPD2    C2 8129   2.682   4.132  12.553  0.0020  0.3115  0.5831
  548MPD2    C3 8130   2.752   4.074  12.451  0.0779  0.2913  0.3313
  548MPD2    C4 8131   2.733   4.115  12.318 -0.6981  0.5202  0.1063
  548MPD2    C5 8132   2.636   4.204  12.294  0.0379 -0.2688  0.0118
  548MPD2     H 8133   2.716   4.104  12.653  0.9952  0.8903  0.4066
  548MPD2    H1 8134   2.784   4.072  12.233 -0.5039 -0.6137  0.8013
  548MPD2    H2 8135   2.464   4.297  12.355  1.1824  1.1770 -0.9968
  548MPD2    H3 8136   2.613   4.234  12.192  2.6408  0.4420 -0.3620
  548MPD2     N 8137   2.846   3.982  12.487  0.1617  0.4243  0.1448
  548MPD2    H5 8138   2.873   3.974  12.584  1.9118 -0.4361 -0.4086
  548MPD2    N1 8139   2.486   4.251  12.613  0.2598 -0.5264 -0.2898
  548MPD2    H7 8140   2.408   4.311  12.589  0.2961 -0.7218 -0.9052
  549TMC3    C1 8141   2.372   4.245  12.813  0.4238 -0.1524 -0.5950
  549TMC3    C2 8142   2.284   4.341  12.761  0.4820 -0.0482  0.1809
  549TMC3    C3 8143   2.163   4.361  12.828 -0.5383 -0.1262 -0.1699
  549TMC3    C4 8144   2.331   4.165  12.922  0.1387  0.4175  0.2876
  549TMC3    C5 8145   2.214   4.198  12.985  0.5933  0.1149  0.6628
  549TMC3    C6 8146   2.125   4.292  12.939 -0.3830 -0.0822  0.3795
  549TMC3     C 8147   2.489   4.212  12.743 -0.9695 -0.4501 -0.6249
  549TMC3     O 8148   2.573   4.142  12.803  0.5159  0.1618  0.1847
  549TMC3     H 8149   2.321   4.406  12.683  0.7352 -0.9181 -0.4097
  549TMC3    H1 8150   2.396   4.092  12.969 -1.3636  0.6286  2.6578
  549TMC3    H2 8151   2.030   4.304  12.990  0.2740  2.2904  1.0393
  549TMC3    C7 8152   2.158   4.088  13.056  0.2069  0.1116  0.1077
  549TMC3    C8 8153   2.060   4.436  12.763 -0.6282 -0.0517 -0.5055
  549TMC3    O1 8154   2.077   4.101  13.144  0.4240 -0.8263 -0.5985
  549TMC3    O2 8155   2.038   4.413  12.650  0.3818  0.4151  0.5229
  550TMC3    C1 8156   1.064   2.357  13.046  0.1437  0.5003 -0.5376
  550TMC3    C2 8157   0.945   2.418  13.081 -0.3527 -0.6751  0.5312
  550TMC3    C3 8158   0.912   2.533  13.013 -0.3227  0.2710  0.3164
  550TMC3    C4 8159   1.138   2.413  12.941  0.0340  0.0884  0.9209
  550TMC3    C5 8160   1.093   2.518  12.868  0.4638  0.3331 -0.1722
  550TMC3    C6 8161   0.983   2.583  12.907  0.4888 -0.1616 -0.5058
  550TMC3     C 8162   1.067   2.216  13.068 -0.0802 -0.0390 -0.0639
  550TMC3     O 8163   1.025   2.164  13.170 -0.3862  0.1032  0.1206
  550TMC3     H 8164   0.870   2.371  13.144  0.2497 -2.3216  0.0177
  550TMC3    H1 8165   1.238   2.380  12.916  0.1951  1.6248 -0.4853
  550TMC3    H2 8166   0.942   2.662  12.845  0.8920 -0.1248 -0.7263
  550TMC3    C7 8167   1.086   2.492  12.725  0.1355  0.2474 -0.1508
  550TMC3    C8 8168   0.768   2.563  13.005 -0.1382 -0.1355 -0.1870
  550TMC3    O1 8169   1.108   2.376  12.702  0.1954  0.6368 -0.2782
  550TMC3    O2 8170   0.727   2.622  12.904 -0.6630  0.5625 -0.3225
  551TMC3    C1 8171   3.635   4.350  13.639 -0.3912  0.6146  0.3373
  551TMC3    C2 8172   3.745   4.356  13.549  0.5106 -0.1224 -0.0604
  551TMC3    C3 8173   3.861   4.407  13.598  0.5916  0.2447  0.7254
  551TMC3    C4 8174   3.638   4.383  13.773  0.1759  0.1655  0.1207
  551TMC3    C5 8175   3.755   4.444  13.816 -0.1204 -0.4072 -0.0989
  551TMC3    C6 8176   3.862   4.460  13.729 -0.3602  0.0633 -0.1176
  551TMC3     C 8177   3.518   4.277  13.591  1.0187  0.6336 -0.2604
  551TMC3     O 8178   3.533   4.192  13.504  0.0630 -0.5672  0.1922
  551TMC3     H 8179   3.741   4.322  13.446  0.0495  3.2562 -1.1374
  551TMC3    H1 8180   3.560   4.344  13.839  0.2432 -0.2212 -0.0309
  551TMC3    H2 8181   3.955   4.491  13.775  0.2797 -4.7968  1.8444
  551TMC3    C7 8182   3.769   4.514  13.945  0.3109  0.4038 -0.1318
  551TMC3    C8 8183   3.968   4.433  13.511  0.2576  0.1204 -0.5012
  551TMC3    O1 8184   3.879   4.542  13.989 -0.2675 -0.9512  0.2996
  551TMC3    O2 8185   3.970   4.362  13.413  0.5217  0.2407 -0.2849
  552MPD2     C 8186   0.267   1.542  14.338  0.0209  0.4049  0.3957
  552MPD2    C1 8187   0.306   1.410  14.345 -0.5937  0.1043 -0.7839
  552MPD2    C2 8188   0.400   1.377  14.442  0.1149 -0.5648  0.3652
  552MPD2    C3 8189   0.469   1.473  14.508  0.2570  0.3168  0.0674
  552MPD2    C4 8190   0.426   1.603  14.499 -0.4697  0.4684 -0.9001
  552MPD2    C5 8191   0.329   1.635  14.409 -0.4642 -0.0275  0.1565
  552MPD2     H 8192   0.442   1.278  14.459  0.4009 -0.6690 -0.9242
  552MPD2    H1 8193   0.464   1.681  14.564 -0.2034  0.2153 -0.7516
  552MPD2    H2 8194   0.197   1.570  14.260 -1.2438  0.2330  1.4586
  552MPD2    H3 8195   0.294   1.737  14.396 -0.6349 -0.0072  0.7826
  552MPD2     N 8196   0.571   1.444  14.606  0.5221 -0.3720  1.3718
  552MPD2    H5 8197   0.607   1.525  14.656  0.0770  1.6688 -1.6247
  552MPD2    N1 8198   0.262   1.313  14.257  0.4756  0.0848 -1.2984
  552MPD2    H7 8199   0.307   1.222  14.263  2.3819  1.1983  1.1663
  553TMC3    C1 8200   0.176   1.224  14.057 -0.2084 -0.0503  0.0424
  553TMC3    C2 8201   0.172   1.283  13.934  0.3160  0.3355 -0.4191
  553TMC3    C3 8202   0.262   1.237  13.838  0.0156 -0.3777 -0.0340
  553TMC3    C4 8203   0.244   1.107  14.081  0.2527 -0.2895 -0.5529
  553TMC3    C5 8204   0.334   1.072  13.987  0.2704  0.4021  1.0292
  553TMC3    C6 8205   0.350   1.138  13.868  0.2271  0.4482 -0.5070
  553TMC3     C 8206   0.158   1.323  14.165 -0.0378 -0.5985 -0.5994
  553TMC3     O 8207   0.085   1.416  14.139  0.1232 -0.1310  0.1333
  553TMC3     H 8208   0.095   1.354  13.908  0.0039 -0.3494 -1.3930
  553TMC3    H1 8209   0.246   1.053  14.175 -2.8778 -1.7627 -1.3465
  553TMC3    H2 8210   0.415   1.096  13.792  0.8444 -2.3808  1.5637
  553TMC3    C7 8211   0.443   0.991  14.036  0.5222 -0.7614 -0.2710
  553TMC3    C8 8212   0.269   1.276  13.697  0.2887  0.6728 -0.5357
  553TMC3    O1 8213   0.415   0.927  14.137  0.4084  0.9114  0.0697
  553TMC3    O2 8214   0.380   1.252  13.645 -0.2399  0.0688  0.4798
  554TMC3    C1 8215   2.432   0.612  11.938  0.2768  0.0369  0.0026
  554TMC3    C2 8216   2.370   0.577  11.821 -0.2985 -0.1240 -0.3095
  554TMC3    C3 8217   2.377   0.680  11.723 -0.1149 -0.5810  0.2600
  554TMC3    C4 8218   2.501   0.731  11.962  0.1702  0.0202  0.3724
  554TMC3    C5 8219   2.524   0.813  11.846  0.3501  0.0867 -0.3652
  554TMC3    C6 8220   2.454   0.787  11.734  0.5857 -0.6754  0.3051
  554TMC3     C 8221   2.419   0.513  12.041 -0.5064  0.6150 -0.4716
  554TMC3     O 8222   2.358   0.410  12.014 -0.5234  0.5827 -0.2011
  554TMC3     H 8223   2.325   0.480  11.808  0.9504 -0.7700  0.1430
  554TMC3    H1 8224   2.555   0.753  12.053  0.6296  1.3345 -0.2279
  554TMC3    H2 8225   2.467   0.844  11.643  0.3453 -0.1831  0.5778
  554TMC3    C7 8226   2.570   0.948  11.865 -0.4849  0.1724 -0.2171
  554TMC3    C8 8227   2.309   0.671  11.593 -0.3835 -0.5178 -0.0650
  554TMC3    O1 8228   2.553   0.988  11.979 -0.0380 -0.1826  0.1163
  554TMC3    O2 8229   2.367   0.722  11.497  0.2678 -0.7466 -0.9623
  555TMC3    C1 8230   1.647   0.048  15.024  0.7160 -0.2928 -0.5038
  555TMC3    C2 8231   1.659   0.151  15.116  0.1400 -0.3279  0.0274
  555TMC3    C3 8232   1.641   0.121  15.250 -0.2016  0.0607 -0.2299
  555TMC3    C4 8233   1.621   4.643  15.059 -0.0062  0.1153  0.2289
  555TMC3    C5 8234   1.603   4.619  15.194  0.1958  0.0146  0.3847
  555TMC3    C6 8235   1.621   4.713  15.290 -0.5138 -0.0405  0.1262
  555TMC3     C 8236   1.720   0.068  14.903  0.1373 -0.2246 -0.6336
  555TMC3     O 8237   1.802   4.709  14.879 -0.0837 -0.0952  0.5222
  555TMC3     H 8238   1.674   0.252  15.082 -0.4479 -0.3676 -0.3473
  555TMC3    H1 8239   1.615   4.574  14.976 -1.0913  0.5165 -0.0254
  555TMC3    H2 8240   1.596   4.692  15.393  0.6102  1.3141  0.6779
  555TMC3    C7 8241   1.551   4.488  15.228  0.2692 -0.2729 -0.0295
  555TMC3    C8 8242   1.662   0.227  15.347 -0.4672 -0.1941 -0.4950
  555TMC3    O1 8243   1.506   4.478  15.341  0.0159  0.4065 -0.2828
  555TMC3    O2 8244   1.638   0.346  15.312 -0.4525  0.0972 -0.6301
  556MPD2     C 8245   4.602   2.191  10.623  0.6709  0.3124 -0.0676
  556MPD2    C1 8246   4.592   2.100  10.730  0.1902  0.1989 -0.4671
  556MPD2    C2 8247   4.572   1.966  10.704 -0.0140 -0.4060  0.3741
  556MPD2    C3 8248   4.549   1.918  10.579 -0.2035 -0.2726 -0.5897
  556MPD2    C4 8249   4.557   2.007  10.476 -0.9995 -0.3365  0.3508
  556MPD2    C5 8250   4.582   2.136  10.502  0.3180  0.2416  0.1704
  556MPD2     H 8251   4.569   1.892  10.783  1.1498 -1.2331 -0.3429
  556MPD2    H1 8252   4.539   1.982  10.372 -1.7771 -1.1627  0.6888
  556MPD2    H2 8253   4.610   2.298  10.636  1.6008  0.4556 -1.7797
  556MPD2    H3 8254   4.582   2.202  10.416 -1.6766 -0.3201 -0.2615
  556MPD2     N 8255   4.523   1.783  10.562 -0.0745 -0.3132 -0.2559
  556MPD2    H5 8256   4.544   1.724  10.642 -0.6452  1.7425  1.3950
  556MPD2    N1 8257   4.590   2.137  10.861 -0.5967  0.0071 -0.6174
  556MPD2    H7 8258   4.572   2.057  10.920  1.2685  0.2632  0.3039
  557TMC3    C1 8259   4.438   1.586  10.469 -0.6311 -0.1333 -0.2949
  557TMC3    C2 8260   4.424   1.521  10.345 -0.0748  0.0848  0.3022
  557TMC3    C3 8261   4.338   1.412  10.330 -0.0348 -1.2030 -0.0205
  557TMC3    C4 8262   4.368   1.539  10.573  0.0984 -0.1436 -0.0046
  557TMC3    C5 8263   4.280   1.442  10.553  0.1814 -0.4434 -0.6829
  557TMC3    C6 8264   4.263   1.374  10.437  0.3465 -0.1731 -0.8445
  557TMC3     C 8265   4.448   1.731  10.459 -0.4372  0.2680  0.0761
  557TMC3     O 8266   4.399   1.792  10.362 -0.2864  0.6144 -0.5153
  557TMC3     H 8267   4.485   1.559  10.264 -0.9808 -1.2393 -1.0192
  557TMC3    H1 8268   4.349   1.595  10.664 -0.1425  2.0570 -1.4011
  557TMC3    H2 8269   4.188   1.296  10.437  2.2044 -1.9598 -0.0859
  557TMC3    C7 8270   4.207   1.396  10.679  0.3931  0.0896  0.5075
  557TMC3    C8 8271   4.367   1.319  10.219 -0.4147  0.2400  0.0513
  557TMC3    O1 8272   4.091   1.426  10.682 -0.4882 -0.0225 -0.1362
  557TMC3    O2 8273   4.443   1.370  10.140  0.2455  0.0656  1.1251
  558TMC3    C1 8274   2.531   4.168  10.379 -1.1486  0.4541  0.5424
  558TMC3    C2 8275   2.402   4.143  10.417  0.4014 -0.0885 -0.1507
  558TMC3    C3 8276   2.300   4.188  10.343 -0.4709 -0.0349 -0.6232
  558TMC3    C4 8277   2.562   4.243  10.271  0.3152  0.1774 -0.2900
  558TMC3    C5 8278   2.454   4.285  10.201 -0.4396  0.0737  0.4588
  558TMC3    C6 8279   2.322   4.271  10.237 -0.3147 -0.6251 -0.7421
  558TMC3     C 8280   2.636   4.165  10.473  0.2491 -0.8338  0.3945
  558TMC3     O 8281   2.710   4.260  10.488  0.0330 -0.3755  0.4565
  558TMC3     H 8282   2.387   4.088  10.509  1.0732 -1.1361 -0.6662
  558TMC3    H1 8283   2.662   4.281  10.252  0.9596 -2.0421 -1.3081
  558TMC3    H2 8284   2.249   4.325  10.178 -0.8089 -0.6044 -0.1098
  558TMC3    C7 8285   2.466   4.374  10.087 -0.1396  0.4300 -0.6996
  558TMC3    C8 8286   2.168   4.190  10.404 -0.2087  0.1717  0.8365
  558TMC3    O1 8287   2.548   4.464  10.100  0.0413  0.1522  0.6960
  558TMC3    O2 8288   2.091   4.237  10.323 -0.0734 -0.0650 -0.0950
  559MPD2     C 8289   2.060   0.454  10.902  0.2425 -0.0305 -0.1402
  559MPD2    C1 8290   1.995   0.397  11.007 -0.2525  0.6116  0.1187
  559MPD2    C2 8291   2.067   0.355  11.116 -0.6423  0.6692 -0.6686
  559MPD2    C3 8292   2.202   0.379  11.127  0.6928  0.3786 -0.4923
  559MPD2    C4 8293   2.269   0.431  11.023  0.0444 -0.2817 -0.7611
  559MPD2    C5 8294   2.199   0.458  10.900 -0.0685  0.7142 -0.3811
  559MPD2     H 8295   2.022   0.312  11.204  0.3955  1.9305  0.4649
  559MPD2    H1 8296   2.377   0.443  11.025 -0.0337  0.0714  1.1978
  559MPD2    H2 8297   2.005   0.482  10.813 -1.3523  0.9478  1.1449
  559MPD2    H3 8298   2.262   0.494  10.819 -1.9082 -1.6216 -2.8022
  559MPD2     N 8299   2.278   0.320  11.232 -0.6125  0.0682 -0.0412
  559MPD2    H5 8300   2.226   0.258  11.293  3.0704 -0.6284  2.4004
  559MPD2    N1 8301   1.860   0.383  11.006  0.1720 -0.4161  0.2531
  559MPD2    H7 8302   1.816   0.344  11.089 -0.2718 -1.4353 -0.4610
  560TMC3    C1 8303   2.475   0.272  11.353 -0.1333 -0.5892  0.0610
  560TMC3    C2 8304   2.434   0.142  11.367  0.4247 -0.1737  0.2615
  560TMC3    C3 8305   2.517   0.052  11.435 -0.0281 -0.2361 -0.0436
  560TMC3    C4 8306   2.604   0.309  11.391  0.0385  0.6320 -0.2530
  560TMC3    C5 8307   2.682   0.219  11.450 -0.6046 -0.1399  0.0595
  560TMC3    C6 8308   2.643   0.090  11.482  0.3113 -0.0055 -0.0479
  560TMC3     C 8309   2.402   0.361  11.263 -0.8143  0.4373 -0.4663
  560TMC3     O 8310   2.450   0.470  11.255  0.3302  1.0793  0.0326
  560TMC3     H 8311   2.338   0.108  11.329  0.8082  1.9907 -2.7017
  560TMC3    H1 8312   2.652   0.398  11.352 -0.2885  1.0009  0.1861
  560TMC3    H2 8313   2.708   0.018  11.530  1.9321  1.7678  0.4287
  560TMC3    C7 8314   2.821   0.239  11.500 -0.5153  0.5094  0.9252
  560TMC3    C8 8315   2.480   4.633  11.437  0.0828 -0.6885  0.2969
  560TMC3    O1 8316   2.894   0.141  11.517  0.1378  0.2736  0.0352
  560TMC3    O2 8317   2.369   4.609  11.400 -0.2840  0.2483 -0.3896
  561TMC3    C1 8318   0.064   3.831  11.391 -0.2897  0.7352  0.5124
  561TMC3    C2 8319   0.052   3.792  11.525  0.5630 -0.3095 -0.4727
  561TMC3    C3 8320   4.707   3.874  11.603 -0.1388 -0.3751  0.0900
  561TMC3    C4 8321   0.018   3.948  11.342  0.2413 -0.1328 -0.1862
  561TMC3    C5 8322   4.683   4.034  11.435  0.1543 -0.4301 -0.1606
  561TMC3    C6 8323   4.656   3.993  11.564 -0.0329 -1.1829 -0.2428
  561TMC3     C 8324   0.119   3.737  11.298 -0.8166  0.2207 -0.3252
  561TMC3     O 8325   0.116   3.619  11.329  0.6915  0.1371  0.1972
  561TMC3     H 8326   0.108   3.707  11.564 -0.2652 -1.5340 -1.9344
  561TMC3    H1 8327   0.015   3.977  11.237  5.5289 -0.2717 -0.3451
  561TMC3    H2 8328   4.600   4.055  11.633 -2.7695 -2.4322 -1.3502
  561TMC3    C7 8329   4.631   4.162  11.399 -0.5922  0.4018 -0.4734
  561TMC3    C8 8330   4.721   3.862  11.749 -0.3193  0.3006 -0.4157
  561TMC3    O1 8331   4.542   4.194  11.477 -0.2681 -0.3699 -0.0766
  561TMC3    O2 8332   4.724   3.749  11.797  0.1411  0.1065  0.1930
  562TMC3    C1 8333   1.019   0.199  16.606  0.2801  0.0020  0.1070
  562TMC3    C2 8334   0.954   0.312  16.574  0.2436  0.0505  0.0122
  562TMC3    C3 8335   0.864   0.301  16.477  0.2247 -0.0259 -0.1172
  562TMC3    C4 8336   1.008   0.083  16.532  0.2794 -0.3411  0.1051
  562TMC3    C5 8337   0.910   0.076  16.439  0.3434  0.4592 -0.1215
  562TMC3    C6 8338   0.833   0.183  16.407  0.2368 -0.0318 -0.0918
  562TMC3     C 8339   1.147   0.210  16.679 -0.1256  0.1116  0.0611
  562TMC3     O 8340   1.244   0.141  16.648 -0.0927  0.0659  0.4531
  562TMC3     H 8341   0.985   0.406  16.618  1.0026  0.3284 -1.1062
  562TMC3    H1 8342   1.057   4.722  16.579 -0.0409  0.2641  1.5329
  562TMC3    H2 8343   0.742   0.162  16.352  0.0919  0.2312  0.0514
  562TMC3    C7 8344   0.897   4.674  16.362 -0.1808 -0.0151  0.4249
  562TMC3    C8 8345   0.775   0.411  16.469  0.3404  0.7400 -0.0740
  562TMC3    O1 8346   0.809   4.666  16.276 -0.1488  0.1460 -0.2763
  562TMC3    O2 8347   0.783   0.492  16.560 -0.0284 -0.4644  0.3683
  563MPD2     C 8348   3.299   1.905  15.870 -0.2923  0.1843  0.3756
  563MPD2    C1 8349   3.353   1.954  15.991 -0.4539 -0.2660  0.5206
  563MPD2    C2 8350   3.484   1.925  16.003 -0.5160  0.4348  0.6357
  563MPD2    C3 8351   3.558   1.828  15.935  0.2779  0.0319 -0.1871
  563MPD2    C4 8352   3.488   1.758  15.834  0.2511 -0.2452 -0.5518
  563MPD2    C5 8353   3.362   1.808  15.798  0.6549  0.7058 -0.4048
  563MPD2     H 8354   3.545   1.974  16.078  1.6329  0.9452 -1.4370
  563MPD2    H1 8355   3.528   1.683  15.767 -0.3213 -0.8765 -0.1894
  563MPD2    H2 8356   3.197   1.928  15.839 -0.3680 -1.4722 -0.5789
  563MPD2    H3 8357   3.312   1.773  15.708  4.0781  1.0829 -2.4459
  563MPD2     N 8358   3.671   1.778  15.992 -0.0544  0.0635 -0.2732
  563MPD2    H5 8359   3.701   1.831  16.073 -2.0688  0.6758  0.0572
  563MPD2    N1 8360   3.281   2.038  16.079 -0.1159 -0.1921  0.3674
  563MPD2    H7 8361   3.200   2.085  16.041 -0.4225 -0.4384  0.7136
  564TMC3    C1 8362   3.211   2.119  16.297 -0.2895  0.4144  0.2663
  564TMC3    C2 8363   3.088   2.071  16.270 -0.2680 -0.6053  0.1645
  564TMC3    C3 8364   3.022   1.998  16.363 -0.4523  0.0624  0.2989
  564TMC3    C4 8365   3.266   2.100  16.421  0.0826 -0.2499  1.0050
  564TMC3    C5 8366   3.201   2.029  16.521 -0.9495 -0.4048  0.0836
  564TMC3    C6 8367   3.070   2.002  16.496  0.9902 -0.3219 -1.0682
  564TMC3     C 8368   3.321   2.073  16.208 -0.1663  0.2727  0.1382
  564TMC3     O 8369   3.422   2.039  16.261  0.2896  0.7727 -0.1662
  564TMC3     H 8370   3.036   2.110  16.184  0.5153 -0.2307 -0.1437
  564TMC3    H1 8371   3.359   2.149  16.444  1.0062 -1.5561  0.0506
  564TMC3    H2 8372   3.024   1.936  16.570 -1.1182  0.2235 -1.9057
  564TMC3    C7 8373   3.259   1.901  16.553 -0.1855  0.2318  0.3808
  564TMC3    C8 8374   2.979   1.872  16.324 -0.0642  0.0883  0.2194
  564TMC3    O1 8375   3.211   1.838  16.643  0.0853  0.0764 -0.7717
  564TMC3    O2 8376   2.954   1.791  16.414  0.0352  0.2273  0.0298
  565TMC3    C1 8377   4.605   3.457  10.995  0.3819 -0.8031  1.0925
  565TMC3    C2 8378   4.623   3.345  10.922  0.5393  0.4443  0.8203
  565TMC3    C3 8379   4.613   3.224  10.983  0.0655 -0.1047  0.2513
  565TMC3    C4 8380   4.595   3.444  11.133  0.6382  0.5480 -0.7417
  565TMC3    C5 8381   4.593   3.324  11.196 -0.0268  0.3014 -0.3123
  565TMC3    C6 8382   4.593   3.211  11.113  0.0330 -0.0666 -0.5565
  565TMC3     C 8383   4.592   3.583  10.918  0.2452 -0.0078 -0.8300
  565TMC3     O 8384   4.592   3.574  10.796 -0.4942 -0.0188 -0.8398
  565TMC3     H 8385   4.652   3.353  10.818 -1.6038 -2.9101 -0.0142
  565TMC3    H1 8386   4.579   3.533  11.192 -3.0205  0.1331 -1.1245
  565TMC3    H2 8387   4.598   3.113  11.160 -2.4053 -0.9115 -2.0689
  565TMC3    C7 8388   4.520   3.315  11.324 -0.1107  0.2076 -0.2917
  565TMC3    C8 8389   4.583   3.109  10.903 -0.4584  0.1702 -0.2701
  565TMC3    O1 8390   4.448   3.409  11.345 -0.4879  0.7540 -0.0226
  565TMC3    O2 8391   4.555   3.004  10.957  0.2470  0.4040 -0.4489
  566MPD2     C 8392   0.759   0.404  14.451  0.4007  0.3059  0.3442
  566MPD2    C1 8393   0.865   0.316  14.476  0.4374  0.0019  0.3446
  566MPD2    C2 8394   0.856   0.176  14.486 -0.3038 -0.7419  0.3196
  566MPD2    C3 8395   0.728   0.121  14.473 -0.3559 -0.1251 -0.3379
  566MPD2    C4 8396   0.627   0.207  14.438 -0.3409 -0.2596  0.4032
  566MPD2    C5 8397   0.641   0.343  14.432 -0.1943 -0.2465 -0.9375
  566MPD2     H 8398   0.928   0.108  14.529 -0.5776 -2.8323 -2.5879
  566MPD2    H1 8399   0.527   0.165  14.436  1.0750 -3.6159 -0.2490
  566MPD2    H2 8400   0.766   0.512  14.444 -1.1127  0.4533  1.0268
  566MPD2    H3 8401   0.546   0.392  14.415 -0.0250 -0.4672 -2.4828
  566MPD2     N 8402   0.708   4.703  14.465 -0.1940 -0.3841 -0.5301
  566MPD2    H5 8403   0.618   4.671  14.432 -0.5756 -0.0521  0.2037
  566MPD2    N1 8404   0.993   0.382  14.491  0.0946  0.4224  0.0272
  566MPD2    H7 8405   0.999   0.479  14.463  1.8687  0.3959  0.2977
  567TMC3    C1 8406   1.217   0.404  14.521 -0.3569  0.8691 -0.1206
  567TMC3    C2 8407   1.224   0.450  14.388 -0.4510 -0.8782 -0.2208
  567TMC3    C3 8408   1.327   0.413  14.306 -0.3562 -0.4010  0.0935
  567TMC3    C4 8409   1.320   0.336  14.572 -0.9416  0.5906  0.2273
  567TMC3    C5 8410   1.415   0.290  14.484 -0.0011  0.9736 -0.4961
  567TMC3    C6 8411   1.427   0.329  14.349  0.4147 -0.3753 -0.0567
  567TMC3     C 8412   1.102   0.320  14.547  0.0400  0.1114  0.4225
  567TMC3     O 8413   1.126   0.211  14.595 -0.6717 -0.3964  0.3366
  567TMC3     H 8414   1.153   0.518  14.345  0.8680  0.6581  0.0296
  567TMC3    H1 8415   1.319   0.315  14.678  1.5392 -1.3801 -0.1255
  567TMC3    H2 8416   1.509   0.296  14.287  1.0453  0.1369  0.4971
  567TMC3    C7 8417   1.459   0.148  14.502 -0.5182 -0.5323  0.0764
  567TMC3    C8 8418   1.287   0.393  14.168 -0.3528 -0.0072  0.3761
  567TMC3    O1 8419   1.520   0.091  14.417  0.5993 -0.1433 -0.3492
  567TMC3    O2 8420   1.189   0.463  14.134 -0.0708  0.6136 -0.2515
  568MPD2     C 8421   3.535   0.397  16.420  0.7227  0.2659 -0.7154
  568MPD2    C1 8422   3.484   0.454  16.533 -0.2190 -0.0452  1.0019
  568MPD2    C2 8423   3.385   0.547  16.525 -0.1493  0.1935 -0.1657
  568MPD2    C3 8424   3.359   0.613  16.406 -0.3278 -0.0388  0.3475
  568MPD2    C4 8425   3.408   0.555  16.288  0.1853  0.7220 -0.3741
  568MPD2    C5 8426   3.490   0.442  16.300 -0.7072 -0.0354 -0.3675
  568MPD2     H 8427   3.334   0.585  16.613 -1.8325  0.6794 -1.3287
  568MPD2    H1 8428   3.373   0.588  16.191 -1.5282 -2.7070 -0.9239
  568MPD2    H2 8429   3.607   0.317  16.433  2.1121  1.7736  0.8748
  568MPD2    H3 8430   3.528   0.395  16.210  0.8462  1.8430 -0.6988
  568MPD2     N 8431   3.277   0.728  16.413 -0.2531 -0.5969 -0.1378
  568MPD2    H5 8432   3.243   0.746  16.507 -0.2161 -0.1314 -0.2156
  568MPD2    N1 8433   3.542   0.405  16.657 -0.6115 -0.3643  0.0214
  568MPD2    H7 8434   3.613   0.334  16.646 -0.0541  0.2444 -0.2734
  569TMC3    C1 8435   3.205   0.940  16.369  0.0160  0.2977  0.0584
  569TMC3    C2 8436   3.120   0.943  16.473  0.7580  0.0588  0.9628
  569TMC3    C3 8437   3.055   1.064  16.483  0.0239  0.0236 -0.1730
  569TMC3    C4 8438   3.225   1.048  16.284 -0.7988 -0.5735  0.4595
  569TMC3    C5 8439   3.155   1.165  16.297  0.2074 -0.3003  0.3963
  569TMC3    C6 8440   3.051   1.167  16.391 -0.0671 -0.6736  0.1023
  569TMC3     C 8441   3.260   0.817  16.316 -0.3103 -0.2040 -0.4101
  569TMC3     O 8442   3.309   0.818  16.207 -0.0827 -0.1185  0.0985
  569TMC3     H 8443   3.104   0.866  16.547 -3.0849  0.1889  0.2680
  569TMC3    H1 8444   3.305   1.047  16.211  0.4686 -0.7668  1.8383
  569TMC3    H2 8445   2.993   1.255  16.416  0.1672 -0.9136  1.4811
  569TMC3    C7 8446   3.177   1.262  16.196 -0.6532 -0.0614  0.0854
  569TMC3    C8 8447   2.989   1.083  16.609  0.4489  0.3737 -0.6203
  569TMC3    O1 8448   3.252   1.241  16.103 -0.1445  0.0500  0.4699
  569TMC3    O2 8449   2.954   0.982  16.669 -0.2253  0.1612 -0.4852
  570TMC3    C1 8450   2.653   4.091  16.351  0.3371 -0.1865  0.3783
  570TMC3    C2 8451   2.750   4.097  16.246 -0.1304  0.5651  0.2393
  570TMC3    C3 8452   2.791   4.217  16.198 -0.2273 -0.7780  0.2771
  570TMC3    C4 8453   2.606   4.214  16.405  0.3697  0.9071  0.0921
  570TMC3    C5 8454   2.659   4.329  16.365 -0.4487  0.1318 -0.4675
  570TMC3    C6 8455   2.738   4.330  16.260  0.2892 -0.1802  0.6324
  570TMC3     C 8456   2.583   3.967  16.392 -0.4397  0.7477  0.1015
  570TMC3     O 8457   2.584   3.882  16.305 -0.2035 -0.0596 -0.4919
  570TMC3     H 8458   2.793   4.003  16.213 -1.8385 -0.8439  2.0513
  570TMC3    H1 8459   2.530   4.220  16.482 -0.7319 -3.5557 -0.6274
  570TMC3    H2 8460   2.760   4.426  16.214 -1.9270 -0.2027 -0.4325
  570TMC3    C7 8461   2.650   4.443  16.460 -0.0674 -0.0586 -0.5889
  570TMC3    C8 8462   2.883   4.235  16.093  0.3538  0.1890 -0.0901
  570TMC3    O1 8463   2.621   4.411  16.572 -0.0785 -0.9721 -0.4600
  570TMC3    O2 8464   2.944   4.338  16.093  0.1515  0.1347 -0.7901
  571MPD2     C 8465   1.412   0.599   0.562  0.5375 -0.2061  0.3695
  571MPD2    C1 8466   1.329   0.650   0.470  0.3115 -0.1377  0.2733
  571MPD2    C2 8467   1.215   0.714   0.514  0.2188  0.3055  0.4814
  571MPD2    C3 8468   1.194   0.742   0.651  0.0143 -0.8871  0.3938
  571MPD2    C4 8469   1.280   0.691   0.743 -0.2032  0.3946  0.0782
  571MPD2    C5 8470   1.385   0.612   0.699 -0.3799 -0.7452 -0.2026
  571MPD2     H 8471   1.140   0.742   0.441 -1.2538  0.0361  1.9068
  571MPD2    H1 8472   1.261   0.705   0.849 -0.2281  0.7284  0.0312
  571MPD2    H2 8473   1.506   0.551   0.537 -0.6641 -0.9311 -2.6911
  571MPD2    H3 8474   1.461   0.574   0.766 -0.9920 -0.4976  0.6236
  571MPD2     N 8475   1.091   0.826   0.708  0.0548 -0.2830  0.1783
  571MPD2    H5 8476   1.096   0.853   0.806 -0.3081  2.3503 -0.5388
  571MPD2    N1 8477   1.345   0.634   0.329  0.2526 -0.1392 -0.8052
  571MPD2    H7 8478   1.422   0.573   0.303  3.0712  2.9154  0.3974
  572TMC3    C1 8479   0.864   0.922   0.709 -0.1599  0.3634  0.0208
  572TMC3    C2 8480   0.885   0.993   0.829 -0.0401  0.3732  0.5079
  572TMC3    C3 8481   0.780   1.061   0.877  0.4867 -0.0290 -0.7175
  572TMC3    C4 8482   0.745   0.919   0.646  0.0169  0.6775  0.6112
  572TMC3    C5 8483   0.654   1.007   0.684 -0.1806  0.0735  0.1577
  572TMC3    C6 8484   0.663   1.069   0.805  0.2499 -0.5320  0.4525
  572TMC3     C 8485   0.977   0.863   0.638  0.3333 -0.3758 -0.4712
  572TMC3     O 8486   0.951   0.833   0.521 -0.2481  0.2955  0.1992
  572TMC3     H 8487   0.984   1.014   0.867  0.1547  0.5198 -0.0740
  572TMC3    H1 8488   0.736   0.849   0.564  1.1863  1.4416 -0.1658
  572TMC3    H2 8489   0.586   1.129   0.853  0.7260  0.1912  0.2991
  572TMC3    C7 8490   0.600   1.083   0.570 -0.9764 -0.3369  0.6064
  572TMC3    C8 8491   0.789   1.131   0.999  0.5161  0.8505  0.0257
  572TMC3    O1 8492   0.488   1.135   0.587 -0.0819 -0.3549  0.0943
  572TMC3    O2 8493   0.704   1.214   1.027  0.5827 -0.0140  0.0400
  573MPD2     C 8494   1.425   1.021   0.725  0.8367 -0.2872  0.8708
  573MPD2    C1 8495   1.312   1.099   0.746  0.1512 -0.2629  0.0322
  573MPD2    C2 8496   1.222   1.129   0.644  0.3602  0.7485 -0.5267
  573MPD2    C3 8497   1.251   1.089   0.514  0.7838 -0.2444 -0.2752
  573MPD2    C4 8498   1.369   1.020   0.489 -0.3998  0.4012  0.3519
  573MPD2    C5 8499   1.456   0.985   0.597  0.0096 -0.1403  0.1747
  573MPD2     H 8500   1.143   1.202   0.661 -0.7849 -0.6095 -0.0149
  573MPD2    H1 8501   1.395   0.977   0.393  0.0946 -0.5026  0.8856
  573MPD2    H2 8502   1.493   0.998   0.806 -1.3323 -1.6259  2.2983
  573MPD2    H3 8503   1.542   0.919   0.589 -0.8926 -1.3504  0.5830
  573MPD2     N 8504   1.173   1.122   0.401  0.2646  0.3999 -0.2927
  573MPD2    H5 8505   1.206   1.088   0.311 -0.8095  1.1342 -0.9648
  573MPD2    N1 8506   1.307   1.157   0.877  0.1408  0.3439  0.7346
  573MPD2    H7 8507   1.394   1.148   0.930 -0.7181 -0.0729  2.0747
  574TMC3    C1 8508   0.981   1.202   0.272 -0.0413  0.4506 -0.0116
  574TMC3    C2 8509   0.860   1.265   0.293  0.1250  0.1163 -0.2262
  574TMC3    C3 8510   0.817   1.377   0.217  0.4160  0.0876 -0.4908
  574TMC3    C4 8511   1.068   1.262   0.189 -0.3746 -0.8053 -0.1403
  574TMC3    C5 8512   1.029   1.374   0.126  0.0354  0.8819  0.3965
  574TMC3    C6 8513   0.905   1.428   0.128  0.1249 -0.7214  0.6661
  574TMC3     C 8514   1.040   1.167   0.403 -0.3424 -0.6276  0.2372
  574TMC3     O 8515   0.964   1.186   0.494 -0.6330 -0.0255 -0.1447
  574TMC3     H 8516   0.792   1.220   0.365  0.1657  1.5931  0.7439
  574TMC3    H1 8517   1.171   1.228   0.190  0.5536  2.0211  1.1030
  574TMC3    H2 8518   0.889   1.523   0.078 -1.5921 -0.8192  1.0427
  574TMC3    C7 8519   1.117   1.431   0.028  0.1165  0.8426 -0.1466
  574TMC3    C8 8520   0.698   1.456   0.260 -0.3191  0.6136  0.5965
  574TMC3    O1 8521   1.233   1.409   0.058 -0.0141 -0.3830 -0.3040
  574TMC3    O2 8522   0.629   1.400   0.344 -0.1393  0.1468  0.4043
  575TMC3    C1 8523   4.305   2.296  10.730 -0.4277  0.0494 -0.3751
  575TMC3    C2 8524   4.286   2.254  10.601 -0.2371  0.0756  0.1142
  575TMC3    C3 8525   4.294   2.345  10.500 -0.7272 -0.6416 -0.0338
  575TMC3    C4 8526   4.350   2.426  10.762 -0.8901  0.2331  0.5938
  575TMC3    C5 8527   4.357   2.512  10.652 -0.2781 -0.1013 -0.8297
  575TMC3    C6 8528   4.325   2.476  10.525  0.4247  0.4115  0.3595
  575TMC3     C 8529   4.290   2.202  10.842 -0.3089 -0.3566 -0.5680
  575TMC3     O 8530   4.274   2.245  10.952  0.1779  0.2094 -0.1069
  575TMC3     H 8531   4.272   2.150  10.576 -1.9403  0.0862  1.0808
  575TMC3    H1 8532   4.376   2.459  10.861 -0.8648  1.7563  0.0772
  575TMC3    H2 8533   4.335   2.537  10.436 -1.0416  2.0592  1.3210
  575TMC3    C7 8534   4.436   2.629  10.667 -0.7062  0.2511 -0.5458
  575TMC3    C8 8535   4.275   2.297  10.368 -0.7994  0.0595 -0.8397
  575TMC3    O1 8536   4.510   2.652  10.760  0.4435  0.3853  0.7149
  575TMC3    O2 8537   4.298   2.178  10.350  0.3144  0.0468 -0.1475
  576MPD2     C 8538   4.440   0.082  12.849 -0.0064  0.4378 -0.3962
  576MPD2    C1 8539   4.341   0.046  12.762 -0.5066 -0.2560 -0.4221
  576MPD2    C2 8540   4.211   0.073  12.795 -0.3179 -0.1782 -0.3829
  576MPD2    C3 8541   4.176   0.140  12.913  0.7317 -0.3730 -0.5593
  576MPD2    C4 8542   4.278   0.174  12.998 -0.3692 -0.2409  0.4122
  576MPD2    C5 8543   4.406   0.141  12.966  0.6014  0.2180  0.4360
  576MPD2     H 8544   4.130   0.035  12.734 -0.0635  0.3075 -1.0151
  576MPD2    H1 8545   4.259   0.217  13.096  0.9388  0.7450  0.2313
  576MPD2    H2 8546   4.543   0.050  12.839  0.5866  1.5055  2.4642
  576MPD2    H3 8547   4.481   0.167  13.039 -0.0338 -0.8681  1.4663
  576MPD2     N 8548   4.040   0.179  12.929 -0.0506 -0.0725  0.2739
  576MPD2    H5 8549   3.972   0.144  12.862  0.8695 -0.8168 -0.2580
  576MPD2    N1 8550   4.364   4.715  12.637 -0.4303  0.5203  0.2176
  576MPD2    H7 8551   4.279   4.706  12.582 -0.0294  0.6231 -0.4197
  577TMC3    C1 8552   4.485   4.639  12.443 -0.0700 -0.3174  0.3665
  577TMC3    C2 8553   4.588   4.562  12.402  0.2023  0.7751  0.2926
  577TMC3    C3 8554   4.576   4.493  12.290  0.6499  0.4599 -0.8072
  577TMC3    C4 8555   4.382   4.680  12.358  0.1094 -0.5179  0.6485
  577TMC3    C5 8556   4.389   4.621  12.232  0.5315  0.2710 -0.0440
  577TMC3    C6 8557   4.463   4.512  12.208  0.4352 -0.0250  0.2392
  577TMC3     C 8558   4.485   4.675  12.588 -1.0939  0.2378 -0.0863
  577TMC3     O 8559   4.584   4.639  12.651 -0.0690  0.5299 -0.1642
  577TMC3     H 8560   4.676   4.548  12.464  0.4799  0.6072 -0.1473
  577TMC3    H1 8561   4.307   0.032  12.377  1.2957  1.7643 -3.6443
  577TMC3    H2 8562   4.443   4.456  12.117 -1.5954  0.5362  0.3482
  577TMC3    C7 8563   4.311   4.687  12.120  0.2359 -0.4549  0.0391
  577TMC3    C8 8564   4.642   4.367  12.276 -0.3563 -0.6789 -0.5554
  577TMC3    O1 8565   4.240   0.056  12.155  0.0492 -0.6767 -0.6148
  577TMC3    O2 8566   4.715   4.329  12.371 -0.5510 -0.3413  0.0321
  578MPD2     C 8567   1.744   0.315   2.126  0.4258  0.1189 -0.2170
  578MPD2    C1 8568   1.811   0.333   2.007  0.1903  0.1173  0.1638
  578MPD2    C2 8569   1.925   0.252   1.986 -0.5939  0.0418  0.0002
  578MPD2    C3 8570   1.959   0.143   2.073  0.0950  0.3905 -0.2040
  578MPD2    C4 8571   1.885   0.130   2.189  0.5333  0.5300  0.4853
  578MPD2    C5 8572   1.779   0.216   2.211  0.5397 -0.2855  0.1403
  578MPD2     H 8573   1.982   0.256   1.894 -0.8963  1.7620 -0.1174
  578MPD2    H1 8574   1.893   0.051   2.262 -0.2129  0.7389  0.7866
  578MPD2    H2 8575   1.659   0.381   2.140  2.2835  2.4855 -0.1733
  578MPD2    H3 8576   1.715   0.197   2.296  0.5158 -1.6168 -0.1728
  578MPD2     N 8577   2.080   0.074   2.047  0.1744 -0.1271 -0.1050
  578MPD2    H5 8578   2.126   0.090   1.958  1.1815 -2.1518  0.0571
  578MPD2    N1 8579   1.770   0.439   1.922 -0.0784  0.2003  0.5731
  578MPD2    H7 8580   1.688   0.494   1.949 -1.0473 -0.2896 -1.3526
  579TMC3    C1 8581   2.266   4.655   2.070  0.3501  0.3589 -0.6041
  579TMC3    C2 8582   2.362   4.637   2.167 -0.2312 -1.3644  0.7789
  579TMC3    C3 8583   2.486   4.604   2.126  0.5341  0.4175  0.3917
  579TMC3    C4 8584   2.275   4.609   1.947 -0.2423 -0.2151  0.1301
  579TMC3    C5 8585   2.396   4.562   1.904 -0.5836  0.2612 -0.4460
  579TMC3    C6 8586   2.507   4.559   1.990 -0.0103 -0.6769 -0.1994
  579TMC3     C 8587   2.131   4.695   2.124  0.6694 -0.3045  0.3630
  579TMC3     O 8588   2.098   4.655   2.238 -0.3880 -0.2045 -0.0096
  579TMC3     H 8589   2.355   4.670   2.270  0.0449  0.9327  0.0737
  579TMC3    H1 8590   2.185   4.611   1.888  1.0234  2.1707 -1.7051
  579TMC3    H2 8591   2.601   4.513   1.963 -0.2504 -0.6253 -1.1092
  579TMC3    C7 8592   2.397   4.462   1.801 -0.2417  0.6968 -0.2568
  579TMC3    C8 8593   2.590   4.693   2.186 -0.1608 -0.5380 -0.1164
  579TMC3    O1 8594   2.506   4.407   1.793  0.5454 -0.4426  0.3696
  579TMC3    O2 8595   2.586   0.000   2.303 -0.5562  0.2612 -0.4120
  580TMC3    C1 8596   1.748   3.902  12.072 -0.8776  0.3094  0.1581
  580TMC3    C2 8597   1.790   4.017  12.140 -0.6640 -0.7612 -0.4352
  580TMC3    C3 8598   1.886   4.004  12.238 -0.1762  0.3897  0.0564
  580TMC3    C4 8599   1.798   3.773  12.109  0.9153  0.2821 -0.3005
  580TMC3    C5 8600   1.879   3.771  12.220  0.1253  0.6030  0.4688
  580TMC3    C6 8601   1.930   3.883  12.275  0.8232 -0.4696  0.2506
  580TMC3     C 8602   1.621   3.913  11.999 -0.2196  0.6779 -0.1701
  580TMC3     O 8603   1.535   3.832  12.027  0.4037 -0.3748 -0.0880
  580TMC3     H 8604   1.753   4.116  12.117 -1.8689 -0.6218  2.1814
  580TMC3    H1 8605   1.738   3.691  12.073 -0.4069  1.4077 -0.6629
  580TMC3    H2 8606   1.976   3.881  12.373  2.2173  2.2469 -0.3515
  580TMC3    C7 8607   1.941   3.656  12.273 -0.8829 -1.0994 -0.6870
  580TMC3    C8 8608   1.997   4.087  12.200 -0.0414  1.1244 -0.3960
  580TMC3    O1 8609   1.998   3.667  12.384  0.3032 -0.0877  0.9099
  580TMC3    O2 8610   1.976   4.205  12.179  0.0386  0.2766  0.1084
  581MPD2     C 8611   4.378   2.835  15.163  1.0698  0.9516  0.0334
  581MPD2    C1 8612   4.322   2.910  15.267 -0.3287  0.5306  0.1146
  581MPD2    C2 8613   4.227   3.011  15.228 -0.6278  0.3726 -0.4480
  581MPD2    C3 8614   4.195   3.027  15.098  0.4416 -0.0715 -0.4445
  581MPD2    C4 8615   4.259   2.953  15.001 -0.3944 -0.3378 -0.2548
  581MPD2    C5 8616   4.358   2.865  15.030  0.6723 -0.7289 -0.2159
  581MPD2     H 8617   4.165   3.041  15.312 -2.6997 -1.4445 -1.3126
  581MPD2    H1 8618   4.242   2.976  14.897 -1.1477 -0.2648 -0.1123
  581MPD2    H2 8619   4.439   2.749  15.189 -2.9127 -2.3098 -1.3590
  581MPD2    H3 8620   4.398   2.811  14.944  1.3884  0.7467 -0.8245
  581MPD2     N 8621   4.097   3.119  15.061  0.3064  0.0015  0.2134
  581MPD2    H5 8622   4.070   3.193  15.125 -0.0535 -1.2617  1.5134
  581MPD2    N1 8623   4.335   2.859  15.396 -0.1870  0.0138  0.3575
  581MPD2    H7 8624   4.416   2.801  15.412 -0.6172 -0.9900 -1.1544
  582TMC3    C1 8625   4.311   2.826  15.625  0.4865  0.1577  0.0445
  582TMC3    C2 8626   4.266   2.879  15.744  0.4521 -0.1018  1.2484
  582TMC3    C3 8627   4.226   2.786  15.839  0.0318 -0.0496  0.2046
  582TMC3    C4 8628   4.298   2.694  15.599  0.3388 -0.3292 -0.1386
  582TMC3    C5 8629   4.249   2.602  15.693  1.1566  0.2241  0.0751
  582TMC3    C6 8630   4.212   2.649  15.811  0.6492  0.1592  0.2247
  582TMC3     C 8631   4.272   2.904  15.515  0.6052 -0.2439  0.5263
  582TMC3     O 8632   4.188   2.993  15.540 -0.5385  0.1623  0.1227
  582TMC3     H 8633   4.267   2.985  15.764  0.9812 -0.0226  0.8032
  582TMC3    H1 8634   4.351   2.648  15.516  1.3955  0.3415  0.1593
  582TMC3    H2 8635   4.177   2.579  15.886  1.7080 -0.0165  0.5610
  582TMC3    C7 8636   4.126   2.550  15.635  0.0729 -0.8551 -0.2027
  582TMC3    C8 8637   4.232   2.820  15.981  0.4102 -0.0392  0.2250
  582TMC3    O1 8638   4.028   2.579  15.705 -0.7041  0.1322  0.6278
  582TMC3    O2 8639   4.210   2.937  16.012  0.1707  0.0870 -0.0182
  583MPD2     C 8640   4.608   4.310  17.192  0.4902 -0.3018 -0.2587
  583MPD2    C1 8641   4.552   4.406  17.111  0.3663 -0.2461  0.0837
  583MPD2    C2 8642   4.464   4.497  17.166 -0.1313  0.0767  0.7664
  583MPD2    C3 8643   4.434   4.503  17.301 -0.3145 -0.5183 -0.1178
  583MPD2    C4 8644   4.502   4.413  17.383  0.1785 -0.7173 -0.1885
  583MPD2    C5 8645   4.586   4.320  17.327  0.0629  0.0660 -0.5111
  583MPD2     H 8646   4.416   4.569  17.100  2.9228  1.2216 -0.2262
  583MPD2    H1 8647   4.480   4.403  17.489  0.5915  2.3360  0.1734
  583MPD2    H2 8648   4.673   4.229  17.160  0.0792 -0.3896 -0.8742
  583MPD2    H3 8649   4.620   4.245  17.397 -0.1600  1.7083  1.3858
  583MPD2     N 8650   4.341   4.596  17.339  0.1347  0.3023 -0.0637
  583MPD2    H5 8651   4.299   4.651  17.264  0.6911  0.3463 -0.3404
  583MPD2    N1 8652   4.574   4.407  16.971 -0.1373  0.0220  0.1314
  583MPD2    H7 8653   4.527   4.485  16.925  2.2252  0.8968 -0.7801
  584TMC3    C1 8654   4.184   4.709  17.472 -0.5427 -0.5103  0.0237
  584TMC3    C2 8655   4.120   0.040  17.362  0.0778 -0.1111 -0.1690
  584TMC3    C3 8656   4.015   0.126  17.385  0.3841 -0.4162 -0.2369
  584TMC3    C4 8657   4.157   0.027  17.602  0.1852  0.1746  0.5953
  584TMC3    C5 8658   4.052   0.119  17.614  0.5285  0.1450 -0.0850
  584TMC3    C6 8659   3.987   0.170  17.507 -0.1029  0.0304  0.3354
  584TMC3     C 8660   4.286   4.608  17.462 -0.4955  0.1021  0.4301
  584TMC3     O 8661   4.316   4.550  17.566  0.1682  0.1090  0.2658
  584TMC3     H 8662   4.141   0.007  17.261  0.5511  0.0876 -0.1302
  584TMC3    H1 8663   4.224   4.719  17.680  1.1271 -3.4132 -1.6883
  584TMC3    H2 8664   3.895   0.226  17.518  2.0800  3.6998  0.0177
  584TMC3    C7 8665   4.015   0.171   0.043 -0.7425  0.2538  0.6077
  584TMC3    C8 8666   3.976   0.211  17.275  0.7145 -0.2648  0.0211
  584TMC3    O1 8667   4.096   0.162   0.135  0.0177  0.1110 -0.3457
  584TMC3    O2 8668   3.983   0.163  17.163 -0.1127  0.5313 -0.1849
  585MPD2     C 8669   3.331   4.454  17.598 -0.2638 -0.7004 -0.1758
  585MPD2    C1 8670   3.399   4.391   0.006 -0.5491  0.7267  0.6345
  585MPD2    C2 8671   3.451   4.260  17.679  0.5087 -0.4439  0.0297
  585MPD2    C3 8672   3.454   4.203  17.557  0.3087  0.0918 -0.7539
  585MPD2    C4 8673   3.373   4.261  17.459  0.1319  0.3539 -0.0648
  585MPD2    C5 8674   3.309   4.380  17.482 -0.0746  0.3143  0.7619
  585MPD2     H 8675   3.476   4.207   0.072  2.9288  1.8042  0.6917
  585MPD2    H1 8676   3.356   4.225  17.358 -1.4884 -0.6373  0.5623
  585MPD2    H2 8677   3.292   4.554  17.616 -0.3025 -0.7895  0.2568
  585MPD2    H3 8678   3.260   4.440  17.406  1.5310 -0.5847 -0.9886
  585MPD2     N 8679   3.511   4.071  17.536 -0.2121  0.4119 -0.2255
  585MPD2    H5 8680   3.481   4.014  17.458  0.8482 -2.1899  1.2470
  585MPD2    N1 8681   3.412   4.456   0.136 -0.0888 -0.4395 -0.7080
  585MPD2    H7 8682   3.468   4.408   0.206  1.4987  2.0758 -0.2876
  586TMC3    C1 8683   3.590   3.862  17.625  0.1838 -0.4354  0.4495
  586TMC3    C2 8684   3.696   3.818  17.695 -0.6487  0.2624 -0.3005
  586TMC3    C3 8685   3.678   3.710   0.079  0.3170 -0.0017 -0.1999
  586TMC3    C4 8686   3.471   3.795  17.612  0.0630 -0.3623 -0.7225
  586TMC3    C5 8687   3.460   3.694   0.007 -0.1424 -0.1083  0.8580
  586TMC3    C6 8688   3.559   3.644   0.078  0.7073  0.0265  0.3059
  586TMC3     C 8689   3.583   4.010  17.634  0.1162  0.9052 -0.0155
  586TMC3     O 8690   3.656   4.062   0.020  0.5215 -0.7103 -0.1930
  586TMC3     H 8691   3.786   3.877   0.010 -1.8345  2.2080 -0.9158
  586TMC3    H1 8692   3.386   3.846  17.567 -1.1442 -1.7892 -0.0383
  586TMC3    H2 8693   3.540   3.552   0.132  1.0793 -1.2432 -1.7591
  586TMC3    C7 8694   3.363   3.597  17.660 -0.4466  0.1999  0.3990
  586TMC3    C8 8695   3.788   3.614   0.091 -0.3032  0.6702 -0.9461
  586TMC3    O1 8696   3.383   3.479  17.685 -0.0235 -0.4074  0.1694
  586TMC3    O2 8697   3.756   3.502   0.125  0.2433  0.2396 -0.8286
  587TMC3    C1 8698   0.905   1.822  17.483  0.0211 -0.4385 -0.0294
  587TMC3    C2 8699   0.927   1.900  17.378 -0.6479 -0.6462 -0.3882
  587TMC3    C3 8700   1.051   1.944  17.359 -0.2456  0.1804 -0.5695
  587TMC3    C4 8701   0.997   1.801  17.577 -0.5923  0.3328 -0.1550
  587TMC3    C5 8702   1.116   1.859  17.558  0.1948 -0.6291  0.3754
  587TMC3    C6 8703   1.154   1.938  17.449  0.7132  0.3058 -0.5417
  587TMC3     C 8704   0.785   1.737  17.491  0.1081  0.1059 -0.0069
  587TMC3     O 8705   0.776   1.655  17.583  0.3750  0.3737 -0.0546
  587TMC3     H 8706   0.845   1.921  17.311 -0.0807 -0.8754 -1.1576
  587TMC3    H1 8707   0.979   1.749  17.670 -0.8736 -0.7582 -0.8120
  587TMC3    H2 8708   1.247   1.991  17.429  0.4174  1.1364  0.3014
  587TMC3    C7 8709   1.221   1.825  17.660 -0.4981  0.9630 -0.3185
  587TMC3    C8 8710   1.065   2.042  17.256  0.3421  0.0394  0.2337
  587TMC3    O1 8711   1.193   1.812   0.079  0.1111  0.7700  0.3742
  587TMC3    O2 8712   1.145   2.134  17.269  0.1490 -0.1844 -0.2722
  588TMC3    C1 8713   3.608   0.853  10.360 -0.2058  0.7827 -0.3538
  588TMC3    C2 8714   3.529   0.745  10.389 -0.8485  0.4571  0.4349
  588TMC3    C3 8715   3.588   0.626  10.417  0.9747  0.5929  0.1373
  588TMC3    C4 8716   3.745   0.838  10.335 -0.4759 -0.5452 -0.1674
  588TMC3    C5 8717   3.800   0.717  10.365 -0.3474  1.2085  0.1912
  588TMC3    C6 8718   3.725   0.608  10.413 -0.3905  0.2969  0.1669
  588TMC3     C 8719   3.549   0.947  10.268 -0.6662 -0.0252 -0.6316
  588TMC3     O 8720   3.428   0.946  10.259  0.1448 -0.3675  0.1543
  588TMC3     H 8721   3.421   0.758  10.386 -1.0573 -1.9213 -2.6503
  588TMC3    H1 8722   3.808   0.924  10.319 -0.0965 -0.9290 -0.7431
  588TMC3    H2 8723   3.781   0.524  10.452  3.1425  1.4530 -2.3799
  588TMC3    C7 8724   3.911   0.674  10.280 -0.8083  0.8044 -0.3659
  588TMC3    C8 8725   3.504   0.520  10.452  0.4061  0.6027 -0.6850
  588TMC3    O1 8726   3.941   0.556  10.278 -0.3274  0.1099  0.5715
  588TMC3    O2 8727   3.389   0.535  10.430 -0.2891 -0.1706 -0.4600
  589TMC3    C1 8728   1.772   2.482   1.329 -0.9868  0.0455 -0.8778
  589TMC3    C2 8729   1.859   2.479   1.435  0.0936  1.4964  0.4206
  589TMC3    C3 8730   1.967   2.393   1.435  0.4046  0.6053 -0.6653
  589TMC3    C4 8731   1.787   2.391   1.220 -0.2090  0.7819  1.0478
  589TMC3    C5 8732   1.899   2.302   1.236 -0.8217 -0.2436  0.8587
  589TMC3    C6 8733   1.984   2.305   1.341  0.7672 -0.0449  0.2832
  589TMC3     C 8734   1.707   2.613   1.296  0.6835  0.2932 -0.4307
  589TMC3     O 8735   1.676   2.635   1.181  0.2686 -0.3340  0.1920
  589TMC3     H 8736   1.841   2.538   1.524  0.0840 -1.2272  2.2042
  589TMC3    H1 8737   1.730   2.411   1.130 -0.3487 -1.1326  0.7281
  589TMC3    H2 8738   2.057   2.225   1.352 -0.7491 -1.6589 -1.4450
  589TMC3    C7 8739   1.934   2.199   1.138 -1.2753 -0.5671  0.9127
  589TMC3    C8 8740   2.033   2.369   1.565  0.1398  0.5888  0.2701
  589TMC3    O1 8741   2.047   2.158   1.149  0.2302  0.2595  0.1282
  589TMC3    O2 8742   1.957   2.389   1.660  0.2076 -0.1082 -0.2445
  590MPD2     C 8743   2.056   0.584  17.003 -0.2742 -0.4150  0.1826
  590MPD2    C1 8744   1.994   0.663  16.906 -0.1851 -0.0565  0.2323
  590MPD2    C2 8745   2.077   0.736  16.824  0.1756  0.4097 -0.3590
  590MPD2    C3 8746   2.214   0.745  16.843  0.8686 -0.3148 -0.2504
  590MPD2    C4 8747   2.272   0.672  16.939 -0.1287  0.2486  0.6397
  590MPD2    C5 8748   2.195   0.592  17.021 -0.3010  0.0138  0.6218
  590MPD2     H 8749   2.030   0.789  16.742  1.0185  0.5423 -0.7618
  590MPD2    H1 8750   2.380   0.663  16.937 -0.2104 -0.9601  1.8891
  590MPD2    H2 8751   1.994   0.513  17.056  0.6119 -0.6981  0.8408
  590MPD2    H3 8752   2.242   0.524  17.091 -0.0569 -2.9883 -2.4378
  590MPD2     N 8753   2.274   0.829  16.742  0.3204  0.3133  0.0882
  590MPD2    H5 8754   2.207   0.879  16.684  1.4970 -0.7130 -2.1775
  590MPD2    N1 8755   1.855   0.660  16.885  0.3011  0.2522  0.1306
  590MPD2    H7 8756   1.781   0.618  16.940  1.6197 -1.9671  0.2032
  591TMC3    C1 8757   2.438   0.929  16.619 -0.4717 -0.0527  0.1367
  591TMC3    C2 8758   2.552   0.919  16.552  0.0629 -0.3224  0.6564
  591TMC3    C3 8759   2.574   1.007  16.449 -0.3539  0.7592  0.0191
  591TMC3    C4 8760   2.352   1.036  16.602 -0.0395  0.4819 -0.2495
  591TMC3    C5 8761   2.375   1.123  16.498 -0.1898  0.7273  0.3824
  591TMC3    C6 8762   2.480   1.107  16.412  0.0332  0.1121 -0.1026
  591TMC3     C 8763   2.410   0.845  16.731 -0.5664 -0.2699  0.7893
  591TMC3     O 8764   2.507   0.809  16.794 -0.2107 -0.4222  0.1350
  591TMC3     H 8765   2.629   0.844  16.570  0.0217 -0.5974 -0.3357
  591TMC3    H1 8766   2.260   1.057  16.655  1.3820  1.6655  1.7829
  591TMC3    H2 8767   2.470   1.173  16.327  0.2907  1.2188  0.7316
  591TMC3    C7 8768   2.270   1.207  16.455  0.1784  0.0694 -0.4197
  591TMC3    C8 8769   2.670   0.970  16.347  0.3073  0.0117 -0.0799
  591TMC3    O1 8770   2.177   1.145  16.405 -0.4833  0.7801 -0.1358
  591TMC3    O2 8771   2.700   0.849  16.340  0.1073  0.0117  0.0095
  592MPD2     C 8772   3.102   3.122  11.689 -0.4854 -0.6050 -0.1603
  592MPD2    C1 8773   3.065   3.182  11.811 -0.2247  0.2412  0.5194
  592MPD2    C2 8774   2.982   3.122  11.899 -0.8764 -0.3917 -0.7622
  592MPD2    C3 8775   2.910   3.008  11.859  0.3425  0.1289  0.7317
  592MPD2    C4 8776   2.944   2.948  11.742 -0.3509 -0.5865  0.5265
  592MPD2    C5 8777   3.037   3.003  11.660  0.1623 -0.2349  0.3717
  592MPD2     H 8778   2.990   3.150  12.003  2.0010  2.1721 -1.6590
  592MPD2    H1 8779   2.897   2.857  11.706 -2.4253  0.5779  0.2871
  592MPD2    H2 8780   3.174   3.161  11.618  0.7414  0.0533  1.4557
  592MPD2    H3 8781   3.058   2.949  11.568 -0.0391 -1.1554  0.8704
  592MPD2     N 8782   2.810   2.961  11.949  0.4510  0.1932 -0.1155
  592MPD2    H5 8783   2.799   3.014  12.035  0.9824 -3.3865  2.1804
  592MPD2    N1 8784   3.146   3.282  11.855 -0.0732 -0.0579 -0.3893
  592MPD2    H7 8785   3.231   3.310  11.808  0.8973  0.1953  1.5167
  593TMC3    C1 8786   3.213   3.451  12.010 -0.0931  0.2229  0.5941
  593TMC3    C2 8787   3.191   3.496  12.137 -0.2463 -0.3879  0.0758
  593TMC3    C3 8788   3.293   3.552  12.198  0.1025  0.2437  0.7751
  593TMC3    C4 8789   3.329   3.478  11.946  0.0589 -0.5771 -1.6236
  593TMC3    C5 8790   3.431   3.543  12.008 -0.0563  0.5434 -0.2038
  593TMC3    C6 8791   3.410   3.574  12.135  0.2316  0.2949 -0.2071
  593TMC3     C 8792   3.110   3.359  11.967  0.6509 -0.4694  0.1488
  593TMC3     O 8793   3.003   3.371  12.024  0.3555 -0.0470  0.0385
  593TMC3     H 8794   3.100   3.490  12.195  0.0462 -0.5419  0.5172
  593TMC3    H1 8795   3.334   3.446  11.842  2.0659 -0.3810 -1.5718
  593TMC3    H2 8796   3.493   3.611  12.194  1.0137 -0.7205 -0.6823
  593TMC3    C7 8797   3.545   3.595  11.940 -0.2330 -0.2245  0.0879
  593TMC3    C8 8798   3.305   3.529  12.343  1.1762 -1.2479  0.4123
  593TMC3    O1 8799   3.595   3.690  11.990 -0.0331 -0.4932 -0.0115
  593TMC3    O2 8800   3.220   3.455  12.390 -0.4444 -0.0290 -0.4385
  594MPD2     C 8801   1.356   1.473  14.900 -0.4634 -0.2973  0.5718
  594MPD2    C1 8802   1.253   1.552  14.854  0.4352  0.0343  0.6017
  594MPD2    C2 8803   1.282   1.667  14.783  0.6966 -1.3035  0.1766
  594MPD2    C3 8804   1.412   1.700  14.751  1.1745  0.2053  0.9205
  594MPD2    C4 8805   1.514   1.610  14.790 -0.0517 -1.0915  0.4514
  594MPD2    C5 8806   1.482   1.497  14.864  0.0305  0.3483 -0.3066
  594MPD2     H 8807   1.203   1.737  14.757  2.1826  0.4151  0.3338
  594MPD2    H1 8808   1.616   1.622  14.756 -0.6724  2.7168 -0.0294
  594MPD2    H2 8809   1.337   1.375  14.942 -0.3954 -0.3864  0.3943
  594MPD2    H3 8810   1.548   1.412  14.874  1.0932  1.2417  0.1968
  594MPD2     N 8811   1.432   1.820  14.681 -0.0189 -0.3824  0.2586
  594MPD2    H5 8812   1.355   1.886  14.684 -0.0959 -0.4657  0.1139
  594MPD2    N1 8813   1.126   1.512  14.891 -0.1446  0.1497  0.0870
  594MPD2    H7 8814   1.125   1.442  14.964 -0.5575 -0.2444 -0.2989
  595TMC3    C1 8815   1.731   2.176  14.630 -0.4430  0.0415 -0.2789
  595TMC3    C2 8816   1.690   2.052  14.589  0.5591 -0.0935  1.3223
  595TMC3    C3 8817   1.570   2.007  14.625  0.0294 -0.1691 -0.4247
  595TMC3    C4 8818   1.653   2.251  14.714 -0.6469  0.1359 -0.6627
  595TMC3    C5 8819   1.532   2.205  14.752  0.1062 -0.5886  0.6133
  595TMC3    C6 8820   1.476   2.089  14.699 -0.4526  0.0801 -0.3122
  595TMC3     C 8821   1.873   2.202  14.652 -0.3880 -0.5192  0.0652
  595TMC3     O 8822   1.906   2.243  14.765  0.2734  0.0545 -0.0019
  595TMC3     H 8823   1.769   1.994  14.543  0.4640  0.1472  0.8577
  595TMC3    H1 8824   1.689   2.346  14.752 -0.2053 -0.6520  0.9104
  595TMC3    H2 8825   1.379   2.060  14.739 -0.3864 -0.3442 -0.4591
  595TMC3    C7 8826   1.481   2.238  14.880 -0.3385  0.0174 -0.4260
  595TMC3    C8 8827   1.560   1.864  14.637  0.4124 -0.5047 -0.5434
  595TMC3    O1 8828   1.377   2.188  14.913 -0.2843  0.5153  0.0055
  595TMC3    O2 8829   1.660   1.797  14.610 -0.0360  0.3342 -0.1563
  596MPD2     C 8830   0.625   4.551  17.167  0.8891 -0.1510  0.1355
  596MPD2    C1 8831   0.559   4.643  17.090  0.0867 -0.5900 -0.2452
  596MPD2    C2 8832   0.573   4.634  16.954  0.0134 -0.5893  0.1520
  596MPD2    C3 8833   0.620   4.513  16.899 -0.4250 -0.2605  0.1310
  596MPD2    C4 8834   0.665   4.414  16.977 -0.4539  0.3947 -0.5610
  596MPD2    C5 8835   0.675   4.437  17.107  1.3293 -0.1195  0.0592
  596MPD2     H 8836   0.534   4.711  16.889  0.0662  0.6804  1.6132
  596MPD2    H1 8837   0.723   4.330  16.942  1.8291 -0.5872  5.5058
  596MPD2    H2 8838   0.625   4.564  17.274  1.6535 -2.4024  0.4082
  596MPD2    H3 8839   0.705   4.351  17.166  0.9956 -0.7316 -0.6653
  596MPD2     N 8840   0.618   4.484  16.758  0.0221 -0.1543  0.6630
  596MPD2    H5 8841   0.663   4.398  16.729 -3.3809 -1.2560 -1.3570
  596MPD2    N1 8842   0.496   0.029  17.149 -0.1708  0.4164  0.2956
  596MPD2    H7 8843   0.451   0.084  17.076 -0.5522  0.5768  0.6537
  597TMC3    C1 8844   0.395   0.183  17.283 -0.3571  0.2078  0.3879
  597TMC3    C2 8845   0.472   0.283  17.244  0.7178 -0.5129  0.3156
  597TMC3    C3 8846   0.412   0.407  17.249 -1.0843 -0.2112  0.1864
  597TMC3    C4 8847   0.280   0.201  17.353 -0.2667  0.1609 -0.1204
  597TMC3    C5 8848   0.226   0.323  17.363  0.1775 -0.5912  0.1025
  597TMC3    C6 8849   0.291   0.434  17.307 -0.4448 -0.5519 -0.5099
  597TMC3     C 8850   0.449   0.049  17.277  0.3574  0.1585  0.4193
  597TMC3     O 8851   0.439   4.705  17.375 -0.4368 -0.4843 -0.0187
  597TMC3     H 8852   0.566   0.263  17.193  0.9029 -1.8269  1.1506
  597TMC3    H1 8853   0.229   0.117  17.398 -1.4778  1.3913  0.8003
  597TMC3    H2 8854   0.253   0.534  17.320  1.1081 -0.1264  0.7767
  597TMC3    C7 8855   0.097   0.335  17.421 -0.1578 -0.1683 -0.2418
  597TMC3    C8 8856   0.490   0.524  17.203 -0.2406  0.1605 -0.0355
  597TMC3    O1 8857   0.060   0.242  17.485  0.1724 -0.6050 -0.0833
  597TMC3    O2 8858   0.428   0.629  17.186 -0.5346  0.0335  0.4331
  598TMC3    C1 8859   3.706   1.669  15.290  0.2439  0.0222 -0.3256
  598TMC3    C2 8860   3.615   1.601  15.370  0.2832  0.6691 -0.4044
  598TMC3    C3 8861   3.484   1.617  15.358  0.1197 -0.0738 -0.5871
  598TMC3    C4 8862   3.657   1.768  15.206  0.1178 -0.2548  0.0595
  598TMC3    C5 8863   3.518   1.789  15.198 -0.9001 -0.4161 -0.2374
  598TMC3    C6 8864   3.430   1.711  15.274 -0.1653  0.2611 -0.7050
  598TMC3     C 8865   3.837   1.615  15.254  0.0551 -0.1116 -0.4180
  598TMC3     O 8866   3.893   1.686  15.172 -0.7656 -0.3458  0.1322
  598TMC3     H 8867   3.653   1.515  15.425  2.0921  0.8243 -1.4275
  598TMC3    H1 8868   3.729   1.820  15.144 -0.5605 -0.1028 -0.6020
  598TMC3    H2 8869   3.326   1.740  15.283  0.4225  1.2886  2.6702
  598TMC3    C7 8870   3.470   1.836  15.069 -0.1152 -0.5027 -0.2617
  598TMC3    C8 8871   3.399   1.537  15.439  0.1432  0.1769 -0.5424
  598TMC3    O1 8872   3.360   1.791  15.046 -0.3199  0.2363  0.2982
  598TMC3    O2 8873   3.426   1.503  15.553 -0.3519  0.4493  0.2872
  599MPD2     C 8874   3.434   4.013  16.153  0.2986 -0.1439 -0.5817
  599MPD2    C1 8875   3.397   3.889  16.193  1.0828 -0.1648  0.0532
  599MPD2    C2 8876   3.275   3.867  16.250  0.4099  0.2841  0.1311
  599MPD2    C3 8877   3.190   3.975  16.273 -0.4955  0.3545 -0.1889
  599MPD2    C4 8878   3.226   4.100  16.232  0.1356 -0.8871  0.0497
  599MPD2    C5 8879   3.347   4.119  16.171 -0.3398 -0.3823 -0.8134
  599MPD2     H 8880   3.254   3.766  16.283 -1.7777  0.8566  0.4959
  599MPD2    H1 8881   3.175   4.190  16.265 -0.0410 -1.6689  1.9245
  599MPD2    H2 8882   3.530   4.030  16.104  1.4170 -2.2566  0.9148
  599MPD2    H3 8883   3.371   4.220  16.140  1.7384 -0.5487  0.2475
  599MPD2     N 8884   3.068   3.956  16.343 -0.9440  0.0520  0.0339
  599MPD2    H5 8885   3.016   4.040  16.364 -1.7514 -0.1326 -1.2147
  599MPD2    N1 8886   3.494   3.782  16.166 -0.6560 -0.1156 -0.6760
  599MPD2    H7 8887   3.585   3.811  16.132 -1.3225  0.0770 -2.2953
  600TMC3    C1 8888   2.935   3.861  16.506 -0.3115  0.4624 -0.0618
  600TMC3    C2 8889   2.853   3.754  16.538 -0.0812  0.2150 -0.1672
  600TMC3    C3 8890   2.790   3.746  16.661 -0.1872  0.6017 -0.3718
  600TMC3    C4 8891   2.958   3.950  16.604 -0.1961 -0.4828  0.7991
  600TMC3    C5 8892   2.886   3.939  16.717  0.1178 -0.0950  0.1071
  600TMC3    C6 8893   2.791   3.848  16.745  0.4053 -0.9613 -0.7687
  600TMC3     C 8894   3.024   3.833  16.396  0.2956  0.6063 -0.1393
  600TMC3     O 8895   3.045   3.715  16.366 -0.5514 -0.3353  0.2412
  600TMC3     H 8896   2.853   3.660  16.483 -1.1833  0.1195  0.0014
  600TMC3    H1 8897   3.029   4.030  16.587 -0.3608 -0.7018 -0.9237
  600TMC3    H2 8898   2.751   3.844  16.846  0.4878  2.3412 -0.6136
  600TMC3    C7 8899   2.900   4.054  16.805 -0.4095  0.3724  0.1620
  600TMC3    C8 8900   2.772   3.621  16.730  0.1129  0.1603 -0.0877
  600TMC3    O1 8901   2.796   4.101  16.845 -0.0269  0.2092  0.3087
  600TMC3    O2 8902   2.810   3.622  16.848  0.2860 -0.1640 -0.1957
  601MPD2     C 8903   0.497   1.073   0.068 -0.5510  0.2884 -0.0042
  601MPD2    C1 8904   0.414   1.106   0.177  0.0601 -1.1462 -0.9070
  601MPD2    C2 8905   0.468   1.085   0.305 -0.2184  0.1800  0.2586
  601MPD2    C3 8906   0.600   1.047   0.321  0.7053 -0.3730 -0.2860
  601MPD2    C4 8907   0.667   1.001   0.209 -0.6019 -0.5279 -0.4949
  601MPD2    C5 8908   0.621   1.019   0.086  0.3478  0.4588  0.2681
  601MPD2     H 8909   0.399   1.119   0.381 -1.0098 -1.7803  0.4415
  601MPD2    H1 8910   0.771   0.972   0.219 -0.5369  0.1375  0.6494
  601MPD2    H2 8911   0.471   1.082  17.661 -1.9062  1.0718  0.3920
  601MPD2    H3 8912   0.691   1.016   0.003 -0.6712 -0.4764 -0.5449
  601MPD2     N 8913   0.661   1.042   0.452  1.0487  0.4072 -0.2229
  601MPD2    H5 8914   0.756   1.007   0.456  0.5179 -1.0134 -0.1468
  601MPD2    N1 8915   0.284   1.155   0.158  0.3882  0.5264  0.1844
  601MPD2    H7 8916   0.231   1.187   0.239  0.5393 -1.2347  0.9860
  602TMC3    C1 8917   0.120   1.287   0.042 -0.6583  0.4643 -0.3344
  602TMC3    C2 8918   0.104   1.367   0.155 -0.2800  0.5468 -0.0582
  602TMC3    C3 8919   0.040   1.486   0.144  0.1106 -0.5734 -0.1907
  602TMC3    C4 8920   0.074   1.327  17.614  0.5847  0.4994  0.0605
  602TMC3    C5 8921   0.003   1.445  17.609  0.4341  0.2204 -0.3847
  602TMC3    C6 8922   4.708   1.518   0.026  0.0504 -0.5388  0.1190
  602TMC3     C 8923   0.223   1.182   0.036 -0.1849  0.1935 -0.0135
  602TMC3     O 8924   0.260   1.152  17.624  0.2221 -0.5225 -0.3536
  602TMC3     H 8925   0.161   1.343   0.244 -0.8295  0.4811  0.2783
  602TMC3    H1 8926   0.090   1.279  17.519 -0.8285 -3.2486  1.6936
  602TMC3    H2 8927   4.627   1.588   0.045 -0.3176 -0.9673  0.1510
  602TMC3    C7 8928   4.652   1.481  17.496  0.8724  0.2066 -0.0901
  602TMC3    C8 8929   4.709   1.543   0.266 -0.5678 -0.0669 -0.8331
  602TMC3    O1 8930   4.618   1.393  17.418  0.1415 -0.3570  0.0923
  602TMC3    O2 8931   4.684   1.461   0.354 -0.4795 -0.0125  0.8308
  603TMC3    C1 8932   3.934   2.631  10.836  0.3472 -1.0192  0.2450
  603TMC3    C2 8933   3.940   2.612  10.972 -0.0794  0.4903  0.3081
  603TMC3    C3 8934   3.935   2.725  11.052  0.1054  0.0059 -1.0492
  603TMC3    C4 8935   3.921   2.760  10.785  0.4026 -0.6242 -0.6696
  603TMC3    C5 8936   3.895   2.860  10.877 -0.6326  0.0621  0.1975
  603TMC3    C6 8937   3.915   2.856  11.012 -0.4041 -0.1195  0.0119
  603TMC3     C 8938   3.958   2.526  10.737 -0.2904 -0.7085 -0.4373
  603TMC3     O 8939   3.941   2.555  10.618  0.5632  0.3348  0.1405
  603TMC3     H 8940   3.950   2.517  11.022  0.5088 -0.1140 -0.9683
  603TMC3    H1 8941   3.932   2.785  10.680 -1.0027  3.2945  0.0955
  603TMC3    H2 8942   3.874   2.935  11.074  0.8572  2.2013 -2.1003
  603TMC3    C7 8943   3.869   2.998  10.825  0.4212 -0.4691 -0.0817
  603TMC3    C8 8944   3.941   2.711  11.196  0.8920  0.3188 -0.4247
  603TMC3    O1 8945   3.920   3.089  10.884 -0.1719  0.4601  0.4132
  603TMC3    O2 8946   3.928   2.603  11.245  0.2488  0.3159 -0.2443
  604MPD2     C 8947   4.094   0.926  16.742 -0.0865  0.4478  0.2339
  604MPD2    C1 8948   3.992   0.968  16.665 -0.4715 -0.0773  0.1372
  604MPD2    C2 8949   4.011   0.961  16.531 -0.0804  0.0202  0.0978
  604MPD2    C3 8950   4.127   0.913  16.469 -0.7387 -0.6650  0.5887
  604MPD2    C4 8951   4.230   0.863  16.548  0.1243 -0.1166 -0.4037
  604MPD2    C5 8952   4.207   0.866  16.683 -0.2833 -0.4512  0.3502
  604MPD2     H 8953   3.926   0.998  16.475  0.0384  0.9851  0.5625
  604MPD2    H1 8954   4.321   0.818  16.511  1.9104  0.8120  2.8254
  604MPD2    H2 8955   4.086   0.934  16.849  0.4600  0.3917  0.2791
  604MPD2    H3 8956   4.284   0.835  16.754  1.8669  3.5027 -0.2295
  604MPD2     N 8957   4.130   0.910  16.331  0.8808  0.6816 -0.2970
  604MPD2    H5 8958   4.042   0.937  16.287  0.4632 -0.6490 -0.2927
  604MPD2    N1 8959   3.879   1.029  16.720 -0.2787 -0.3051 -0.4854
  604MPD2    H7 8960   3.874   1.027  16.821  1.8077 -0.3631 -0.3750
  605TMC3    C1 8961   3.677   1.146  16.750 -0.3452 -0.3502 -0.5097
  605TMC3    C2 8962   3.712   1.160  16.881 -0.1866  0.6852 -0.5626
  605TMC3    C3 8963   3.643   1.250  16.957 -0.1675  0.1101  0.0143
  605TMC3    C4 8964   3.568   1.213  16.693  0.1593  0.6912  0.1400
  605TMC3    C5 8965   3.505   1.306  16.769 -0.1663  0.4491  0.1654
  605TMC3    C6 8966   3.544   1.325  16.901 -0.2605 -0.4345 -1.0321
  605TMC3     C 8967   3.765   1.079  16.652  0.2828  0.5349 -0.1296
  605TMC3     O 8968   3.737   1.074  16.531  0.6826  0.3461 -0.4668
  605TMC3     H 8969   3.783   1.091  16.926 -0.6972  0.8858  0.5725
  605TMC3    H1 8970   3.545   1.195  16.589  0.1588  1.3725  0.0204
  605TMC3    H2 8971   3.505   1.399  16.970 -1.0241 -1.3832 -0.4477
  605TMC3    C7 8972   3.434   1.413  16.705  0.3443 -0.7218  0.0286
  605TMC3    C8 8973   3.719   1.294  17.075  0.3099  0.5869 -0.1658
  605TMC3    O1 8974   3.389   1.498  16.780 -0.3590  0.4624  0.0695
  605TMC3    O2 8975   3.672   1.303  17.188  0.7291 -0.0492  0.4266
  606TMC3    C1 8976   1.057   4.046   0.034  0.9096  0.2070  0.0084
  606TMC3    C2 8977   1.164   4.118   0.077  0.4360  0.2346 -0.4458
  606TMC3    C3 8978   1.197   4.114   0.211 -0.4158  0.7447  0.4342
  606TMC3    C4 8979   0.976   3.982   0.122 -0.1278 -0.3200  0.9630
  606TMC3    C5 8980   1.009   3.991   0.257 -0.0956  0.2043 -1.0985
  606TMC3    C6 8981   1.122   4.059   0.308 -0.1913 -0.0772  0.2374
  606TMC3     C 8982   1.030   4.047  17.593 -0.0915 -0.4657 -0.0025
  606TMC3     O 8983   1.127   4.048  17.519 -0.4517  0.0262  0.1896
  606TMC3     H 8984   1.235   4.159   0.006 -1.4484  0.5278 -2.1346
  606TMC3    H1 8985   0.897   3.915   0.088  0.4133 -0.3024 -0.3152
  606TMC3    H2 8986   1.155   4.065   0.411  0.0195 -1.1319  0.2316
  606TMC3    C7 8987   0.932   3.930   0.357  0.0240  0.1543  0.4047
  606TMC3    C8 8988   1.318   4.190   0.239  0.3410 -0.3478 -0.5809
  606TMC3    O1 8989   0.982   3.912   0.468  0.9350  1.0804 -0.5996
  606TMC3    O2 8990   1.326   4.302   0.187 -0.0316  0.4947  0.2686
  607MPD2     C 8991   3.154   2.702  11.822  0.1423 -0.3520 -0.4496
  607MPD2    C1 8992   3.228   2.695  11.937  0.5310  0.0075  0.2271
  607MPD2    C2 8993   3.169   2.634  12.040 -0.8225  0.1731 -0.2459
  607MPD2    C3 8994   3.048   2.567  12.026 -0.5636  0.0911  0.1218
  607MPD2    C4 8995   2.983   2.569  11.900 -0.4210  0.3376 -0.3102
  607MPD2    C5 8996   3.037   2.633  11.797  0.6011  0.2215 -0.1860
  607MPD2     H 8997   3.218   2.636  12.136  1.0870 -0.6447 -1.1932
  607MPD2    H1 8998   2.883   2.530  11.886  0.1235 -0.8387 -0.9859
  607MPD2    H2 8999   3.190   2.764  11.740 -2.5960  0.2302 -1.2121
  607MPD2    H3 9000   2.987   2.643  11.702  1.9895  2.5673 -0.6672
  607MPD2     N 9001   2.999   2.510  12.141 -0.3780  0.0286  0.1183
  607MPD2    H5 9002   3.061   2.494  12.220  1.8763 -0.5215 -1.7840
  607MPD2    N1 9003   3.342   2.782  11.969 -0.6712  0.4660 -0.0062
  607MPD2    H7 9004   3.372   2.773  12.066  3.3968 -1.6583 -1.4885
  608TMC3    C1 9005   3.486   2.967  11.952 -0.2760 -0.0368 -0.0088
  608TMC3    C2 9006   3.467   2.984  12.085  0.1379 -0.6979 -1.0217
  608TMC3    C3 9007   3.506   3.104  12.148  0.1526 -0.2323  0.0510
  608TMC3    C4 9008   3.558   3.060  11.883 -0.1655 -0.2305  0.4263
  608TMC3    C5 9009   3.613   3.167  11.947 -0.8235  0.4958  0.2108
  608TMC3    C6 9010   3.576   3.198  12.079  0.0740 -0.2031  0.2981
  608TMC3     C 9011   3.402   2.875  11.884 -0.3284  0.2613  0.3090
  608TMC3     O 9012   3.388   2.884  11.760 -0.6779  0.1089  0.2043
  608TMC3     H 9013   3.416   2.908  12.143 -0.8003 -0.1587 -1.1277
  608TMC3    H1 9014   3.572   3.044  11.777 -1.2896 -0.9667  0.3933
  608TMC3    H2 9015   3.610   3.286  12.133 -0.2688  0.5996 -0.7991
  608TMC3    C7 9016   3.703   3.250  11.870  0.0327  0.3946  0.3828
  608TMC3    C8 9017   3.451   3.141  12.275 -0.4077 -0.6517 -0.0420
  608TMC3    O1 9018   3.704   3.229  11.748  0.3364  0.5957 -0.3119
  608TMC3    O2 9019   3.510   3.231  12.339  0.2574 -0.3809  0.0156
  609TMC3    C1 9020   1.567   1.679   9.691  0.2811  0.4020 -0.0788
  609TMC3    C2 9021   1.485   1.629   9.599  0.3333 -0.1540  0.5770
  609TMC3    C3 9022   1.502   1.499   9.564 -0.0489  0.2610 -0.0104
  609TMC3    C4 9023   1.665   1.605   9.753 -0.1604 -0.4905  0.4115
  609TMC3    C5 9024   1.688   1.476   9.716 -0.1781  0.7769  0.2169
  609TMC3    C6 9025   1.606   1.421   9.613  0.0741  0.0127 -0.3187
  609TMC3     C 9026   1.529   1.805   9.751  0.3170 -0.2242 -0.5610
  609TMC3     O 9027   1.423   1.853   9.712  0.7049 -0.0546 -0.0762
  609TMC3     H 9028   1.401   1.689   9.567  1.6828  1.3885 -0.0833
  609TMC3    H1 9029   1.725   1.648   9.833 -0.5609  0.3361  0.2625
  609TMC3    H2 9030   1.627   1.332   9.554 -0.4072  1.0935 -2.1116
  609TMC3    C7 9031   1.778   1.388   9.785  0.3175 -0.2096 -0.6848
  609TMC3    C8 9032   1.446   1.452   9.441 -0.8183 -0.0210  0.4676
  609TMC3    O1 9033   1.841   1.435   9.878 -0.0089  0.2695 -0.1102
  609TMC3    O2 9034   1.466   1.336   9.400  0.0799 -0.3885  0.0216
  610TMC3    C1 9035   3.377   2.690  12.757  0.1057  0.2154  0.2974
  610TMC3    C2 9036   3.423   2.786  12.669  0.2736 -0.0682 -0.7758
  610TMC3    C3 9037   3.512   2.747  12.575  0.1708  0.9577  0.6229
  610TMC3    C4 9038   3.383   2.557  12.717 -0.2828 -0.3900 -0.4627
  610TMC3    C5 9039   3.466   2.522  12.612 -0.5458 -0.0158 -1.2146
  610TMC3    C6 9040   3.539   2.618  12.546  0.5353 -0.4581  0.4596
  610TMC3     C 9041   3.301   2.724  12.874  0.1815  0.7707  0.5042
  610TMC3     O 9042   3.213   2.644  12.908 -0.4057 -0.3090 -0.4947
  610TMC3     H 9043   3.394   2.889  12.687  0.2985 -0.2603  0.3598
  610TMC3    H1 9044   3.343   2.485  12.788 -0.5340  2.3320  2.1724
  610TMC3    H2 9045   3.606   2.579  12.470  0.4992  1.1904 -0.4004
  610TMC3    C7 9046   3.538   2.394  12.629  0.7826 -0.3602 -0.5860
  610TMC3    C8 9047   3.597   2.852  12.519 -0.7592  0.0275  0.6230
  610TMC3    O1 9048   3.653   2.392  12.590 -0.0101 -0.3461 -0.1824
  610TMC3    O2 9049   3.630   2.938  12.596  0.2753 -0.0072 -0.3375
  611MPD2     C 9050   3.001   2.599  10.580  0.6031 -0.5686  1.1463
  611MPD2    C1 9051   2.921   2.706  10.532 -0.3716 -0.1078  0.0950
  611MPD2    C2 9052   2.979   2.790  10.441  0.4480  0.6438  0.1729
  611MPD2    C3 9053   3.116   2.788  10.405  0.4048  0.6384  0.1028
  611MPD2    C4 9054   3.193   2.698  10.470  0.3223  0.1025  0.3532
  611MPD2    C5 9055   3.133   2.604  10.550  0.0553  0.1766 -0.4526
  611MPD2     H 9056   2.928   2.885  10.428 -2.8502 -1.2300 -0.6050
  611MPD2    H1 9057   3.296   2.685  10.441  0.2611  1.3307 -0.4288
  611MPD2    H2 9058   2.962   2.519  10.642 -0.8436 -0.2376  0.6803
  611MPD2    H3 9059   3.187   2.526  10.603 -0.5496  1.7807  2.5202
  611MPD2     N 9060   3.177   2.883  10.324  0.2171  0.0117  0.1326
  611MPD2    H5 9061   3.276   2.898  10.339  0.5160 -1.3710 -0.4551
  611MPD2    N1 9062   2.787   2.714  10.571 -0.4331 -0.2978 -0.4888
  611MPD2    H7 9063   2.749   2.638  10.626  2.7373 -1.9485 -0.6133
  612TMC3    C1 9064   3.189   3.080  10.196  0.4470 -0.2182 -0.2931
  612TMC3    C2 9065   3.294   3.127  10.282  0.5536  0.4817  0.4657
  612TMC3    C3 9066   3.367   3.227  10.235 -0.1147 -0.3760  0.6251
  612TMC3    C4 9067   3.145   3.144  10.089 -0.7475  0.1843  0.3679
  612TMC3    C5 9068   3.210   3.253  10.054  0.5957 -0.5215  0.2501
  612TMC3    C6 9069   3.320   3.292  10.122  0.2353  0.2513 -0.1069
  612TMC3     C 9070   3.109   2.962  10.232  0.7017  0.9122  0.4074
  612TMC3     O 9071   2.997   2.946  10.182 -0.2885  0.0487 -0.1062
  612TMC3     H 9072   3.319   3.089  10.380  0.5106 -1.7476 -0.3874
  612TMC3    H1 9073   3.073   3.093  10.026 -1.0543  2.4592 -1.1397
  612TMC3    H2 9074   3.368   3.387  10.100  2.4874 -0.8505 -0.0389
  612TMC3    C7 9075   3.159   3.343   9.953  0.1059 -0.1706 -0.4803
  612TMC3    C8 9076   3.462   3.294  10.309 -0.9738  0.8755  0.6219
  612TMC3    O1 9077   3.240   3.428   9.912 -0.3194  0.0282  0.6373
  612TMC3    O2 9078   3.473   3.415  10.296 -0.4825  0.0955  0.6985
  613MPD2     C 9079   1.963   4.536  16.769 -0.5950  0.2980  0.0370
  613MPD2    C1 9080   1.886   4.577  16.660  0.0809 -0.6891 -0.2822
  613MPD2    C2 9081   1.787   4.485  16.613  0.3210  0.7402  0.3302
  613MPD2    C3 9082   1.771   4.363  16.678  0.0902 -0.2481  0.0725
  613MPD2    C4 9083   1.862   4.328  16.776  0.2173 -0.5870  0.4343
  613MPD2    C5 9084   1.958   4.412  16.823  0.0884 -0.0647 -0.0722
  613MPD2     H 9085   1.720   4.509  16.531  0.6256 -2.0587 -0.7584
  613MPD2    H1 9086   1.864   4.230  16.823 -2.3923 -0.6164  0.5149
  613MPD2    H2 9087   2.045   4.602  16.796  1.6441 -1.8364 -1.5476
  613MPD2    H3 9088   2.033   4.382  16.894  0.9145 -0.9577 -1.3188
  613MPD2     N 9089   1.675   4.261  16.627  0.8466 -0.5868  0.1456
  613MPD2    H5 9090   1.629   4.277  16.538 -0.2939 -1.9668  0.4776
  613MPD2    N1 9091   1.915   4.699  16.599  0.2001 -0.0295  0.1237
  613MPD2    H7 9092   2.009   0.006  16.623 -0.2231  0.7159  0.8205
  614TMC3    C1 9093   1.959   0.043  16.383  0.0617  0.1477  0.1519
  614TMC3    C2 9094   2.035   4.657  16.348 -0.5346  0.3743 -0.2337
  614TMC3    C3 9095   2.041   4.618  16.215  0.1197 -0.2812  0.6294
  614TMC3    C4 9096   1.899   0.118  16.284 -0.0243 -0.3461 -0.8414
  614TMC3    C5 9097   1.926   0.089  16.152  0.5264 -0.2384  0.3235
  614TMC3    C6 9098   1.989   4.699  16.115 -0.6999 -0.0408  0.1063
  614TMC3     C 9099   1.859   0.008  16.481 -0.9008  0.4519  0.7553
  614TMC3     O 9100   1.748   4.706  16.441 -0.2904 -0.5000 -0.7609
  614TMC3     H 9101   2.066   4.593  16.429 -0.9440 -0.7770 -0.9993
  614TMC3    H1 9102   1.828   0.198  16.304  0.3723  0.3623 -2.2656
  614TMC3    H2 9103   1.998   4.672  16.010 -0.1331 -0.4814  0.2650
  614TMC3    C7 9104   1.886   0.190  16.058 -0.3550  0.4359 -0.5096
  614TMC3    C8 9105   2.001   4.473  16.201 -0.2631  0.5527 -0.4498
  614TMC3    O1 9106   1.882   0.305  16.094  0.9271  0.3916  0.6432
  614TMC3    O2 9107   1.963   4.413  16.304  0.0107  0.3722 -0.3662
  615MPD2     C 9108   0.949   0.877  16.325  0.2809  0.1533 -0.5980
  615MPD2    C1 9109   1.008   0.996  16.295  0.7180  0.3223  0.0749
  615MPD2    C2 9110   0.954   1.058  16.185 -0.0348 -0.0520 -0.0641
  615MPD2    C3 9111   0.847   1.010  16.113  0.1116 -0.2652 -0.1832
  615MPD2    C4 9112   0.791   0.894  16.151 -0.5564 -0.3416 -0.0171
  615MPD2    C5 9113   0.840   0.827  16.257  0.9246 -0.1404  0.2746
  615MPD2     H 9114   1.005   1.140  16.135 -2.7926  2.6581  1.5604
  615MPD2    H1 9115   0.714   0.840  16.097  1.2914 -1.3828 -1.6109
  615MPD2    H2 9116   0.986   0.806  16.398 -2.5471  1.7141  2.3246
  615MPD2    H3 9117   0.804   0.727  16.280 -0.9567  0.1230 -1.5686
  615MPD2     N 9118   0.809   1.079  15.996 -0.2606  0.0933  0.2658
  615MPD2    H5 9119   0.866   1.156  15.964  1.5861 -1.5665 -0.4417
  615MPD2    N1 9120   1.125   1.046  16.359 -0.2775 -0.3865 -0.0601
  615MPD2    H7 9121   1.158   1.138  16.331 -0.3345 -0.9907 -2.1060
  616TMC3    C1 9122   1.317   1.063  16.507  0.2604 -0.0271  0.5571
  616TMC3    C2 9123   1.392   1.135  16.425  0.4512  0.2950  0.7969
  616TMC3    C3 9124   1.518   1.180  16.461 -0.1549 -0.2600 -0.1324
  616TMC3    C4 9125   1.377   1.012  16.620 -0.5094  0.6560  0.4230
  616TMC3    C5 9126   1.506   1.045  16.649  0.4854  0.4611 -0.6610
  616TMC3    C6 9127   1.572   1.146  16.581 -0.1104  0.5597  0.2893
  616TMC3     C 9128   1.195   0.993  16.466 -0.6535 -0.2376 -0.6896
  616TMC3     O 9129   1.163   0.891  16.532 -0.7317  0.3507 -0.2551
  616TMC3     H 9130   1.354   1.155  16.325  1.8042  0.5452  0.3434
  616TMC3    H1 9131   1.317   0.959  16.693  0.0080 -0.3851  0.0832
  616TMC3    H2 9132   1.670   1.186  16.606 -0.5406  2.6981 -1.4910
  616TMC3    C7 9133   1.549   1.020  16.778  0.2097 -0.6340  0.5040
  616TMC3    C8 9134   1.555   1.294  16.381 -0.5328 -0.0323 -0.7160
  616TMC3    O1 9135   1.465   1.003  16.863 -0.1211 -0.0249 -0.3668
  616TMC3    O2 9136   1.515   1.301  16.263  0.1443  0.2669  0.0716
  617MPD2     C 9137   4.448   4.435  14.005 -0.3491 -1.0514  0.0778
  617MPD2    C1 9138   4.431   4.344  14.100  0.3354 -0.3605  0.9956
  617MPD2    C2 9139   4.302   4.324  14.159  0.9279 -0.0360 -0.3736
  617MPD2    C3 9140   4.198   4.400  14.110  0.5796  0.0494  0.5328
  617MPD2    C4 9141   4.223   4.489  14.009 -0.3337  0.0934  0.0377
  617MPD2    C5 9142   4.343   4.512  13.963  0.0863 -0.2675 -0.8628
  617MPD2     H 9143   4.288   4.252  14.238 -1.7006 -0.4404 -1.2093
  617MPD2    H1 9144   4.137   4.540  13.968 -0.7321  1.2707  2.3731
  617MPD2    H2 9145   4.544   4.447  13.954 -0.5947 -1.6037 -0.5225
  617MPD2    H3 9146   4.355   4.577  13.877 -0.3484 -1.8957 -2.1528
  617MPD2     N 9147   4.067   4.380  14.159  0.5123 -0.3574  0.0510
  617MPD2    H5 9148   3.996   4.409  14.093 -0.1801 -1.5544  0.2802
  617MPD2    N1 9149   4.537   4.255  14.141 -0.0500 -0.4490 -0.1349
  617MPD2    H7 9150   4.501   4.171  14.186  1.0709 -0.2851  1.0506
  618TMC3    C1 9151   0.010   4.159  14.185  0.4960 -0.3778 -0.1583
  618TMC3    C2 9152   4.708   4.045  14.113 -0.1038 -0.3300  0.0656
  618TMC3    C3 9153   0.082   3.943  14.114 -0.1861  0.2563  0.3763
  618TMC3    C4 9154   0.118   4.169  14.266  0.2554  0.3138  0.0002
  618TMC3    C5 9155   0.197   4.058  14.273 -0.0646  0.4910 -0.5973
  618TMC3    C6 9156   0.183   3.948  14.207  0.0079 -0.4917 -0.1292
  618TMC3     C 9157   4.675   4.273  14.134 -0.1817  0.6066 -0.0030
  618TMC3     O 9158   0.010   4.358  14.067 -0.2124  1.0191  0.1216
  618TMC3     H 9159   4.633   4.048  14.035  0.7067 -0.0690 -0.7117
  618TMC3    H1 9160   0.146   4.256  14.325 -1.1995  1.2916 -0.7231
  618TMC3    H2 9161   0.245   3.865  14.241  0.0336  0.1668  1.4444
  618TMC3    C7 9162   0.302   4.070  14.371  0.1590  0.3221 -0.8110
  618TMC3    C8 9163   0.111   3.885  13.986  0.0849  0.2945  0.1119
  618TMC3    O1 9164   0.264   4.107  14.482  0.1506  0.9390 -0.2358
  618TMC3    O2 9165   0.036   3.915  13.893 -0.4307 -0.5202 -0.2761
  619MPD2     C 9166   0.836   1.017  13.504  0.7052 -0.0757  0.9691
  619MPD2    C1 9167   0.715   1.061  13.458  0.1309 -0.1029  0.6510
  619MPD2    C2 9168   0.590   1.002  13.494 -0.2064 -0.0907 -0.1643
  619MPD2    C3 9169   0.594   0.898  13.587  0.3290 -0.3496  0.0647
  619MPD2    C4 9170   0.715   0.855  13.633  0.2851  0.4343  0.2825
  619MPD2    C5 9171   0.836   0.915  13.597 -0.7109  0.3527  0.0165
  619MPD2     H 9172   0.501   1.038  13.444  0.1243  0.9170 -0.0213
  619MPD2    H1 9173   0.711   0.787  13.717 -1.2402 -2.2995 -2.0218
  619MPD2    H2 9174   0.928   1.071  13.488  1.0212 -0.5926  1.0234
  619MPD2    H3 9175   0.926   0.862  13.628 -1.4995 -0.5849  0.6894
  619MPD2     N 9176   0.475   0.830  13.629  0.3843 -0.1151 -0.4185
  619MPD2    H5 9177   0.491   0.756  13.696 -1.0649  0.2322  0.3150
  619MPD2    N1 9178   0.706   1.162  13.363  0.0377 -0.2962 -0.8474
  619MPD2    H7 9179   0.617   1.172  13.315 -0.8807 -2.6102  0.3868
  620TMC3    C1 9180   0.743   1.367  13.265 -0.3591 -0.0526 -0.0686
  620TMC3    C2 9181   0.653   1.328  13.164 -0.7163 -0.0896 -0.1577
  620TMC3    C3 9182   0.542   1.409  13.141 -0.7680 -0.2345  0.4455
  620TMC3    C4 9183   0.741   1.495  13.321  0.1470 -0.2092  0.8002
  620TMC3    C5 9184   0.651   1.583  13.273  0.1989  0.6502  0.0128
  620TMC3    C6 9185   0.546   1.538  13.192 -1.1618 -0.2145  0.9861
  620TMC3     C 9186   0.803   1.262  13.346  0.2512 -0.1609 -0.4100
  620TMC3     O 9187   0.904   1.289  13.411 -0.3070  0.2717  0.0098
  620TMC3     H 9188   0.650   1.225  13.131 -1.2581  0.2424 -1.1353
  620TMC3    H1 9189   0.821   1.524  13.388 -0.1360  1.0955  0.5574
  620TMC3    H2 9190   0.465   1.609  13.183 -0.2331  0.7402  0.1269
  620TMC3    C7 9191   0.602   1.661  13.381 -0.1399 -0.1074 -0.2070
  620TMC3    C8 9192   0.431   1.341  13.197 -0.1661 -0.5020 -0.1791
  620TMC3    O1 9193   0.553   1.770  13.351  0.3129  0.3699  0.9567
  620TMC3    O2 9194   0.447   1.236  13.259 -0.3562 -0.3547 -0.2149
  621MPD2     C 9195   0.306   1.279  10.757  0.2068  0.3681  0.2425
  621MPD2    C1 9196   0.312   1.161  10.684 -0.1747  0.0698 -0.5444
  621MPD2    C2 9197   0.344   1.167  10.549 -0.1383 -0.0918 -0.0561
  621MPD2    C3 9198   0.391   1.288  10.496 -0.1671 -0.6063 -0.2096
  621MPD2    C4 9199   0.390   1.400  10.573  0.4237  0.5480 -0.2109
  621MPD2    C5 9200   0.342   1.400  10.700 -0.2433 -0.9078  0.4372
  621MPD2     H 9201   0.334   1.072  10.498  1.5949 -0.9189  1.1418
  621MPD2    H1 9202   0.438   1.494  10.548 -0.2297  0.9803  0.1628
  621MPD2    H2 9203   0.281   1.278  10.862 -1.2690  0.2827 -0.1164
  621MPD2    H3 9204   0.357   1.487  10.763 -0.6045 -0.8629  0.4613
  621MPD2     N 9205   0.448   1.307  10.367 -0.2514 -0.2902  0.1507
  621MPD2    H5 9206   0.476   1.401  10.339 -2.7401  0.0828 -1.0718
  621MPD2    N1 9207   0.290   1.035  10.749 -0.3354  0.0698  0.1852
  621MPD2    H7 9208   0.278   0.951  10.695 -0.0960  0.4912 -0.5244
  622TMC3    C1 9209   0.309   0.868  10.917 -0.6009 -0.3356 -0.3513
  622TMC3    C2 9210   0.330   0.855  11.056  0.4245 -0.8643  0.3043
  622TMC3    C3 9211   0.424   0.768  11.103  0.4679  0.3381  0.4294
  622TMC3    C4 9212   0.381   0.791  10.838 -0.8169  0.6859  0.2915
  622TMC3    C5 9213   0.457   0.688  10.892  0.4296  0.2480  0.6415
  622TMC3    C6 9214   0.492   0.681  11.024 -0.4983 -0.5558  0.2503
  622TMC3     C 9215   0.299   1.008  10.884 -0.5897  0.1020  0.1017
  622TMC3     O 9216   0.328   1.086  10.974 -0.2627  0.0549  0.3206
  622TMC3     H 9217   0.278   0.915  11.129 -2.3807 -0.8890 -1.6606
  622TMC3    H1 9218   0.354   0.794  10.733 -1.1057 -2.6250  0.2680
  622TMC3    H2 9219   0.566   0.612  11.063  0.2836 -1.0446 -2.0968
  622TMC3    C7 9220   0.536   0.599  10.799 -1.2484  0.1487  0.4031
  622TMC3    C8 9221   0.522   0.833  11.181  0.9626 -0.1042 -0.0759
  622TMC3    O1 9222   0.589   0.506  10.858  0.6446  0.0198 -0.1245
  622TMC3    O2 9223   0.626   0.777  11.209 -0.4499  0.0867 -0.2203
  623MPD2     C 9224   4.294   1.252  16.025  0.4163  0.2577 -0.1717
  623MPD2    C1 9225   4.210   1.260  16.130 -0.0411  0.1745  0.1938
  623MPD2    C2 9226   4.249   1.221  16.256 -0.2609 -0.8130 -0.6858
  623MPD2    C3 9227   4.377   1.179  16.286 -0.0020 -0.8409  0.0440
  623MPD2    C4 9228   4.459   1.165  16.178  0.2361  0.0829  1.6319
  623MPD2    C5 9229   4.418   1.204  16.051 -0.5239  0.1954 -0.2388
  623MPD2     H 9230   4.176   1.223  16.335  1.7910  1.6063  1.1458
  623MPD2    H1 9231   4.564   1.142  16.193  0.1251 -0.6244  1.3607
  623MPD2    H2 9232   4.275   1.294  15.927 -1.5339 -0.9590 -0.3238
  623MPD2    H3 9233   4.489   1.200  15.969 -0.6901 -1.6103 -0.2773
  623MPD2     N 9234   4.404   1.132  16.413  0.1999  1.0149  0.6077
  623MPD2    H5 9235   4.329   1.137  16.481  1.2839  0.3825  1.8526
  623MPD2    N1 9236   4.082   1.314  16.101 -0.4219  0.1886  0.1426
  623MPD2    H7 9237   4.069   1.377  16.022  2.3984  0.5513 -0.0365
  624TMC3    C1 9238   4.676   1.173  16.804 -0.1314 -0.0070 -0.1776
  624TMC3    C2 9239   4.570   1.203  16.879 -0.5242  0.1787  0.0754
  624TMC3    C3 9240   4.451   1.177  16.814  0.1980 -0.1693  0.4452
  624TMC3    C4 9241   4.669   1.123  16.672 -0.3873  0.2016  0.1392
  624TMC3    C5 9242   4.543   1.109  16.615 -0.5899 -0.4787 -0.4478
  624TMC3    C6 9243   4.436   1.128  16.689 -0.6275  0.2547  0.2833
  624TMC3     C 9244   0.076   1.153  16.877  0.5034  0.0133 -0.7415
  624TMC3     O 9245   0.062   1.128  16.991  0.2756 -0.5052  0.1996
  624TMC3     H 9246   4.576   1.256  16.973  0.4841 -0.0219  0.1238
  624TMC3    H1 9247   0.037   1.104  16.618 -1.4909 -1.8742 -1.0345
  624TMC3    H2 9248   4.339   1.108  16.646 -0.4960 -0.0958  0.1525
  624TMC3    C7 9249   4.533   1.119  16.464  0.2124 -0.5030  0.8490
  624TMC3    C8 9250   4.327   1.233  16.872  0.2153  0.0196  0.8977
  624TMC3    O1 9251   4.637   1.141  16.402 -0.2555 -0.0187 -0.1873
  624TMC3    O2 9252   4.229   1.228  16.801  0.0231 -0.1206  0.5041
  625MPD2     C 9253   0.349   3.230   1.202  0.9881 -0.4255 -0.6147
  625MPD2    C1 9254   0.345   3.176   1.076 -0.1597  0.7253  0.3904
  625MPD2    C2 9255   0.448   3.181   0.992 -0.3873  0.3652  0.1214
  625MPD2    C3 9256   0.565   3.246   1.031  0.3706 -0.8206 -0.2951
  625MPD2    C4 9257   0.561   3.309   1.155  0.4182  0.0789 -0.6909
  625MPD2    C5 9258   0.457   3.307   1.241 -0.6085 -0.1251  0.2179
  625MPD2     H 9259   0.444   3.135   0.895 -2.0697 -1.2145  0.9377
  625MPD2    H1 9260   0.645   3.361   1.198  0.2117 -0.4021  0.2980
  625MPD2    H2 9261   0.271   3.220   1.277 -0.0375 -2.5602 -1.9470
  625MPD2    H3 9262   0.467   3.352   1.339  1.2404 -1.9146  0.8558
  625MPD2     N 9263   0.672   3.248   0.939  0.1138  0.1342 -0.3278
  625MPD2    H5 9264   0.657   3.209   0.846  0.4225  1.7390 -1.0653
  625MPD2    N1 9265   0.229   3.109   1.032  0.0120  0.3903 -0.1126
  625MPD2    H7 9266   0.219   3.093   0.932 -1.5373 -0.1015  0.1179
  626TMC3    C1 9267   0.006   3.019   1.043 -0.2505 -0.4374 -0.4897
  626TMC3    C2 9268   4.697   3.085   0.923 -0.6181 -0.1788  0.1779
  626TMC3    C3 9269   4.588   3.037   0.854  0.3697  0.2740 -0.0645
  626TMC3    C4 9270   4.666   2.907   1.094 -0.6271  0.0576  0.0411
  626TMC3    C5 9271   4.561   2.871   1.017 -0.4614 -0.2395 -0.1501
  626TMC3    C6 9272   4.509   2.937   0.910 -0.4728  0.7035  0.1438
  626TMC3     C 9273   0.132   3.063   1.112  0.6902  0.7923 -0.4666
  626TMC3     O 9274   0.146   3.028   1.228  0.8006 -0.1823  0.2255
  626TMC3     H 9275   0.038   3.156   0.873 -1.8609  0.3255 -0.7068
  626TMC3    H1 9276   4.691   2.858   1.188  1.6232 -0.3449 -0.7645
  626TMC3    H2 9277   4.438   2.886   0.845 -0.1318 -0.6105  0.8131
  626TMC3    C7 9278   4.498   2.748   1.060 -0.5563 -0.3208  0.2775
  626TMC3    C8 9279   4.575   3.081   0.715  0.2327 -0.2664 -0.0342
  626TMC3    O1 9280   4.561   2.643   1.081  0.0249 -0.3445  0.6602
  626TMC3    O2 9281   4.545   2.992   0.635 -0.0153 -0.2797  0.0219
  627MPD2     C 9282   3.350   3.257  14.672  0.3047 -0.2095 -0.0655
  627MPD2    C1 9283   3.409   3.170  14.766 -0.2632  0.6275  0.1586
  627MPD2    C2 9284   3.348   3.046  14.802  0.0445 -0.0330 -0.6065
  627MPD2    C3 9285   3.236   3.015  14.728 -0.9156 -0.6432  0.5021
  627MPD2    C4 9286   3.188   3.095  14.622  0.0194  0.1768 -0.3297
  627MPD2    C5 9287   3.238   3.222  14.609  0.7675 -0.9651 -0.3518
  627MPD2     H 9288   3.381   2.986  14.886 -0.6102 -2.7393 -2.2534
  627MPD2    H1 9289   3.097   3.065  14.573  1.9730 -3.5032 -1.6894
  627MPD2    H2 9290   3.396   3.350  14.641 -1.7935  1.1882  1.0227
  627MPD2    H3 9291   3.198   3.295  14.539 -1.6537  0.0020  2.0291
  627MPD2     N 9292   3.165   2.902  14.774 -0.9066 -0.0557  0.4066
  627MPD2    H5 9293   3.199   2.861  14.860 -1.7688  1.0472  1.2799
  627MPD2    N1 9294   3.519   3.214  14.839  0.1810 -0.0606  0.3075
  627MPD2    H7 9295   3.556   3.145  14.904  2.1326  1.6649  1.0290
  628TMC3    C1 9296   3.729   3.322  14.884 -0.4477  1.4134 -0.0318
  628TMC3    C2 9297   3.803   3.212  14.922 -0.0745 -0.4632  0.5183
  628TMC3    C3 9298   3.932   3.228  14.967  0.2131  0.1121  0.6087
  628TMC3    C4 9299   3.789   3.446  14.891 -0.1673 -0.1621 -0.2553
  628TMC3    C5 9300   3.922   3.451  14.930  0.1947  0.6269 -0.0973
  628TMC3    C6 9301   3.999   3.348  14.966 -0.0739 -0.1315 -0.6219
  628TMC3     C 9302   3.602   3.321  14.812 -0.0731  0.7747  0.9084
  628TMC3     O 9303   3.575   3.421  14.741  0.1581 -0.3016 -0.4325
  628TMC3     H 9304   3.767   3.114  14.893  0.8816 -1.0638  1.3656
  628TMC3    H1 9305   3.725   3.533  14.891 -0.0133 -0.0461  1.0936
  628TMC3    H2 9306   4.097   3.372  15.006 -0.3835 -0.4777  0.3666
  628TMC3    C7 9307   3.975   3.581  14.962 -0.6099 -0.2317  0.6668
  628TMC3    C8 9308   4.025   3.123  14.944 -0.5460 -0.1277  0.0030
  628TMC3    O1 9309   4.058   3.582  15.057  0.1373  0.4298 -0.1714
  628TMC3    O2 9310   3.994   3.035  14.864 -0.0639 -0.1706  0.2050
  629MPD2     C 9311   1.877   1.667  16.268 -0.0193  0.2279 -0.4364
  629MPD2    C1 9312   1.910   1.626  16.401  0.6453 -0.0434  0.3768
  629MPD2    C2 9313   1.825   1.533  16.447 -0.1698  0.2537  0.1283
  629MPD2    C3 9314   1.733   1.466  16.371 -0.1478  0.5022 -0.7215
  629MPD2    C4 9315   1.700   1.519  16.248 -0.1966  0.8447  0.0882
  629MPD2    C5 9316   1.774   1.615  16.193  0.3088  0.4554  0.3339
  629MPD2     H 9317   1.841   1.491  16.546  0.8194 -1.6058 -0.8104
  629MPD2    H1 9318   1.611   1.485  16.198  1.3989 -1.0533 -1.4674
  629MPD2    H2 9319   1.932   1.742  16.213 -0.2630  0.8077  0.1134
  629MPD2    H3 9320   1.749   1.644  16.091  0.6603  1.8219  0.6294
  629MPD2     N 9321   1.652   1.372  16.444  0.4283 -0.3712  0.2931
  629MPD2    H5 9322   1.683   1.351  16.538 -2.5944 -3.7962  0.5001
  629MPD2    N1 9323   2.005   1.691  16.480 -0.2633 -0.1184  0.3032
  629MPD2    H7 9324   2.071   1.753  16.435 -1.7955 -0.0984 -1.8894
  630TMC3    C1 9325   2.139   1.747  16.667  0.3158 -0.5530 -0.0425
  630TMC3    C2 9326   2.176   1.863  16.605  0.1992  0.4076 -0.5444
  630TMC3    C3 9327   2.286   1.929  16.643  0.3631  0.5935 -0.4649
  630TMC3    C4 9328   2.204   1.699  16.776  0.3145 -0.2314 -0.2056
  630TMC3    C5 9329   2.308   1.774  16.822 -0.4931  0.7643  0.8099
  630TMC3    C6 9330   2.349   1.886  16.757  0.1386  0.0051 -0.0088
  630TMC3     C 9331   2.034   1.667  16.614  0.1201 -0.0432 -0.1239
  630TMC3     O 9332   1.966   1.599  16.693  0.3588  0.1863 -0.5574
  630TMC3     H 9333   2.113   1.906  16.528  0.0540  0.8337 -0.1858
  630TMC3    H1 9334   2.166   1.616  16.834  1.2786  0.1277  0.9558
  630TMC3    H2 9335   2.436   1.944  16.782 -1.3807  3.0594 -1.8139
  630TMC3    C7 9336   2.384   1.749  16.948 -0.0323  0.6433 -0.2449
  630TMC3    C8 9337   2.315   2.056  16.589 -0.0929  0.7289  0.4776
  630TMC3    O1 9338   2.373   1.637  16.994  0.2811  0.5233  0.0572
  630TMC3    O2 9339   2.380   2.130  16.666 -0.4307  0.7043  0.6561
  631MPD2     C 9340   4.700   1.661  15.801 -0.4139 -0.0506 -0.3223
  631MPD2    C1 9341   0.083   1.719  15.731  0.5769 -0.8959  0.1642
  631MPD2    C2 9342   0.193   1.640  15.705  0.6634 -0.1925 -0.1761
  631MPD2    C3 9343   0.184   1.500  15.736  0.4656  0.0427  0.7332
  631MPD2    C4 9344   0.078   1.449  15.798 -0.4510 -0.4116  0.2988
  631MPD2    C5 9345   4.700   1.529  15.828  0.1588  0.3153 -0.5091
  631MPD2     H 9346   0.276   1.676  15.646 -1.2773 -0.3574 -3.0296
  631MPD2    H1 9347   0.062   1.346  15.830 -0.7454 -0.5544 -0.2941
  631MPD2    H2 9348   4.618   1.724  15.834  1.9313  2.8295  0.0712
  631MPD2    H3 9349   4.615   1.483  15.878  1.7567 -1.3320  0.6923
  631MPD2     N 9350   0.298   1.418  15.708 -0.0598  0.1472  0.2090
  631MPD2    H5 9351   0.378   1.477  15.690 -0.6900  0.6287 -0.9866
  631MPD2    N1 9352   0.073   1.855  15.696 -0.2078  0.2995  0.1168
  631MPD2    H7 9353   4.714   1.900  15.735  0.3095  1.6557 -0.3551
  632TMC3    C1 9354   0.111   2.049  15.573 -0.2073 -0.4318  0.1306
  632TMC3    C2 9355   0.009   2.100  15.639  0.9287 -0.2242  0.3691
  632TMC3    C3 9356   4.654   2.189  15.569  0.4358 -0.0864  0.4877
  632TMC3    C4 9357   0.157   2.097  15.455 -0.0238 -0.2078 -0.0055
  632TMC3    C5 9358   0.088   2.200  15.399  0.6721  0.0798  0.5156
  632TMC3    C6 9359   4.695   2.238  15.452  0.3087 -0.0424  0.1866
  632TMC3     C 9360   0.159   1.918  15.605  0.2411  0.0279 -1.0399
  632TMC3     O 9361   0.247   1.873  15.539  0.3329 -0.1157  0.4013
  632TMC3     H 9362   4.702   2.071  15.739 -1.6870  1.6427  0.0884
  632TMC3    H1 9363   0.248   2.054  15.415  0.4652 -0.8197  1.7794
  632TMC3    H2 9364   4.637   2.310  15.397 -1.2196 -1.1683  0.3335
  632TMC3    C7 9365   0.126   2.261  15.278  0.2151  0.7050 -0.3482
  632TMC3    C8 9366   4.525   2.221  15.626 -0.4250 -0.2580 -0.0151
  632TMC3    O1 9367   0.045   2.300  15.193  0.1138 -0.0840  0.1668
  632TMC3    O2 9368   4.517   2.224  15.746 -0.2506  0.9450  0.0557
  633MPD2     C 9369   0.006   4.437   0.072  0.1938 -0.2788  0.4886
  633MPD2    C1 9370   0.060   4.351  17.671  0.7888 -0.2421  0.6177
  633MPD2    C2 9371   0.059   4.210  17.694  0.7877 -0.2752 -1.2426
  633MPD2    C3 9372   4.717   4.163   0.107 -0.2107 -0.1464 -0.1594
  633MPD2    C4 9373   4.668   4.253   0.191 -0.6229 -0.5826 -0.1952
  633MPD2    C5 9374   4.663   4.392   0.180  1.0096 -0.2008 -0.6309
  633MPD2     H 9375   0.115   4.145  17.627 -0.5940 -3.1271  0.4117
  633MPD2    H1 9376   4.638   4.218   0.289  1.8239  0.8393  1.0492
  633MPD2    H2 9377   0.007   4.544   0.058 -0.0508 -0.1490  1.4662
  633MPD2    H3 9378   4.624   4.462   0.252 -1.1824 -0.5939 -1.4309
  633MPD2     N 9379   0.003   4.034   0.150  0.0602  0.2552  0.7692
  633MPD2    H5 9380   4.689   4.014   0.242 -1.7010  0.0916  0.0071
  633MPD2    N1 9381   0.117   4.408  17.555  0.0258 -0.1198 -0.0772
  633MPD2    H7 9382   0.156   4.337  17.493 -1.0263 -0.4800 -0.3108
  634TMC3    C1 9383   0.141   4.561  17.371 -0.3756  0.4097 -0.2284
  634TMC3    C2 9384   0.219   4.465  17.310  0.8172 -0.0936 -0.7420
  634TMC3    C3 9385   0.216   4.452  17.173 -0.7148 -0.5177 -0.2374
  634TMC3    C4 9386   0.065   4.648  17.296  0.2565 -0.5754 -0.6239
  634TMC3    C5 9387   0.060   4.634  17.164  0.4319 -0.1659 -0.5110
  634TMC3    C6 9388   0.128   4.535  17.101 -0.3090  0.4969 -0.4006
  634TMC3     C 9389   0.112   4.538  17.514 -0.2786  0.1699 -0.2743
  634TMC3     O 9390   0.042   4.627  17.556  0.8728 -0.6068  0.7786
  634TMC3     H 9391   0.289   4.406  17.368  1.0669  3.3226  2.4105
  634TMC3    H1 9392   0.006   4.716  17.356  0.0690  0.5270 -2.0698
  634TMC3    H2 9393   0.110   4.519  16.995 -0.2696 -1.8842 -0.0609
  634TMC3    C7 9394   4.702   4.714  17.080 -0.0395  0.0849  0.0417
  634TMC3    C8 9395   0.272   4.339  17.110 -0.2804 -0.1454 -0.2475
  634TMC3    O1 9396   4.722   4.704  16.959 -0.3481 -0.4947 -0.3465
  634TMC3    O2 9397   0.288   4.233  17.172  0.1382 -0.7712  0.1652
  635TMC3    C1 9398   1.309   0.628   0.103 -0.3163  0.0863  0.7043
  635TMC3    C2 9399   1.440   0.596   0.076  0.0727 -0.8072 -0.5870
  635TMC3    C3 9400   1.467   0.515  17.667 -0.5593  0.0986 -0.8416
  635TMC3    C4 9401   1.210   0.575   0.021 -0.6792 -0.2473 -0.3684
  635TMC3    C5 9402   1.245   0.509  17.607  0.8238  0.3281  0.7578
  635TMC3    C6 9403   1.374   0.478  17.578 -0.5368 -0.4024 -0.3114
  635TMC3     C 9404   1.266   0.675   0.228  0.1628  0.3506 -0.0975
  635TMC3     O 9405   1.155   0.731   0.224  0.8243 -0.1384 -0.0517
  635TMC3     H 9406   1.521   0.645   0.128 -2.1023  0.7917  1.2874
  635TMC3    H1 9407   1.106   0.589   0.049 -0.9267  0.5362 -1.6693
  635TMC3    H2 9408   1.397   0.403  17.504  3.3837  2.9595 -2.4986
  635TMC3    C7 9409   1.146   0.422  17.537 -0.9634  0.2639  0.1081
  635TMC3    C8 9410   1.599   0.471  17.631 -0.2752  0.1899 -0.4048
  635TMC3    O1 9411   1.184   0.337  17.461  0.6122 -0.4904 -0.3071
  635TMC3    O2 9412   1.621   0.403  17.531 -0.1309 -0.0298 -0.6720
  636MPD2     C 9413   0.995   4.449  16.192  0.6600  0.3566 -0.5868
  636MPD2    C1 9414   1.040   4.473  16.322  0.3824  0.2109 -0.2536
  636MPD2    C2 9415   1.138   4.385  16.370 -0.6285 -0.0328  0.0740
  636MPD2    C3 9416   1.187   4.268  16.305 -0.1910 -0.4187  0.1808
  636MPD2    C4 9417   1.128   4.243  16.180 -0.6357 -0.2249  0.8473
  636MPD2    C5 9418   1.036   4.333  16.127  0.2644  0.2386 -0.0540
  636MPD2     H 9419   1.190   4.419  16.459 -1.1213  1.7080 -0.3037
  636MPD2    H1 9420   1.152   4.157  16.119 -0.2621  0.1987  0.3974
  636MPD2    H2 9421   0.928   4.520  16.146  2.4535  2.1605 -0.3925
  636MPD2    H3 9422   0.998   4.319  16.027 -0.1172  1.7109 -0.1158
  636MPD2     N 9423   1.297   4.207  16.362 -0.3161 -0.6347 -0.4938
  636MPD2    H5 9424   1.346   4.242  16.444 -1.0064 -0.7657 -0.0162
  636MPD2    N1 9425   1.008   4.593  16.388  0.2977  0.1944 -0.5145
  636MPD2    H7 9426   1.066   4.626  16.464 -0.0216  0.7121 -0.4969
  637TMC3    C1 9427   1.473   4.051  16.381  0.2795  0.6756  0.8660
  637TMC3    C2 9428   1.504   4.092  16.506 -0.6280 -0.5172 -0.1094
  637TMC3    C3 9429   1.610   4.039  16.560 -0.6118 -0.4514 -0.1669
  637TMC3    C4 9430   1.560   3.972  16.303  0.1426  0.1176 -0.3405
  637TMC3    C5 9431   1.677   3.930  16.358 -0.1050 -0.0510  0.5264
  637TMC3    C6 9432   1.681   3.938  16.496 -0.0509  0.3532  0.3425
  637TMC3     C 9433   1.354   4.094  16.312 -0.2205  0.2727 -0.0060
  637TMC3     O 9434   1.323   4.043  16.203  0.1632 -0.2278 -0.2121
  637TMC3     H 9435   1.450   4.164  16.566  0.2154 -0.3176  0.4063
  637TMC3    H1 9436   1.533   3.962  16.198 -0.3376 -1.2121 -0.0875
  637TMC3    H2 9437   1.773   3.906  16.544  0.3655 -0.5314 -1.0498
  637TMC3    C7 9438   1.787   4.005  16.303  0.3898  0.1968 -0.1880
  637TMC3    C8 9439   1.674   4.125  16.660  0.5445  0.2100  0.2236
  637TMC3    O1 9440   1.839   4.082  16.378 -0.0767  0.3708 -0.0339
  637TMC3    O2 9441   1.724   4.068  16.755  0.1381 -0.0684 -0.1617
  638MPD2     C 9442   0.995   3.729  15.227  0.8392  0.6512 -0.0899
  638MPD2    C1 9443   1.036   3.594  15.229 -0.9927 -0.3232  0.7931
  638MPD2    C2 9444   0.958   3.496  15.288 -0.1107 -0.1612 -0.5371
  638MPD2    C3 9445   0.847   3.533  15.356 -0.4667 -0.3222 -0.3235
  638MPD2    C4 9446   0.806   3.667  15.357  0.1684  0.4675  0.4093
  638MPD2    C5 9447   0.883   3.758  15.295  0.1209 -0.7585 -0.3459
  638MPD2     H 9448   0.986   3.393  15.268 -3.3325 -1.0528 -0.4735
  638MPD2    H1 9449   0.718   3.698  15.412  0.2044  2.3716 -0.6270
  638MPD2    H2 9450   1.051   3.814  15.191 -1.1647  1.4185 -1.4003
  638MPD2    H3 9451   0.852   3.860  15.314 -0.0049 -0.6257 -1.2568
  638MPD2     N 9452   0.768   3.436  15.421  0.5051  0.0059 -0.1923
  638MPD2    H5 9453   0.676   3.455  15.459  0.0815  0.1566 -1.2979
  638MPD2    N1 9454   1.157   3.540  15.165 -0.3045 -0.2733  0.5034
  638MPD2    H7 9455   1.172   3.442  15.184  0.2966 -0.0079  1.3794
  639TMC3    C1 9456   0.716   3.233  15.520 -0.0934  0.3856  0.2594
  639TMC3    C2 9457   0.596   3.196  15.453  0.0433 -0.2550  0.3917
  639TMC3    C3 9458   0.546   3.077  15.488 -0.0179 -0.0947 -0.1784
  639TMC3    C4 9459   0.776   3.152  15.610 -1.1720 -0.1928  0.0907
  639TMC3    C5 9460   0.724   3.029  15.627 -0.4547  1.1808  0.3247
  639TMC3    C6 9461   0.606   2.986  15.576 -0.1274  0.4265  0.4350
  639TMC3     C 9462   0.808   3.309  15.446  0.4417 -0.2958 -0.2287
  639TMC3     O 9463   0.922   3.258  15.435 -0.1386 -0.5558 -0.0962
  639TMC3     H 9464   0.552   3.261  15.379 -5.5255 -2.4455  1.8294
  639TMC3    H1 9465   0.872   3.180  15.652 -0.0771 -2.7006 -0.7359
  639TMC3    H2 9466   0.567   2.885  15.579 -0.8774  0.6451 -2.2481
  639TMC3    C7 9467   0.816   2.921  15.623  0.4299 -0.0923 -0.3442
  639TMC3    C8 9468   0.467   3.020  15.383 -0.4798 -0.0394 -0.7736
  639TMC3    O1 9469   0.783   2.810  15.641 -0.1347 -0.4955 -0.0992
  639TMC3    O2 9470   0.486   3.060  15.272 -0.3963 -1.2000 -0.3514
  640MPD2     C 9471   1.940   2.163  10.287  0.2615 -1.1340 -0.6056
  640MPD2    C1 9472   2.031   2.257  10.255 -0.2172 -0.1240 -0.1976
  640MPD2    C2 9473   2.012   2.397  10.282 -0.4064  0.2551  0.0981
  640MPD2    C3 9474   1.885   2.436  10.325 -0.4225 -0.3040  0.4197
  640MPD2    C4 9475   1.794   2.338  10.369  0.7178  0.3237 -0.2586
  640MPD2    C5 9476   1.823   2.205  10.343  0.6334 -0.3095  0.3343
  640MPD2     H 9477   2.083   2.473  10.254  0.4976 -0.9935 -0.9987
  640MPD2    H1 9478   1.694   2.357  10.406  0.0802 -0.6731 -1.4556
  640MPD2    H2 9479   1.966   2.060  10.263 -1.2794 -1.6703  0.0213
  640MPD2    H3 9480   1.752   2.128  10.369  0.2365  0.4853  1.6208
  640MPD2     N 9481   1.843   2.573  10.334  0.4844  0.3324 -0.4552
  640MPD2    H5 9482   1.745   2.576  10.359  0.9148  1.9794  1.0196
  640MPD2    N1 9483   2.147   2.201  10.202 -0.0654  0.1400 -0.0589
  640MPD2    H7 9484   2.151   2.100  10.197 -1.0505  0.2443 -2.9802
  641TMC3    C1 9485   2.378   2.196  10.125  0.2618  0.5086  0.8503
  641TMC3    C2 9486   2.400   2.069  10.159 -0.4752 -0.2207  0.1789
  641TMC3    C3 9487   2.521   2.014  10.124 -0.3988 -0.3472  0.2039
  641TMC3    C4 9488   2.480   2.269  10.069 -0.5686  0.2181 -0.2987
  641TMC3    C5 9489   2.606   2.215  10.054 -0.0685  0.5048  0.3234
  641TMC3    C6 9490   2.628   2.082  10.062 -0.2555  0.0365  0.2212
  641TMC3     C 9491   2.257   2.274  10.156  0.3322  0.3137 -0.4805
  641TMC3     O 9492   2.258   2.391  10.127  0.4601 -0.0170  0.1773
  641TMC3     H 9493   2.327   2.001  10.201 -3.1327  2.6417  0.2766
  641TMC3    H1 9494   2.467   2.376  10.059  0.3344  0.2752 -0.8232
  641TMC3    H2 9495   2.713   2.026  10.027  1.3632  2.8817 -0.4345
  641TMC3    C7 9496   2.720   2.290   9.998  0.0664 -0.6028 -0.2036
  641TMC3    C8 9497   2.540   1.875  10.138 -0.1607  1.1398  0.5620
  641TMC3    O1 9498   2.688   2.372   9.916 -0.2960  1.0703 -0.5422
  641TMC3    O2 9499   2.436   1.811  10.122  0.2240 -0.3463 -0.9133
  642TMC3    C1 9500   2.996   3.814  12.466 -0.0934 -0.5989  0.5486
  642TMC3    C2 9501   3.044   3.842  12.592  0.9335  0.1173 -0.2954
  642TMC3    C3 9502   3.052   3.729  12.677  0.5908  0.1959  0.4280
  642TMC3    C4 9503   2.947   3.692  12.437 -0.7895  0.4414  0.4901
  642TMC3    C5 9504   2.959   3.588  12.527  0.3950  0.3206 -0.1417
  642TMC3    C6 9505   3.022   3.607  12.643 -0.5626 -0.3626 -0.0406
  642TMC3     C 9506   2.924   3.919  12.398 -0.5215 -0.2000  0.0282
  642TMC3     O 9507   2.929   3.918  12.276  0.5112 -0.3214  0.4010
  642TMC3     H 9508   3.083   3.942  12.604 -1.1287  0.7400  1.1657
  642TMC3    H1 9509   2.886   3.678  12.348 -1.3454  0.4811  0.8650
  642TMC3    H2 9510   3.058   3.519  12.696  1.2821  1.5645  1.8745
  642TMC3    C7 9511   2.875   3.473  12.503 -0.4406  0.4193 -0.4656
  642TMC3    C8 9512   3.121   3.740  12.804 -0.3437  0.0654 -0.2044
  642TMC3    O1 9513   2.817   3.470  12.397  0.3252  0.1392  0.1657
  642TMC3    O2 9514   3.108   3.650  12.888 -0.4915 -0.3255  0.3002
  643TMC3    C1 9515   1.714   2.785   0.616 -0.9735 -0.2947  0.2420
  643TMC3    C2 9516   1.593   2.777   0.551 -0.0769 -0.1506 -0.3420
  643TMC3    C3 9517   1.573   2.693   0.448  0.1492  0.0621 -0.2190
  643TMC3    C4 9518   1.816   2.707   0.573  0.5022 -0.6641  0.3352
  643TMC3    C5 9519   1.793   2.607   0.483 -0.1464  0.4076  0.1380
  643TMC3    C6 9520   1.674   2.608   0.422  0.0003 -0.1864  1.2958
  643TMC3     C 9521   1.756   2.923   0.641  0.2600 -0.2405 -1.3031
  643TMC3     O 9522   1.703   3.002   0.568 -0.3656  0.4430  0.1058
  643TMC3     H 9523   1.512   2.839   0.589  0.9132  0.5431  0.6416
  643TMC3    H1 9524   1.918   2.724   0.607  0.0112 -0.8616  1.8837
  643TMC3    H2 9525   1.668   2.557   0.326  1.0211 -2.2510  2.3302
  643TMC3    C7 9526   1.906   2.589   0.386 -0.0239 -0.5892  0.5438
  643TMC3    C8 9527   1.528   2.768   0.334 -0.2699  0.1321  0.1633
  643TMC3    O1 9528   1.970   2.691   0.377 -0.0355 -0.3074  0.3289
  643TMC3    O2 9529   1.495   2.707   0.231 -0.1449 -0.1165  0.3081
  644MPD2     C 9530   2.407   3.464   9.423 -0.5657  0.5227 -0.6049
  644MPD2    C1 9531   2.459   3.338   9.444  0.0505  0.1217 -0.1027
  644MPD2    C2 9532   2.373   3.237   9.487  0.1187  0.7245 -0.1016
  644MPD2    C3 9533   2.236   3.253   9.509  0.7042  0.2783 -0.1289
  644MPD2    C4 9534   2.195   3.384   9.502  0.0569 -0.3149  0.8306
  644MPD2    C5 9535   2.278   3.491   9.467  0.1770  0.3764 -0.1883
  644MPD2     H 9536   2.409   3.138   9.511 -1.2219 -0.4262 -2.8302
  644MPD2    H1 9537   2.093   3.410   9.527  0.5375  0.9786  1.4025
  644MPD2    H2 9538   2.468   3.540   9.375  0.2666 -0.4345 -1.0774
  644MPD2    H3 9539   2.233   3.589   9.468  0.7112  0.6546 -2.4390
  644MPD2     N 9540   2.157   3.141   9.555  0.0944 -0.2629  0.1072
  644MPD2    H5 9541   2.205   3.052   9.563  0.3426 -0.0786  0.7094
  644MPD2    N1 9542   2.591   3.321   9.414  0.9622 -0.1253 -0.1847
  644MPD2    H7 9543   2.644   3.396   9.371 -0.6837  0.5238 -1.0831
  645TMC3    C1 9544   1.960   3.029   9.624  0.3181  0.1216 -0.5927
  645TMC3    C2 9545   2.014   2.908   9.592  0.1291 -0.2740 -0.0570
  645TMC3    C3 9546   1.927   2.805   9.582 -0.4070 -0.8444  0.9047
  645TMC3    C4 9547   1.826   3.044   9.648  0.1315  0.2973 -0.1763
  645TMC3    C5 9548   1.747   2.936   9.639 -0.8075 -0.5778 -0.0532
  645TMC3    C6 9549   1.792   2.810   9.599 -0.2156  1.1510 -0.5661
  645TMC3     C 9550   2.018   3.154   9.588 -0.1977 -0.6911 -0.2284
  645TMC3     O 9551   1.943   3.251   9.580  0.2133  0.4859 -0.7685
  645TMC3     H 9552   2.120   2.891   9.575  0.0265 -0.2982 -0.6820
  645TMC3    H1 9553   1.780   3.139   9.673 -1.1198 -0.9621  2.2702
  645TMC3    H2 9554   1.729   2.724   9.582  1.4269 -0.6145  2.4750
  645TMC3    C7 9555   1.605   2.958   9.665 -0.4742 -0.1491  0.0417
  645TMC3    C8 9556   1.992   2.675   9.577  0.2799 -0.3280  0.6791
  645TMC3    O1 9557   1.582   3.070   9.704  0.2095  0.2161 -0.1078
  645TMC3    O2 9558   2.102   2.667   9.523 -0.1121 -0.2635 -0.1588
  646MPD2     C 9559   1.097   2.270  14.785 -0.1676  0.3414  0.2890
  646MPD2    C1 9560   1.043   2.297  14.907 -0.6399 -0.0160 -0.3073
  646MPD2    C2 9561   0.937   2.386  14.909  0.2848  0.0146  0.3424
  646MPD2    C3 9562   0.904   2.456  14.792 -0.4865  0.2125  0.2139
  646MPD2    C4 9563   0.983   2.441  14.684 -0.6636 -0.5131 -0.6427
  646MPD2    C5 9564   1.066   2.337  14.674  1.4317 -0.7677 -0.4358
  646MPD2     H 9565   0.889   2.421  14.999  0.1321  0.5360  0.0594
  646MPD2    H1 9566   0.952   2.491  14.593 -2.4961  0.3298  0.4603
  646MPD2    H2 9567   1.175   2.196  14.775  0.8733  1.1929  2.2273
  646MPD2    H3 9568   1.120   2.321  14.581  0.6723 -3.8283 -0.3560
  646MPD2     N 9569   0.793   2.547  14.792  0.2979 -0.3117 -0.1419
  646MPD2    H5 9570   0.756   2.568  14.885  0.3788 -0.3839 -0.0937
  646MPD2    N1 9571   1.095   2.226  15.023  0.3335  0.3753 -0.0129
  646MPD2    H7 9572   1.171   2.159  15.015  0.0222 -0.1005  1.0820
  647TMC3    C1 9573   1.101   2.151  15.240  0.7844 -0.4501  0.1334
  647TMC3    C2 9574   1.031   2.105  15.351 -0.0076 -0.0940 -0.2789
  647TMC3    C3 9575   1.092   2.015  15.428 -0.0497 -0.0944 -1.0146
  647TMC3    C4 9576   1.220   2.086  15.206  0.0167 -0.2707  0.6452
  647TMC3    C5 9577   1.287   2.015  15.304 -0.4256 -0.0026 -0.5649
  647TMC3    C6 9578   1.221   1.972  15.418  0.5300 -0.4252 -0.0708
  647TMC3     C 9579   1.029   2.229  15.142 -0.6894  0.0550 -0.3652
  647TMC3     O 9580   0.927   2.286  15.173 -0.1220  0.2351  0.1227
  647TMC3     H 9581   0.933   2.147  15.368  1.5048  2.5992  1.8716
  647TMC3    H1 9582   1.274   2.112  15.116 -1.1920  0.7388  0.1987
  647TMC3    H2 9583   1.276   1.912  15.490  1.9981 -1.4254 -2.0232
  647TMC3    C7 9584   1.428   1.987  15.302  0.2644 -0.3733 -0.8519
  647TMC3    C8 9585   1.017   1.944  15.529  0.5661  0.1762  0.0421
  647TMC3    O1 9586   1.485   1.945  15.405 -0.2056  0.4371  0.2812
  647TMC3    O2 9587   0.919   1.998  15.577 -0.3611 -0.4094  0.5725
  648TMC3    C1 9588   0.570   4.498  16.515  0.0098 -0.1381  0.6599
  648TMC3    C2 9589   0.654   4.403  16.482  0.1592 -0.5615 -0.1030
  648TMC3    C3 9590   0.654   4.347  16.354 -0.7392  0.5681  0.1723
  648TMC3    C4 9591   0.488   4.545  16.417  0.0658 -0.7200 -0.9443
  648TMC3    C5 9592   0.474   4.482  16.295  0.5225  0.7383 -0.1962
  648TMC3    C6 9593   0.559   4.385  16.258 -0.6326  0.4439  0.0399
  648TMC3     C 9594   0.548   4.549  16.658  0.0134  0.0860 -0.1495
  648TMC3     O 9595   0.486   4.650  16.680  0.1494  0.1088  0.0670
  648TMC3     H 9596   0.728   4.367  16.553  1.5138  0.5851 -0.9294
  648TMC3    H1 9597   0.440   4.639  16.441  0.8976  0.4264 -3.6995
  648TMC3    H2 9598   0.539   4.317  16.176 -0.4338 -0.8167  1.0359
  648TMC3    C7 9599   0.397   4.545  16.185 -0.7242  0.3338  0.0373
  648TMC3    C8 9600   0.717   4.222  16.335  0.4243  0.2678 -0.5076
  648TMC3    O1 9601   0.441   4.530  16.071 -0.3745  0.0201 -0.2554
  648TMC3    O2 9602   0.747   4.162  16.441 -0.2653 -0.0552 -0.1934
  649TMC3    C1 9603   4.532   1.082  12.647  0.6164 -0.5614 -0.1012
  649TMC3    C2 9604   4.667   1.131  12.650 -0.6556 -0.3764  0.5951
  649TMC3    C3 9605   0.029   1.066  12.727  0.2471  0.2065 -0.3262
  649TMC3    C4 9606   4.487   0.981  12.728  0.2373  0.3624 -0.3033
  649TMC3    C5 9607   4.580   0.927  12.815 -0.7622 -0.0699 -0.6556
  649TMC3    C6 9608   4.712   0.965  12.809 -0.6715 -0.2655  0.8833
  649TMC3     C 9609   4.433   1.135  12.553 -0.0582 -0.0430  0.3897
  649TMC3     O 9610   4.318   1.101  12.579 -0.3038  0.3193  0.1203
  649TMC3     H 9611   4.700   1.211  12.585 -0.1719 -0.5970  0.5654
  649TMC3    H1 9612   4.386   0.942  12.727  0.3079  0.1522  1.1927
  649TMC3    H2 9613   0.065   0.912  12.863  2.3786  1.3764 -1.8851
  649TMC3    C7 9614   4.528   0.891  12.949 -0.3941 -0.3179  0.1733
  649TMC3    C8 9615   0.153   1.135  12.754 -0.3365  0.4287 -0.7316
  649TMC3    O1 9616   4.419   0.941  12.967  0.0257 -0.0250  0.1320
  649TMC3    O2 9617   0.255   1.068  12.767 -0.2547  0.3775 -0.4436
  650TMC3    C1 9618   2.382   3.124  12.844 -0.3754 -0.1949 -0.2000
  650TMC3    C2 9619   2.395   3.257  12.884  0.4737  0.1046  0.2774
  650TMC3    C3 9620   2.379   3.358  12.795 -0.0584  0.0400 -0.8735
  650TMC3    C4 9621   2.372   3.105  12.705 -0.5264 -0.0014  0.4368
  650TMC3    C5 9622   2.383   3.207  12.613  0.2908 -0.0583  0.4956
  650TMC3    C6 9623   2.386   3.336  12.658  0.4067 -0.3298  0.3574
  650TMC3     C 9624   2.440   3.023  12.936  0.5488 -0.0008 -0.1255
  650TMC3     O 9625   2.505   3.066  13.025 -0.4030 -0.0746  0.1972
  650TMC3     H 9626   2.400   3.292  12.986  1.0517  1.8265 -0.3448
  650TMC3    H1 9627   2.357   3.001  12.675  0.1712  0.0019  0.0591
  650TMC3    H2 9628   2.398   3.419  12.590 -0.3824  0.0644  0.6999
  650TMC3    C7 9629   2.322   3.178  12.479  0.8495  0.3513  0.2637
  650TMC3    C8 9630   2.318   3.486  12.834 -0.0091  0.8659  0.3975
  650TMC3    O1 9631   2.297   3.063  12.455  0.2132 -0.6797  0.1449
  650TMC3    O2 9632   2.365   3.580  12.773 -0.4371  0.1902  0.1802
  651MPD2     C 9633   0.843   0.086  10.634  0.2987 -0.1844 -0.6238
  651MPD2    C1 9634   0.844   0.122  10.764  0.0650 -0.2875  0.3673
  651MPD2    C2 9635   0.953   0.186  10.823  0.4384 -0.1353  0.3266
  651MPD2    C3 9636   1.068   0.211  10.748 -0.4025  0.6121  0.1708
  651MPD2    C4 9637   1.058   0.175  10.613 -0.6179  0.3361 -0.5047
  651MPD2    C5 9638   0.956   0.108  10.558 -1.5277 -0.1001 -0.6359
  651MPD2     H 9639   0.955   0.205  10.930 -1.7005  1.3899  0.0956
  651MPD2    H1 9640   1.147   0.205  10.559 -1.1283 -0.1465 -1.6186
  651MPD2    H2 9641   0.754   0.046  10.585 -2.7531  4.1341  1.3693
  651MPD2    H3 9642   0.959   0.085  10.452  2.4131  0.7171 -0.6712
  651MPD2     N 9643   1.188   0.276  10.807  0.0531 -0.4124 -0.1392
  651MPD2    H5 9644   1.177   0.289  10.907  2.0179  1.0171 -0.1311
  651MPD2    N1 9645   0.732   0.101  10.849  0.1816 -0.3015  0.1118
  651MPD2    H7 9646   0.744   0.133  10.945 -2.0993 -0.0071  0.2860
  652TMC3    C1 9647   1.636   0.366  10.939  0.5437  0.5816 -0.4913
  652TMC3    C2 9648   1.550   0.319  10.838  0.8843  0.0464  0.0170
  652TMC3    C3 9649   1.416   0.341  10.852  0.0974  0.4763  0.5152
  652TMC3    C4 9650   1.593   0.438  11.044 -0.0545 -0.1638  0.0885
  652TMC3    C5 9651   1.462   0.472  11.049  0.0379  0.5009  0.1259
  652TMC3    C6 9652   1.367   0.429  10.955  0.0262 -0.3967  0.2382
  652TMC3     C 9653   1.774   0.388  10.900  0.3518  0.0223  0.3149
  652TMC3     O 9654   1.804   0.396  10.782  0.1120 -0.1899  0.2248
  652TMC3     H 9655   1.588   0.262  10.754  2.6435  0.9247  0.2265
  652TMC3    H1 9656   1.665   0.491  11.105 -0.6147  2.5048 -1.6102
  652TMC3    H2 9657   1.261   0.451  10.961  0.8174  3.3642  0.4013
  652TMC3    C7 9658   1.428   0.588  11.132  0.3583  0.0308  0.0561
  652TMC3    C8 9659   1.316   0.283  10.755 -0.0489  0.2041 -0.1408
  652TMC3    O1 9660   1.501   0.610  11.226  0.2912 -0.0312 -0.2843
  652TMC3    O2 9661   1.356   0.233  10.651 -0.0752  0.0753  0.1933
  653MPD2     C 9662   4.321   4.608   0.435  0.0673 -0.3134  0.2958
  653MPD2    C1 9663   4.357   4.676   0.321  0.0935  0.4905 -0.1640
  653MPD2    C2 9664   4.347   4.600   0.204 -0.9767  1.0670 -0.2403
  653MPD2    C3 9665   4.299   4.470   0.203  0.0628  0.6524  0.6726
  653MPD2    C4 9666   4.267   4.415   0.325  0.3351  0.4309  0.8345
  653MPD2    C5 9667   4.280   4.482   0.444 -0.0936  0.2457 -0.0858
  653MPD2     H 9668   4.376   4.645   0.110  1.9581  0.9042  0.5623
  653MPD2    H1 9669   4.248   4.308   0.329 -1.4195  0.6172 -2.8288
  653MPD2    H2 9670   4.337   4.662   0.528  0.0803 -1.6108  1.0433
  653MPD2    H3 9671   4.240   4.434   0.534  0.2466 -1.0023 -0.5965
  653MPD2     N 9672   4.293   4.394   0.078 -0.2631  0.1336  0.9255
  653MPD2    H5 9673   4.324   4.444  17.693 -2.3141 -0.3829 -0.1412
  653MPD2    N1 9674   4.406   0.086   0.316 -0.2008 -0.2499  0.0313
  653MPD2    H7 9675   4.425   0.129   0.225  0.3990  0.5873  0.5461
  654TMC3    C1 9676   4.235   4.229  17.616 -0.2690 -0.2133 -0.1845
  654TMC3    C2 9677   4.153   4.300  17.538  0.2001 -0.4381  0.3744
  654TMC3    C3 9678   4.157   4.287  17.402  0.6977  0.1293  0.9689
  654TMC3    C4 9679   4.319   4.137  17.557  0.5193  0.8473  0.5877
  654TMC3    C5 9680   4.319   4.113  17.423  0.1239 -0.3588  0.2278
  654TMC3    C6 9681   4.237   4.186  17.344  0.1743  0.0697  0.5153
  654TMC3     C 9682   4.260   4.261   0.060 -0.1893  0.3776 -0.7265
  654TMC3     O 9683   4.238   4.170   0.141  0.2035 -0.4453  0.1223
  654TMC3     H 9684   4.088   4.375  17.583  0.5839 -0.3064  0.7052
  654TMC3    H1 9685   4.397   4.090  17.615  0.1401 -1.5455 -0.8273
  654TMC3    H2 9686   4.247   4.173  17.237 -1.2792 -2.0605  0.6382
  654TMC3    C7 9687   4.412   4.031  17.367  0.2678 -0.1911  0.0436
  654TMC3    C8 9688   4.074   4.374  17.323  0.3421  0.1798  0.9194
  654TMC3    O1 9689   4.443   4.057  17.248 -0.2598 -0.4361  0.1498
  654TMC3    O2 9690   4.027   4.474  17.371 -0.8448  0.9256 -0.0668
  655MPD2     C 9691   1.004   0.299  15.848  0.4237 -0.1093  0.2960
  655MPD2    C1 9692   0.904   0.227  15.794  0.5193  0.4249  0.2747
  655MPD2    C2 9693   0.943   0.132  15.701  0.2657  0.1935 -0.2897
  655MPD2    C3 9694   1.075   0.114  15.659 -0.2027  0.6115  0.0523
  655MPD2    C4 9695   1.177   0.198  15.713 -0.2864  0.2404 -1.1413
  655MPD2    C5 9696   1.138   0.288  15.812  1.1739  0.3796 -0.0633
  655MPD2     H 9697   0.857   0.083  15.657 -0.3537  1.2252 -0.2254
  655MPD2    H1 9698   1.282   0.192  15.684  0.0154 -0.5480  0.1205
  655MPD2    H2 9699   0.983   0.373  15.924  1.3674  1.4642 -0.9667
  655MPD2    H3 9700   1.203   0.355  15.866  1.8916  0.8247 -1.4842
  655MPD2     N 9701   1.100   0.017  15.562  0.0775  0.1526  0.1663
  655MPD2    H5 9702   1.027   4.691  15.513  0.4858 -0.9777  0.7113
  655MPD2    N1 9703   0.770   0.234  15.847 -0.4076 -0.0841  0.2851
  655MPD2    H7 9704   0.699   0.215  15.777 -0.4515 -1.6500  0.7482
  656TMC3    C1 9705   0.600   0.272  15.995  0.1774 -0.6089 -0.5526
  656TMC3    C2 9706   0.562   0.225  16.115  0.4554 -0.2464  0.9274
  656TMC3    C3 9707   0.429   0.253  16.151  0.1463  0.6784 -0.2181
  656TMC3    C4 9708   0.513   0.341  15.910  0.6811  0.6578  0.0073
  656TMC3    C5 9709   0.390   0.370  15.948 -0.2892  0.1282  0.1086
  656TMC3    C6 9710   0.344   0.327  16.068 -0.4205  0.6959  0.5912
  656TMC3     C 9711   0.746   0.279  15.975 -0.5359  0.2261 -0.6924
  656TMC3     O 9712   0.820   0.290  16.070 -0.3419 -0.1036  0.3699
  656TMC3     H 9713   0.630   0.172  16.181 -0.7471 -1.0723  1.4958
  656TMC3    H1 9714   0.544   0.379  15.814 -2.7021  0.7450 -1.0501
  656TMC3    H2 9715   0.238   0.330  16.089 -0.2722 -2.0752  1.7428
  656TMC3    C7 9716   0.304   0.412  15.840 -0.2273  1.0250  0.6827
  656TMC3    C8 9717   0.393   0.223  16.297 -0.2234  0.3116 -0.0170
  656TMC3    O1 9718   0.343   0.401  15.723  0.1810 -0.3541  0.8234
  656TMC3    O2 9719   0.462   0.145  16.361  0.1681 -0.2070  0.5156
  657TMC3    C1 9720   4.448   4.207  16.075  0.2080  0.3722  0.9004
  657TMC3    C2 9721   4.457   4.239  16.209 -1.0213 -0.3847 -0.3186
  657TMC3    C3 9722   4.394   4.344  16.263 -0.5692 -0.9064  0.7980
  657TMC3    C4 9723   4.368   4.284  15.992 -0.6835 -0.5372  0.1170
  657TMC3    C5 9724   4.318   4.409  16.046  0.0774  0.4672  0.2078
  657TMC3    C6 9725   4.332   4.430  16.183  0.1224 -0.0434 -0.1519
  657TMC3     C 9726   4.489   4.071  16.040 -0.2926 -0.5135  0.0174
  657TMC3     O 9727   4.601   4.032  16.071 -0.0861 -0.2653  0.0056
  657TMC3     H 9728   4.530   4.188  16.271 -1.8542 -0.0758  0.9099
  657TMC3    H1 9729   4.365   4.262  15.886 -0.2254  0.4416 -0.0957
  657TMC3    H2 9730   4.282   4.515  16.227  1.0006  1.2714 -1.7115
  657TMC3    C7 9731   4.265   4.513  15.963 -0.0333  0.1478 -0.3300
  657TMC3    C8 9732   4.362   4.351  16.405 -0.3092  0.3452  0.1484
  657TMC3    O1 9733   4.257   4.624  16.008  0.2643  0.6501  0.2903
  657TMC3    O2 9734   4.336   4.461  16.451  0.3863 -0.1225  0.5641
  658MPD2     C 9735   1.455   4.451  14.791  0.2432 -0.2379  0.0207
  658MPD2    C1 9736   1.374   4.550  14.844 -0.4097 -0.3410 -0.6609
  658MPD2    C2 9737   1.358   4.667  14.776  0.5422  0.5198  0.2201
  658MPD2    C3 9738   1.442   4.696  14.674  0.3393 -0.2988  0.6097
  658MPD2    C4 9739   1.528   4.598  14.620  0.7231 -0.0138 -0.1412
  658MPD2    C5 9740   1.532   4.479  14.682  0.8795  0.3423 -0.1129
  658MPD2     H 9741   1.295   0.023  14.813  3.6794  2.3031  1.6400
  658MPD2    H1 9742   1.588   4.612  14.531 -0.7897  2.2214 -0.8140
  658MPD2    H2 9743   1.474   4.353  14.833  0.2501 -0.1507  0.2225
  658MPD2    H3 9744   1.588   4.401  14.633 -0.2563 -0.2530 -0.4646
  658MPD2     N 9745   1.434   0.107  14.629  0.0465 -0.3618 -0.0165
  658MPD2    H5 9746   1.397   0.174  14.695  0.5060 -0.4029  0.2848
  658MPD2    N1 9747   1.305   4.523  14.969 -0.4435  0.3881  0.2658
  658MPD2    H7 9748   1.295   4.428  15.003  0.5289 -0.1199 -0.8888
  659TMC3    C1 9749   1.198   4.589  15.173  0.1057  0.2783  0.1567
  659TMC3    C2 9750   1.246   4.650  15.283  0.0422  0.4927  0.3076
  659TMC3    C3 9751   1.196   4.621  15.401  0.3243 -0.0492  0.0084
  659TMC3    C4 9752   1.125   4.480  15.179  0.5528 -0.1960 -0.2692
  659TMC3    C5 9753   1.065   4.450  15.296  0.0053 -0.3636  0.0943
  659TMC3    C6 9754   1.100   4.529  15.412  0.4466  0.9459 -0.5342
  659TMC3     C 9755   1.270   4.627  15.053 -0.0706  0.2593 -0.3945
  659TMC3     O 9756   1.291   0.023  15.046 -0.5798 -0.3907  0.2117
  659TMC3     H 9757   1.306   0.014  15.266 -0.0350  0.4381 -0.2710
  659TMC3    H1 9758   1.082   4.455  15.082 -1.5797 -0.5205  0.7558
  659TMC3    H2 9759   1.056   4.500  15.506  1.4095  2.1821  0.2920
  659TMC3    C7 9760   0.953   4.357  15.305 -0.1087  0.6419 -0.1447
  659TMC3    C8 9761   1.219   4.723  15.502 -0.2734  0.0438  0.2190
  659TMC3    O1 9762   0.884   4.364  15.407 -0.3001  0.5489  0.4289
  659TMC3    O2 9763   1.324   0.057  15.504 -0.0607 -0.8469 -0.2524
  660MPD2     C 9764   3.972   3.177  12.896 -0.3577 -0.0387 -0.5768
  660MPD2    C1 9765   3.966   3.282  12.985  0.7714 -0.1389  0.1498
  660MPD2    C2 9766   3.914   3.254  13.109 -0.3642 -0.4176 -0.0931
  660MPD2    C3 9767   3.867   3.130  13.141 -0.1359  0.1590  0.0604
  660MPD2    C4 9768   3.870   3.031  13.047  0.0156  0.2567  0.6503
  660MPD2    C5 9769   3.921   3.056  12.923 -0.2918 -0.1793  0.3847
  660MPD2     H 9770   3.919   3.330  13.186  1.8463 -0.4875 -0.1756
  660MPD2    H1 9771   3.841   2.930  13.073 -2.7001  1.2140  1.3200
  660MPD2    H2 9772   4.019   3.199  12.802 -0.8755  0.6004 -0.6851
  660MPD2    H3 9773   3.943   2.981  12.849 -0.5201  2.0067 -1.9089
  660MPD2     N 9774   3.814   3.104  13.262  0.8149 -0.1090 -0.8169
  660MPD2    H5 9775   3.773   3.012  13.268  1.1728 -0.0144  2.7064
  660MPD2    N1 9776   4.025   3.405  12.953 -0.1107  0.1495 -0.0051
  660MPD2    H7 9777   4.076   3.406  12.865 -2.1500 -2.0892 -1.2074
  661TMC3    C1 9778   4.021   3.637  12.933  0.5492 -0.0812 -0.0318
  661TMC3    C2 9779   4.126   3.630  12.848 -0.7438 -0.7915  0.1673
  661TMC3    C3 9780   4.129   3.726  12.748 -0.3851  0.5167  0.1492
  661TMC3    C4 9781   3.918   3.724  12.919  0.5003 -0.0125 -0.2842
  661TMC3    C5 9782   3.915   3.814  12.816 -0.0377  0.1293  0.0581
  661TMC3    C6 9783   4.023   3.811  12.728  0.2816  0.0675 -0.2933
  661TMC3     C 9784   3.996   3.527  13.016 -0.2058 -0.3460 -0.5250
  661TMC3     O 9785   3.931   3.551  13.120 -0.7970 -0.7441 -0.3461
  661TMC3     H 9786   4.200   3.550  12.849 -1.7518 -1.7255 -0.9839
  661TMC3    H1 9787   3.837   3.719  12.991 -0.5057 -0.9750 -1.4853
  661TMC3    H2 9788   4.013   3.874  12.640  0.1709 -0.3267 -0.5642
  661TMC3    C7 9789   3.794   3.791  12.731  0.5479 -0.1847  0.2534
  661TMC3    C8 9790   4.220   3.726  12.635  0.1805  0.0415  0.0367
  661TMC3    O1 9791   3.812   3.800  12.612  0.2601 -0.2204 -0.6231
  661TMC3    O2 9792   4.238   3.619  12.574 -0.3299 -0.2992  0.3139
  662MPD2     C 9793   4.198   3.407  17.564  0.1279  0.1981  0.0211
  662MPD2    C1 9794   4.128   3.370  17.678 -0.2620  1.1620 -0.7603
  662MPD2    C2 9795   4.032   3.452   0.021  0.2694  0.1214 -0.6100
  662MPD2    C3 9796   4.004   3.577  17.662 -0.3163 -0.2977  0.0719
  662MPD2    C4 9797   4.086   3.626  17.558 -0.0163 -0.5207 -0.2961
  662MPD2    C5 9798   4.181   3.534  17.516  0.5697  0.0993  0.2177
  662MPD2     H 9799   3.965   3.417   0.099  0.6714  0.1281 -0.2593
  662MPD2    H1 9800   4.088   3.723  17.511 -1.8779 -0.7496 -0.8596
  662MPD2    H2 9801   4.278   3.342  17.530 -0.0139 -0.8446  1.6509
  662MPD2    H3 9802   4.241   3.563  17.431 -1.4173  0.5009 -1.0246
  662MPD2     N 9803   3.896   3.660   0.015  0.3009  0.4932  0.3651
  662MPD2    H5 9804   3.877   3.748  17.666  0.5544 -0.1012 -0.8739
  662MPD2    N1 9805   4.138   3.243   0.039  0.3595  0.6938 -0.8004
  662MPD2    H7 9806   4.075   3.231   0.118 -1.2120 -0.1794 -2.1853
  663TMC3    C1 9807   4.156   3.021   0.066 -0.2027  0.2477 -0.1405
  663TMC3    C2 9808   4.136   3.048   0.197 -0.6410 -0.5257 -0.1796
  663TMC3    C3 9809   4.035   2.973   0.260 -0.4272 -0.1764  0.3591
  663TMC3    C4 9810   4.107   2.920  17.696  0.0519 -0.2856  1.0155
  663TMC3    C5 9811   4.009   2.850   0.066 -0.5467 -0.8785  0.4123
  663TMC3    C6 9812   3.990   2.863   0.197  0.0690 -0.3791 -0.2181
  663TMC3     C 9813   4.197   3.132  17.684 -0.0596 -0.8302 -0.6009
  663TMC3     O 9814   4.261   3.116  17.582 -0.5404 -0.0073  0.0364
  663TMC3     H 9815   4.174   3.133   0.252 -1.2056 -0.6025  0.3406
  663TMC3    H1 9816   4.125   2.912  17.590  0.7506  1.2912  1.0114
  663TMC3    H2 9817   3.890   2.830   0.219 -0.3599  2.3874  1.8957
  663TMC3    C7 9818   3.958   2.730   0.009 -0.5833 -0.3645  0.2367
  663TMC3    C8 9819   3.926   3.070   0.269 -0.2446  0.3451 -0.0332
  663TMC3    O1 9820   3.909   2.645   0.082 -0.1731  0.4424  0.3716
  663TMC3    O2 9821   3.943   3.178   0.209 -0.1159 -0.1369  0.4535
  664MPD2     C 9822   2.112   0.991   0.105  0.3178 -0.1793  0.4588
  664MPD2    C1 9823   2.125   1.119   0.158  0.0427 -0.3280 -0.5731
  664MPD2    C2 9824   2.083   1.133   0.288 -0.2625  0.0822  0.7073
  664MPD2    C3 9825   2.035   1.029   0.362 -0.2069 -0.2439  0.0992
  664MPD2    C4 9826   2.026   0.909   0.309 -0.8643  0.2155  0.1844
  664MPD2    C5 9827   2.074   0.887   0.185  0.1084  0.0267  0.9003
  664MPD2     H 9828   2.102   1.229   0.334 -0.7512 -0.0444  1.1648
  664MPD2    H1 9829   2.009   0.820   0.368  0.5527  1.0310  1.8278
  664MPD2    H2 9830   2.142   0.969   0.003  1.6207  0.8513  0.6165
  664MPD2    H3 9831   2.081   0.786   0.145  1.8594 -0.3144  2.0805
  664MPD2     N 9832   1.974   1.059   0.489 -0.1130 -0.1321 -0.3800
  664MPD2    H5 9833   1.973   1.156   0.521  0.1513 -1.2404  2.9944
  664MPD2    N1 9834   2.164   1.235   0.084 -0.3054  0.6919 -0.4418
  664MPD2    H7 9835   2.142   1.327   0.119 -0.4939  0.6761 -0.5151
  665TMC3    C1 9836   1.830   1.046   0.674 -1.5415 -0.5577 -0.2020
  665TMC3    C2 9837   1.831   0.985   0.802 -0.0216  0.2094 -0.5576
  665TMC3    C3 9838   1.800   1.061   0.913  0.3362 -0.2054  0.6566
  665TMC3    C4 9839   1.792   1.179   0.658 -0.6108 -0.5760  0.0442
  665TMC3    C5 9840   1.773   1.254   0.772  0.6096  0.1430  0.4484
  665TMC3    C6 9841   1.763   1.188   0.898  0.7588 -0.0827  0.6482
  665TMC3     C 9842   1.906   0.978   0.567  0.8391  0.3081  0.0883
  665TMC3     O 9843   1.894   0.855   0.558  0.0090 -0.1628 -0.0677
  665TMC3     H 9844   1.875   0.887   0.817  2.9792  1.7380  0.8981
  665TMC3    H1 9845   1.798   1.229   0.562  0.5701  1.0539  0.9687
  665TMC3    H2 9846   1.713   1.245   0.976  0.1730  1.4322 -0.8214
  665TMC3    C7 9847   1.681   1.373   0.759  0.8014 -0.5224 -0.3937
  665TMC3    C8 9848   1.750   0.993   1.024 -0.0568 -0.0298  0.2484
  665TMC3    O1 9849   1.621   1.394   0.654  0.3144 -0.3238 -0.1405
  665TMC3    O2 9850   1.681   0.896   1.005  0.0925  0.2878 -0.0852
  666TMC3    C1 9851   0.563   1.247  10.174  0.5246 -0.4447  0.2314
  666TMC3    C2 9852   0.635   1.143  10.119  0.0862  0.0640 -0.0139
  666TMC3    C3 9853   0.761   1.162  10.077  0.2800  0.4149  0.1416
  666TMC3    C4 9854   0.621   1.369  10.185  0.0826 -0.2459 -0.3485
  666TMC3    C5 9855   0.738   1.394  10.118  0.9529 -0.0689  0.2834
  666TMC3    C6 9856   0.809   1.292  10.068  0.3035 -0.7035 -0.1464
  666TMC3     C 9857   0.473   1.203  10.281 -0.3266 -0.0239  0.1965
  666TMC3     O 9858   0.452   1.086  10.294 -0.1292 -0.3916 -0.3787
  666TMC3     H 9859   0.589   1.047  10.098  0.1274  0.0024  0.1723
  666TMC3    H1 9860   0.573   1.456  10.228 -1.2923 -1.1558 -0.0088
  666TMC3    H2 9861   0.914   1.307  10.048  0.2624 -0.2816 -0.0468
  666TMC3    C7 9862   0.814   1.514  10.159 -0.0240  0.6390  0.3238
  666TMC3    C8 9863   0.838   1.055  10.018  0.0708 -0.4149 -0.3658
  666TMC3    O1 9864   0.778   1.585  10.255  0.0601 -0.5057 -0.1119
  666TMC3    O2 9865   0.777   0.971   9.958 -0.0304 -0.4659 -0.2225
  667MPD2     C 9866   2.784   1.345  15.023 -0.0723 -1.1509 -0.1634
  667MPD2    C1 9867   2.687   1.428  15.078 -0.4129 -0.2048  0.0416
  667MPD2    C2 9868   2.555   1.394  15.054 -0.3320  0.8274 -0.1688
  667MPD2    C3 9869   2.518   1.282  14.985 -0.1426 -0.5685 -0.2280
  667MPD2    C4 9870   2.619   1.195  14.964  0.1514  0.0105 -0.0328
  667MPD2    C5 9871   2.749   1.227  14.976  0.0258 -0.1195  0.1743
  667MPD2     H 9872   2.479   1.467  15.081 -2.2325 -0.6438 -1.4957
  667MPD2    H1 9873   2.600   1.105  14.907 -0.9945  0.3375 -0.1597
  667MPD2    H2 9874   2.891   1.364  15.027 -0.2379 -0.8766  2.8130
  667MPD2    H3 9875   2.828   1.171  14.928  0.0811 -1.4079  1.7689
  667MPD2     N 9876   2.384   1.242  14.956  0.1278  0.1191  0.1495
  667MPD2    H5 9877   2.375   1.153  14.909  0.4263  0.1154  0.0968
  667MPD2    N1 9878   2.720   1.545  15.155 -0.0893  0.0433 -0.1373
  667MPD2    H7 9879   2.652   1.588  15.218  1.1024  1.7019  0.0290
  668TMC3    C1 9880   2.864   1.703  15.261  0.3979  0.1631 -0.2609
  668TMC3    C2 9881   2.962   1.788  15.240  0.3441 -0.3770  0.4051
  668TMC3    C3 9882   3.026   1.835  15.346  0.2492  0.0674  0.4853
  668TMC3    C4 9883   2.821   1.675  15.386 -0.5594  0.4740 -0.3590
  668TMC3    C5 9884   2.899   1.716  15.493 -0.2043 -0.1931 -0.7408
  668TMC3    C6 9885   3.001   1.801  15.474  0.2674 -0.4401  0.6579
  668TMC3     C 9886   2.847   1.603  15.152 -0.2393  1.1122 -0.6475
  668TMC3     O 9887   2.945   1.579  15.082 -0.1164 -0.5989 -0.2054
  668TMC3     H 9888   2.994   1.811  15.139  2.4803  0.4607  1.2830
  668TMC3    H1 9889   2.760   1.586  15.395 -0.2464  0.3604  0.7048
  668TMC3    H2 9890   3.058   1.834  15.560 -0.3101 -1.8191  1.5748
  668TMC3    C7 9891   2.854   1.702  15.628 -0.7754  0.0206  0.1752
  668TMC3    C8 9892   3.139   1.923  15.332  0.2984  0.9722  0.0433
  668TMC3    O1 9893   2.926   1.742  15.718  0.5253 -0.0055 -0.3361
  668TMC3    O2 9894   3.221   1.921  15.425  0.1336  0.1230 -0.2357
  669TMC3    C1 9895   0.820   1.249  14.945 -0.5668 -0.3146  0.2135
  669TMC3    C2 9896   0.721   1.242  14.852  0.1362  0.1889  0.5865
  669TMC3    C3 9897   0.720   1.338  14.756 -0.6532 -0.3178 -0.1748
  669TMC3    C4 9898   0.907   1.353  14.948  0.3138 -0.6664 -0.2793
  669TMC3    C5 9899   0.905   1.439  14.847 -0.0334 -0.2122 -0.2030
  669TMC3    C6 9900   0.813   1.439  14.749  0.2496  0.1022 -0.0281
  669TMC3     C 9901   0.796   1.147  15.051 -0.2632 -0.2825  0.3802
  669TMC3     O 9902   0.698   1.072  15.053 -0.8026  0.0621 -0.1618
  669TMC3     H 9903   0.641   1.168  14.854  0.7634 -0.6036 -2.9481
  669TMC3    H1 9904   0.966   1.358  15.040 -1.8809 -1.6290  1.1853
  669TMC3    H2 9905   0.815   1.505  14.663  2.6876  2.1576  1.6350
  669TMC3    C7 9906   1.011   1.538  14.822  0.6569 -0.4535 -0.7169
  669TMC3    C8 9907   0.614   1.327  14.653 -0.5504 -0.2864  0.9520
  669TMC3    O1 9908   0.983   1.624  14.739 -0.0594 -0.6300 -0.6636
  669TMC3    O2 9909   0.581   1.218  14.619 -0.0729  0.2127 -0.0693
  670MPD2     C 9910   4.391   4.223  13.622  0.4338 -0.3833 -0.1810
  670MPD2    C1 9911   4.466   4.162  13.719 -0.1160  0.0404 -0.6115
  670MPD2    C2 9912   4.405   4.114  13.831 -0.4162 -0.3269  0.5141
  670MPD2    C3 9913   4.268   4.123  13.847  0.1480  0.6672 -0.0652
  670MPD2    C4 9914   4.192   4.191  13.751 -0.6002 -0.4191  0.4307
  670MPD2    C5 9915   4.257   4.240  13.641 -0.5597  0.6374  0.7469
  670MPD2     H 9916   4.465   4.066  13.908  1.1202 -0.4697 -0.7566
  670MPD2    H1 9917   4.088   4.211  13.775 -1.1651 -0.2054 -2.2422
  670MPD2    H2 9918   4.437   4.278  13.540 -0.7630  1.4170  0.3616
  670MPD2    H3 9919   4.202   4.293  13.564  1.3852 -0.5884 -1.4790
  670MPD2     N 9920   4.207   4.050  13.954  0.0489 -0.4084  0.5310
  670MPD2    H5 9921   4.265   3.988  14.009 -0.9845 -0.0627  1.9941
  670MPD2    N1 9922   4.603   4.145  13.705  0.2301 -0.5209  0.7790
  670MPD2    H7 9923   4.655   4.104  13.782 -0.1026 -0.7893  0.8579
  671TMC3    C1 9924   4.042   3.968  14.097 -0.5460  0.0248  0.2978
  671TMC3    C2 9925   4.108   3.970  14.215  0.5279  0.0384 -0.4797
  671TMC3    C3 9926   4.035   3.948  14.330 -0.4231 -0.1076 -0.3666
  671TMC3    C4 9927   3.912   3.924  14.089 -0.2028  0.4121  0.2404
  671TMC3    C5 9928   3.837   3.904  14.205 -0.8526  0.1817 -0.4714
  671TMC3    C6 9929   3.902   3.916  14.328 -0.2272  0.2850  0.2442
  671TMC3     C 9930   4.075   4.060  13.986  0.9377  0.0519  0.1346
  671TMC3     O 9931   3.980   4.114  13.931 -0.5982 -0.8362  0.2778
  671TMC3     H 9932   4.196   4.032  14.229 -0.5640  1.5742 -0.4075
  671TMC3    H1 9933   3.859   3.929  13.995  0.6666 -0.0300 -0.2752
  671TMC3    H2 9934   3.845   3.889  14.416  0.1312  2.2439  1.0819
  671TMC3    C7 9935   3.710   3.844  14.190 -0.5841  0.5626  0.4587
  671TMC3    C8 9936   4.112   3.919  14.446 -0.0932 -0.2147  0.2092
  671TMC3    O1 9937   3.684   3.796  14.078  0.0693 -0.6373 -0.5893
  671TMC3    O2 9938   4.225   3.971  14.463  0.3824  0.9824 -0.0770
  672MPD2     C 9939   0.642   0.120   1.553  0.5150  0.0926  0.6505
  672MPD2    C1 9940   0.602   0.155   1.425  0.5471  0.4028  0.3170
  672MPD2    C2 9941   0.688   0.211   1.333 -0.4982  0.2751  0.2487
  672MPD2    C3 9942   0.826   0.226   1.365 -0.4574 -0.1803 -0.1127
  672MPD2    C4 9943   0.865   0.190   1.492 -0.4306  0.4361  0.0569
  672MPD2    C5 9944   0.769   0.146   1.582 -0.1438  0.6214  0.2997
  672MPD2     H 9945   0.660   0.237   1.231 -0.2134 -1.6848 -0.3165
  672MPD2    H1 9946   0.969   0.201   1.522 -0.4585  1.4893 -0.2302
  672MPD2    H2 9947   0.576   0.071   1.623 -0.5183 -1.2099 -1.2346
  672MPD2    H3 9948   0.808   0.106   1.675 -1.4804 -2.2314 -0.3625
  672MPD2     N 9949   0.903   0.293   1.268 -0.8711 -0.1755 -0.0141
  672MPD2    H5 9950   0.867   0.305   1.174  0.8559 -0.7306 -0.7454
  672MPD2    N1 9951   0.468   0.148   1.385 -0.1185 -0.1222 -0.6272
  672MPD2    H7 9952   0.444   0.161   1.287 -1.6198  1.6498 -0.0271
  673TMC3    C1 9953   0.248   0.099   1.368 -0.2285 -0.6496  0.1977
  673TMC3    C2 9954   0.248   0.025   1.252 -0.4025 -0.0998 -0.4040
  673TMC3    C3 9955   0.133   4.722   1.186 -0.4899 -0.5219  0.2052
  673TMC3    C4 9956   0.130   0.150   1.422  0.4156  0.5999 -0.4702
  673TMC3    C5 9957   0.019   0.130   1.348 -0.8164  0.5963 -0.3260
  673TMC3    C6 9958   0.021   0.060   1.232 -0.1390  0.2305 -0.1520
  673TMC3     C 9959   0.364   0.094   1.453 -1.0701 -0.2754 -0.0503
  673TMC3     O 9960   0.348   0.100   1.572  0.2531  0.5064  0.2873
  673TMC3     H 9961   0.335   4.697   1.211 -0.2368  0.4614 -0.7583
  673TMC3    H1 9962   0.123   0.211   1.512 -1.2887 -0.3405  0.0125
  673TMC3    H2 9963   4.649   0.029   1.193 -0.9378  1.2044  1.0514
  673TMC3    C7 9964   4.624   0.199   1.385 -0.0025 -0.5596  0.0340
  673TMC3    C8 9965   0.109   4.605   1.104 -0.3087  0.3141  1.2378
  673TMC3    O1 9966   4.608   0.212   1.506 -0.9484 -0.1531  0.2421
  673TMC3    O2 9967   0.003   4.544   1.115 -0.0548  0.2031 -0.0587
  674MPD2     C 9968   3.964   4.088   0.513 -0.0788 -0.4980 -0.9198
  674MPD2    C1 9969   3.842   4.044   0.472 -0.1317 -0.7191  0.9024
  674MPD2    C2 9970   3.732   4.131   0.481  0.2995 -0.1033 -0.3512
  674MPD2    C3 9971   3.759   4.261   0.523  0.3709  0.1015  0.0136
  674MPD2    C4 9972   3.886   4.300   0.562  0.1928  0.1666 -0.0023
  674MPD2    C5 9973   3.990   4.212   0.555 -0.0551  0.3608 -0.4648
  674MPD2     H 9974   3.631   4.109   0.449  0.0191 -0.4365  0.7786
  674MPD2    H1 9975   3.909   4.403   0.588  0.6760 -0.2907  1.3991
  674MPD2    H2 9976   4.047   4.018   0.519 -0.5578 -0.9953 -0.0545
  674MPD2    H3 9977   4.089   4.248   0.580  0.0663 -0.5707  0.3589
  674MPD2     N 9978   3.657   4.361   0.509  0.2775  0.2552  0.3294
  674MPD2    H5 9979   3.571   4.326   0.469  0.4949  2.0942 -1.6950
  674MPD2    N1 9980   3.825   3.910   0.435  0.2089  0.0289  0.8851
  674MPD2    H7 9981   3.906   3.850   0.437  0.0850 -0.1672 -0.1239
  675TMC3    C1 9982   3.709   3.697   0.400  0.4988  0.1327  0.7928
  675TMC3    C2 9983   3.592   3.634   0.436 -0.0622  0.3859 -0.7023
  675TMC3    C3 9984   3.590   3.501   0.478  0.3764 -0.1180  0.2181
  675TMC3    C4 9985   3.829   3.633   0.420 -0.1940 -0.0015 -0.2408
  675TMC3    C5 9986   3.822   3.503   0.461 -0.2133 -0.3650 -0.0207
  675TMC3    C6 9987   3.701   3.430   0.479  0.5914 -0.1237 -0.0897
  675TMC3     C 9988   3.705   3.847   0.402 -0.7053  0.6945  0.1211
  675TMC3     O 9989   3.594   3.894   0.397  0.0578  0.4374 -0.5760
  675TMC3     H 9990   3.503   3.694   0.426 -0.3467 -0.2240 -1.8950
  675TMC3    H1 9991   3.925   3.676   0.395 -0.9741  0.5660 -2.3061
  675TMC3    H2 9992   3.703   3.323   0.495  1.0982 -0.0280  0.4607
  675TMC3    C7 9993   3.952   3.433   0.456  0.2284  0.4287  0.2032
  675TMC3    C8 9994   3.469   3.464   0.544 -0.2328  0.0471  0.6104
  675TMC3    O1 9995   4.053   3.485   0.401 -0.0520  0.0177  0.5251
  675TMC3    O2 9996   3.364   3.511   0.507  0.3361  0.2672 -0.3000
  676MPD2     C 9997   2.606   2.404  11.313 -0.5438 -0.3516 -0.2236
  676MPD2    C1 9998   2.479   2.368  11.346  0.1477  0.1359 -0.0019
  676MPD2    C2 9999   2.420   2.261  11.281  0.0985  0.0505  0.3935
  676MPD2    C310000   2.473   2.202  11.172  0.3684 -0.2795 -0.0822
  676MPD2    C410001   2.598   2.233  11.133  0.8856 -0.2433 -0.1723
  676MPD2    C510002   2.655   2.344  11.202 -0.1649  0.0615  0.2639
  676MPD2     H10003   2.327   2.223  11.321  0.3032 -2.5868 -1.6062
  676MPD2    H110004   2.649   2.180  11.054  1.4307  1.6832 -1.1263
  676MPD2    H210005   2.660   2.490  11.352  0.6688 -0.9697 -0.5606
  676MPD2    H310006   2.755   2.378  11.174 -0.7372  1.0273 -0.6265
  676MPD2     N10007   2.418   2.098  11.109  0.4938  0.1542  0.0983
  676MPD2    H510008   2.475   2.054  11.037  1.4172 -1.3110  1.7416
  676MPD2    N110009   2.412   2.418  11.461  0.1099  0.3451 -0.1993
  676MPD2    H710010   2.322   2.376  11.480 -0.9334  1.1587 -3.2911
  677TMC3    C110011   2.331   2.574  11.612 -0.1441  0.1203 -0.5473
  677TMC3    C210012   2.218   2.500  11.632  0.6536 -0.1942  0.4177
  677TMC3    C310013   2.109   2.558  11.693  0.2165  0.2241 -1.0873
  677TMC3    C410014   2.332   2.708  11.645 -0.4202  0.7309  0.3155
  677TMC3    C510015   2.232   2.761  11.714  0.4172  0.1270 -1.0248
  677TMC3    C610016   2.116   2.692  11.734  0.3647  0.0993  0.6484
  677TMC3     C10017   2.446   2.532  11.528  0.7452 -0.5198 -0.3394
  677TMC3     O10018   2.528   2.618  11.496  0.0237  0.0619 -0.1028
  677TMC3     H10019   2.223   2.397  11.598  3.5373 -0.3661  1.3374
  677TMC3    H110020   2.411   2.778  11.623  0.5825 -1.1627 -2.2111
  677TMC3    H210021   2.039   2.722  11.804  1.4702  0.0932  1.8872
  677TMC3    C710022   2.257   2.862  11.820  0.1758 -0.3267  1.0534
  677TMC3    C810023   1.982   2.471  11.698 -0.4014 -0.2102  0.3840
  677TMC3    O110024   2.180   2.862  11.915 -0.1707  0.3277 -0.4807
  677TMC3    O210025   1.936   2.428  11.591 -0.1238  0.1055 -0.1502
  678MPD2     C10026   2.479   2.282   1.810 -0.0895  0.3495 -0.7670
  678MPD2    C110027   2.510   2.297   1.673 -0.3235 -0.8541  0.5833
  678MPD2    C210028   2.401   2.326   1.593 -0.1192 -0.8320  0.2036
  678MPD2    C310029   2.270   2.332   1.635  0.3774  0.6893 -0.1712
  678MPD2    C410030   2.243   2.335   1.769  0.0823 -0.3385 -0.3207
  678MPD2    C510031   2.349   2.306   1.856  0.0878  0.2914  0.6533
  678MPD2     H10032   2.408   2.317   1.485  0.6282  0.5126  0.1451
  678MPD2    H110033   2.142   2.353   1.804  1.1641  2.1100  1.5711
  678MPD2    H210034   2.546   2.246   1.887 -0.2124  1.6661 -0.0505
  678MPD2    H310035   2.327   2.313   1.962  1.6669 -1.4491  1.0763
  678MPD2     N10036   2.169   2.348   1.539 -0.4385 -0.1590  0.5009
  678MPD2    H510037   2.198   2.351   1.442  2.1213  1.4199  1.3309
  678MPD2    N110038   2.646   2.288   1.618 -0.0940  0.2654  0.0323
  678MPD2    H710039   2.659   2.281   1.518 -0.5756 -0.4296  0.0191
  679TMC3    C110040   3.071   2.122   1.635 -0.1337  0.0657  0.1868
  679TMC3    C210041   2.949   2.128   1.685  0.2950  1.0765 -0.3979
  679TMC3    C310042   2.872   2.229   1.636 -0.5984  0.3450 -0.4239
  679TMC3    C410043   3.113   2.191   1.525  0.4062  0.1302  0.4163
  679TMC3    C510044   3.029   2.280   1.469  0.1121 -0.1689 -0.5658
  679TMC3    C610045   2.907   2.306   1.523  0.6866 -0.0154 -0.1722
  679TMC3     C10046   3.163   2.042   1.700  0.3982  0.5578 -0.5188
  679TMC3     O10047   3.277   2.045   1.665  0.1872 -0.7982 -0.5388
  679TMC3     H10048   2.903   2.073   1.766 -0.4327  1.9483 -0.2288
  679TMC3    H110049   3.214   2.181   1.487  0.3314  0.0590  0.2366
  679TMC3    H210050   2.855   2.395   1.489  3.1086  1.8846  1.1022
  679TMC3    C710051   3.087   2.369   1.362  0.9064 -0.5191  0.1857
  679TMC3    C810052   2.752   2.267   1.709 -0.5910  0.6447  0.2075
  679TMC3    O110053   3.004   2.447   1.315 -0.0448 -0.3719  0.2395
  679TMC3    O210054   2.754   2.261   1.831  0.1414  0.1835  0.2427
  680MPD2     C10055   3.828   1.326  13.521  1.0610  0.5190  0.3784
  680MPD2    C110056   3.890   1.294  13.647  0.0005  0.1902  0.2802
  680MPD2    C210057   3.915   1.393  13.745 -0.4027  0.2262 -0.2900
  680MPD2    C310058   3.881   1.525  13.719  0.7454  0.1458 -0.0578
  680MPD2    C410059   3.824   1.556  13.591  0.3999 -0.5955 -0.7356
  680MPD2    C510060   3.796   1.458  13.496  0.4831 -0.3589 -1.0016
  680MPD2     H10061   3.963   1.361  13.837 -0.5615 -0.9813 -0.6292
  680MPD2    H110062   3.811   1.656  13.552  1.5627 -0.0328  0.2943
  680MPD2    H210063   3.808   1.251  13.445  4.7285  0.7527 -0.7868
  680MPD2    H310064   3.752   1.483  13.400  0.3644  0.9882 -0.5946
  680MPD2     N10065   3.921   1.636  13.800 -0.2013 -0.4983  0.3561
  680MPD2    H510066   3.903   1.731  13.769  0.7656 -1.1861 -2.3709
  680MPD2    N110067   3.933   1.160  13.671 -0.9260  0.1263  0.1860
  680MPD2    H710068   3.963   1.137  13.766 -3.0553  1.2131  1.1307
  681TMC3    C110069   4.022   0.943  13.622  0.3346 -0.0862  0.4597
  681TMC3    C210070   3.973   0.894  13.742 -0.1999 -0.5998 -0.4386
  681TMC3    C310071   4.046   0.791  13.796 -0.6504 -0.5825 -0.3719
  681TMC3    C410072   4.135   0.893  13.568  0.4198  0.7068  0.3440
  681TMC3    C510073   4.205   0.787  13.622  0.4702  0.4982  0.1902
  681TMC3    C610074   4.165   0.743  13.746  0.5716 -0.5874 -0.4302
  681TMC3     C10075   3.970   1.068  13.572  0.3243 -0.1297 -0.1778
  681TMC3     O10076   3.954   1.079  13.452  0.0320  0.3918  0.2480
  681TMC3     H10077   3.876   0.929  13.777  0.4906  1.0516 -0.1758
  681TMC3    H110078   4.159   0.934  13.471 -0.3066  0.9175  0.2577
  681TMC3    H210079   4.220   0.664  13.795  0.5519 -2.3306 -3.2431
  681TMC3    C710080   4.341   0.759  13.577  0.4250 -0.2495 -0.0405
  681TMC3    C810081   4.003   0.734  13.923  0.3014 -0.0414  0.4555
  681TMC3    O110082   4.420   0.723  13.666 -0.1959 -0.0244 -0.7575
  681TMC3    O210083   4.040   0.621  13.953 -0.0669  0.6140 -0.3388
  682MPD2     C10084   1.376   2.591  10.716  0.1125  0.6338 -0.2479
  682MPD2    C110085   1.361   2.479  10.797 -0.4297  0.1254 -0.2468
  682MPD2    C210086   1.329   2.489  10.929  0.4399 -0.0099 -0.0086
  682MPD2    C310087   1.332   2.617  10.990  0.9144  0.2493  0.5624
  682MPD2    C410088   1.351   2.731  10.910  0.2871 -0.0739 -0.5346
  682MPD2    C510089   1.377   2.715  10.773 -0.0132 -0.2378  0.5043
  682MPD2     H10090   1.303   2.399  10.983  0.8803  0.4431  0.9586
  682MPD2    H110091   1.342   2.831  10.950  2.2030 -0.4023  0.7213
  682MPD2    H210092   1.395   2.592  10.609  0.7039  0.9434 -0.1417
  682MPD2    H310093   1.394   2.797  10.705  0.1516  0.7235  1.7133
  682MPD2     N10094   1.312   2.633  11.127 -0.6847  0.0661 -0.3235
  682MPD2    H510095   1.329   2.722  11.171 -1.4335  0.4111 -0.7235
  682MPD2    N110096   1.364   2.347  10.754  0.2679 -0.0914 -0.3242
  682MPD2    H710097   1.350   2.274  10.824  1.1094  1.2012  1.1901
  683TMC3    C110098   1.324   2.678  11.544  0.0650  0.5516 -0.0556
  683TMC3    C210099   1.314   2.568  11.629 -0.2091 -0.4273 -0.4151
  683TMC3    C310100   1.289   2.452  11.570  0.1931  0.0278  0.4100
  683TMC3    C410101   1.324   2.671  11.413 -0.5560 -0.1108  0.3173
  683TMC3    C510102   1.289   2.553  11.353 -0.4602  0.0770  0.2158
  683TMC3    C610103   1.274   2.442  11.432  0.1531  0.7950  0.4409
  683TMC3     C10104   1.363   2.803  11.607  0.3515  0.6215 -0.4193
  683TMC3     O10105   1.360   2.800  11.728  0.3622  0.1512  0.2889
  683TMC3     H10106   1.318   2.564  11.737 -0.2234 -0.4230 -0.4144
  683TMC3    H110107   1.312   2.752  11.342 -0.3617  1.5424  2.1795
  683TMC3    H210108   1.260   2.343  11.391 -1.5302  1.5994 -0.9040
  683TMC3    C710109   1.285   2.527  11.207 -0.4242  0.3557 -0.4520
  683TMC3    C810110   1.285   2.338  11.650  0.4990  0.0235 -0.8383
  683TMC3    O110111   1.247   2.413  11.190  0.0199 -0.3077  0.1323
  683TMC3    O210112   1.348   2.349  11.754 -0.4757 -0.1395 -0.4284
  684MPD2     C10113   3.654   1.765  16.693  0.1039  0.0292  0.6646
  684MPD2    C110114   3.713   1.831  16.585  0.3531 -0.3229  0.0880
  684MPD2    C210115   3.732   1.970  16.595  0.6546 -0.4974 -0.0026
  684MPD2    C310116   3.692   2.037  16.703  0.6910  0.1963 -0.7656
  684MPD2    C410117   3.630   1.973  16.806  0.1156  0.5202 -0.4095
  684MPD2    C510118   3.624   1.834  16.808 -0.0693 -0.1991 -0.5310
  684MPD2     H10119   3.780   2.031  16.519 -2.4805 -0.2197 -1.7954
  684MPD2    H110120   3.593   2.030  16.891  1.0833  0.2868  0.1670
  684MPD2    H210121   3.636   1.658  16.700  1.4673 -0.3704 -1.9765
  684MPD2    H310122   3.572   1.786  16.890 -0.0047  2.2000  0.9307
  684MPD2     N10123   3.723   2.175  16.722  0.2444  0.0955 -0.4649
  684MPD2    H510124   3.687   2.215  16.808  0.0699 -0.7981 -0.1217
  684MPD2    N110125   3.750   1.762  16.468 -0.1640 -0.6978 -0.5246
  684MPD2    H710126   3.769   1.813  16.383 -0.8658  2.3274  1.1441
  685TMC3    C110127   3.797   1.588  16.314  0.1435  0.0850 -0.0450
  685TMC3    C210128   3.791   1.673  16.204 -1.1566  0.5851  0.4440
  685TMC3    C310129   3.828   1.629  16.079  0.4881  0.5207 -0.5359
  685TMC3    C410130   3.824   1.456  16.294 -0.1016  0.1488 -0.1249
  685TMC3    C510131   3.876   1.417  16.173  0.2486 -0.0148  0.4296
  685TMC3    C610132   3.874   1.500  16.067 -0.0358 -0.4206  0.0155
  685TMC3     C10133   3.748   1.626  16.449 -0.2538  0.5875  0.1997
  685TMC3     O10134   3.753   1.539  16.534 -0.1390  0.1325  0.2144
  685TMC3     H10135   3.780   1.777  16.230 -1.4032  1.5559 -3.6350
  685TMC3    H110136   3.830   1.375  16.366 -1.0276 -0.7358 -1.0513
  685TMC3    H210137   3.889   1.443  15.976  1.5583  0.4681 -0.2928
  685TMC3    C710138   3.971   1.299  16.182  0.3540 -0.2647  0.3599
  685TMC3    C810139   3.753   1.673  15.964  0.1793 -0.3050  0.1206
  685TMC3    O110140   3.954   1.209  16.265 -0.6216  0.2867 -0.3650
  685TMC3    O210141   3.761   1.621  15.854 -0.2290 -0.9333  0.2178
  686MPD2     C10142   0.509   1.744  15.782 -0.3964  0.9981  0.2108
  686MPD2    C110143   0.552   1.631  15.840  0.1878 -0.2541 -0.1832
  686MPD2    C210144   0.652   1.557  15.779  0.5565 -0.5534  0.1852
  686MPD2    C310145   0.691   1.582  15.648  0.6901  0.9691  0.7464
  686MPD2    C410146   0.660   1.703  15.595 -0.7061  0.2496 -0.2154
  686MPD2    C510147   0.563   1.780  15.657  1.1106 -0.1033 -0.0282
  686MPD2     H10148   0.694   1.472  15.832  1.1042 -2.1311 -2.7564
  686MPD2    H110149   0.709   1.744  15.507  2.4786 -0.7629  1.0780
  686MPD2    H210150   0.436   1.805  15.833 -2.0792 -0.9067  0.0439
  686MPD2    H310151   0.527   1.873  15.615 -0.0675 -0.7224 -0.3918
  686MPD2     N10152   0.766   1.492  15.567  0.6003  0.7265 -0.1578
  686MPD2    H510153   0.809   1.539  15.488  0.7155 -0.3189 -0.7001
  686MPD2    N110154   0.500   1.595  15.969 -0.3537 -0.7574 -0.7308
  686MPD2    H710155   0.425   1.652  16.006 -0.3211 -1.5087  0.4906
  687TMC3    C110156   0.687   1.299  15.670  0.1563 -0.5710  0.4114
  687TMC3    C210157   0.547   1.314  15.646 -0.6184  0.1620  0.4915
  687TMC3    C310158   0.457   1.250  15.729  0.2145 -0.9101  0.4973
  687TMC3    C410159   0.728   1.192  15.751 -0.0676  1.2429  0.0805
  687TMC3    C510160   0.634   1.143  15.839 -0.8618 -0.1920  0.4000
  687TMC3    C610161   0.496   1.157  15.816 -0.2055  0.2123 -1.2157
  687TMC3     C10162   0.785   1.362  15.583  0.5604  0.9578  0.1589
  687TMC3     O10163   0.849   1.289  15.508  0.2656 -0.4628  0.5469
  687TMC3     H10164   0.503   1.387  15.579  1.6754 -0.1314 -1.3224
  687TMC3    H110165   0.834   1.179  15.765 -0.2438  0.0919  0.2942
  687TMC3    H210166   0.428   1.103  15.880  0.2491  2.2480  1.0152
  687TMC3    C710167   0.678   1.065  15.953  0.0952  0.3017 -0.2103
  687TMC3    C810168   0.313   1.284  15.735  0.0224  0.5834  0.4241
  687TMC3    O110169   0.594   1.003  16.017  0.5184 -0.9345 -0.1839
  687TMC3    O210170   0.231   1.200  15.764 -0.0500 -0.1485  0.0336
  688MPD2     C10171   4.372   0.578  17.519 -0.0924  0.2957  1.0855
  688MPD2    C110172   4.444   0.481  17.595 -0.5609 -0.6318  0.0929
  688MPD2    C210173   4.562   0.433  17.543  0.0658  0.2764 -0.1851
  688MPD2    C310174   4.619   0.479  17.424  0.3657 -0.2281 -0.5623
  688MPD2    C410175   4.547   0.578  17.355  0.0934  0.8315 -0.2403
  688MPD2    C510176   4.428   0.629  17.407 -0.1714 -0.0207  0.4243
  688MPD2     H10177   4.617   0.362  17.604  2.4374  1.7712 -0.5629
  688MPD2    H110178   4.582   0.608  17.256  0.8095  0.0282 -0.2310
  688MPD2    H210179   4.272   0.614  17.542  1.2149  3.1584  2.3683
  688MPD2    H310180   4.384   0.688  17.328  0.7695 -0.7629 -0.6486
  688MPD2     N10181   0.024   0.446  17.379  0.2249  0.3866  0.0449
  688MPD2    H510182   0.067   0.499  17.304 -1.8291  0.1138 -1.3274
  688MPD2    N110183   4.405   0.433   0.025 -0.6798 -0.0214 -0.4694
  688MPD2    H710184   4.455   0.357   0.071  2.2723 -0.1330 -3.8661
  689TMC3    C110185   4.304   0.464   0.244  0.0898  0.2096  0.0597
  689TMC3    C210186   4.334   0.564   0.338  0.0038 -0.5082 -0.1704
  689TMC3    C310187   4.396   0.525   0.456 -0.2811  0.1200  0.2316
  689TMC3    C410188   4.339   0.338   0.267 -0.1888  0.7669 -0.0987
  689TMC3    C510189   4.399   0.308   0.385 -0.0099 -0.3086  0.1560
  689TMC3    C610190   4.437   0.397   0.480  0.2204 -0.0408  0.2142
  689TMC3     C10191   4.315   0.504   0.103 -0.0925  0.5670 -0.7097
  689TMC3     O10192   4.257   0.609   0.072 -0.1288  0.2031 -0.1692
  689TMC3     H10193   4.325   0.664   0.297  1.2001 -1.1972 -2.1254
  689TMC3    H110194   4.311   0.263   0.194 -0.8612  2.0053 -1.1228
  689TMC3    H210195   4.470   0.375   0.581 -0.3544 -0.5195  0.2947
  689TMC3    C710196   4.410   0.170   0.426 -0.0540 -0.0736 -0.1377
  689TMC3    C810197   4.438   0.617   0.551 -0.2598 -0.1565  0.0509
  689TMC3    O110198   4.408   0.133   0.543  0.0958  0.2004 -0.5479
  689TMC3    O210199   4.529   0.584   0.626 -0.8115  0.3565 -0.5426
  690MPD2     C10200   1.991   2.434  15.973 -0.5891 -0.4646  0.2572
  690MPD2    C110201   1.991   2.422  15.839  0.8751  0.0766  0.5280
  690MPD2    C210202   2.097   2.464  15.767  0.3217  0.2365  0.0073
  690MPD2    C310203   2.212   2.513  15.826 -0.2391  0.2182  0.2807
  690MPD2    C410204   2.215   2.526  15.964  0.3800 -0.9234 -0.3423
  690MPD2    C510205   2.101   2.490  16.037  0.0886  0.1988  0.2778
  690MPD2     H10206   2.083   2.443  15.662 -1.0491 -2.7046  0.7689
  690MPD2    H110207   2.295   2.580  16.014 -1.9373  0.0582  2.3331
  690MPD2    H210208   1.908   2.400  16.033 -0.9948 -1.5155 -0.8946
  690MPD2    H310209   2.103   2.498  16.145 -0.4070 -2.2308  0.4673
  690MPD2     N10210   2.317   2.551  15.740  0.5638  0.7769 -0.1376
  690MPD2    H510211   2.286   2.564  15.644 -1.8154 -1.1485  0.3507
  690MPD2    N110212   1.881   2.374  15.764  0.3576  0.3782 -0.3770
  690MPD2    H710213   1.896   2.352  15.666 -0.4301 -0.7302 -0.2576
  691TMC3    C110214   1.655   2.287  15.721  0.3716 -0.0135  0.5228
  691TMC3    C210215   1.529   2.273  15.765 -0.0743  0.7344  0.2695
  691TMC3    C310216   1.465   2.153  15.752  0.1886  0.5010  0.8043
  691TMC3    C410217   1.717   2.180  15.652 -0.3552  0.7317 -0.3215
  691TMC3    C510218   1.651   2.059  15.634 -0.3617 -0.3055  0.1642
  691TMC3    C610219   1.523   2.047  15.690  0.6685  0.2808 -0.6515
  691TMC3     C10220   1.746   2.367  15.805 -0.7326  0.0393 -0.1069
  691TMC3     O10221   1.700   2.406  15.911  0.0586 -0.0254  0.0027
  691TMC3     H10222   1.481   2.362  15.805  0.3208  0.3900  1.4885
  691TMC3    H110223   1.821   2.187  15.621 -0.0157  3.8138  1.6092
  691TMC3    H210224   1.460   1.969  15.649 -0.3622  0.4211  0.6673
  691TMC3    C710225   1.743   1.947  15.615  0.1703 -0.3665  0.1485
  691TMC3    C810226   1.323   2.133  15.791  0.8940  0.7971  0.3387
  691TMC3    O110227   1.866   1.969  15.619  0.2840  0.6099  0.3744
  691TMC3    O210228   1.276   2.016  15.787  0.0483 -0.1333  0.0217
  692TMC3    C110229   3.603   3.577  16.203  0.3548  0.0777 -0.1719
  692TMC3    C210230   3.714   3.652  16.226  0.1969  0.0293  0.0700
  692TMC3    C310231   3.822   3.579  16.277  0.3973 -0.7119  0.1463
  692TMC3    C410232   3.597   3.435  16.201  0.1682  0.3982 -0.5723
  692TMC3    C510233   3.703   3.376  16.258  0.4361 -0.0622  0.6027
  692TMC3    C610234   3.815   3.440  16.303 -0.4169  0.0954 -0.1240
  692TMC3     C10235   3.471   3.644  16.199  0.5292  0.4860  0.0949
  692TMC3     O10236   3.371   3.585  16.220  0.6986  0.2694 -0.1472
  692TMC3     H10237   3.714   3.757  16.251  1.4931 -0.2258  1.1906
  692TMC3    H110238   3.513   3.374  16.169  0.8689 -0.6667 -0.3876
  692TMC3    H210239   3.900   3.376  16.323  0.8389  2.0724  0.8215
  692TMC3    C710240   3.724   3.241  16.205 -1.3432 -0.1009 -0.4482
  692TMC3    C810241   3.884   3.655  16.383 -0.0098 -0.2631 -0.1245
  692TMC3    O110242   3.672   3.216  16.096  0.3578  0.1617 -0.1649
  692TMC3    O210243   3.908   3.773  16.371 -0.3474  0.4696  0.5063
  693MPD2     C10244   3.188   1.847  10.920 -0.2730 -0.0093 -0.4005
  693MPD2    C110245   3.166   1.716  10.958 -0.2904  0.3528  0.5481
  693MPD2    C210246   3.279   1.645  11.002 -0.0466  0.2560  0.3785
  693MPD2    C310247   3.407   1.693  11.006  1.2222  0.2585  0.1571
  693MPD2    C410248   3.427   1.813  10.943  1.0191 -0.1252 -0.0054
  693MPD2    C510249   3.317   1.883  10.904  0.0286 -0.0448 -0.1644
  693MPD2     H10250   3.268   1.542  11.032  0.8283 -0.0231 -0.2702
  693MPD2    H110251   3.529   1.844  10.923  0.4856  0.6425 -1.5219
  693MPD2    H210252   3.110   1.907  10.875 -0.3858  0.7760  0.8368
  693MPD2    H310253   3.338   1.977  10.854 -2.2185  0.3157 -0.4133
  693MPD2     N10254   3.517   1.640  11.080  0.3038  0.0929 -0.8660
  693MPD2    H510255   3.605   1.691  11.077  0.9238 -0.7727  3.8486
  693MPD2    N110256   3.041   1.657  10.965  0.5340  0.7868  0.1252
  693MPD2    H710257   2.961   1.718  10.977 -0.7440 -0.7291 -0.7577
  694TMC3    C110258   2.882   1.500  11.013  0.4293  0.0275  0.1261
  694TMC3    C210259   2.834   1.398  10.942  0.1203  0.7217 -0.2424
  694TMC3    C310260   2.745   1.310  10.996  0.8354 -0.0902  0.3341
  694TMC3    C410261   2.859   1.509  11.151 -0.1716  0.0592 -0.2420
  694TMC3    C510262   2.782   1.413  11.206 -0.1061  0.6374 -0.2829
  694TMC3    C610263   2.716   1.319  11.133 -0.0225  0.2275 -0.0750
  694TMC3     C10264   3.022   1.529  10.979  0.1175  0.4562 -0.7057
  694TMC3     O10265   3.083   1.431  10.934 -0.1377  0.2678  0.0318
  694TMC3     H10266   2.878   1.379  10.845  0.3509 -1.1981  0.2427
  694TMC3    H110267   2.923   1.579  11.203  0.4263 -1.0577  0.5274
  694TMC3    H210268   2.634   1.263  11.177  0.5702 -0.7603 -0.2067
  694TMC3    C710269   2.766   1.432  11.348 -0.0493 -0.3122 -0.4132
  694TMC3    C810270   2.683   1.202  10.917  0.7179 -0.1762 -0.3132
  694TMC3    O110271   2.786   1.544  11.392  0.1205  0.0206 -0.6327
  694TMC3    O210272   2.632   1.110  10.980  0.0692 -0.1691 -0.1135
  695MPD2     C10273   4.029   3.292  13.841  0.3486 -0.1940  0.7323
  695MPD2    C110274   3.965   3.294  13.962  0.0678  0.3660  0.0279
  695MPD2    C210275   3.835   3.336  13.960  0.6273  0.4181 -0.3941
  695MPD2    C310276   3.773   3.373  13.838 -0.6243  0.3665  0.4288
  695MPD2    C410277   3.847   3.364  13.715  0.5899 -0.6034 -0.1502
  695MPD2    C510278   3.975   3.318  13.719  0.4935  0.4493 -0.3700
  695MPD2     H10279   3.771   3.333  14.047 -0.0082 -0.9341 -0.9107
  695MPD2    H110280   3.808   3.389  13.617 -0.0503 -0.4384  0.1448
  695MPD2    H210281   4.124   3.240  13.835  0.7573  0.6259  0.0968
  695MPD2    H310282   4.028   3.302  13.625  0.4919 -1.6209 -0.0113
  695MPD2     N10283   3.639   3.412  13.833  1.2189  1.2142 -0.2009
  695MPD2    H510284   3.579   3.410  13.915  1.0178  1.3300 -0.3451
  695MPD2    N110285   4.038   3.271  14.082 -0.4347  0.4077 -0.6380
  695MPD2    H710286   3.980   3.269  14.165  1.2415 -1.5818  0.4976
  696TMC3    C110287   3.436   3.512  13.743  0.0559 -0.0051 -0.2839
  696TMC3    C210288   3.378   3.445  13.846  0.0327  0.1171  0.1982
  696TMC3    C310289   3.276   3.499  13.917 -0.0506 -0.1263 -0.3752
  696TMC3    C410290   3.385   3.634  13.699  0.0091 -0.7918  1.1734
  696TMC3    C510291   3.268   3.679  13.760  0.1120  0.0228  0.2284
  696TMC3    C610292   3.217   3.615  13.866  0.3747 -0.3011  0.5896
  696TMC3     C10293   3.579   3.479  13.722  0.2896 -0.0632 -0.0701
  696TMC3     O10294   3.640   3.531  13.638  0.1364 -0.1663  0.0332
  696TMC3     H10295   3.426   3.356  13.885  0.9326  0.7933  0.6155
  696TMC3    H110296   3.437   3.693  13.625 -2.4753  1.9396  1.5687
  696TMC3    H210297   3.130   3.662  13.910 -1.9791 -1.5702 -2.6381
  696TMC3    C710298   3.234   3.815  13.761  0.5516 -0.2739 -0.1620
  696TMC3    C810299   3.333   3.513  14.049  0.3434  1.0135 -0.1841
  696TMC3    O110300   3.114   3.835  13.754  0.6610  0.4023  0.5999
  696TMC3    O210301   3.450   3.471  14.076 -0.5863  0.3161  0.6365
  697MPD2     C10302   3.574   0.374  15.895  0.7689 -0.2696 -0.2210
  697MPD2    C110303   3.582   0.325  15.768  0.4397 -0.2796 -0.4333
  697MPD2    C210304   3.623   0.408  15.665 -0.2678 -0.4035  0.1517
  697MPD2    C310305   3.658   0.539  15.685 -0.1618 -0.4826 -0.3599
  697MPD2    C410306   3.644   0.588  15.817  0.1972  0.1935  0.0493
  697MPD2    C510307   3.602   0.507  15.913  0.3203 -0.3529  0.2716
  697MPD2     H10308   3.638   0.347  15.576  1.7118 -0.3854  0.4905
  697MPD2    H110309   3.661   0.691  15.847 -0.4529  0.7530 -1.4596
  697MPD2    H210310   3.536   0.327  15.985  0.9702 -0.7378 -0.3781
  697MPD2    H310311   3.608   0.554  16.011  1.6366 -0.4074  0.2136
  697MPD2     N10312   3.710   0.607  15.573 -0.0171  0.0199  0.4827
  697MPD2    H510313   3.698   0.564  15.482 -2.7887 -2.4424  2.0035
  697MPD2    N110314   3.550   0.185  15.731  0.1886  0.0788 -0.3788
  697MPD2    H710315   3.552   0.162  15.633  0.5374 -0.2395 -0.2982
  698TMC3    C110316   3.857   0.749  15.459  0.4874  0.3626  0.0236
  698TMC3    C210317   3.976   0.810  15.472  0.4048  0.4033  0.0123
  698TMC3    C310318   4.042   0.833  15.355 -0.4357 -0.0551 -0.1161
  698TMC3    C410319   3.804   0.723  15.335  0.5574 -0.5264  0.0409
  698TMC3    C510320   3.869   0.754  15.222 -0.6217  0.5680  0.4353
  698TMC3    C610321   3.989   0.807  15.232 -0.6123  0.1472  0.2433
  698TMC3     C10322   3.792   0.716  15.587 -0.3726  0.2845  0.3127
  698TMC3     O10323   3.837   0.766  15.685  0.4800 -0.8127 -0.0159
  698TMC3     H10324   4.017   0.832  15.570  1.6611  1.5918 -0.7760
  698TMC3    H110325   3.699   0.697  15.324  0.5487  0.2622 -1.6390
  698TMC3    H210326   4.048   0.838  15.147  0.0416 -1.0699  0.2405
  698TMC3    C710327   3.812   0.719  15.089  0.3224 -0.1289  0.2398
  698TMC3    C810328   4.184   0.876  15.370 -0.1310 -0.6235 -0.3667
  698TMC3    O110329   3.696   0.742  15.062  0.8346 -0.4913  0.5656
  698TMC3    O210330   4.230   0.843  15.477  0.5906  0.1785  1.0566
  699TMC3    C110331   3.670   3.147  13.437  0.4129 -0.2461 -0.4523
  699TMC3    C210332   3.641   3.015  13.457 -0.5604 -0.3708  0.1391
  699TMC3    C310333   3.516   2.980  13.502  0.8109  0.9160  0.5687
  699TMC3    C410334   3.571   3.241  13.445 -0.6500 -0.4314  0.4688
  699TMC3    C510335   3.442   3.199  13.482 -0.1395 -0.2164 -0.7942
  699TMC3    C610336   3.412   3.075  13.510  0.5189  0.3914 -0.0963
  699TMC3     C10337   3.779   3.196  13.356  0.0276 -0.5715  0.8886
  699TMC3     O10338   3.798   3.318  13.377 -0.1059  0.7006  0.4201
  699TMC3     H10339   3.725   2.947  13.458 -2.0959 -2.2503  2.5816
  699TMC3    H110340   3.580   3.346  13.422  1.0165 -0.9176 -1.0598
  699TMC3    H210341   3.308   3.050  13.523  0.6192  0.2901  0.5424
  699TMC3    C710342   3.335   3.290  13.525  0.0402 -0.5498 -0.6112
  699TMC3    C810343   3.492   2.850  13.557  0.2635 -1.5148 -0.6647
  699TMC3    O110344   3.247   3.250  13.598 -0.4363  0.3094  0.2018
  699TMC3    O210345   3.390   2.834  13.624 -0.2111  0.1073 -0.3669
  700TMC3    C110346   2.644   0.792  17.445 -1.1909 -0.1236  0.3096
  700TMC3    C210347   2.757   0.721  17.410 -0.5211 -0.0458 -0.3860
  700TMC3    C310348   2.867   0.733  17.493 -0.5321  0.7216 -0.0135
  700TMC3    C410349   2.644   0.884  17.539  0.0213 -0.0871  0.0591
  700TMC3    C510350   2.759   0.889  17.612  0.3264  0.6080  0.5400
  700TMC3    C610351   2.869   0.812  17.596  0.2158  0.2973 -0.1283
  700TMC3     C10352   2.554   0.831  17.339 -0.4121 -0.7268  0.1350
  700TMC3     O10353   2.509   0.740  17.265  0.3289 -0.7364  0.0536
  700TMC3     H10354   2.766   0.659  17.322  0.0693 -0.4258 -0.0589
  700TMC3    H110355   2.560   0.951  17.555 -0.0341 -0.1601  0.0744
  700TMC3    H210356   2.958   0.844  17.647  1.7045 -0.7198 -2.0716
  700TMC3    C710357   2.780   1.010  17.693 -0.2064 -0.3289  0.1355
  700TMC3    C810358   2.990   0.678  17.443 -0.1480 -0.2558  0.3326
  700TMC3    O110359   2.891   1.056   0.002 -0.3844 -0.2194  0.2437
  700TMC3    O210360   2.988   0.665  17.318  0.0443  0.2007 -0.0979
  701TMC3    C110361   2.688   4.319  15.792  0.0961 -0.2052  1.3705
  701TMC3    C210362   2.707   4.245  15.677  0.2592  0.2476  0.1434
  701TMC3    C310363   2.820   4.273  15.605  0.1361 -0.1853 -0.1757
  701TMC3    C410364   2.776   4.418  15.833  0.3599 -0.5384  0.5983
  701TMC3    C510365   2.890   4.431  15.753  0.2956 -0.3633  0.4666
  701TMC3    C610366   2.909   4.374  15.635  0.3792  0.4580 -0.6916
  701TMC3     C10367   2.570   4.292  15.870 -0.0706 -0.4140 -0.0306
  701TMC3     O10368   2.527   4.181  15.862 -0.0151  0.3340  0.5216
  701TMC3     H10369   2.625   4.177  15.655  0.2612  0.3127 -0.0605
  701TMC3    H110370   2.759   4.486  15.915 -0.6498  0.0791 -0.1179
  701TMC3    H210371   2.991   4.403  15.570 -0.3770 -1.1443 -2.3661
  701TMC3    C710372   2.979   4.547  15.784  0.3194 -0.0919  0.2536
  701TMC3    C810373   2.837   4.221  15.471 -0.8085 -0.7468  0.7362
  701TMC3    O110374   3.045   4.590  15.690 -0.1656  0.1796  0.5987
  701TMC3    O210375   2.943   4.235  15.413 -0.1655  0.3810 -0.1086
  702MPD2     C10376   2.543   1.946  10.517  0.0145  0.6692 -0.1190
  702MPD2    C110377   2.425   2.006  10.557  0.2158  0.3243  0.9401
  702MPD2    C210378   2.404   2.139  10.528 -0.3480 -0.5914  0.3099
  702MPD2    C310379   2.498   2.223  10.469  0.2937  0.6788  0.5457
  702MPD2    C410380   2.612   2.163  10.426  0.3825  0.0373 -0.1609
  702MPD2    C510381   2.634   2.032  10.459 -0.3925 -0.6431 -0.6711
  702MPD2     H10382   2.313   2.176  10.573 -0.2647 -0.2961  0.2352
  702MPD2    H110383   2.690   2.220  10.376  0.9555  0.2922  1.0289
  702MPD2    H210384   2.571   1.844  10.541 -0.3259 -0.0791 -2.8519
  702MPD2    H310385   2.728   1.991  10.424 -0.1754 -0.7259  0.0107
  702MPD2     N10386   2.480   2.362  10.472  0.4535  0.6079 -0.2630
  702MPD2    H510387   2.559   2.415  10.437 -0.0833  1.2397 -0.5123
  702MPD2    N110388   2.335   1.942  10.643 -0.0797  0.0898 -0.2300
  702MPD2    H710389   2.255   1.995  10.676 -0.4611 -1.5891  1.5715
  703TMC3    C110390   2.416   2.574  10.531  0.1896 -0.0572 -0.3803
  703TMC3    C210391   2.309   2.653  10.510  0.1279 -0.5485  0.0089
  703TMC3    C310392   2.330   2.784  10.494 -0.9068  0.4136 -0.3126
  703TMC3    C410393   2.546   2.616  10.509 -0.7018  0.2187 -0.4206
  703TMC3    C510394   2.565   2.750  10.500  0.4041  0.5926 -0.0068
  703TMC3    C610395   2.459   2.834  10.481  0.0754 -0.6913  0.5039
  703TMC3     C10396   2.380   2.434  10.525 -0.9488  0.1428  0.8031
  703TMC3     O10397   2.273   2.400  10.578  0.2994 -0.3658  0.9110
  703TMC3     H10398   2.209   2.612  10.500 -0.9760  1.9456  0.6032
  703TMC3    H110399   2.629   2.550  10.529  0.5284  0.9635 -3.1560
  703TMC3    H210400   2.485   2.939  10.469 -0.7979 -0.4405  0.8054
  703TMC3    C710401   2.698   2.809  10.528  0.0638 -0.2974  0.0631
  703TMC3    C810402   2.222   2.871  10.506  0.6402  0.9852  0.4103
  703TMC3    O110403   2.721   2.913  10.468 -0.7336  0.4778  0.0883
  703TMC3    O210404   2.215   2.972  10.432 -0.2955 -0.4668 -0.6037
  704TMC3    C110405   0.109   0.295  12.629 -0.7686  0.5043 -0.3575
  704TMC3    C210406   0.224   0.338  12.572  0.7771  0.2170 -0.0541
  704TMC3    C310407   0.340   0.327  12.643  0.0330  0.6280  0.9310
  704TMC3    C410408   0.100   0.248  12.757 -0.0829 -0.2712  0.0985
  704TMC3    C510409   0.220   0.250  12.834 -0.1191  0.4197  0.2555
  704TMC3    C610410   0.339   0.282  12.775 -0.8895  0.8105 -0.2020
  704TMC3     C10411   4.721   0.265  12.535  0.8487  0.3311 -0.4874
  704TMC3     O10412   4.605   0.289  12.572 -0.5622  0.3876  0.2381
  704TMC3     H10413   0.226   0.384  12.473 -2.1357 -0.7366 -0.5558
  704TMC3    H110414   0.015   0.182  12.773 -0.5509  0.8802  2.2721
  704TMC3    H210415   0.431   0.257  12.828 -1.7633  2.5658  2.1519
  704TMC3    C710416   0.224   0.127  12.908 -0.1099  1.0555  0.4181
  704TMC3    C810417   0.460   0.341  12.563 -0.1400 -0.3150  0.2877
  704TMC3    O110418   0.324   0.063  12.879  0.4174 -0.0142 -0.2108
  704TMC3    O210419   0.439   0.355  12.441 -0.3594  0.0172  0.0935
  705MPD2     C10420   4.003   3.120  17.286 -0.2132  0.4877  0.1484
  705MPD2    C110421   3.968   3.093  17.157  0.2393  0.1904 -0.2619
  705MPD2    C210422   3.837   3.069  17.121 -0.6263 -0.6208  0.5548
  705MPD2    C310423   3.736   3.073  17.216 -0.3279 -0.2400  0.2400
  705MPD2    C410424   3.776   3.088  17.347  0.7312  0.0904 -0.7782
  705MPD2    C510425   3.903   3.113  17.385 -0.2862 -0.1474 -0.2947
  705MPD2     H10426   3.807   3.061  17.017 -0.3433  0.6270  0.3740
  705MPD2    H110427   3.698   3.088  17.423  2.6193 -0.1015  1.1545
  705MPD2    H210428   4.107   3.144  17.302 -0.4933  1.1893  0.9668
  705MPD2    H310429   3.926   3.132  17.489  0.8497  1.2645 -0.7936
  705MPD2     N10430   3.600   3.065  17.186 -0.4288 -0.0439 -0.0366
  705MPD2    H510431   3.535   3.075  17.263  3.5240  1.2087  3.1393
  705MPD2    N110432   4.061   3.078  17.051  0.1444 -0.5690  0.4973
  705MPD2    H710433   4.036   3.024  16.968 -3.3791 -0.8702  1.7535
  706TMC3    C110434   4.194   3.023  16.693  0.7071  0.2435 -0.3756
  706TMC3    C210435   4.204   3.133  16.624 -0.2959 -0.2452  0.0672
  706TMC3    C310436   4.245   3.248  16.696  0.3357 -0.9182 -0.3992
  706TMC3    C410437   4.195   3.026  16.826 -0.0050  0.3251 -0.8644
  706TMC3    C510438   4.239   3.134  16.904  0.6919  0.2082 -1.1576
  706TMC3    C610439   4.267   3.251  16.831  0.1086 -0.6666  0.0910
  706TMC3     C10440   4.246   2.902  16.632 -0.4897 -0.2612  0.0953
  706TMC3     O10441   4.305   2.829  16.712  0.2968  0.3153 -0.0233
  706TMC3     H10442   4.200   3.146  16.517  0.9308  2.0449  0.3113
  706TMC3    H110443   4.179   2.935  16.882 -1.1397  1.3390  0.4615
  706TMC3    H210444   4.284   3.347  16.878 -2.9976 -0.0771  0.0056
  706TMC3    C710445   4.173   3.157  17.039 -0.6091  0.3302  0.6134
  706TMC3    C810446   4.217   3.369  16.622  0.3740 -0.7149 -0.6495
  706TMC3    O110447   4.220   3.228  17.123  0.3170  0.7836  0.3157
  706TMC3    O210448   4.131   3.374  16.533 -0.6962 -0.3452 -0.2183
  707TMC3    C110449   0.813   2.037   1.568 -0.6830 -0.7276  0.0979
  707TMC3    C210450   0.899   2.044   1.673 -0.3759  0.6628  0.0303
  707TMC3    C310451   0.960   2.159   1.695  0.0124  0.6498 -0.5218
  707TMC3    C410452   0.791   2.145   1.482 -0.0324 -0.6538 -0.4557
  707TMC3    C510453   0.853   2.263   1.513  0.0254  0.1776  0.5100
  707TMC3    C610454   0.939   2.272   1.619 -0.1496 -0.4221  0.2194
  707TMC3     C10455   0.794   1.903   1.507  0.5152 -0.0177  0.2269
  707TMC3     O10456   0.842   1.811   1.569 -0.2089  0.0274  0.4460
  707TMC3     H10457   0.914   1.961   1.742  2.4105  1.7694  0.7710
  707TMC3    H110458   0.734   2.135   1.390 -0.7168  2.9063 -0.4262
  707TMC3    H210459   0.990   2.365   1.641  3.3188 -2.0850 -0.8132
  707TMC3    C710460   0.868   2.364   1.411 -0.4148  0.0148  0.0349
  707TMC3    C810461   1.070   2.165   1.790  0.1584 -0.8174 -0.0980
  707TMC3    O110462   0.767   2.374   1.344  0.4646 -0.4211  0.0930
  707TMC3    O210463   1.089   2.274   1.843 -0.2697  0.2289  0.5246
  708MPD2     C10464   2.916   1.179  14.180  0.0072  0.9926 -0.0772
  708MPD2    C110465   2.802   1.254  14.205 -0.2287  0.6260  0.0517
  708MPD2    C210466   2.714   1.218  14.306  0.2596 -0.4386  0.3448
  708MPD2    C310467   2.721   1.099  14.376  0.0864  0.1149  0.4480
  708MPD2    C410468   2.822   1.011  14.336  0.5192 -0.0640  0.1802
  708MPD2    C510469   2.913   1.051  14.238  0.6170  0.0652 -0.4805
  708MPD2     H10470   2.628   1.279  14.331  1.0017  0.4086  0.8375
  708MPD2    H110471   2.846   0.917  14.384  0.1755  0.0987  0.6741
  708MPD2    H210472   2.979   1.201  14.094  0.7749  1.4668  0.6130
  708MPD2    H310473   2.989   0.982  14.204  0.3992  0.0620 -0.9553
  708MPD2     N10474   2.637   1.056  14.481 -0.1602 -0.2963 -0.4267
  708MPD2    H510475   2.668   0.962  14.505  1.6818  0.2775 -0.6221
  708MPD2    N110476   2.784   1.370  14.126 -0.2001 -0.2295 -0.0365
  708MPD2    H710477   2.843   1.376  14.043  1.2507  2.8445  1.2226
  709TMC3    C110478   2.676   1.572  14.056 -0.1734 -0.1338  0.1597
  709TMC3    C210479   2.672   1.535  13.927  0.5132  0.5322  0.0317
  709TMC3    C310480   2.606   1.612  13.836  0.3515  0.3055 -0.0430
  709TMC3    C410481   2.622   1.688  14.100  0.3010  0.7397 -0.5217
  709TMC3    C510482   2.551   1.757  14.005  0.4804 -0.9667  0.3212
  709TMC3    C610483   2.534   1.720  13.878 -0.2946  0.0638  0.8057
  709TMC3     C10484   2.692   1.470  14.160  0.2040  0.1106 -0.0544
  709TMC3     O10485   2.622   1.489  14.265  0.1754  0.0768  0.0185
  709TMC3     H10486   2.731   1.451  13.892  0.6997  1.1268 -1.1090
  709TMC3    H110487   2.640   1.716  14.203  1.1203  0.4007 -0.5747
  709TMC3    H210488   2.470   1.779  13.814  0.2611  0.1050  0.2837
  709TMC3    C710489   2.422   1.804  14.065  0.1160  0.1336  0.4471
  709TMC3    C810490   2.621   1.579  13.700 -0.3712  0.2513  0.3862
  709TMC3    O110491   2.338   1.859  13.995 -0.8423  0.0594 -0.1737
  709TMC3    O210492   2.663   1.465  13.676 -0.3282 -0.0095  0.1722
  710TMC3    C110493   3.009   2.957   0.674  0.3652  0.4112 -0.7702
  710TMC3    C210494   3.112   2.957   0.589 -0.3347 -0.0722 -0.2747
  710TMC3    C310495   3.225   2.885   0.610 -0.5158  0.1538 -0.6793
  710TMC3    C410496   3.011   2.868   0.788  0.8278 -0.2016 -0.7421
  710TMC3    C510497   3.127   2.786   0.801 -0.5727  0.4787 -0.2840
  710TMC3    C610498   3.230   2.797   0.713  0.0669  0.0495  0.5931
  710TMC3     C10499   2.913   3.061   0.657 -0.4363 -0.6881  0.6277
  710TMC3     O10500   2.893   3.101   0.545 -0.4927 -0.3900  0.5335
  710TMC3     H10501   3.102   3.019   0.501  2.5774 -2.0127 -1.9924
  710TMC3    H110502   2.926   2.862   0.856  2.5832 -1.0534  1.3552
  710TMC3    H210503   3.296   2.712   0.710  0.8295  0.6515  0.1443
  710TMC3    C710504   3.146   2.725   0.934 -0.0892 -0.6292  0.8226
  710TMC3    C810505   3.353   2.925   0.560  0.0891  0.0671 -0.4833
  710TMC3    O110506   3.048   2.717   1.008  0.4492  0.0790  0.1053
  710TMC3    O210507   3.447   2.868   0.609  0.8423  0.3540  0.1305
  711TMC3    C110508   3.419   4.148  15.017  0.6804 -0.6348  0.0771
  711TMC3    C210509   3.414   4.187  15.140  0.4981 -0.2352 -0.0982
  711TMC3    C310510   3.517   4.177  15.225  0.0963  0.8566  0.6734
  711TMC3    C410511   3.535   4.088  14.973 -0.5566 -0.5331 -0.0605
  711TMC3    C510512   3.649   4.080  15.057  0.2853  0.2819 -0.7130
  711TMC3    C610513   3.639   4.125  15.183  0.3029 -0.7938 -0.1163
  711TMC3     C10514   3.310   4.055  14.989 -0.1472  0.6214  0.5808
  711TMC3     O10515   3.286   4.025  14.873 -0.0157 -0.9285  0.4364
  711TMC3     H10516   3.322   4.228  15.180  0.0092 -0.9506 -0.4907
  711TMC3    H110517   3.543   4.059  14.869 -0.8955  0.0527 -0.2507
  711TMC3    H210518   3.726   4.130  15.247 -1.2416 -0.4293  1.9429
  711TMC3    C710519   3.697   3.944  15.064  0.0464  0.2728  0.3561
  711TMC3    C810520   3.473   4.128  15.349 -0.6222 -0.0416  0.2975
  711TMC3    O110521   3.795   3.922  15.129 -0.0689 -0.4851  0.2787
  711TMC3    O210522   3.356   4.106  15.362 -0.1331 -0.4927 -0.4132
  712MPD2     C10523   0.537   0.143  14.138  0.3271  0.4446 -0.1892
  712MPD2    C110524   0.397   0.148  14.127  0.3825 -0.0176 -0.4899
  712MPD2    C210525   0.333   0.245  14.049 -0.7133 -0.1361 -0.4119
  712MPD2    C310526   0.418   0.333  13.981 -0.7743  0.5098 -0.6346
  712MPD2    C410527   0.553   0.326  13.988 -0.7274  0.6798  0.5540
  712MPD2    C510528   0.613   0.231  14.072 -0.1471 -0.6181 -0.5638
  712MPD2     H10529   0.226   0.257  14.051 -0.7489 -0.7819  1.4466
  712MPD2    H110530   0.615   0.389  13.926 -0.2548  0.8214  1.1771
  712MPD2    H210531   0.578   0.054  14.184 -0.4335  0.1254 -0.1300
  712MPD2    H310532   0.720   0.225  14.089 -0.2523  0.0967  0.3347
  712MPD2     N10533   0.370   0.444  13.906  0.0130  0.7092  0.1617
  712MPD2    H510534   0.443   0.499  13.861  0.9297 -0.8081 -0.2018
  712MPD2    N110535   0.312   0.062  14.196  0.3823  0.8646  0.2940
  712MPD2    H710536   0.213   0.081  14.186  0.8241  1.4809 -2.8643
  713TMC3    C110537   0.231   0.631  13.862 -0.8059  0.0517  0.2507
  713TMC3    C210538   0.296   0.667  13.745  0.3676 -0.3122  0.6980
  713TMC3    C310539   0.252   0.780  13.678 -1.4697  0.4469  0.2613
  713TMC3    C410540   0.129   0.709  13.917 -0.2751  0.1652 -0.0082
  713TMC3    C510541   0.088   0.812  13.831 -0.2742  0.2441 -0.2687
  713TMC3    C610542   0.148   0.856  13.720  0.0853 -0.0047  0.3620
  713TMC3     C10543   0.247   0.503  13.921 -0.3374 -0.5470  0.1723
  713TMC3     O10544   0.156   0.479  14.004  0.0397 -0.5169 -0.2862
  713TMC3     H10545   0.384   0.615  13.710 -0.9667 -2.4787  0.5848
  713TMC3    H110546   0.078   0.685  14.010  1.2659  0.3855  0.8961
  713TMC3    H210547   0.126   0.946  13.663  2.5954 -0.4043 -1.2386
  713TMC3    C710548   4.697   0.883  13.870 -0.6731  0.1666  0.0955
  713TMC3    C810549   0.341   0.853  13.594  0.4479 -0.2015  0.7558
  713TMC3    O110550   4.670   0.890  13.990  0.6462  0.5626 -0.3382
  713TMC3    O210551   0.294   0.937  13.514  0.0927  0.3542  0.0101
  714MPD2     C10552   1.679   4.451   2.107 -0.4266  0.3199 -0.4313
  714MPD2    C110553   1.803   4.436   2.040  0.2557  0.2477 -0.1670
  714MPD2    C210554   1.831   4.521   1.936  0.0603  0.5833 -0.3480
  714MPD2    C310555   1.745   4.621   1.898  0.2140  0.5641  0.6790
  714MPD2    C410556   1.629   4.646   1.968 -0.4167 -0.1811  0.0552
  714MPD2    C510557   1.601   4.563   2.073 -0.2105 -0.4077 -0.2042
  714MPD2     H10558   1.918   4.509   1.873 -0.3969 -2.3791 -0.4306
  714MPD2    H110559   1.557   4.722   1.940  2.2928  2.1344 -0.7464
  714MPD2    H210560   1.662   4.386   2.192  0.9341 -0.1934 -0.5431
  714MPD2    H310561   1.513   4.580   2.133  1.0314  0.2239  1.4393
  714MPD2     N10562   1.779   4.685   1.779  0.5682 -0.4235  0.5830
  714MPD2    H510563   1.864   4.652   1.734  0.8024 -1.1474  1.5495
  714MPD2    N110564   1.899   4.342   2.092  1.1329  0.4279  0.4235
  714MPD2    H710565   1.886   4.291   2.179 -0.9334  0.4317  0.1066
  715TMC3    C110566   2.094   4.219   2.109 -0.5397 -0.3052  0.6942
  715TMC3    C210567   2.044   4.106   2.056 -0.1989  0.2617  0.0222
  715TMC3    C310568   2.131   4.010   2.002 -0.1135  0.0357  0.2608
  715TMC3    C410569   2.225   4.237   2.105 -0.2408  0.0078  0.0961
  715TMC3    C510570   2.308   4.150   2.036 -0.3428 -0.0903  0.1358
  715TMC3    C610571   2.264   4.030   1.986 -0.1804 -0.3338 -0.7385
  715TMC3     C10572   2.030   4.330   2.047  0.7374 -0.2651  0.3620
  715TMC3     O10573   2.091   4.391   1.960 -0.0753  0.2129 -0.2941
  715TMC3     H10574   1.937   4.099   2.043 -0.1563 -0.7636  0.2530
  715TMC3    H110575   2.266   4.335   2.129 -0.5131 -0.0175  0.6780
  715TMC3    H210576   2.326   3.958   1.932 -2.3615 -1.2498 -2.0326
  715TMC3    C710577   2.447   4.169   2.037 -0.0835 -0.4932 -0.1039
  715TMC3    C810578   2.078   3.893   1.934 -0.0953  0.1302  0.4632
  715TMC3    O110579   2.503   4.115   1.941  0.1891  0.4734 -0.2701
  715TMC3    O210580   2.151   3.837   1.858  0.3716  0.0757 -0.1096
  716MPD2     C10581   2.814   1.692  10.277  0.1543 -1.3632 -0.0062
  716MPD2    C110582   2.687   1.704  10.238 -0.2636  0.1753  0.4940
  716MPD2    C210583   2.607   1.593  10.212 -0.0138 -0.3324 -0.3362
  716MPD2    C310584   2.659   1.465  10.224  0.2499  0.1727  0.4149
  716MPD2    C410585   2.789   1.455  10.257 -0.6883  0.1319  0.1450
  716MPD2    C510586   2.866   1.567  10.285  0.2443  0.4553  0.0983
  716MPD2     H10587   2.504   1.594  10.178  0.3315 -0.0172 -1.3773
  716MPD2    H110588   2.829   1.357  10.277  0.0829  0.8287  1.9567
  716MPD2    H210589   2.882   1.774  10.295  0.3836 -1.5779  0.1048
  716MPD2    H310590   2.970   1.548  10.308 -0.1093  0.3508  1.6091
  716MPD2     N10591   2.576   1.357  10.193  0.6547  0.0479 -0.0277
  716MPD2    H510592   2.478   1.370  10.168  0.5517  1.8867  1.3501
  716MPD2    N110593   2.658   1.838  10.196  0.2418  0.3733  0.6762
  716MPD2    H710594   2.727   1.908  10.220  0.8551 -0.3336  0.9659
  717TMC3    C110595   2.518   1.131  10.139 -0.2884  0.2405 -0.0930
  717TMC3    C210596   2.402   1.181  10.088 -0.0316 -0.2623 -0.5512
  717TMC3    C310597   2.303   1.086  10.074 -0.0184 -0.3968  0.1604
  717TMC3    C410598   2.529   1.002  10.192  0.1363 -0.2922  0.2870
  717TMC3    C510599   2.427   0.918  10.177  0.4119 -0.3607  0.3100
  717TMC3    C610600   2.308   0.959  10.126  0.3248  0.9348  0.2410
  717TMC3     C10601   2.620   1.229  10.187 -0.6058  0.0812 -0.3726
  717TMC3     O10602   2.731   1.183  10.191  0.0101 -0.3063 -0.2558
  717TMC3     H10603   2.394   1.275  10.034 -0.1124  1.1021  1.8710
  717TMC3    H110604   2.627   0.972  10.227  0.1533 -0.1388  0.3719
  717TMC3    H210605   2.216   0.902  10.132  1.0594 -0.2761  0.0379
  717TMC3    C710606   2.423   0.804  10.275 -0.1231 -0.4263 -0.2566
  717TMC3    C810607   2.195   1.127   9.986 -0.3010 -0.1693  1.0145
  717TMC3    O110608   2.343   0.712  10.257  0.1407  0.1471  0.2527
  717TMC3    O210609   2.182   1.246   9.961  0.3652  0.4502  0.3920
  718MPD2     C10610   1.752   0.164  13.632 -0.0518  0.2890  0.7816
  718MPD2    C110611   1.669   0.248  13.564 -1.2080  0.3004  0.5221
  718MPD2    C210612   1.572   0.195  13.481 -0.2900 -0.1609 -0.0903
  718MPD2    C310613   1.555   0.060  13.472 -0.3065  0.3376  0.0358
  718MPD2    C410614   1.636   4.701  13.543  0.6824  0.1930  0.0258
  718MPD2    C510615   1.732   0.028  13.621  0.2871 -0.5824 -0.1054
  718MPD2     H10616   1.512   0.271  13.433  1.6131  2.3382  1.4749
  718MPD2    H110617   1.611   4.596  13.546 -2.0679  0.8804  0.8875
  718MPD2    H210618   1.833   0.203  13.693 -0.0260 -0.5765  1.2924
  718MPD2    H310619   1.785   4.682  13.685 -1.1262  0.6516  2.4207
  718MPD2     N10620   1.455   0.022  13.381 -0.4161  0.5525  0.0588
  718MPD2    H510621   1.397   0.094  13.340 -0.3189  0.8104  0.3755
  718MPD2    N110622   1.681   0.387  13.572  0.4308 -0.2021  0.1329
  718MPD2    H710623   1.610   0.442  13.524  1.2883 -0.5770 -1.5441
  719TMC3    C110624   1.766   0.592  13.560 -0.5864 -0.7993 -0.7231
  719TMC3    C210625   1.638   0.632  13.535 -0.2886  0.2087  0.0677
  719TMC3    C310626   1.609   0.699  13.415  0.9827 -0.0539 -0.3721
  719TMC3    C410627   1.863   0.601  13.464 -0.1163 -0.2711  0.3640
  719TMC3    C510628   1.833   0.677  13.356  0.4194  0.3087 -0.1993
  719TMC3    C610629   1.709   0.736  13.333  0.7796  0.2737 -0.0600
  719TMC3     C10630   1.782   0.459  13.624  0.4650  0.8722  0.5541
  719TMC3     O10631   1.881   0.425  13.684 -0.5968 -0.4701 -0.8181
  719TMC3     H10632   1.571   0.612  13.618 -0.7763 -0.4045 -0.4745
  719TMC3    H110633   1.960   0.555  13.476 -0.0066 -0.4677 -1.3098
  719TMC3    H210634   1.685   0.781  13.238 -0.1628 -2.1306 -0.9487
  719TMC3    C710635   1.926   0.665  13.240 -0.3392  0.9678 -0.1903
  719TMC3    C810636   1.502   0.615  13.350 -0.2936 -0.2828 -0.0842
  719TMC3    O110637   1.911   0.757  13.156 -0.1068  0.0152  0.0434
  719TMC3    O210638   1.477   0.518  13.419  0.4644 -0.1624  0.5134
  720MPD2     C10639   4.365   2.487  14.107 -0.1181 -0.4959 -1.0746
  720MPD2    C110640   4.482   2.465  14.036  0.2025  0.2454  0.8898
  720MPD2    C210641   4.600   2.444  14.104  0.7371  0.3997  0.0561
  720MPD2    C310642   4.607   2.432  14.243 -0.0173  0.2381  0.0297
  720MPD2    C410643   4.494   2.456  14.316 -0.1768 -0.1734  0.2110
  720MPD2    C510644   4.377   2.474  14.244 -0.0897  0.3340  0.2808
  720MPD2     H10645   4.682   2.454  14.034 -0.7469 -1.2941 -1.9239
  720MPD2    H110646   4.499   2.437  14.423  3.5240  2.2203  0.4980
  720MPD2    H210647   4.280   2.519  14.048 -1.2751 -1.1564  0.2249
  720MPD2    H310648   4.287   2.492  14.300  1.0303 -1.0689  2.5387
  720MPD2     N10649   0.006   2.413  14.306  0.7868 -0.3223 -0.1996
  720MPD2    H510650   0.085   2.406  14.242  1.4897 -0.0790  0.6477
  720MPD2    N110651   4.468   2.473  13.895  0.0185 -0.1524  0.0975
  720MPD2    H710652   4.377   2.501  13.859  0.4620  0.3488 -0.6237
  721TMC3    C110653   0.177   2.442  14.453  0.3323  0.1256 -0.6770
  721TMC3    C210654   0.235   2.389  14.564 -0.3153  0.4027  0.1838
  721TMC3    C310655   0.376   2.383  14.568  0.2234 -0.0987 -0.3326
  721TMC3    C410656   0.248   2.517  14.361  0.1585 -0.2912 -0.3690
  721TMC3    C510657   0.384   2.492  14.357 -0.4629 -0.1142 -0.0237
  721TMC3    C610658   0.445   2.429  14.459  0.5384 -0.9514 -0.3679
  721TMC3     C10659   0.039   2.425  14.434  0.2501 -0.5543  0.7606
  721TMC3     O10660   4.705   2.423  14.539 -0.5385  1.1233 -0.1764
  721TMC3     H10661   0.172   2.351  14.643  0.1097 -1.6389 -0.4688
  721TMC3    H110662   0.199   2.567  14.278  1.3337  1.0208 -0.2760
  721TMC3    H210663   0.553   2.424  14.468  0.6703 -0.4440 -1.6987
  721TMC3    C710664   0.466   2.530  14.246 -0.3332 -0.7577 -0.2611
  721TMC3    C810665   0.448   2.332  14.685  0.1704 -0.4705  0.1832
  721TMC3    O110666   0.588   2.503  14.253  0.3600  0.0908  0.0682
  721TMC3    O210667   0.564   2.298  14.676 -0.4700 -0.0461  0.3905
  722MPD2     C10668   4.082   0.811  13.025  0.1447 -0.7238 -0.7388
  722MPD2    C110669   3.998   0.919  13.008  0.3240 -0.3355 -0.4979
  722MPD2    C210670   3.888   0.917  12.931 -0.0950  0.1523  0.0144
  722MPD2    C310671   3.858   0.801  12.866  0.0391 -0.0136  0.7778
  722MPD2    C410672   3.941   0.694  12.859  0.3154 -0.4825 -0.2201
  722MPD2    C510673   4.049   0.703  12.946 -1.1689  0.0824 -0.4153
  722MPD2     H10674   3.824   1.002  12.910  1.2041  1.2566  0.4366
  722MPD2    H110675   3.937   0.601  12.804 -2.3569 -0.9262  0.7198
  722MPD2    H210676   4.177   0.812  13.077  0.8682  0.2004 -2.0802
  722MPD2    H310677   4.108   0.615  12.968  1.0127  2.7872  4.5978
  722MPD2     N10678   3.737   0.805  12.796  0.4345  0.7199 -0.9578
  722MPD2    H510679   3.681   0.890  12.797 -0.7405 -0.0610 -0.2856
  722MPD2    N110680   4.029   1.042  13.075  1.0612  0.5926 -0.0846
  722MPD2    H710681   3.992   1.128  13.035 -0.5928  0.5699  1.4159
  723TMC3    C110682   3.541   0.750  12.694 -1.1545 -0.0035  0.4147
  723TMC3    C210683   3.433   0.693  12.756 -0.0368  0.0407 -0.0897
  723TMC3    C310684   3.320   0.759  12.753  0.3895 -0.5213 -0.6123
  723TMC3    C410685   3.546   0.871  12.635  0.3237  0.4500  0.2329
  723TMC3    C510686   3.421   0.936  12.637  0.3347  0.3352  0.3636
  723TMC3    C610687   3.311   0.888  12.700  0.4553  0.9607  1.3117
  723TMC3     C10688   3.669   0.697  12.737  0.1756  0.0527  0.7815
  723TMC3     O10689   3.688   0.573  12.750 -0.7182  0.0015 -0.0059
  723TMC3     H10690   3.441   0.590  12.790 -1.6200  0.8246  2.6351
  723TMC3    H110691   3.636   0.917  12.596 -0.3279  0.9344 -0.6803
  723TMC3    H210692   3.213   0.931  12.683  0.2472  0.4262  1.1518
  723TMC3    C710693   3.413   1.071  12.605 -0.0712  0.2729  0.9034
  723TMC3    C810694   3.195   0.705  12.825 -0.6347  0.2894  0.2779
  723TMC3    O110695   3.495   1.110  12.525 -0.0392  0.3767  0.1517
  723TMC3    O210696   3.092   0.766  12.807  0.3458 -0.1785 -0.3130
  724TMC3    C110697   4.147   4.018  11.055  0.7978 -0.0228 -0.1123
  724TMC3    C210698   4.107   4.110  10.965  0.2338 -0.3863 -0.5635
  724TMC3    C310699   4.072   4.070  10.843  0.1460 -0.3033 -0.4652
  724TMC3    C410700   4.172   3.886  11.015 -0.1787 -0.4373 -0.3535
  724TMC3    C510701   4.160   3.863  10.879  0.0509  0.3400  0.1747
  724TMC3    C610702   4.106   3.955  10.791 -0.2402 -0.1380  0.0417
  724TMC3     C10703   4.173   4.051  11.195  0.0793  0.2984  0.1826
  724TMC3     O10704   4.219   3.963  11.266  0.0846  0.0597 -0.0740
  724TMC3     H10705   4.070   4.199  11.015 -1.2084 -1.3058 -0.0079
  724TMC3    H110706   4.193   3.813  11.092 -1.7593  0.5284  0.9743
  724TMC3    H210707   4.064   3.933  10.693 -0.0691  1.6190 -0.4320
  724TMC3    C710708   4.155   3.722  10.835  0.5194 -0.0874  0.2396
  724TMC3    C810709   3.994   4.159  10.765  0.3192 -0.3096  0.8575
  724TMC3    O110710   4.091   3.700  10.734  0.7252  0.4083 -0.3140
  724TMC3    O210711   3.929   4.105  10.678  0.0652 -0.3185 -0.2661
  725TMC3    C110712   0.208   2.879  12.736 -0.0634 -0.8207 -0.3318
  725TMC3    C210713   0.238   2.871  12.605  0.6284 -0.0463 -0.5356
  725TMC3    C310714   0.241   2.750  12.545  0.1516 -0.0266 -0.1190
  725TMC3    C410715   0.170   2.768  12.809 -0.2811 -0.8955 -0.4884
  725TMC3    C510716   0.180   2.651  12.748 -0.1186  0.2088 -0.1255
  725TMC3    C610717   0.216   2.638  12.616 -0.0139  0.1491 -0.4597
  725TMC3     C10718   0.308   2.967  12.801 -0.2139  0.1686 -0.2683
  725TMC3     O10719   0.350   3.066  12.741 -0.6125  0.4173  0.3907
  725TMC3     H10720   0.271   2.955  12.545 -2.2785  0.9604 -0.7372
  725TMC3    H110721   0.134   2.774  12.911 -0.0524 -0.7638 -0.4165
  725TMC3    H210722   0.244   2.540  12.580  2.7678  0.6733  0.3296
  725TMC3    C710723   0.270   2.569  12.828 -0.0489  0.4663  0.8261
  725TMC3    C810724   0.308   2.734  12.422  0.1241  0.9247 -0.3277
  725TMC3    O110725   0.358   2.508  12.768 -0.3693  0.1966 -0.0773
  725TMC3    O210726   0.278   2.627  12.366 -0.0673 -0.2546  0.2214
  726MPD2     C10727   3.494   0.004  11.267 -0.2360  0.3226 -0.3221
  726MPD2    C110728   3.411   4.703  11.161 -0.1906  0.4832  0.8227
  726MPD2    C210729   3.391   4.573  11.125  0.1581 -0.6490  0.6281
  726MPD2    C310730   3.456   4.471  11.198 -0.4868  0.6426  0.4678
  726MPD2    C410731   3.532   4.496  11.305  0.1399 -0.5223  0.3286
  726MPD2    C510732   3.546   4.626  11.336  0.0317  0.3733 -0.3110
  726MPD2     H10733   3.330   4.552  11.038  2.0793 -1.1338 -0.5895
  726MPD2    H110734   3.577   4.416  11.364 -0.9896 -2.5655 -1.5765
  726MPD2    H210735   3.512   0.099  11.316  0.9762  0.4089 -0.9462
  726MPD2    H310736   3.602   4.647  11.427 -1.1431  0.9794  0.2818
  726MPD2     N10737   3.443   4.332  11.171  0.8395  0.3395  0.0121
  726MPD2    H510738   3.497   4.275  11.235 -0.3312  0.2546  0.9306
  726MPD2    N110739   3.340   0.082  11.085  0.2476  0.2499 -0.2138
  726MPD2    H710740   3.263   0.057  11.023  0.8765 -1.1272 -0.4371
  727TMC3    C110741   3.294   0.302  11.012 -0.5021  0.3140  0.4641
  727TMC3    C210742   3.344   0.424  11.008  0.8605 -0.0063  0.0817
  727TMC3    C310743   3.312   0.497  10.901  0.1367 -0.0178  0.0133
  727TMC3    C410744   3.204   0.258  10.921  0.4170  0.2758  0.1565
  727TMC3    C510745   3.167   0.340  10.816  1.3269 -0.5255 -0.6420
  727TMC3    C610746   3.224   0.459  10.804 -0.2904 -0.3778  0.1097
  727TMC3     C10747   3.357   0.214  11.110  0.5203  0.8844  0.3360
  727TMC3     O10748   3.435   0.271  11.186 -0.3306 -0.1648  0.1954
  727TMC3     H10749   3.438   0.443  11.059  0.6018 -0.2290  0.6429
  727TMC3    H110750   3.154   0.162  10.922 -0.0836  0.5288 -1.6333
  727TMC3    H210751   3.204   0.524  10.719 -0.2057  0.4192  0.6918
  727TMC3    C710752   3.061   0.301  10.725  0.3938  0.1789  0.4423
  727TMC3    C810753   3.422   0.577  10.853  0.3653  0.1784 -0.8941
  727TMC3    O110754   3.048   0.180  10.710  0.1119  0.4705 -0.4806
  727TMC3    O210755   3.538   0.545  10.890  0.1540 -0.0932 -0.5783
  728TMC3    C110756   2.515   2.668  15.672  0.9958  0.0047 -0.4793
  728TMC3    C210757   2.577   2.789  15.706 -0.1356 -0.3197  0.0864
  728TMC3    C310758   2.620   2.866  15.607 -0.0883  0.2876  0.5015
  728TMC3    C410759   2.488   2.637  15.541 -0.7166  0.6489 -0.0441
  728TMC3    C510760   2.547   2.715  15.444  0.2834 -0.6583 -0.9201
  728TMC3    C610761   2.613   2.827  15.474  0.4582 -0.0274 -0.3156
  728TMC3     C10762   2.437   2.609  15.776  0.5611  0.1079 -0.8477
  728TMC3     O10763   2.470   2.639  15.891  0.1588 -0.4834 -0.1297
  728TMC3     H10764   2.574   2.813  15.812 -0.0441  2.2984 -0.4949
  728TMC3    H110765   2.431   2.552  15.506 -0.0671  1.3282 -2.7926
  728TMC3    H210766   2.665   2.897  15.410  0.3762  0.6005  0.2961
  728TMC3    C710767   2.528   2.682  15.309 -0.3159 -0.1724 -0.4529
  728TMC3    C810768   2.675   2.998  15.651 -0.1325  0.5428 -0.2786
  728TMC3    O110769   2.425   2.629  15.277  0.3674  0.1304 -0.2825
  728TMC3    O210770   2.618   3.050  15.747  0.8302 -0.0359 -0.3926
  729MPD2     C10771   0.260   3.379  17.253 -0.6585  0.4853  0.7094
  729MPD2    C110772   0.317   3.498  17.290  0.4938  0.3032 -0.3494
  729MPD2    C210773   0.309   3.534  17.421 -0.0193  0.6453 -0.0426
  729MPD2    C310774   0.231   3.462  17.517 -0.0813 -0.7531  0.4909
  729MPD2    C410775   0.188   3.336  17.481  0.5929  0.0800  0.0072
  729MPD2    C510776   0.201   3.299  17.347 -0.2176 -0.7005 -0.3708
  729MPD2     H10777   0.351   3.631  17.446  1.7830 -0.3460  0.8052
  729MPD2    H110778   0.131   3.280  17.554  0.8317 -2.5726 -1.8562
  729MPD2    H210779   0.253   3.354  17.148  0.0190  1.3823  0.4540
  729MPD2    H310780   0.150   3.207  17.321  2.3619 -2.7018  1.7132
  729MPD2     N10781   0.209   3.520  17.641 -0.3546  0.1284  0.3268
  729MPD2    H510782   0.242   3.615  17.655 -0.2781 -0.0087  1.0904
  729MPD2    N110783   0.385   3.571  17.188 -0.4166 -0.2232  0.0391
  729MPD2    H710784   0.373   3.530  17.096 -2.0874 -1.6336  0.9007
  730TMC3    C110785   0.095   3.569   0.139  0.3349 -0.0562 -0.2755
  730TMC3    C210786   0.140   3.570   0.269 -0.3650  0.4584  0.1167
  730TMC3    C310787   0.136   3.690   0.335 -0.3816  0.0647  0.0892
  730TMC3    C410788   0.051   3.687   0.075  0.4225  0.1168 -1.0616
  730TMC3    C510789   0.047   3.804   0.149  0.8421  0.1140 -0.1272
  730TMC3    C610790   0.100   3.805   0.279 -0.1246 -0.3125 -0.0775
  730TMC3     C10791   0.140   3.461   0.048 -0.0284  0.9967 -1.1033
  730TMC3     O10792   0.107   3.345   0.076  0.5288  0.3893 -0.3729
  730TMC3     H10793   0.170   3.486   0.330 -1.9391 -0.5260 -0.4533
  730TMC3    H110794   0.020   3.694  17.670 -0.6793  0.6593 -0.6911
  730TMC3    H210795   0.109   3.897   0.336  1.0954 -0.6228  0.2291
  730TMC3    C710796   0.053   3.929   0.078  0.3101  0.8366  0.1073
  730TMC3    C810797   0.239   3.704   0.437 -0.7795 -0.6814  0.9367
  730TMC3    O110798   0.084   3.917  17.660  0.1659 -0.4460  0.9568
  730TMC3    O210799   0.210   3.732   0.552  0.0853 -0.0847 -0.1660
  731MPD2     C10800   0.744   1.500  12.198 -0.0292  0.1603  0.5509
  731MPD2    C110801   0.741   1.629  12.246  1.1015 -0.3983  0.0906
  731MPD2    C210802   0.639   1.664  12.335  1.1027  0.3196  0.7912
  731MPD2    C310803   0.554   1.567  12.378 -0.1431 -0.9328  0.0243
  731MPD2    C410804   0.580   1.429  12.349  0.1925  0.1591 -0.3182
  731MPD2    C510805   0.673   1.399  12.253 -0.4229 -0.6629 -0.8460
  731MPD2     H10806   0.634   1.768  12.366  0.9275 -0.0100  1.8370
  731MPD2    H110807   0.526   1.348  12.396  1.4570 -0.8370 -0.5914
  731MPD2    H210808   0.817   1.479  12.121 -1.7169  0.1286 -1.0504
  731MPD2    H310809   0.682   1.294  12.231  0.1818 -0.5011 -1.3413
  731MPD2     N10810   0.439   1.605  12.460  0.0570 -0.0188 -0.3550
  731MPD2    H510811   0.425   1.706  12.460  2.1952  0.2700  1.5314
  731MPD2    N110812   0.823   1.720  12.175  0.3434  1.0437  0.0932
  731MPD2    H710813   0.872   1.684  12.094  0.6204  2.9413 -0.5877
  732TMC3    C110814   0.896   1.932  12.107 -0.2420  0.0140  0.0808
  732TMC3    C210815   0.880   1.901  11.973 -0.0566 -0.3458  0.2724
  732TMC3    C310816   0.886   2.011  11.888  0.9397 -0.1552  0.0625
  732TMC3    C410817   0.919   2.061  12.149 -0.0413  0.6694 -0.2385
  732TMC3    C510818   0.917   2.164  12.068  0.2403 -0.6390  0.3666
  732TMC3    C610819   0.904   2.136  11.938  1.1260 -0.2388 -0.7519
  732TMC3     C10820   0.845   1.844  12.216  0.2558  0.3941  0.3460
  732TMC3     O10821   0.822   1.887  12.328  0.6588 -0.1626 -0.7668
  732TMC3     H10822   0.867   1.798  11.939 -0.4229 -0.6397  1.2932
  732TMC3    H110823   0.912   2.067  12.257  1.8470  0.4204 -0.1070
  732TMC3    H210824   0.911   2.208  11.857 -1.0443  1.4988  0.6162
  732TMC3    C710825   0.899   2.303  12.114 -0.3785  0.2338 -0.1104
  732TMC3    C810826   0.801   2.006  11.773  0.5305  0.3720 -0.5476
  732TMC3    O110827   0.868   2.381  12.025 -0.1454 -0.3188 -0.4022
  732TMC3    O210828   0.819   1.914  11.692 -0.4838 -0.0356  0.2483
  733TMC3    C110829   1.071   4.605  13.254  0.0690 -0.1169 -0.2813
  733TMC3    C210830   1.183   4.571  13.326 -0.1271 -0.3565 -0.6332
  733TMC3    C310831   1.297   4.627  13.274 -0.1432 -0.7280  0.1487
  733TMC3    C410832   1.068   4.679  13.138  0.2959 -0.1758 -0.2653
  733TMC3    C510833   1.186   0.014  13.107 -1.2100  0.3632  0.0059
  733TMC3    C610834   1.301   4.718  13.175  0.2888 -0.1873  0.2930
  733TMC3     C10835   0.936   4.555  13.300 -0.0612  0.4119 -0.4742
  733TMC3     O10836   0.855   4.570  13.208  0.5194 -0.1917  0.2385
  733TMC3     H10837   1.184   4.505  13.412 -1.8006  1.2061  0.5698
  733TMC3    H110838   0.982   4.718  13.085 -0.4316  0.4925  1.4399
  733TMC3    H210839   1.394   0.030  13.132  0.1448  1.0077  0.9830
  733TMC3    C710840   1.181   0.143  13.038  0.2425 -0.6629 -0.1306
  733TMC3    C810841   1.408   4.616  13.360 -0.0695  0.1942  0.8099
  733TMC3    O110842   1.126   0.151  12.927 -0.7374  0.2151  0.1276
  733TMC3    O210843   1.440   4.506  13.402 -0.0644 -0.0229 -0.6355
  734MPD2     C10844   3.130   3.030  12.662 -0.8785 -0.2133  0.1342
  734MPD2    C110845   3.114   2.949  12.551 -0.8375  0.4826 -0.3940
  734MPD2    C210846   3.191   2.976  12.440 -0.5143  0.1400 -0.3571
  734MPD2    C310847   3.284   3.072  12.431  0.5941 -0.0074  0.1868
  734MPD2    C410848   3.305   3.143  12.544 -0.6665  0.0116 -0.1618
  734MPD2    C510849   3.233   3.115  12.656 -0.4858  0.9190 -0.4852
  734MPD2     H10850   3.190   2.901  12.361 -3.1330  0.0701 -0.2813
  734MPD2    H110851   3.380   3.220  12.554 -0.2364 -0.2054 -1.7420
  734MPD2    H210852   3.079   3.014  12.756 -2.1738  1.6883 -0.2384
  734MPD2    H310853   3.246   3.167  12.750 -2.3936 -0.2221  0.4003
  734MPD2     N10854   3.338   3.077  12.303 -0.0370  0.0041 -0.1004
  734MPD2    H510855   3.297   3.015  12.233 -0.2584 -0.3224  0.3149
  734MPD2    N110856   3.024   2.841  12.549 -0.4435 -0.0547 -0.5048
  734MPD2    H710857   2.979   2.811  12.635  0.8399 -1.5417 -0.3533
  735TMC3    C110858   2.921   2.647  12.453 -0.9684 -0.5447 -0.3297
  735TMC3    C210859   2.835   2.593  12.355 -0.4366 -0.4096 -0.1262
  735TMC3    C310860   2.849   2.466  12.310  0.5737 -0.6425  0.1597
  735TMC3    C410861   3.015   2.571  12.512  0.1597  0.7213  0.4070
  735TMC3    C510862   3.036   2.449  12.464  0.5594  0.0260 -0.1603
  735TMC3    C610863   2.951   2.396  12.362  0.5037  0.3536  0.5472
  735TMC3     C10864   2.961   2.789  12.434  0.6502  0.2532 -0.2138
  735TMC3     O10865   2.971   2.819  12.315 -0.0385 -0.3956 -0.7245
  735TMC3     H10866   2.777   2.663  12.297  0.4049 -0.5318 -1.1199
  735TMC3    H110867   3.080   2.616  12.585 -0.0052 -0.5058  1.3155
  735TMC3    H210868   2.967   2.296  12.323  2.2260  1.3824 -1.4001
  735TMC3    C710869   3.172   2.436  12.416 -0.2197  0.0026 -0.3064
  735TMC3    C810870   2.870   2.478  12.164 -0.5678  0.0257  0.7092
  735TMC3    O110871   3.228   2.534  12.367  0.0804 -0.4036  0.4621
  735TMC3    O210872   2.774   2.500  12.091  0.1263  0.4173  0.5263
  736MPD2     C10873   3.319   2.097  12.361  0.1279  0.0808 -0.4313
  736MPD2    C110874   3.319   2.234  12.352 -0.1759  0.2873 -0.0605
  736MPD2    C210875   3.430   2.296  12.303 -0.2853 -0.3683  0.1727
  736MPD2    C310876   3.545   2.227  12.281  1.0640 -0.5552  0.0397
  736MPD2    C410877   3.541   2.087  12.289  0.3394  0.1793 -0.0311
  736MPD2    C510878   3.427   2.028  12.333  0.2128  0.4554  0.7005
  736MPD2     H10879   3.427   2.404  12.291 -3.2486 -0.3498  1.0291
  736MPD2    H110880   3.626   2.028  12.256  0.6061 -0.9733  2.6963
  736MPD2    H210881   3.233   2.042  12.396 -0.8936  0.7184 -1.9376
  736MPD2    H310882   3.423   1.921  12.352 -1.4928  0.4576  0.3173
  736MPD2     N10883   3.655   2.288  12.218  0.2559  0.5500 -0.6584
  736MPD2    H510884   3.733   2.227  12.193 -0.6049 -0.4838 -0.7897
  736MPD2    N110885   3.202   2.300  12.404  0.0929  0.2780 -0.5804
  736MPD2    H710886   3.133   2.234  12.439  0.3417  0.4502  0.2397
  737TMC3    C110887   3.774   2.451  12.110 -0.4821 -0.1670 -0.4932
  737TMC3    C210888   3.749   2.547  12.018  0.2308 -0.4106 -0.6124
  737TMC3    C310889   3.833   2.570  11.914 -0.5712 -0.6942  0.6630
  737TMC3    C410890   3.881   2.360  12.084 -0.1694 -0.3331 -0.2375
  737TMC3    C510891   3.973   2.394  11.988  0.0528 -0.6663  0.4768
  737TMC3    C610892   3.951   2.501  11.904 -0.5250 -0.1146 -0.0564
  737TMC3     C10893   3.665   2.421  12.193 -0.0283  0.1286  0.0816
  737TMC3     O10894   3.593   2.516  12.224  0.1115  0.0720 -0.7261
  737TMC3     H10895   3.657   2.603  12.018 -0.8476 -2.1699  1.4020
  737TMC3    H110896   3.911   2.282  12.153 -0.2520 -1.0082 -0.9687
  737TMC3    H210897   4.021   2.526  11.825 -0.1155 -0.8439  0.0665
  737TMC3    C710898   4.087   2.298  11.977 -0.1014  0.9695  1.0005
  737TMC3    C810899   3.822   2.694  11.841  0.1105 -0.0731  0.6964
  737TMC3    O110900   4.111   2.209  12.059 -0.6147  0.4183 -0.1778
  737TMC3    O210901   3.767   2.790  11.892 -0.1762 -0.1437  0.5576
  738MPD2     C10902   4.466   0.965  15.338  0.5716 -0.1014 -0.1468
  738MPD2    C110903   4.366   1.016  15.264 -0.3567  0.5734 -0.4524
  738MPD2    C210904   4.403   1.109  15.162 -0.5192  0.9114 -0.5773
  738MPD2    C310905   4.534   1.154  15.153  0.1673 -0.4425  0.0909
  738MPD2    C410906   4.630   1.103  15.237  0.2893  0.4455 -0.5447
  738MPD2    C510907   4.597   1.012  15.340  0.3002  0.9093 -0.0801
  738MPD2     H10908   4.321   1.134  15.094 -3.3137 -0.9319  2.1172
  738MPD2    H110909   0.011   1.131  15.240  0.5697 -0.5078 -1.5132
  738MPD2    H210910   4.453   0.889  15.415 -1.4537  0.3751 -0.0234
  738MPD2    H310911   4.664   0.958  15.405  1.0844  2.5013  0.4254
  738MPD2     N10912   4.579   1.238  15.052 -0.4144 -0.3817 -0.4778
  738MPD2    H510913   4.679   1.247  15.061 -0.6223  0.8636  0.7357
  738MPD2    N110914   4.241   0.954  15.271  0.5389  0.2571  0.2421
  738MPD2    H710915   4.180   0.992  15.198 -0.2352 -1.1326  0.1642
  739TMC3    C110916   4.579   1.429  14.929 -0.9282  0.3243 -0.1191
  739TMC3    C210917   4.519   1.502  14.833 -0.2297 -0.0707  0.0575
  739TMC3    C310918   4.567   1.629  14.810  0.3955  0.6793 -0.6615
  739TMC3    C410919   4.683   1.481  15.006  0.1062 -0.0500  0.0368
  739TMC3    C510920   0.003   1.607  14.971 -0.4582  0.2766  0.3355
  739TMC3    C610921   4.677   1.684  14.867 -1.4035  0.1924 -0.0092
  739TMC3     C10922   4.499   1.331  14.988  0.1778 -0.0928 -0.0569
  739TMC3     O10923   4.376   1.336  14.964  0.2524  0.1107  0.3049
  739TMC3     H10924   4.438   1.458  14.777 -0.2034  1.4686 -1.1897
  739TMC3    H110925   0.004   1.418  15.082  2.2914  1.9831  0.4278
  739TMC3    H210926   4.713   1.780  14.831  0.8233 -1.6576 -2.6775
  739TMC3    C710927   0.105   1.666  15.055 -0.4448  0.2242  0.4337
  739TMC3    C810928   4.495   1.705  14.702  0.4568 -0.0453  0.2696
  739TMC3    O110929   0.110   1.626  15.173  0.0358  0.1084 -0.3993
  739TMC3    O210930   4.411   1.645  14.635  0.3170 -0.3668  0.6495
  740TMC3    C110931   4.398   2.814  14.233  0.2639 -0.3250  0.3859
  740TMC3    C210932   4.424   2.810  14.365 -0.2020 -0.1013 -0.8510
  740TMC3    C310933   4.558   2.776  14.397  0.7087  0.5584 -0.3661
  740TMC3    C410934   4.496   2.806  14.137  0.0943 -0.1631 -1.2014
  740TMC3    C510935   4.627   2.782  14.172  0.4709 -0.3079  0.5140
  740TMC3    C610936   4.648   2.763  14.297  0.0788  0.1969 -0.2451
  740TMC3     C10937   4.263   2.856  14.184  0.1922 -0.0164  0.1949
  740TMC3     O10938   4.262   2.913  14.075  0.0280 -0.1248  0.4470
  740TMC3     H10939   4.349   2.838  14.439 -0.0327  0.8189 -1.0224
  740TMC3    H110940   4.463   2.808  14.034 -0.0167  1.9089 -1.1361
  740TMC3    H210941   0.024   2.729  14.323  0.6315  1.3045 -0.8983
  740TMC3    C710942   0.000   2.746  14.073 -0.4468 -0.4084  0.1235
  740TMC3    C810943   4.599   2.742  14.531 -0.2824 -0.5230 -0.2432
  740TMC3    O110944   0.083   2.659  14.094 -0.1932 -0.2788 -0.5250
  740TMC3    O210945   4.715   2.755  14.559  0.2171  0.1940  0.6480
  741TMC3    C110946   3.993   2.240  14.628  0.3750  0.8308 -0.0750
  741TMC3    C210947   3.904   2.140  14.597  0.3709  0.1844 -0.0069
  741TMC3    C310948   3.933   2.023  14.664  0.7848 -0.2768  0.3339
  741TMC3    C410949   4.091   2.231  14.729 -0.3801 -0.1269  0.3453
  741TMC3    C510950   4.113   2.112  14.793  0.0299  0.0032  0.2583
  741TMC3    C610951   4.038   2.003  14.752 -0.3878 -0.1584  0.4884
  741TMC3     C10952   4.020   2.344  14.525  1.0339 -0.1695 -0.2896
  741TMC3     O10953   4.048   2.457  14.565  0.2961  0.1033 -0.0702
  741TMC3     H10954   3.803   2.148  14.557 -0.3773 -3.9557  1.0005
  741TMC3    H110955   4.161   2.312  14.748  0.5211 -1.0627  1.0117
  741TMC3    H210956   4.073   1.901  14.754 -1.4458 -0.5301 -0.6247
  741TMC3    C710957   4.233   2.095  14.866 -0.2212 -0.1191 -0.3442
  741TMC3    C810958   3.832   1.920  14.654 -0.4164 -0.6043 -0.6444
  741TMC3    O110959   4.311   2.189  14.888  0.3527 -0.4651  0.2485
  741TMC3    O210960   3.768   1.916  14.549  0.1531  0.1329  0.0181
  742TMC3    C110961   4.259   0.234  15.815  0.1002  0.8321  0.8678
  742TMC3    C210962   4.190   0.250  15.696 -0.2262 -0.4396 -0.0417
  742TMC3    C310963   4.242   0.184  15.587  0.0280 -0.1088 -0.2953
  742TMC3    C410964   4.369   0.160  15.830  0.0845  0.3978 -0.9106
  742TMC3    C510965   4.427   0.105  15.719 -0.0261 -0.1444  0.1628
  742TMC3    C610966   4.362   0.117  15.599  0.2965 -0.4461 -0.0338
  742TMC3     C10967   4.214   0.302  15.940  0.2421 -0.7527 -0.5140
  742TMC3     O10968   4.277   0.281  16.043 -0.1279  0.3171  0.1379
  742TMC3     H10969   4.089   0.289  15.696  0.0744  0.3411 -1.0937
  742TMC3    H110970   4.414   0.152  15.928  0.2814  1.3545 -0.9161
  742TMC3    H210971   4.382   0.046  15.519  0.3329 -2.2111  1.5517
  742TMC3    C710972   4.528   0.005  15.734 -0.0858  0.2447 -0.9177
  742TMC3    C810973   4.169   0.170  15.456 -0.2404  0.9196 -0.6783
  742TMC3    O110974   4.590   4.699  15.634 -0.8918  0.4363 -0.5772
  742TMC3    O210975   4.205   0.079  15.384  0.4047 -0.1304  0.8056
  743MPD2     C10976   1.962   1.592   2.244  0.5459  0.7293 -0.2679
  743MPD2    C110977   1.984   1.533   2.120 -0.3196  0.3711 -0.5343
  743MPD2    C210978   2.113   1.539   2.066  0.6084 -0.2416  0.4279
  743MPD2    C310979   2.222   1.592   2.132  0.2006  0.5071  0.7949
  743MPD2    C410980   2.197   1.640   2.259 -1.0700  0.0815  0.4839
  743MPD2    C510981   2.073   1.631   2.320 -0.0142 -0.0243 -0.4798
  743MPD2     H10982   2.118   1.489   1.970  1.7921 -0.5149  0.6413
  743MPD2    H110983   2.275   1.690   2.316 -0.4304 -0.2831 -0.0643
  743MPD2    H210984   1.867   1.616   2.291 -0.1389  1.1227 -1.8312
  743MPD2    H310985   2.072   1.671   2.421 -2.1869 -0.6550 -0.2568
  743MPD2     N10986   2.345   1.596   2.070  0.6068  0.3682 -0.1915
  743MPD2    H510987   2.361   1.577   1.971  2.5727 -0.5089  0.3064
  743MPD2    N110988   1.876   1.493   2.045  0.1378  0.0358  0.4434
  743MPD2    H710989   1.787   1.527   2.079 -0.2724  0.8539 -1.4108
  744TMC3    C110990   1.757   1.420   1.863 -0.2305  0.1922 -0.4817
  744TMC3    C210991   1.673   1.525   1.884 -0.0294 -0.1242 -0.5691
  744TMC3    C310992   1.541   1.507   1.847  0.2997  0.5637  0.3399
  744TMC3    C410993   1.721   1.297   1.811  0.6260  0.6579 -0.4058
  744TMC3    C510994   1.594   1.290   1.775 -0.4436 -0.3367  0.2728
  744TMC3    C610995   1.501   1.388   1.788  0.2052 -0.8724  0.4688
  744TMC3     C10996   1.884   1.428   1.923 -0.2111 -0.3746  0.1708
  744TMC3     O10997   1.975   1.384   1.853 -0.1441 -0.2518 -0.0112
  744TMC3     H10998   1.714   1.619   1.921 -0.3885  0.2430 -1.1068
  744TMC3    H110999   1.790   1.214   1.818 -0.0916  0.0488 -0.4801
  744TMC3    H211000   1.397   1.372   1.759  0.2805 -0.0360 -0.2580
  744TMC3    C711001   1.552   1.183   1.689  0.6475 -0.0363 -0.1952
  744TMC3    C811002   1.447   1.621   1.837 -0.5938  0.5762  0.6744
  744TMC3    O111003   1.433   1.149   1.684 -0.4745 -0.0544  0.0729
  744TMC3    O211004   1.371   1.614   1.738 -0.1985 -0.2923  0.2644
  745TMC3    C111005   0.228   4.622  14.346  0.2866  0.0548  0.0135
  745TMC3    C211006   0.197   4.664  14.467 -0.6028 -0.0447 -0.6306
  745TMC3    C311007   0.064   4.645  14.502  0.3380  0.5715  0.2207
  745TMC3    C411008   0.133   4.597  14.248  0.0317  0.1639  1.0136
  745TMC3    C511009   0.008   4.618  14.282  0.0044 -0.2477 -0.6624
  745TMC3    C611010   4.688   4.622  14.414 -0.3774  0.4096 -0.1568
  745TMC3     C11011   0.345   4.694  14.297  0.0489  0.7937  0.1017
  745TMC3     O11012   0.444   4.688  14.368 -0.3106 -0.0700 -0.0605
  745TMC3     H11013   0.280   4.681  14.534  0.3679 -0.7788 -1.6389
  745TMC3    H111014   0.168   4.563  14.152 -0.0081  1.8508  0.4117
  745TMC3    H211015   4.586   4.637  14.444 -0.2882  0.1821  0.2527
  745TMC3    C711016   4.645   4.690  14.193  0.9978  0.1136 -0.0231
  745TMC3    C811017   0.029   4.715  14.619  0.2450  0.2742 -0.0177
  745TMC3    O111018   4.558   0.042  14.239 -0.2432 -0.1915  0.5602
  745TMC3    O211019   4.634   4.703  14.653 -0.0859 -0.1469 -0.0023
  746TMC3    C111020   2.292   1.904  11.060 -0.6779  0.0054 -0.1628
  746TMC3    C211021   2.347   1.911  10.927 -0.1037 -0.2614 -0.5099
  746TMC3    C311022   2.297   1.822  10.837  0.3108 -0.1181 -0.1878
  746TMC3    C411023   2.194   1.814  11.098  0.4478 -0.0347 -0.7646
  746TMC3    C511024   2.176   1.712  11.004 -0.4708 -0.0344  0.5398
  746TMC3    C611025   2.227   1.716  10.882 -0.1347 -0.4740 -0.6300
  746TMC3     C11026   2.302   2.027  11.144 -0.1423  0.6263  0.5026
  746TMC3     O11027   2.204   2.051  11.215  0.2406  0.4344 -0.4900
  746TMC3     H11028   2.416   1.992  10.905  0.4478 -0.1680  1.5238
  746TMC3    H111029   2.127   1.823  11.184  1.8538 -0.1874  0.3482
  746TMC3    H211030   2.206   1.641  10.807  0.3856 -1.3843  0.1337
  746TMC3    C711031   2.075   1.610  11.023  0.2344  0.2399  0.5382
  746TMC3    C811032   2.346   1.817  10.701 -0.4596 -0.5580  0.8154
  746TMC3    O111033   2.004   1.580  10.927 -0.1275  0.8120  0.1012
  746TMC3    O211034   2.424   1.730  10.675 -0.5112 -0.1249 -0.3669
  747TMC3    C111035   4.623   2.281  11.055 -0.5143 -0.5275 -1.0522
  747TMC3    C211036   4.535   2.225  11.141  0.1699  0.1887  0.3299
  747TMC3    C311037   4.525   2.273  11.269 -0.1956 -0.3704  0.5765
  747TMC3    C411038   4.716   2.365  11.104  0.1828 -0.7621  0.2294
  747TMC3    C511039   4.716   2.403  11.233  0.0296 -0.1580  0.6092
  747TMC3    C611040   4.617   2.363  11.317  0.1244 -0.1282  0.2867
  747TMC3     C11041   4.626   2.264  10.909 -0.4244  0.1628  0.0324
  747TMC3     O11042   4.677   2.357  10.843 -0.3698  0.4584  0.1165
  747TMC3     H11043   4.462   2.150  11.115 -1.7062  1.6930  1.2057
  747TMC3    H111044   0.071   2.394  11.036 -0.5334  0.5027 -0.0716
  747TMC3    H211045   4.607   2.395  11.420 -1.8684 -0.7425  0.2805
  747TMC3    C711046   0.125   2.424  11.288 -0.4416 -0.6535  0.1788
  747TMC3    C811047   4.450   2.187  11.357  0.6330 -0.7424  0.7686
  747TMC3    O111048   0.124   2.461  11.405 -0.4712  0.0469  0.0065
  747TMC3    O211049   4.435   2.071  11.320  0.5397 -0.1528 -0.0452
  748MPD2     C11050   0.481   2.774   1.148  0.7222  0.6933 -0.7445
  748MPD2    C111051   0.533   2.732   1.267  0.1375  0.0732 -0.3053
  748MPD2    C211052   0.659   2.782   1.302 -0.0000  0.3959  0.4985
  748MPD2    C311053   0.732   2.848   1.207 -0.4732 -0.1864  0.2089
  748MPD2    C411054   0.679   2.882   1.088  0.3103 -0.5909  0.6164
  748MPD2    C511055   0.551   2.849   1.060  0.5811  0.3865  0.0583
  748MPD2     H11056   0.706   2.769   1.398 -1.2642 -0.7397  0.9607
  748MPD2    H111057   0.747   2.912   1.009  0.3297 -0.4230  0.6966
  748MPD2    H211058   0.383   2.740   1.117  0.4994  0.4955  0.1801
  748MPD2    H311059   0.502   2.861   0.964 -0.3056 -0.2286  0.4271
  748MPD2     N11060   0.869   2.854   1.239 -0.1897  0.2343 -1.0967
  748MPD2    H511061   0.900   2.793   1.314  0.6809  2.2436  0.2046
  748MPD2    N111062   0.456   2.648   1.347 -0.0896  0.3576  0.2846
  748MPD2    H711063   0.357   2.638   1.327 -0.0572  0.6802 -0.0272
  749TMC3    C111064   1.090   2.951   1.241  0.0138  0.0490 -0.1901
  749TMC3    C211065   1.129   2.852   1.329 -0.1275  0.2523 -0.1550
  749TMC3    C311066   1.210   2.896   1.432  0.5393 -0.8538  0.4093
  749TMC3    C411067   1.139   3.077   1.243  0.0013  0.7120  0.4877
  749TMC3    C511068   1.228   3.109   1.346 -0.2642  0.6347 -0.5995
  749TMC3    C611069   1.259   3.020   1.442 -0.5147 -0.0557 -0.0415
  749TMC3     C11070   0.959   2.937   1.170 -0.2907 -0.4402  0.5099
  749TMC3     O11071   0.950   3.012   1.074  0.1018 -0.0337  0.0799
  749TMC3     H11072   1.090   2.751   1.324  0.3067 -0.0177  2.1584
  749TMC3    H111073   1.114   3.146   1.163 -2.9965 -1.7268 -0.6928
  749TMC3    H211074   1.329   3.047   1.520 -0.3090 -0.0744 -0.2206
  749TMC3    C711075   1.286   3.237   1.352 -0.1518 -0.2525  0.1889
  749TMC3    C811076   1.236   2.807   1.548  0.4012 -0.7576 -0.3094
  749TMC3    O111077   1.313   3.291   1.457  0.0179 -0.6499  0.0168
  749TMC3    O211078   1.208   2.844   1.663  0.0983  0.3893  0.7525
  750MPD2     C11079   2.774   3.963  11.563 -0.3964 -0.6623 -0.0035
  750MPD2    C111080   2.641   3.940  11.586  0.0190 -0.0776 -0.1046
  750MPD2    C211081   2.581   3.824  11.545 -0.1949  0.0225 -0.0316
  750MPD2    C311082   2.658   3.723  11.495 -0.3883  0.3710 -0.0607
  750MPD2    C411083   2.794   3.746  11.479 -1.1515 -0.2598 -0.2920
  750MPD2    C511084   2.849   3.861  11.514 -0.4733  0.1792 -0.1823
  750MPD2     H11085   2.477   3.807  11.571  0.7213 -0.1747  3.5141
  750MPD2    H111086   2.854   3.657  11.460 -1.1413 -0.8851  2.6532
  750MPD2    H211087   2.822   4.055  11.592 -0.3245 -0.3150 -1.1983
  750MPD2    H311088   2.956   3.876  11.503 -0.7833  1.4391 -1.3814
  750MPD2     N11089   2.605   3.590  11.466 -1.0711  0.1851  0.8031
  750MPD2    H511090   2.678   3.529  11.432 -0.4630  0.4494  1.6247
  750MPD2    N111091   2.563   4.045  11.643 -0.6341 -0.2121  0.0674
  750MPD2    H711092   2.621   4.112  11.691 -2.1175  2.1963 -1.4844
  751TMC3    C111093   2.466   3.400  11.439 -0.2045 -0.9583  0.6041
  751TMC3    C211094   2.367   3.321  11.496  0.2138  0.3952  0.3398
  751TMC3    C311095   2.377   3.189  11.476 -0.2706 -0.3646 -0.2274
  751TMC3    C411096   2.566   3.348  11.360 -0.4933  0.1757  0.3027
  751TMC3    C511097   2.567   3.215  11.351  0.3767 -0.4444 -0.2298
  751TMC3    C611098   2.471   3.135  11.399 -0.3729 -0.9407 -0.8699
  751TMC3     C11099   2.477   3.537  11.482 -0.7507  0.7101 -0.4453
  751TMC3     O11100   2.387   3.590  11.540 -0.1549  0.7420 -0.3668
  751TMC3     H11101   2.288   3.370  11.552 -0.6669  0.2964 -0.8006
  751TMC3    H111102   2.640   3.411  11.312 -1.3673  0.3122 -0.8444
  751TMC3    H211103   2.462   3.044  11.342  2.0615 -0.3546 -2.1992
  751TMC3    C711104   2.670   3.141  11.272  0.2569 -0.0519 -0.5367
  751TMC3    C811105   2.256   3.105  11.492 -0.1069 -0.6842 -0.7146
  751TMC3    O111106   2.715   3.199  11.178 -0.0957 -0.4114  0.1976
  751TMC3    O211107   2.264   2.993  11.441 -0.3976 -0.5224 -0.2174
  752TMC3    C111108   1.447   3.930  17.597 -0.8264 -0.2890 -0.1579
  752TMC3    C211109   1.501   3.869   0.009 -0.9671  0.0119 -0.3224
  752TMC3    C311110   1.586   3.939   0.091  0.2245  0.6015  0.2429
  752TMC3    C411111   1.475   4.058  17.564  0.1436  0.9447  0.1582
  752TMC3    C511112   1.560   4.127  17.650 -0.8268  0.1555  0.3591
  752TMC3    C611113   1.617   4.067   0.061 -0.2183  0.4232 -0.0136
  752TMC3     C11114   1.436   3.843  17.481  0.2664  0.3170  0.0302
  752TMC3     O11115   1.507   3.742  17.483 -0.1044  0.1345 -0.2887
  752TMC3     H11116   1.468   3.770   0.037 -0.9490  0.4548  1.2684
  752TMC3    H111117   1.432   4.109  17.479 -1.9322  2.1518  1.9175
  752TMC3    H211118   1.668   4.136   0.128  0.0152  4.0228 -3.9236
  752TMC3    C711119   1.617   4.260  17.615  0.1773 -0.8743 -0.0351
  752TMC3    C811120   1.650   3.869   0.204  0.1622 -0.2302 -0.6199
  752TMC3    O111121   1.729   4.283  17.656 -0.0502  0.2358  0.5063
  752TMC3    O211122   1.610   3.761   0.245  0.3325 -0.1932  0.6374
  753TMC3    C111123   2.478   0.171  13.848  0.0875  0.5218 -0.2235
  753TMC3    C211124   2.523   0.169  13.980  0.2892 -0.6878 -0.2858
  753TMC3    C311125   2.543   0.043  14.030 -0.2191  0.1714 -0.3971
  753TMC3    C411126   2.447   0.053  13.774  0.3451 -0.8398 -0.6224
  753TMC3    C511127   2.463   4.658  13.836 -0.6266 -0.5842 -0.3143
  753TMC3    C611128   2.524   4.652  13.961  0.3166 -0.1502  0.2766
  753TMC3     C11129   2.499   0.286  13.765 -0.3052  0.3116 -0.4258
  753TMC3     O11130   2.531   0.263  13.648 -0.0922 -0.1811 -0.5021
  753TMC3     H11131   2.545   0.263  14.029  1.1952 -0.5846 -0.8772
  753TMC3    H111132   2.415   0.059  13.670 -0.2294 -0.8874 -0.4468
  753TMC3    H211133   2.545   4.558  14.011  0.6832  0.9936  2.2578
  753TMC3    C711134   2.481   4.546  13.745  0.4101 -0.2495 -0.3908
  753TMC3    C811135   2.611   0.023  14.160  0.5442  0.2103  0.4599
  753TMC3    O111136   2.493   4.564  13.625 -0.2379  0.2905  0.4401
  753TMC3    O211137   2.595   4.638  14.211  0.2883 -0.8483 -0.3924
  754MPD2     C11138   1.656   3.562  12.751 -0.2397  0.5236 -0.3036
  754MPD2    C111139   1.595   3.447  12.795  0.0307 -0.1807 -0.0274
  754MPD2    C211140   1.461   3.426  12.764 -0.5773 -1.0448  0.6268
  754MPD2    C311141   1.387   3.526  12.695 -0.4344  0.7421 -0.7426
  754MPD2    C411142   1.445   3.641  12.661 -0.0387  0.1561  0.7568
  754MPD2    C511143   1.582   3.660  12.691  0.3940 -0.1106 -0.2513
  754MPD2     H11144   1.420   3.328  12.787 -3.5147  0.5496  2.1152
  754MPD2    H111145   1.393   3.714  12.599  1.2419  0.5246  0.1124
  754MPD2    H211146   1.758   3.584  12.778 -0.9435  3.0510  0.2543
  754MPD2    H311147   1.621   3.758  12.666  1.0900 -0.1334  0.7592
  754MPD2     N11148   1.244   3.515  12.677  0.0238 -0.5095  0.2747
  754MPD2    H511149   1.198   3.603  12.657  0.9239 -0.0809  0.1325
  754MPD2    N111150   1.654   3.356  12.883 -0.3013 -0.3454 -0.3439
  754MPD2    H711151   1.623   3.259  12.890  0.7497 -0.7499 -1.1468
  755MPD2     C11152   1.262   3.763  13.500  0.0962  0.3720  0.7368
  755MPD2    C111153   1.148   3.693  13.497 -0.0359  0.4290  0.2768
  755MPD2    C211154   1.091   3.657  13.382  0.6162  0.3218 -1.4383
  755MPD2    C311155   1.153   3.690  13.262 -0.7131  0.3402 -0.3040
  755MPD2    C411156   1.267   3.771  13.260 -0.0032  0.4557  0.7746
  755MPD2    C511157   1.320   3.807  13.385  1.0515  0.1453  0.1959
  755MPD2     H11158   1.003   3.594  13.375  2.0192 -1.7478 -0.4293
  755MPD2    H111159   1.319   3.806  13.172 -1.8437  2.3575  0.4541
  755MPD2    H211160   1.304   3.794  13.596 -0.3930  1.9248  0.4462
  755MPD2    H311161   1.414   3.861  13.385  0.9143  0.3847 -0.8635
  755MPD2     N11162   1.100   3.646  13.137 -0.0378  0.7260  0.3687
  755MPD2    H511163   1.163   3.659  13.058 -1.5542 -0.0057 -0.9670
  755MPD2    N111164   1.081   3.649  13.616 -0.6169 -0.4795 -0.2986
  755MPD2    H711165   0.986   3.618  13.597 -0.3434 -1.4582 -0.0830
  756MPD2     C11166   2.458   4.493   9.813  0.7942 -0.3697  0.2314
  756MPD2    C111167   2.379   4.388   9.853  0.6672  0.5111 -0.3623
  756MPD2    C211168   2.295   4.332   9.764 -0.4770  0.2441 -0.8364
  756MPD2    C311169   2.298   4.377   9.633 -0.3216  0.0598 -0.3892
  756MPD2    C411170   2.379   4.483   9.595  0.3117 -0.4917 -0.3616
  756MPD2    C511171   2.461   4.540   9.690 -0.4490  0.4899  0.1075
  756MPD2     H11172   2.229   4.248   9.783  0.2624 -0.2697 -0.5486
  756MPD2    H111173   2.398   4.525   9.497  0.1260  0.4746  0.0183
  756MPD2    H211174   2.522   4.548   9.881  0.4695  1.2841 -0.8086
  756MPD2    H311175   2.535   4.617   9.673 -0.6770  0.6226 -0.2797
  756MPD2     N11176   2.211   4.316   9.540  0.3356 -0.5860  0.0129
  756MPD2    H511177   2.153   4.243   9.581  0.2982  0.3662  1.6157
  756MPD2    N111178   2.388   4.330   9.986  0.2755  0.2360 -0.0324
  756MPD2    H711179   2.331   4.248  10.004 -0.2395  0.7692  0.7470
  757MPD2     C11180   1.814   3.576   9.584 -0.3790  0.2678 -0.4065
  757MPD2    C111181   1.918   3.639   9.646  0.6244 -0.1818  0.2071
  757MPD2    C211182   1.938   3.766   9.608 -0.6802 -0.7275 -0.2473
  757MPD2    C311183   1.867   3.824   9.500 -0.5402  0.2390 -0.4436
  757MPD2    C411184   1.773   3.755   9.433 -0.1401  0.5513  0.4671
  757MPD2    C511185   1.741   3.634   9.481 -0.1587  0.8488  0.3102
  757MPD2     H11186   2.017   3.819   9.660 -0.4148 -1.5880  0.2233
  757MPD2    H111187   1.719   3.801   9.352 -0.6440 -3.0413 -1.2447
  757MPD2    H211188   1.791   3.473   9.607  2.1316 -0.4978 -1.3105
  757MPD2    H311189   1.659   3.578   9.438  0.6125 -1.5071  1.8556
  757MPD2     N11190   1.903   3.958   9.463  0.3765  0.1230 -0.6428
  757MPD2    H511191   1.957   4.018   9.524 -1.5399 -0.6674  1.8024
  757MPD2    N111192   1.997   3.573   9.747 -0.0702  0.3460  0.3079
  757MPD2    H711193   1.970   3.476   9.762  1.0447 -0.0689 -0.4091
  758MPD2     C11194   1.319   3.193  16.083  0.3073 -1.1166 -0.1538
  758MPD2    C111195   1.383   3.132  16.181  0.5996 -0.2849  0.1746
  758MPD2    C211196   1.375   3.181  16.310 -0.3497 -0.0050  0.2662
  758MPD2    C311197   1.294   3.293  16.333  0.2585 -0.0407 -0.0326
  758MPD2    C411198   1.225   3.358  16.234 -0.2630  0.1033 -0.2517
  758MPD2    C511199   1.238   3.308  16.105 -0.1052 -0.1155 -0.0526
  758MPD2     H11200   1.405   3.129  16.400  0.6435 -0.0878 -0.1164
  758MPD2    H111201   1.163   3.446  16.246 -0.9764 -0.7041  2.0820
  758MPD2    H211202   1.315   3.147  15.985  1.1967 -2.3633  0.3955
  758MPD2    H311203   1.170   3.352  16.033 -0.3928 -0.6264 -0.0952
  758MPD2     N11204   1.283   3.352  16.457 -0.7587  0.4700  0.2140
  758MPD2    H511205   1.204   3.416  16.461 -2.3580 -1.5179  0.1482
  758MPD2    N111206   1.454   3.017  16.155  0.2000 -0.0638  0.5745
  758MPD2    H711207   1.434   2.970  16.067 -1.7116 -1.2500  1.6485
  759MPD2     C11208   0.887   2.074  10.978  0.1220 -0.0860 -0.4311
  759MPD2    C111209   0.802   2.016  10.889  0.6797 -0.2150  0.4278
  759MPD2    C211210   0.816   2.042  10.759 -0.0665 -0.4438  0.6548
  759MPD2    C311211   0.907   2.137  10.713 -0.4645  0.2937 -0.3733
  759MPD2    C411212   0.982   2.206  10.805 -0.1415  0.5636 -0.2004
  759MPD2    C511213   0.984   2.159  10.936 -0.7247 -0.3008  0.9080
  759MPD2     H11214   0.764   1.989  10.681 -1.5394  2.2138 -0.1699
  759MPD2    H111215   1.054   2.282  10.777 -2.2236  2.0814 -1.3521
  759MPD2    H211216   0.894   2.047  11.083  2.3645  0.2551 -0.5101
  759MPD2    H311217   1.054   2.193  11.012 -1.0524  1.2418  0.5201
  759MPD2     N11218   0.919   2.162  10.568 -0.2919 -0.4328  0.9412
  759MPD2    H511219   0.871   2.100  10.504  1.5827 -0.5063 -0.3622
  759MPD2    N111220   0.714   1.916  10.930 -0.0772 -0.0702 -0.2612
  759MPD2    H711221   0.661   1.870  10.856 -1.2616 -1.0075  1.1587
  760MPD2     C11222   0.350   3.814  11.954 -0.7384  0.0407 -0.1066
  760MPD2    C111223   0.484   3.852  11.950 -0.0987  0.4692 -0.5805
  760MPD2    C211224   0.582   3.760  11.993  0.1005 -0.0149 -0.2546
  760MPD2    C311225   0.555   3.638  12.048 -1.0823  0.3521 -0.0455
  760MPD2    C411226   0.420   3.614  12.056  0.3766  0.3868  0.1441
  760MPD2    C511227   0.318   3.696  12.010  0.3581 -0.8156  0.4823
  760MPD2     H11228   0.682   3.803  11.991  0.4572 -0.8144  0.2186
  760MPD2    H111229   0.390   3.531  12.119  1.3148  0.9195  1.2796
  760MPD2    H211230   0.265   3.879  11.936 -1.4937 -1.1001 -0.6575
  760MPD2    H311231   0.214   3.669  12.021 -0.4707  1.8034 -0.8780
  760MPD2     N11232   0.644   3.535  12.091  0.3165  0.1859  0.1467
  760MPD2    H511233   0.599   3.448  12.119 -2.5881  1.3070 -1.0085
  760MPD2    N111234   0.527   3.966  11.885 -0.5209  0.2268 -0.3548
  760MPD2    H711235   0.628   3.973  11.876 -0.4080 -0.1692  0.6183
  761MPD2     C11236   1.819   2.958  11.716  0.5010  0.3098 -0.2488
  761MPD2    C111237   1.870   2.933  11.594 -0.3209 -0.6256  0.1769
  761MPD2    C211238   1.990   2.996  11.554  0.0866  0.2366 -0.2579
  761MPD2    C311239   2.053   3.084  11.634 -0.3370 -0.9662 -0.3022
  761MPD2    C411240   1.994   3.109  11.758  0.6013 -0.0286 -0.0632
  761MPD2    C511241   1.875   3.054  11.797 -0.0352 -0.2493 -0.0053
  761MPD2     H11242   2.036   2.974  11.458  0.6643  0.5879 -0.0606
  761MPD2    H111243   2.045   3.179  11.822  2.2123 -0.8124 -0.4730
  761MPD2    H211244   1.731   2.904  11.750  0.4498  1.2487  1.0963
  761MPD2    H311245   1.834   3.085  11.893 -2.2226 -0.8311 -0.7668
  761MPD2     N11246   2.172   3.144  11.596 -0.8779 -0.1569  0.0154
  761MPD2    H511247   2.209   3.212  11.662 -1.8067 -0.9834  1.3943
  761MPD2    N111248   1.795   2.839  11.515 -0.0724 -0.1698 -0.0833
  761MPD2    H711249   1.718   2.784  11.551 -1.5467  1.3265 -0.9680
  762MPD2     C11250   1.815   3.022  10.775  0.0500  1.0969 -0.1901
  762MPD2    C111251   1.839   2.895  10.809  0.3728  0.2330 -0.4442
  762MPD2    C211252   1.948   2.834  10.758  0.0230 -0.0166  0.4230
  762MPD2    C311253   2.031   2.895  10.663  0.2890 -0.3964  0.3336
  762MPD2    C411254   2.009   3.027  10.631 -0.6747 -0.1660  0.1422
  762MPD2    C511255   1.896   3.086  10.690 -0.0357  0.7539 -0.5782
  762MPD2     H11256   1.982   2.734  10.782  1.5643  0.5563  0.6158
  762MPD2    H111257   2.070   3.085  10.562 -0.3226  0.3653  0.8963
  762MPD2    H211258   1.736   3.077  10.826 -1.3428  0.4814 -1.6738
  762MPD2    H311259   1.867   3.189  10.670 -1.6720  0.8084  2.0334
  762MPD2     N11260   2.140   2.829  10.607 -0.2865  0.2552  0.5802
  762MPD2    H511261   2.168   2.746  10.658 -1.6352  0.6069  1.8733
  762MPD2    N111262   1.748   2.839  10.898 -0.8328 -0.2866 -0.3353
  762MPD2    H711263   1.678   2.903  10.936  0.7833  0.4675  1.3765
  763MPD2     C11264   3.523   2.807  16.391 -0.0250 -0.0791 -0.4829
  763MPD2    C111265   3.491   2.931  16.338  0.4874  0.3776 -0.7868
  763MPD2    C211266   3.478   3.039  16.429 -0.0395 -0.0189 -0.4793
  763MPD2    C311267   3.509   3.018  16.564 -0.2280  0.6144 -0.3386
  763MPD2    C411268   3.535   2.887  16.608  0.5291 -0.0611 -0.1785
  763MPD2    C511269   3.525   2.782  16.523  0.1310 -0.4392 -0.7740
  763MPD2     H11270   3.458   3.136  16.385 -1.6670  0.1694  0.6664
  763MPD2    H111271   3.573   2.873  16.709 -1.3140 -0.3953  0.4810
  763MPD2    H211272   3.530   2.722  16.323 -1.8324  0.4145 -1.2705
  763MPD2    H311273   3.555   2.682  16.554 -1.3116 -0.6173  0.0277
  763MPD2     N11274   3.530   3.118  16.661 -0.3352 -0.6771 -0.7741
  763MPD2    H511275   3.550   3.087  16.755  1.4893 -1.6165 -1.4722
  763MPD2    N111276   3.471   2.943  16.193 -0.7544 -0.4313  0.4481
  763MPD2    H711277   3.435   3.034  16.165 -2.7334 -1.1628  0.6461
  764MPD2     C11278   1.011   0.254   0.241  0.2164 -0.1635 -0.2293
  764MPD2    C111279   1.073   0.153   0.174 -0.7451 -1.1391  0.2289
  764MPD2    C211280   1.211   0.145   0.170 -0.0023 -0.2976  0.2456
  764MPD2    C311281   1.289   0.237   0.236  0.2696  0.7321  0.0276
  764MPD2    C411282   1.224   0.321   0.317  0.3922 -0.3867  0.3862
  764MPD2    C511283   1.089   0.340   0.310 -0.1522 -0.2639 -0.0078
  764MPD2     H11284   1.267   0.066   0.121 -1.0114 -0.9695  0.1539
  764MPD2    H111285   1.281   0.379   0.388 -0.2042 -0.7925  1.1906
  764MPD2    H211286   0.907   0.275   0.219  0.0110 -1.8547 -0.8655
  764MPD2    H311287   1.044   0.424   0.362  2.4466  0.0966  1.6327
  764MPD2     N11288   1.430   0.219   0.229 -0.9011  0.3785  0.4776
  764MPD2    H511289   1.464   0.136   0.182 -0.8172 -0.8823  2.7763
  764MPD2    N111290   0.998   0.056   0.112 -0.2526 -0.3253 -0.0113
  764MPD2    H711291   1.055   4.719   0.055  1.2315 -0.2799  1.4289
  765MPD2     C11292   0.907   2.306  16.041 -0.5362 -0.0381  0.0135
  765MPD2    C111293   0.979   2.412  16.002  1.0320 -0.0781  0.4456
  765MPD2    C211294   1.094   2.390  15.927 -0.2937 -0.0830  0.1998
  765MPD2    C311295   1.132   2.261  15.888 -0.0641  0.7995  0.6682
  765MPD2    C411296   1.052   2.148  15.926  0.0777 -0.5061 -0.3981
  765MPD2    C511297   0.946   2.174  16.007  0.5388  1.0521  0.6477
  765MPD2     H11298   1.163   2.463  15.886 -1.1009  0.5628 -0.0073
  765MPD2    H111299   1.084   2.045  15.913 -0.8866 -0.8066 -0.3507
  765MPD2    H211300   0.820   2.325  16.103 -0.7684  0.9421 -0.6199
  765MPD2    H311301   0.901   2.085  16.050  1.2400  0.3888  0.0048
  765MPD2     N11302   1.258   2.246  15.823 -0.1094  0.0493 -0.5444
  765MPD2    H511303   1.313   2.325  15.789  0.9786 -0.8370 -0.8330
  765MPD2    N111304   0.935   2.540  16.045 -0.1597 -0.4655 -0.3715
  765MPD2    H711305   0.854   2.547  16.105  0.9491 -0.4130  1.1050
  766MPD2     C11306   0.481   2.546  16.046  0.0201 -0.3682 -0.4719
  766MPD2    C111307   0.522   2.663  15.986  0.0833  0.9958  0.2288
  766MPD2    C211308   0.592   2.654  15.864  0.6989  0.7784 -1.1230
  766MPD2    C311309   0.623   2.529  15.811 -0.1996 -0.1799  0.2287
  766MPD2    C411310   0.582   2.417  15.873  0.5060 -0.2382 -0.5329
  766MPD2    C511311   0.511   2.425  15.988  0.7097 -0.0497  0.1361
  766MPD2     H11312   0.635   2.744  15.821  1.3181  0.2348 -1.6425
  766MPD2    H111313   0.607   2.322  15.828 -1.8165 -1.6692  1.2458
  766MPD2    H211314   0.430   2.543  16.141 -1.7464  1.0496 -1.3799
  766MPD2    H311315   0.493   2.331  16.041 -2.6542  0.8379  0.5773
  766MPD2     N11316   0.704   2.537  15.697  0.1582  0.1055  0.4443
  766MPD2    H511317   0.726   2.631  15.666 -2.4365 -0.8757 -4.4850
  766MPD2    N111318   0.501   2.790  16.048  0.9272  0.7014  0.1352
  766MPD2    H711319   0.434   2.799  16.123 -1.6866 -2.3887 -1.8205
  767MPD2     C11320   0.256   2.708  15.385 -0.3429 -0.1644  0.3816
  767MPD2    C111321   0.350   2.800  15.334  0.3050 -0.8012 -0.3875
  767MPD2    C211322   0.412   2.780  15.210 -0.5832 -0.3804 -0.0039
  767MPD2    C311323   0.345   2.695  15.124  0.2004  0.5403  0.5621
  767MPD2    C411324   0.257   2.603  15.177 -0.0969 -1.3032  0.2780
  767MPD2    C511325   0.214   2.605  15.307  0.0785  0.2210  0.7686
  767MPD2     H11326   0.490   2.843  15.169 -0.8213  0.8861  1.4806
  767MPD2    H111327   0.214   2.523  15.119 -0.9757 -0.2884 -0.4672
  767MPD2    H211328   0.230   2.712  15.490  0.2241 -0.0917  0.5185
  767MPD2    H311329   0.141   2.530  15.337  0.5351 -1.4191 -2.1308
  767MPD2     N11330   0.375   2.706  14.983 -0.0572  0.1871 -0.0725
  767MPD2    H511331   0.447   2.776  14.969  0.2230  0.0188  0.5171
  767MPD2    N111332   0.386   2.909  15.418 -0.2300  0.4875  0.0417
  767MPD2    H711333   0.353   2.903  15.514  0.3877 -0.2087  0.2113
  768MPD2     C11334   1.854   1.176  10.861 -0.7674 -0.8356 -0.2384
  768MPD2    C111335   1.821   1.095  10.970 -0.1831  0.2372  0.2164
  768MPD2    C211336   1.911   1.077  11.067  0.7362  0.1080  0.4891
  768MPD2    C311337   2.041   1.115  11.062 -0.0588  0.0699  0.9384
  768MPD2    C411338   2.078   1.193  10.951 -0.1688  0.1674  0.6344
  768MPD2    C511339   1.986   1.211  10.854  0.4533  0.3026  0.7018
  768MPD2     H11340   1.892   1.016  11.154  1.6926 -1.0599 -0.1212
  768MPD2    H111341   2.180   1.225  10.932  0.5389 -2.6261 -0.3062
  768MPD2    H211342   1.786   1.197  10.779  1.5863  0.8913 -1.7524
  768MPD2    H311343   2.013   1.265  10.763  1.3253  0.3010  0.9538
  768MPD2     N11344   2.137   1.088  11.165  0.3070  0.0137 -0.2551
  768MPD2    H511345   2.232   1.114  11.142 -0.1973  0.6178 -1.6209
  768MPD2    N111346   1.695   1.060  11.005  0.3530 -0.2166 -0.7744
  768MPD2    H711347   1.685   0.997  11.084  1.6990  2.2660  1.3671
  769MPD2     C11348   2.684   3.932  15.078 -0.2413  0.0815  0.0311
  769MPD2    C111349   2.571   3.970  15.147  0.5102  0.2290 -0.4000
  769MPD2    C211350   2.594   4.036  15.266 -0.1531 -0.2284 -0.2676
  769MPD2    C311351   2.724   4.073  15.311  0.2306 -0.0898 -0.7329
  769MPD2    C411352   2.831   4.040  15.230 -0.3340 -0.8094  0.0686
  769MPD2    C511353   2.810   3.963  15.117  0.1643 -0.0534  0.0587
  769MPD2     H11354   2.504   4.065  15.320 -0.9168 -3.5894  0.2627
  769MPD2    H111355   2.936   4.061  15.247 -0.7492  0.8397  0.5880
  769MPD2    H211356   2.686   3.893  14.977  0.1817  2.7791 -1.0127
  769MPD2    H311357   2.898   3.944  15.057 -0.4896 -2.4027 -0.1516
  769MPD2     N11358   2.733   4.140  15.433 -0.0351 -0.0847  0.0526
  769MPD2    H511359   2.647   4.146  15.487 -1.4409 -1.2977 -2.0562
  769MPD2    N111360   2.442   3.951  15.085 -0.3200  0.5112 -0.2115
  769MPD2    H711361   2.426   3.880  15.014  1.1275  0.0613 -0.0993
  770MPD2     C11362   1.595   3.497  15.353 -0.0402 -0.2227  0.5987
  770MPD2    C111363   1.666   3.432  15.253  0.0785  0.1578 -0.2534
  770MPD2    C211364   1.731   3.518  15.162  0.6299  0.1970 -0.6063
  770MPD2    C311365   1.727   3.657  15.182  0.3256 -0.0183 -0.1233
  770MPD2    C411366   1.658   3.715  15.282 -0.4819  0.3393 -0.2839
  770MPD2    C511367   1.583   3.631  15.364  0.5411  0.6246 -0.1348
  770MPD2     H11368   1.780   3.488  15.071  0.6451 -1.2003 -0.1375
  770MPD2    H111369   1.647   3.820  15.305 -0.0193  0.0070  1.4862
  770MPD2    H211370   1.552   3.434  15.431 -0.1719 -1.7029 -0.6624
  770MPD2    H311371   1.529   3.678  15.445 -0.4668  1.0694 -1.0627
  770MPD2     N11372   1.820   3.733  15.110 -0.0300 -0.0345 -0.9571
  770MPD2    H511373   1.871   3.706  15.027 -2.7873  0.9162 -2.9462
  770MPD2    N111374   1.660   3.293  15.251 -0.7038  0.6851 -0.0525
  770MPD2    H711375   1.617   3.248  15.331 -2.1664 -1.6711 -2.1910
  771MPD2     C11376   2.905   1.875  13.824 -0.1569  0.3566 -0.2285
  771MPD2    C111377   2.924   1.990  13.747  0.5185  0.3547  1.0433
  771MPD2    C211378   2.922   1.969  13.610  0.2321 -0.5242  0.0088
  771MPD2    C311379   2.919   1.842  13.555 -0.1812 -0.5268 -0.0832
  771MPD2    C411380   2.930   1.732  13.631  0.1104 -0.1370  0.3661
  771MPD2    C511381   2.916   1.750  13.765 -0.2701  0.3861  0.0566
  771MPD2     H11382   2.908   2.055  13.546 -0.1268 -0.1036  0.6566
  771MPD2    H111383   2.943   1.631  13.593  0.7153  0.1944 -0.3080
  771MPD2    H211384   2.892   1.880  13.932  2.5643 -0.4480  0.1466
  771MPD2    H311385   2.918   1.667  13.834 -1.0232 -0.0886 -0.4998
  771MPD2     N11386   2.906   1.833  13.417  0.5730  0.1073 -0.2587
  771MPD2    H511387   2.852   1.899  13.363 -1.0217 -0.0144  1.1782
  771MPD2    N111388   2.957   2.116  13.801 -0.0127 -0.6494  0.4984
  771MPD2    H711389   2.983   2.187  13.733  0.5180 -0.8928  0.4465
  772MPD2     C11390   2.781   2.641  14.401  0.1889 -0.0438 -0.0336
  772MPD2    C111391   2.743   2.596  14.276  0.4657  0.4358  0.1609
  772MPD2    C211392   2.606   2.600  14.246  0.0954  0.2026 -0.6891
  772MPD2    C311393   2.513   2.623  14.345 -0.6074 -0.1231 -0.2151
  772MPD2    C411394   2.556   2.657  14.472  0.0730  0.0383 -0.6622
  772MPD2    C511395   2.691   2.670  14.501 -0.5575  0.0657 -0.0844
  772MPD2     H11396   2.576   2.577  14.144 -1.1661  0.4690 -0.3768
  772MPD2    H111397   2.487   2.669  14.554 -0.9730  2.4609 -1.9095
  772MPD2    H211398   2.883   2.673  14.420 -0.3905  0.6467  1.9224
  772MPD2    H311399   2.722   2.700  14.601 -0.0488 -0.2339 -0.1529
  772MPD2     N11400   2.371   2.617  14.325  0.1419 -0.8887  0.0178
  772MPD2    H511401   2.308   2.621  14.405  1.1186 -2.0950  0.8509
  772MPD2    N111402   2.838   2.557  14.179 -0.3135 -0.0864 -0.5823
  772MPD2    H711403   2.792   2.511  14.101 -0.6133 -0.1882 -0.3454
  773MPD2     C11404   2.166   3.468   0.664 -0.0960  0.4753  0.2700
  773MPD2    C111405   2.145   3.373   0.571  0.2339 -0.3515  0.4601
  773MPD2    C211406   2.178   3.240   0.594  0.2787 -0.0929 -0.1068
  773MPD2    C311407   2.219   3.195   0.720 -0.4979  0.3856 -0.1695
  773MPD2    C411408   2.234   3.294   0.819 -0.8772 -0.4199 -0.4750
  773MPD2    C511409   2.222   3.429   0.791  0.0890  0.0890 -0.6914
  773MPD2     H11410   2.159   3.154   0.532  0.4811 -0.2453  0.0429
  773MPD2    H111411   2.254   3.274   0.924  0.1579  1.4228 -0.3195
  773MPD2    H211412   2.140   3.571   0.643  1.0969  0.9085  0.8960
  773MPD2    H311413   2.228   3.502   0.872 -0.5375 -0.2894 -0.3089
  773MPD2     N11414   2.265   3.062   0.737 -0.5180 -0.8854 -0.0534
  773MPD2    H511415   2.267   3.007   0.652 -0.2777 -0.4996 -0.2991
  773MPD2    N111416   2.089   3.404   0.449 -0.0989 -0.2165 -0.8853
  773MPD2    H711417   2.026   3.339   0.404 -0.8258  0.1188 -0.3515
  774MPD2     C11418   1.273   2.645  13.181  0.0549 -0.1275 -0.2596
  774MPD2    C111419   1.305   2.732  13.284  0.3786  0.1676 -0.6942
  774MPD2    C211420   1.411   2.822  13.271  0.4703 -0.5206  0.2747
  774MPD2    C311421   1.492   2.821  13.158 -0.2564  0.0329 -0.0294
  774MPD2    C411422   1.458   2.731  13.055 -0.2208 -0.6854  0.0057
  774MPD2    C511423   1.347   2.647  13.065 -0.5925  0.1694  0.3195
  774MPD2     H11424   1.426   2.883  13.360 -1.3053  1.2998 -0.6749
  774MPD2    H111425   1.511   2.738  12.960  0.4441  1.2569  0.5161
  774MPD2    H211426   1.199   2.567  13.195 -0.2965  0.4906  1.2601
  774MPD2    H311427   1.332   2.583  12.979 -0.0825  0.9911 -0.3866
  774MPD2     N11428   1.602   2.906  13.160 -0.5533  0.3305  0.8631
  774MPD2    H511429   1.612   2.958  13.247 -1.0860  0.8905  0.5896
  774MPD2    N111430   1.242   2.734  13.408 -0.2121 -0.4544  0.0723
  774MPD2    H711431   1.278   2.793  13.482  1.4764 -0.8854 -0.4124
  775MPD2     C11432   2.967   4.009  15.809 -0.4119 -0.5281  0.7387
  775MPD2    C111433   2.988   4.109  15.904 -0.1054  0.4476  0.5481
  775MPD2    C211434   3.091   4.204  15.882  0.4143 -0.4615 -0.3500
  775MPD2    C311435   3.167   4.194  15.772  0.5084  0.7950  0.0952
  775MPD2    C411436   3.145   4.098  15.671  1.2060 -1.1406 -0.4132
  775MPD2    C511437   3.048   4.002  15.699 -0.0931  0.4139  0.2542
  775MPD2     H11438   3.106   4.280  15.957  0.6790  0.0295 -0.9019
  775MPD2    H111439   3.211   4.102  15.585 -0.0103 -0.6611 -1.3193
  775MPD2    H211440   2.887   3.936  15.820  0.4629 -1.5940 -0.0681
  775MPD2    H311441   3.035   3.919  15.630  0.0562  0.8877 -0.3431
  775MPD2     N11442   3.264   4.292  15.736 -0.1100  0.2826 -0.0670
  775MPD2    H511443   3.285   4.307  15.638  1.0000 -0.0331  0.1230
  775MPD2    N111444   2.898   4.119  16.013  0.7835  0.2397 -0.1259
  775MPD2    H711445   2.821   4.052  16.023 -0.2368  1.3936 -0.2149
  776MPD2     C11446   2.847   4.557  11.898 -0.3881  0.2415 -0.4820
  776MPD2    C111447   2.731   4.600  11.846  0.3361 -0.4089 -0.5630
  776MPD2    C211448   2.712   0.014  11.836  0.4848 -0.4420  0.6448
  776MPD2    C311449   2.804   0.104  11.885 -0.1282 -0.1013 -0.5367
  776MPD2    C411450   2.921   0.053  11.942 -0.5904 -0.4559 -0.2048
  776MPD2    C511451   2.948   4.640  11.954 -0.5800  0.5150 -0.8381
  776MPD2     H11452   2.619   0.051  11.795  1.9393  1.6720 -0.7227
  776MPD2    H111453   2.992   0.124  11.983 -2.9514  1.0930  1.1926
  776MPD2    H211454   2.858   4.451  11.916 -0.9065 -0.0273 -1.7541
  776MPD2    H311455   3.034   4.596  12.002  0.5224  3.7632  0.1348
  776MPD2     N11456   2.804   0.247  11.897  0.3056 -0.2065 -0.5475
  776MPD2    H511457   2.880   0.279  11.956  0.7745 -1.4037 -0.4972
  776MPD2    N111458   2.635   4.502  11.806  0.5412 -0.2431  0.2214
  776MPD2    H711459   2.662   4.404  11.810  0.8979 -0.1280  0.7547
  777MPD2     C11460   1.481   1.781   0.968 -0.4390  0.4621  0.0814
  777MPD2    C111461   1.593   1.751   1.048 -0.7140 -0.3331  0.1841
  777MPD2    C211462   1.672   1.645   1.012  0.6774  0.3945 -0.0166
  777MPD2    C311463   1.630   1.566   0.902 -0.5183 -0.0938 -0.1350
  777MPD2    C411464   1.507   1.592   0.836  0.6712  0.0996 -0.6519
  777MPD2    C511465   1.438   1.709   0.860 -0.7117 -0.0945 -0.9631
  777MPD2     H11466   1.759   1.612   1.068 -0.1584  2.5842  2.5255
  777MPD2    H111467   1.470   1.526   0.757 -1.4370 -0.1711  0.5440
  777MPD2    H211468   1.419   1.866   0.991  0.9628  1.1026  1.4954
  777MPD2    H311469   1.346   1.729   0.807  0.8973  1.6288 -3.0606
  777MPD2     N11470   1.703   1.456   0.864  0.3856 -0.1364  0.5080
  777MPD2    H511471   1.781   1.438   0.926 -0.2867  0.0531  1.3989
  777MPD2    N111472   1.630   1.833   1.160 -0.0457  0.0454 -0.1367
  777MPD2    H711473   1.560   1.901   1.191  0.4574  0.7099 -0.4487
  778MPD2     C11474   3.345   2.111  15.239 -0.0651  0.6135 -0.2869
  778MPD2    C111475   3.226   2.089  15.180 -0.3036  0.2724 -0.6464
  778MPD2    C211476   3.203   2.160  15.062  0.5187 -0.2439  0.7877
  778MPD2    C311477   3.293   2.249  15.009 -0.2040 -0.0578 -0.0926
  778MPD2    C411478   3.410   2.283  15.073  0.8153  0.1816  0.1268
  778MPD2    C511479   3.433   2.215  15.192  0.2227 -0.1554  0.0413
  778MPD2     H11480   3.123   2.120  15.000  0.1372  1.4435  0.1907
  778MPD2    H111481   3.487   2.342  15.024 -0.8112  0.5661 -1.9651
  778MPD2    H211482   3.376   2.047  15.321 -0.9258  1.4844  0.7210
  778MPD2    H311483   3.523   2.233  15.249  0.9600 -0.5447 -0.9965
  778MPD2     N11484   3.256   2.305  14.882 -0.2905 -0.4916 -0.2424
  778MPD2    H511485   3.181   2.265  14.826  2.3885 -1.7798 -2.9325
  778MPD2    N111486   3.128   1.995  15.220 -0.1670 -0.0889  1.1362
  778MPD2    H711487   3.040   1.991  15.170 -0.5310 -2.1774  1.9319
  779MPD2     C11488   2.974   0.874  14.635  0.1281  0.0227 -1.0851
  779MPD2    C111489   3.092   0.894  14.567 -0.0412 -0.3493 -0.3537
  779MPD2    C211490   3.128   1.024  14.537 -0.7523  0.5756 -0.4762
  779MPD2    C311491   3.062   1.130  14.592 -0.2789  0.2952  0.0102
  779MPD2    C411492   2.944   1.106  14.656  1.1574 -0.1847  0.3919
  779MPD2    C511493   2.899   0.977  14.675  0.1090 -0.5208 -0.6948
  779MPD2     H11494   3.219   1.035  14.480 -0.8733 -0.3894 -0.8658
  779MPD2    H111495   2.882   1.185  14.695 -0.6733 -0.0581 -2.6947
  779MPD2    H211496   2.928   0.776  14.649  2.1632 -1.0365 -1.8527
  779MPD2    H311497   2.805   0.954  14.725 -0.2230 -1.3822 -1.7195
  779MPD2     N11498   3.091   1.255  14.533  0.3385  0.3007  0.4563
  779MPD2    H511499   3.169   1.261  14.468  0.0630 -1.2110 -0.0087
  779MPD2    N111500   3.172   0.788  14.508  0.0368  0.1122  0.5170
  779MPD2    H711501   3.127   0.698  14.523  0.4284 -0.0872  0.4900
  780MPD2     C11502   3.096   0.981   1.304 -0.4316 -0.7232  0.2750
  780MPD2    C111503   2.971   1.035   1.319 -0.1582 -0.4937 -0.1083
  780MPD2    C211504   2.882   1.035   1.211  0.3158  0.0230  0.5442
  780MPD2    C311505   2.919   0.979   1.096  0.1995  0.2724 -0.2910
  780MPD2    C411506   3.037   0.908   1.083 -0.5694  0.1030  0.0444
  780MPD2    C511507   3.122   0.909   1.186  0.1102  0.0099  0.3584
  780MPD2     H11508   2.796   1.100   1.223  0.9420  0.6849  1.3840
  780MPD2    H111509   3.063   0.849   0.996 -0.9524  1.0433 -0.7034
  780MPD2    H211510   3.163   0.975   1.389  0.4233  1.1867 -0.2549
  780MPD2    H311511   3.223   0.871   1.176  0.3282  1.2225 -2.0472
  780MPD2     N11512   2.825   0.977   0.984 -0.1043  0.1053 -0.6461
  780MPD2    H511513   2.744   1.037   0.996  0.4743  0.5533  1.0098
  780MPD2    N111514   2.948   1.090   1.448 -0.0744 -0.2971  0.5706
  780MPD2    H711515   3.028   1.081   1.510  0.5151  1.2260  0.0257
  781MPD2     C11516   0.399   3.227  11.959 -0.0997  0.3391 -0.1981
  781MPD2    C111517   0.351   3.098  11.995 -0.1920  0.3157  0.0110
  781MPD2    C211518   0.410   2.986  11.940  0.8848 -0.6003 -0.7788
  781MPD2    C311519   0.514   2.997  11.851 -0.8336  0.2762  0.3898
  781MPD2    C411520   0.564   3.128  11.810  0.7356  0.5124  0.1646
  781MPD2    C511521   0.492   3.239  11.861 -0.3026  0.0759  0.4887
  781MPD2     H11522   0.398   2.890  11.988  0.3290  0.2067  0.7123
  781MPD2    H111523   0.650   3.145  11.747 -0.3395  2.7955 -0.7033
  781MPD2    H211524   0.344   3.317  11.985 -0.3199  0.2226 -0.2600
  781MPD2    H311525   0.520   3.338  11.824 -0.4010 -0.1569 -0.2070
  781MPD2     N11526   0.602   2.890  11.806  0.2530 -0.3545  0.8532
  781MPD2    H511527   0.683   2.912  11.749  0.7179 -1.0722  1.2414
  781MPD2    N111528   0.249   3.087  12.095  0.0544  0.4341 -0.8270
  781MPD2    H711529   0.216   2.991  12.099  0.1430  0.4236 -0.3144
  782MPD2     C11530   2.966   3.487  10.623 -0.2246 -0.3710 -0.4157
  782MPD2    C111531   3.054   3.433  10.711 -1.3037  0.1669  0.9879
  782MPD2    C211532   3.129   3.518  10.782 -0.3786  0.4322  0.0102
  782MPD2    C311533   3.109   3.654  10.781 -0.0316  0.1432  0.5713
  782MPD2    C411534   3.020   3.703  10.681 -0.0959 -0.2051 -0.5204
  782MPD2    C511535   2.959   3.622  10.598 -0.0950 -0.5101 -0.9747
  782MPD2     H11536   3.210   3.478  10.841 -1.0844 -0.2920  0.4829
  782MPD2    H111537   2.996   3.809  10.676 -0.6973 -0.3059  0.5262
  782MPD2    H211538   2.900   3.428  10.561  0.5295 -1.7056  0.0701
  782MPD2    H311539   2.886   3.663  10.529 -1.2942  0.2243  0.7211
  782MPD2     N11540   3.181   3.734  10.872 -0.0149 -0.2208  0.0170
  782MPD2    H511541   3.228   3.692  10.951  0.8957  0.5007 -0.1375
  782MPD2    N111542   3.089   3.295  10.717  0.2838  0.0148 -0.1873
  782MPD2    H711543   3.163   3.261  10.777 -1.1385 -0.1986  1.4674
  783MPD2     C11544   2.789   2.804  11.316 -0.5834  0.3939  0.1773
  783MPD2    C111545   2.773   2.917  11.247 -0.7225 -0.7751  0.2885
  783MPD2    C211546   2.833   2.939  11.128 -0.6032  0.1432  0.3378
  783MPD2    C311547   2.918   2.845  11.085  0.2742  0.1976  0.7234
  783MPD2    C411548   2.933   2.723  11.147 -0.5158 -0.3465  0.4499
  783MPD2    C511549   2.862   2.704  11.261  0.5428 -0.1409 -0.1050
  783MPD2     H11550   2.816   3.026  11.065 -0.8111  0.4389  0.8019
  783MPD2    H111551   2.999   2.646  11.109 -0.6820  0.3881 -1.3448
  783MPD2    H211552   2.732   2.792  11.407 -1.7394  1.5565 -0.4033
  783MPD2    H311553   2.876   2.607  11.308  2.8579  0.1345 -0.2164
  783MPD2     N11554   2.985   2.875  10.965 -0.2667 -0.1614 -0.4558
  783MPD2    H511555   2.982   2.972  10.937  1.2984  0.7452  2.5184
  783MPD2    N111556   2.691   3.010  11.309 -1.2666 -0.6142 -0.6003
  783MPD2    H711557   2.668   2.978  11.403 -0.2320 -0.4815 -0.3001
  784MPD2     C11558   0.293   4.273   0.757 -0.5656  0.1595 -0.3559
  784MPD2    C111559   0.374   4.380   0.747 -0.1019 -0.1623 -0.2882
  784MPD2    C211560   0.346   4.484   0.836  0.2217 -0.2491 -0.2186
  784MPD2    C311561   0.240   4.479   0.930  0.1806 -0.7128  0.4671
  784MPD2    C411562   0.169   4.367   0.941 -0.7060 -0.2230  0.2169
  784MPD2    C511563   0.195   4.266   0.853  0.0230 -0.0087  0.1173
  784MPD2     H11564   0.401   4.577   0.837  0.1696 -0.2204  0.0193
  784MPD2    H111565   0.083   4.355   1.006 -1.1961 -1.2642 -0.6285
  784MPD2    H211566   0.301   4.185   0.694 -0.1528 -0.6878  0.8780
  784MPD2    H311567   0.131   4.179   0.842 -0.6068  0.3214  1.2251
  784MPD2     N11568   0.215   4.588   1.016  0.2276 -0.5097  0.5439
  784MPD2    H511569   0.272   4.672   1.015  0.5452 -0.7501 -1.6865
  784MPD2    N111570   0.483   4.369   0.652  0.0341  0.2400 -0.2785
  784MPD2    H711571   0.492   4.281   0.603  0.5031 -1.0169  2.0702
  785MPD2     C11572   0.416   3.215  11.082 -0.7904 -0.6705 -0.1572
  785MPD2    C111573   0.486   3.226  10.966 -0.0743 -0.2997 -0.1123
  785MPD2    C211574   0.434   3.155  10.849 -0.2982  0.2568 -0.1093
  785MPD2    C311575   0.321   3.078  10.861  0.2847  0.0042  0.3090
  785MPD2    C411576   0.255   3.064  10.984  0.0076  0.0008  0.6224
  785MPD2    C511577   0.307   3.131  11.087 -0.0777  0.3922  0.1942
  785MPD2     H11578   0.486   3.163  10.754 -0.8613  0.5136 -0.3974
  785MPD2    H111579   0.170   2.997  10.999  0.1430  0.1113  1.9126
  785MPD2    H211580   0.430   3.266  11.176  0.5401 -0.1701 -0.6293
  785MPD2    H311581   0.255   3.119  11.181 -0.5507  0.0738 -0.1079
  785MPD2     N11582   0.274   3.013  10.742  0.4363  0.1601  0.1398
  785MPD2    H511583   0.310   3.047  10.654  0.9185 -2.1456 -0.5467
  785MPD2    N111584   0.592   3.323  10.953  0.6586  0.3856  0.3566
  785MPD2    H711585   0.596   3.395  11.025 -3.7055 -0.2666  1.2545
  786MPD2     C11586   3.792   0.286  15.130  0.1660 -0.4008 -0.3511
  786MPD2    C111587   3.879   0.178  15.139 -0.1320 -0.5143 -0.3225
  786MPD2    C211588   3.964   0.170  15.241 -0.2674 -0.0774  0.0990
  786MPD2    C311589   3.976   0.273  15.330 -0.5487  0.6837 -0.1847
  786MPD2    C411590   3.899   0.381  15.319  0.2545  0.1371  0.5146
  786MPD2    C511591   3.797   0.382  15.227 -0.1944  0.9544  0.4843
  786MPD2     H11592   4.024   0.080  15.237  1.3180  0.9040  1.6844
  786MPD2    H111593   3.901   0.462  15.392 -2.9447 -2.0476  3.0259
  786MPD2    H211594   3.735   0.309  15.041 -1.1697 -1.7886  0.1391
  786MPD2    H311595   3.731   0.468  15.220  0.5267  1.4338 -0.5021
  786MPD2     N11596   4.079   0.276  15.427  0.0632 -0.5636 -0.0450
  786MPD2    H511597   4.078   0.350  15.496 -0.3694 -0.8440  0.2474
  786MPD2    N111598   3.902   0.093  15.033 -0.3411  0.4836  0.0656
  786MPD2    H711599   3.989   0.042  15.039 -0.1482  0.8297  0.2215
  787MPD2     C11600   4.313   4.380  15.091  0.6926  0.1783 -0.3803
  787MPD2    C111601   4.270   4.362  14.964  0.4825 -0.4200 -0.2595
  787MPD2    C211602   4.336   4.268  14.886 -0.6213 -0.6356  0.2930
  787MPD2    C311603   4.430   4.188  14.938  0.2309 -0.3039 -0.3418
  787MPD2    C411604   4.456   4.191  15.075  0.6649 -0.2687 -0.1489
  787MPD2    C511605   4.406   4.297  15.149  0.4209  0.1291 -0.3267
  787MPD2     H11606   4.319   4.272  14.779  2.4860 -1.3310 -0.2312
  787MPD2    H111607   4.533   4.130  15.122  1.0929  0.7960  0.5368
  787MPD2    H211608   4.269   4.457  15.152 -0.1139  0.9437 -1.9187
  787MPD2    H311609   4.446   4.302  15.249 -0.4097 -0.0140  0.0062
  787MPD2     N11610   4.501   4.104  14.845 -0.1042 -0.3315 -0.2248
  787MPD2    H511611   4.465   4.099  14.750  0.5214 -1.0765 -0.4228
  787MPD2    N111612   4.184   4.464  14.904 -0.4539 -0.2499  0.6728
  787MPD2    H711613   4.167   4.543  14.965 -0.1978 -0.1165  0.5710
  788MPD2     C11614   0.832   3.137   0.225 -0.2657  0.2520  0.0861
  788MPD2    C111615   0.753   3.106   0.336 -0.7120  0.2510  0.0191
  788MPD2    C211616   0.653   3.011   0.326 -0.3574  0.0428  0.1146
  788MPD2    C311617   0.648   2.940   0.210 -0.5532  0.2341  0.0979
  788MPD2    C411618   0.730   2.978   0.105 -0.6839 -0.4886 -0.3430
  788MPD2    C511619   0.818   3.078   0.106 -0.3952 -0.2522  0.1369
  788MPD2     H11620   0.592   2.992   0.414  0.2983 -0.6050  0.4243
  788MPD2    H111621   0.725   2.929   0.009  0.6811 -0.2284 -0.5432
  788MPD2    H211622   0.903   3.219   0.226 -0.2699  0.2348  2.5274
  788MPD2    H311623   0.865   3.113   0.015  0.0632 -0.8338  0.1555
  788MPD2     N11624   0.567   2.828   0.189 -0.1031 -0.1309  0.3886
  788MPD2    H511625   0.575   2.783   0.098  0.2556 -0.0383  0.3745
  788MPD2    N111626   0.786   3.165   0.463 -0.7321  0.5950  0.1096
  788MPD2    H711627   0.726   3.140   0.541 -1.3761 -0.9090 -0.8640
  789MPD2     C11628   0.999   2.247  17.033 -0.6663 -0.5373  1.3231
  789MPD2    C111629   0.915   2.154  17.087 -0.1032 -0.2614 -0.8228
  789MPD2    C211630   0.779   2.170  17.074 -0.1445  0.5303 -0.4156
  789MPD2    C311631   0.725   2.276  17.005 -0.3292  0.1937  0.3912
  789MPD2    C411632   0.816   2.372  16.956 -0.5133 -0.3324 -0.3975
  789MPD2    C511633   0.953   2.353  16.973  0.1144 -0.2298 -0.4734
  789MPD2     H11634   0.721   2.088  17.115  1.6130 -0.5768 -0.1072
  789MPD2    H111635   0.780   2.456  16.899  0.7130 -0.7814 -1.8462
  789MPD2    H211636   1.107   2.237  17.040 -0.7241  0.5914  3.9410
  789MPD2    H311637   1.025   2.420  16.927  0.2390 -0.0349  0.0128
  789MPD2     N11638   0.583   2.293  16.986 -0.7050 -0.1436  0.2340
  789MPD2    H511639   0.551   2.374  16.933  2.0870 -0.5741 -2.1522
  789MPD2    N111640   0.958   2.046  17.165  0.4924  0.0087 -0.0436
  789MPD2    H711641   0.897   1.965  17.164  0.5799 -0.0516 -0.4358
  790MPD2     C11642   2.128   0.069  14.129 -0.3645  0.2708 -0.5048
  790MPD2    C111643   2.166   4.666  14.099 -0.5913  0.0779 -0.3063
  790MPD2    C211644   2.159   4.623  13.966  0.3813  0.5569 -0.3244
  790MPD2    C311645   2.123   4.712  13.873  0.2830  0.6906 -0.5578
  790MPD2    C411646   2.083   0.117  13.907  0.2284  0.2550  0.4053
  790MPD2    C511647   2.091   0.159  14.037 -0.0319 -0.1536  1.5588
  790MPD2     H11648   2.183   4.523  13.932 -2.3962  0.1528 -1.0498
  790MPD2    H111649   2.045   0.190  13.837  1.0218  1.7505  1.5309
  790MPD2    H211650   2.134   0.099  14.233 -0.0914 -0.4760 -0.3064
  790MPD2    H311651   2.058   0.258  14.070  1.2708  0.2184  1.7397
  790MPD2     N11652   2.139   4.668  13.741 -0.4187  0.1302 -0.5333
  790MPD2    H511653   2.170   4.574  13.721  0.4183  0.1886  0.4923
  790MPD2    N111654   2.224   4.594  14.211 -0.3193 -0.0432  0.5461
  790MPD2    H711655   2.216   4.630  14.305 -0.0163  0.7288  0.2725
  791MPD2     C11656   1.663   0.163  13.157  0.5734 -0.2649 -0.7013
  791MPD2    C111657   1.714   0.041  13.145  0.4335 -0.3224  1.2411
  791MPD2    C211658   1.676   4.690  13.033  0.1706  0.0421  0.0802
  791MPD2    C311659   1.580   0.008  12.945 -0.5108  0.0209 -0.1457
  791MPD2    C411660   1.541   0.138  12.941 -0.7386  0.4511 -0.1268
  791MPD2    C511661   1.580   0.207  13.051 -0.0535  0.0078 -0.0333
  791MPD2     H11662   1.720   4.591  13.022 -0.2437  0.0353 -1.6005
  791MPD2    H111663   1.465   0.178  12.875 -0.8284  0.7144  0.1360
  791MPD2    H211664   1.689   0.225  13.243  1.8487  0.0878 -1.3455
  791MPD2    H311665   1.542   0.308  13.059  1.1907  0.5165 -0.4826
  791MPD2     N11666   1.543   4.642  12.839 -0.7101  1.0841 -0.1074
  791MPD2    H511667   1.583   4.550  12.826 -5.0649 -1.0324  1.4677
  791MPD2    N111668   1.819   0.009  13.235 -0.2358  0.8702  0.4375
  791MPD2    H711669   1.846   0.080  13.302 -2.1477  1.2534  0.8176
  792MPD2     C11670   2.708   4.351  11.383  0.0790 -0.2601  0.0346
  792MPD2    C111671   2.586   4.414  11.390 -0.4858  0.1524 -0.1703
  792MPD2    C211672   2.469   4.343  11.372  0.5760 -0.0274  1.1864
  792MPD2    C311673   2.471   4.207  11.332  0.2869  0.0829 -0.0627
  792MPD2    C411674   2.594   4.151  11.319  0.1828 -0.6290 -0.3775
  792MPD2    C511675   2.711   4.218  11.338 -0.0960  0.8396 -0.6418
  792MPD2     H11676   2.370   4.382  11.394  0.3051 -0.8455  1.4112
  792MPD2    H111677   2.605   4.045  11.301 -1.9994 -0.5502 -2.0299
  792MPD2    H211678   2.800   4.402  11.405  0.3266  0.4462 -2.6356
  792MPD2    H311679   2.810   4.176  11.332 -1.5270 -2.6965  0.3147
  792MPD2     N11680   2.358   4.117  11.315  0.1240 -0.0221 -0.5408
  792MPD2    H511681   2.386   4.020  11.300 -0.5167  0.0462 -2.2109
  792MPD2    N111682   2.590   4.548  11.431 -0.6579  1.1457  0.1180
  792MPD2    H711683   2.679   4.594  11.444 -0.5528  0.7127  0.8851
  793MPD2     C11684   1.931   4.109  10.541 -0.6474 -0.6699  0.0715
  793MPD2    C111685   2.041   4.155  10.611 -0.5949  0.4434 -0.0946
  793MPD2    C211686   2.041   4.152  10.747 -0.3986  0.4526  0.5216
  793MPD2    C311687   1.929   4.118  10.812 -0.5448  0.0429  0.2098
  793MPD2    C411688   1.816   4.077  10.745 -0.1909  0.5837 -0.5496
  793MPD2    C511689   1.818   4.083  10.610  0.5105  0.0283  0.5708
  793MPD2     H11690   2.125   4.192  10.803 -0.5006 -2.8126  2.9996
  793MPD2    H111691   1.731   4.040  10.801  0.4271 -0.6702 -0.4360
  793MPD2    H211692   1.913   4.103  10.434 -0.0253  3.4812 -0.2740
  793MPD2    H311693   1.732   4.047  10.555 -0.1925  0.0248  1.6740
  793MPD2     N11694   1.944   4.107  10.955 -0.0315 -0.5270  0.1420
  793MPD2    H511695   2.031   4.147  10.988 -0.1804 -1.5120  1.7333
  793MPD2    N111696   2.163   4.182  10.542 -0.2512 -0.3509 -0.6006
  793MPD2    H711697   2.245   4.199  10.600  0.4822 -4.0042 -0.5703
  794MPD2     C11698   2.007   4.063  17.591 -0.4349 -0.7904  0.4893
  794MPD2    C111699   1.958   3.949  17.540  0.2585  0.2431  0.0664
  794MPD2    C211700   1.868   3.952  17.440  0.0576 -0.4015  0.1376
  794MPD2    C311701   1.840   4.072  17.378  0.4655  1.0399  0.2651
  794MPD2    C411702   1.909   4.188  17.413 -0.8068 -0.3699  0.7723
  794MPD2    C511703   1.999   4.181  17.521  0.0016  0.7142  0.0238
  794MPD2     H11704   1.813   3.860  17.422  0.9629 -0.9386  0.0728
  794MPD2    H111705   1.875   4.284  17.377 -0.1885 -0.2051  0.6268
  794MPD2    H211706   2.062   4.069  17.684  0.2089 -0.4337  0.0851
  794MPD2    H311707   2.045   4.272  17.557  0.5907  0.3665  0.1476
  794MPD2     N11708   1.736   4.091  17.280  0.2167  0.7688  0.6663
  794MPD2    H511709   1.705   4.186  17.259 -1.5387 -0.1428 -0.8332
  794MPD2    N111710   1.950   3.828  17.610 -0.3300  0.5540  0.6413
  794MPD2    H711711   1.888   3.759  17.569  0.5576  0.6784 -0.9080
  795MPD2     C11712   4.336   1.253  13.791  0.0749  0.5497 -0.4296
  795MPD2    C111713   4.377   1.200  13.669 -0.3494  0.1640  0.0349
  795MPD2    C211714   4.466   1.092  13.666  0.2230  0.5777 -0.0846
  795MPD2    C311715   4.528   1.047  13.787  0.8537 -0.4894  0.1624
  795MPD2    C411716   4.481   1.089  13.907  0.1278 -0.0636 -0.8122
  795MPD2    C511717   4.391   1.194  13.904  0.1474  0.5316  0.1812
  795MPD2     H11718   4.494   1.052  13.570 -3.9127  0.5271 -1.2740
  795MPD2    H111719   4.516   1.052  14.003  2.7201  1.3904 -1.1848
  795MPD2    H211720   4.265   1.335  13.793  1.3914  1.6852 -0.3294
  795MPD2    H311721   4.354   1.235  13.998 -2.4361  1.1178 -1.0902
  795MPD2     N11722   4.637   0.954  13.771 -0.0176  0.9404 -0.4860
  795MPD2    H511723   4.682   0.933  13.682  1.0055  2.5852 -0.3484
  795MPD2    N111724   4.341   1.250  13.540  0.0921  0.0340 -0.4096
  795MPD2    H711725   4.385   1.200  13.463 -2.1017  3.0482 -3.6340
  796MPD2     C11726   3.912   2.772  16.197  0.6169 -0.0069 -0.2771
  796MPD2    C111727   3.897   2.814  16.326 -0.5385 -0.2863 -0.2737
  796MPD2    C211728   3.867   2.946  16.359  0.3283  0.1003  0.3610
  796MPD2    C311729   3.823   3.030  16.256 -1.5188  0.4379  0.3762
  796MPD2    C411730   3.828   2.981  16.121 -0.0249  0.3522  0.0149
  796MPD2    C511731   3.872   2.850  16.094 -0.0481  0.2592 -0.6978
  796MPD2     H11732   3.845   2.984  16.459 -1.7377 -1.9315  0.6835
  796MPD2    H111733   3.789   3.038  16.037  1.7543 -1.3083 -1.9407
  796MPD2    H211734   3.939   2.669  16.177  1.2493 -0.0715  0.8795
  796MPD2    H311735   3.887   2.815  15.993  2.4689 -0.6752  0.0185
  796MPD2     N11736   3.793   3.163  16.288  0.1108  0.1994  0.1121
  796MPD2    H511737   3.795   3.197  16.383 -1.8472  1.9924 -0.4772
  796MPD2    N111738   3.914   2.710  16.422 -0.2146  0.0131 -0.2293
  796MPD2    H711739   3.934   2.614  16.394 -1.2861 -0.3146  0.1249
  797MPD2     C11740   4.416   1.588  17.376 -0.0792  0.1294  0.2134
  797MPD2    C111741   4.489   1.654  17.471  0.2172  0.2744 -0.7028
  797MPD2    C211742   4.437   1.759  17.543  1.0518 -0.2056  0.3443
  797MPD2    C311743   4.306   1.799  17.516  0.2876  0.7282 -0.7590
  797MPD2    C411744   4.238   1.737  17.418 -0.4306 -0.6057  0.3280
  797MPD2    C511745   4.289   1.624  17.347  0.5607 -0.2668 -0.2616
  797MPD2     H11746   4.495   1.811  17.618  0.3685  2.5143 -1.0382
  797MPD2    H111747   4.138   1.767  17.390  0.4614  0.7704 -1.4360
  797MPD2    H211748   4.444   1.499  17.320  1.5791  0.1809  0.9506
  797MPD2    H311749   4.237   1.580  17.263 -0.9185 -0.2834  0.6655
  797MPD2     N11750   4.268   1.917  17.569  0.2816 -0.5102 -0.1714
  797MPD2    H511751   4.331   1.966  17.631 -0.9280 -2.1631  2.3634
  797MPD2    N111752   4.614   1.609  17.512  0.6133  0.4145 -1.0535
  797MPD2    H711753   4.675   1.667  17.568 -1.3374  1.5012 -0.0819
  798MPD2     C11754   4.424   1.898   0.488  0.5871  0.0657 -0.1025
  798MPD2    C111755   4.442   1.932   0.354  0.2091 -0.1638 -0.4036
  798MPD2    C211756   4.522   1.850   0.282 -0.0713  0.4074 -0.1833
  798MPD2    C311757   4.589   1.738   0.335  0.4837 -0.1837  0.2940
  798MPD2    C411758   4.567   1.702   0.469  0.4034 -0.0764  0.1343
  798MPD2    C511759   4.481   1.783   0.541 -0.2881  0.2833 -0.6989
  798MPD2     H11760   4.536   1.883   0.180  0.7333  1.1145  0.1575
  798MPD2    H111761   4.602   1.611   0.516  0.6114 -0.5218 -0.8746
  798MPD2    H211762   4.359   1.955   0.553  2.5384  1.9341  0.1919
  798MPD2    H311763   4.456   1.754   0.643  0.7627 -1.9464 -1.0776
  798MPD2     N11764   4.666   1.668   0.244  0.2642  0.1001 -0.2341
  798MPD2    H511765   4.674   1.713   0.154  0.1622 -1.8797 -1.2434
  798MPD2    N111766   4.361   2.040   0.305 -0.7440  0.3053 -0.4819
  798MPD2    H711767   4.283   2.073   0.361 -2.7715 -1.2483 -2.3914
  799MPD2     C11768   4.070   3.873  14.951  0.2266 -0.2867 -0.0353
  799MPD2    C111769   3.951   3.825  14.890  0.1132  0.5498  0.2262
  799MPD2    C211770   3.880   3.905  14.798  0.0160  0.1547 -0.3874
  799MPD2    C311771   3.922   4.036  14.779 -0.1366  0.5998 -0.5806
  799MPD2    C411772   4.024   4.089  14.859 -0.3530 -0.4550 -0.5542
  799MPD2    C511773   4.102   4.005  14.939 -0.0242  0.3157 -0.6324
  799MPD2     H11774   3.797   3.860  14.744 -1.6348  2.0643  0.5805
  799MPD2    H111775   4.054   4.194  14.854  1.7725 -0.9599  1.3831
  799MPD2    H211776   4.137   3.811  15.010 -1.3649 -0.8694  1.1818
  799MPD2    H311777   4.193   4.037  14.987 -1.1133  0.5804  1.2368
  799MPD2     N11778   3.877   4.123  14.681 -0.1112  0.0430  0.6232
  799MPD2    H511779   3.923   4.213  14.672 -2.1097  1.0039  0.0728
  799MPD2    N111780   3.910   3.686  14.887 -0.3011  0.3021  0.1000
  799MPD2    H711781   3.842   3.654  14.818 -0.2719 -1.3523  0.8267
  800MPD2     C11782   0.025   0.465  14.834 -0.5083 -0.3951 -0.0990
  800MPD2    C111783   0.137   0.456  14.759 -0.2375  0.5366 -0.4752
  800MPD2    C211784   0.165   0.332  14.697 -0.4053  1.2141 -0.4019
  800MPD2    C311785   0.073   0.226  14.699  0.0044 -0.1713 -0.1268
  800MPD2    C411786   4.682   0.249  14.774  0.5842 -0.2893  0.3022
  800MPD2    C511787   4.671   0.356  14.857  0.9596 -0.1433  0.4794
  800MPD2     H11788   0.257   0.319  14.641 -0.2337  0.2039  0.1120
  800MPD2    H111789   4.604   0.175  14.786 -0.6380  0.9404 -0.1869
  800MPD2    H211790   4.716   0.554  14.887 -1.1120 -0.9873  0.5208
  800MPD2    H311791   4.582   0.375  14.916 -0.4564 -3.5467 -0.5349
  800MPD2     N11792   0.110   0.105  14.631 -1.0329 -0.2563  0.4380
  800MPD2    H511793   0.190   0.120  14.571  0.0338 -0.0974  1.9057
  800MPD2    N111794   0.228   0.562  14.741 -0.1596 -0.0913 -0.5141
  800MPD2    H711795   0.199   0.648  14.787  0.4971  0.7424 -1.6442
  801MPD2     C11796   0.039   1.233  14.511  0.1455 -0.1081  0.0329
  801MPD2    C111797   0.021   1.121  14.586  0.4149 -0.0619  0.1969
  801MPD2    C211798   4.620   1.097  14.643  0.4283 -0.2300 -1.0569
  801MPD2    C311799   4.510   1.180  14.612 -0.3675  0.1791  0.0503
  801MPD2    C411800   4.530   1.303  14.542  0.1949 -0.5255  0.6222
  801MPD2    C511801   4.660   1.328  14.500 -0.7732 -0.1096 -0.1894
  801MPD2     H11802   4.606   1.002  14.694  0.0067  0.0590 -0.6426
  801MPD2    H111803   4.445   1.364  14.514  0.5021 -0.1574  0.4861
  801MPD2    H211804   0.131   1.260  14.460 -0.0266 -0.0389 -0.2386
  801MPD2    H311805   4.685   1.409  14.433  1.4479 -2.6005 -2.4195
  801MPD2     N11806   4.386   1.141  14.659 -0.1364  0.6644 -0.5373
  801MPD2    H511807   4.387   1.067  14.730 -1.1205 -1.0802 -2.3390
  801MPD2    N111808   0.123   1.023  14.606 -0.2705  0.2878 -0.4568
  801MPD2    H711809   0.108   0.956  14.681 -0.0859 -0.3532 -0.9886
  802MPD2     C11810   3.381   1.992   0.603  0.8349 -0.6646  0.3022
  802MPD2    C111811   3.269   1.901   0.603 -0.6849  0.1190 -0.3110
  802MPD2    C211812   3.291   1.765   0.577  0.8461  0.2776 -0.4789
  802MPD2    C311813   3.424   1.720   0.550 -0.2560  0.2692  0.6219
  802MPD2    C411814   3.531   1.811   0.543 -0.3673 -0.1549  0.0620
  802MPD2    C511815   3.509   1.944   0.575 -0.3618  0.6136 -0.0723
  802MPD2     H11816   3.206   1.698   0.581  1.0720  0.0357  0.4356
  802MPD2    H111817   3.633   1.787   0.514 -0.2916  0.2990 -0.0491
  802MPD2    H211818   3.364   2.098   0.614  1.3967 -0.4384 -1.0069
  802MPD2    H311819   3.578   2.025   0.556 -2.4082  2.4136  0.1640
  802MPD2     N11820   3.446   1.584   0.527  0.1858  0.1730  1.0070
  802MPD2    H511821   3.365   1.528   0.503  1.2188 -0.6196 -0.7082
  802MPD2    N111822   3.137   1.944   0.623  0.3371  0.4527 -0.4495
  802MPD2    H711823   3.062   1.877   0.616 -0.5190  1.1789  1.7911
  803MPD2     C11824   0.399   4.545  11.889 -0.5355 -0.3290  0.0134
  803MPD2    C111825   0.469   4.571  12.006 -0.3107  1.1112 -0.4296
  803MPD2    C211826   0.429   4.514  12.125 -0.2675  0.3749 -0.6983
  803MPD2    C311827   0.316   4.438  12.142 -0.1070 -0.4430  0.4160
  803MPD2    C411828   0.237   4.434  12.026 -0.0942 -0.4789 -0.2847
  803MPD2    C511829   0.286   4.475  11.905 -0.4161  0.3662 -0.2156
  803MPD2     H11830   0.486   4.536  12.214 -0.0495  0.4944 -0.8666
  803MPD2    H111831   0.137   4.393  12.032 -0.2213 -0.0072  0.8489
  803MPD2    H211832   0.418   4.589  11.792 -0.9188  0.8395  0.4706
  803MPD2    H311833   0.226   4.468  11.815  1.2430  0.6135 -1.3548
  803MPD2     N11834   0.278   4.381  12.268  0.4823 -0.1212 -1.0903
  803MPD2    H511835   0.185   4.340  12.268  0.0906  0.7810 -2.2192
  803MPD2    N111836   0.596   4.623  12.007  0.2719  0.7038 -0.0504
  803MPD2    H711837   0.660   4.628  12.086 -0.1323  0.7105  0.2757
  804MPD2     C11838   3.967   0.462  17.093 -0.5327  0.4521  0.3028
  804MPD2    C111839   4.014   0.450  17.221 -0.1432  0.0773  0.2245
  804MPD2    C211840   4.059   0.573  17.277 -0.1478  0.6696 -0.0039
  804MPD2    C311841   4.076   0.684  17.197  0.0548 -0.6627 -0.1294
  804MPD2    C411842   4.029   0.696  17.068  0.3515  0.7091 -0.3834
  804MPD2    C511843   3.975   0.576  17.023  0.6683  0.1445 -0.4829
  804MPD2     H11844   4.090   0.563  17.381 -0.1171 -2.7765 -0.3519
  804MPD2    H111845   4.033   0.781  17.001  2.1304  0.3915 -0.6728
  804MPD2    H211846   3.926   0.374  17.043 -0.5371  0.6216  0.0047
  804MPD2    H311847   3.927   0.574  16.926  2.0469 -0.3476 -1.1501
  804MPD2     N11848   4.130   0.792  17.264 -0.3396 -0.7097 -0.0204
  804MPD2    H511849   4.128   0.793  17.365  1.1466  0.8440  0.0037
  804MPD2    N111850   3.997   0.341  17.305 -0.2123  0.4707 -0.1226
  804MPD2    H711851   4.032   0.361  17.398  2.0211 -2.2376 -0.3704
  805MPD2     C11852   3.450   3.997  15.626 -1.1526  0.0647  0.3616
  805MPD2    C111853   3.560   4.069  15.579  0.0722  0.4984  0.2245
  805MPD2    C211854   3.669   4.084  15.664  0.3560 -0.7224 -0.1796
  805MPD2    C311855   3.671   4.015  15.783  0.0266  0.0339  0.1655
  805MPD2    C411856   3.564   3.946  15.827  0.0538 -0.2169 -0.9250
  805MPD2    C511857   3.455   3.935  15.747 -0.5197  0.2859  0.6802
  805MPD2     H11858   3.754   4.138  15.623  0.9731  1.5505  4.1442
  805MPD2    H111859   3.547   3.910  15.928  1.4057 -0.2004 -0.6921
  805MPD2    H211860   3.368   3.970  15.560 -1.4283  0.2149  0.6447
  805MPD2    H311861   3.367   3.882  15.783 -0.3784  0.0791  0.7222
  805MPD2     N11862   3.778   4.033  15.870 -0.4453  0.3772 -0.2623
  805MPD2    H511863   3.852   4.094  15.837 -0.0500  1.0175  1.8283
  805MPD2    N111864   3.569   4.128  15.448 -0.1430  0.0409 -0.2623
  805MPD2    H711865   3.661   4.168  15.434  0.6385 -2.4621 -2.2654
  806MPD2     C11866   3.225   3.152   0.878 -0.9600 -0.9154  0.0349
  806MPD2    C111867   3.358   3.121   0.881 -0.2853  0.1786 -0.3523
  806MPD2    C211868   3.443   3.190   0.795 -0.4328 -0.1079 -0.3392
  806MPD2    C311869   3.398   3.295   0.708  0.0361  0.2309 -0.5767
  806MPD2    C411870   3.265   3.321   0.704 -0.0676 -0.0621 -0.0039
  806MPD2    C511871   3.181   3.246   0.792  1.4061  0.2204  0.6525
  806MPD2     H11872   3.549   3.169   0.800 -0.5356  0.6509  4.2218
  806MPD2    H111873   3.217   3.400   0.647 -0.3059 -0.5805 -0.5255
  806MPD2    H211874   3.158   3.118   0.955  0.1725 -2.1307  0.4879
  806MPD2    H311875   3.075   3.266   0.784  1.1202 -1.7367 -0.3918
  806MPD2     N11876   3.495   3.363   0.631 -0.5792 -0.0075  1.1462
  806MPD2    H511877   3.592   3.342   0.653  0.4708  0.9817 -2.5532
  806MPD2    N111878   3.399   3.016   0.969 -0.7463 -0.1024  0.1383
  806MPD2    H711879   3.318   2.974   1.015  0.3614 -3.4364 -0.9776
  807MPD2     C11880   3.135   2.625   1.558 -0.5161 -0.0263 -0.4086
  807MPD2    C111881   3.269   2.585   1.548 -0.0742  0.5716  0.5239
  807MPD2    C211882   3.316   2.501   1.643  0.0914 -0.1150  0.2081
  807MPD2    C311883   3.233   2.464   1.752  0.3190 -0.2820 -0.9711
  807MPD2    C411884   3.100   2.491   1.748  0.1465 -0.0598  0.3619
  807MPD2    C511885   3.050   2.573   1.650  0.2525  0.6061  0.1565
  807MPD2     H11886   3.422   2.482   1.654 -0.3573 -2.1054  1.1726
  807MPD2    H111887   3.033   2.449   1.821  1.5348 -1.5191  0.7944
  807MPD2    H211888   3.104   2.700   1.486  2.0877  0.6112 -0.8668
  807MPD2    H311889   2.944   2.597   1.649  0.0381 -0.2310  1.7418
  807MPD2     N11890   3.288   2.373   1.855 -0.5403 -0.3048  0.1438
  807MPD2    H511891   3.387   2.347   1.852  0.2998  3.0567 -0.4225
  807MPD2    N111892   3.363   2.628   1.452  0.3903  0.1860 -0.4551
  807MPD2    H711893   3.457   2.590   1.460  0.1257  0.0502  1.9289
  808MPD2     C11894   4.669   0.470  10.469 -0.1217 -0.7976  0.6534
  808MPD2    C111895   4.569   0.554  10.507  0.7716 -0.1935 -0.0553
  808MPD2    C211896   4.585   0.696  10.484  0.3269 -0.2730 -0.6559
  808MPD2    C311897   4.686   0.743  10.399 -0.8533 -0.5817  0.5156
  808MPD2    C411898   0.045   0.649  10.342 -0.2631 -0.4704 -1.1649
  808MPD2    C511899   0.040   0.515  10.386 -0.1078  0.7916 -0.7793
  808MPD2     H11900   4.510   0.766  10.517  0.7947 -0.1332  0.0938
  808MPD2    H111901   0.123   0.670  10.269 -0.9159 -3.6330 -2.7688
  808MPD2    H211902   4.665   0.365  10.496  0.0594 -0.6015  1.4376
  808MPD2    H311903   0.116   0.449  10.347 -1.1886 -1.3183  0.6849
  808MPD2     N11904   4.703   0.887  10.366  0.2214 -0.2618 -0.2763
  808MPD2    H511905   0.049   0.905  10.294  0.3706  1.7647  0.3628
  808MPD2    N111906   4.452   0.520  10.590  0.0817  0.5318 -0.1911
  808MPD2    H711907   4.393   0.598  10.619  1.4998  2.5261 -2.6632
  809MPD2     C11908   0.506   1.184   9.751 -0.8379 -0.0254  0.5531
  809MPD2    C111909   0.429   1.093   9.822 -0.3954  0.0459  0.0206
  809MPD2    C211910   0.337   1.132   9.914  0.0404 -0.5281 -0.3028
  809MPD2    C311911   0.312   1.265   9.939  0.9398 -0.0036  0.0668
  809MPD2    C411912   0.399   1.358   9.875 -0.0238 -0.1429 -0.3116
  809MPD2    C511913   0.490   1.320   9.775 -0.3248  0.5207  0.0447
  809MPD2     H11914   0.268   1.060   9.958 -0.7823  1.2516  1.3060
  809MPD2    H111915   0.390   1.465   9.890  1.5199 -0.3039  1.7349
  809MPD2    H211916   0.592   1.146   9.697 -0.0448  1.9263  0.4423
  809MPD2    H311917   0.556   1.393   9.731  0.0995 -0.6446 -1.2554
  809MPD2     N11918   0.226   1.311  10.044  0.3934 -0.7618  0.3846
  809MPD2    H511919   0.259   1.386  10.104 -0.7116  2.0563 -2.5609
  809MPD2    N111920   0.431   0.954   9.819 -0.5510 -0.6802 -0.3578
  809MPD2    H711921   0.391   0.908   9.899 -0.0084 -0.0412  0.2810
  810MPD2     C11922   4.298   0.196  11.180  0.0977 -1.0297  0.3992
  810MPD2    C111923   4.172   0.254  11.191  0.0397  0.6029  0.5229
  810MPD2    C211924   4.141   0.384  11.165 -0.3761  0.4221 -0.1264
  810MPD2    C311925   4.246   0.464  11.109  0.5076  0.2842  0.9430
  810MPD2    C411926   4.377   0.414  11.096  0.5004  0.8812 -0.0464
  810MPD2    C511927   4.399   0.280  11.138 -0.3808 -0.2588 -0.2973
  810MPD2     H11928   4.040   0.415  11.184  0.3631  2.5001  0.4315
  810MPD2    H111929   4.464   0.472  11.067  1.9682 -1.0506  0.4806
  810MPD2    H211930   4.318   0.099  11.223 -0.4751 -2.5029 -2.6256
  810MPD2    H311931   4.497   0.242  11.110  0.9383  2.7775  0.1588
  810MPD2     N11932   4.232   0.597  11.074  0.1988  0.1471  0.3650
  810MPD2    H511933   4.317   0.643  11.044  0.7450 -0.1846  1.4052
  810MPD2    N111934   4.053   0.173  11.215  0.2869 -1.1109 -0.5910
  810MPD2    H711935   3.970   0.230  11.231 -0.4534 -2.6677  1.0276
  811MPD2     C11936   3.420   0.070  10.676 -1.1449 -0.4065  0.5385
  811MPD2    C111937   3.531   0.127  10.733  0.1472 -0.0986 -0.1551
  811MPD2    C211938   3.580   0.239  10.672  0.1838 -0.9938  0.2618
  811MPD2    C311939   3.511   0.309  10.573  0.0941  0.1332  0.1687
  811MPD2    C411940   3.404   0.246  10.517  0.0638  0.1285 -0.3291
  811MPD2    C511941   3.355   0.131  10.575 -0.0598 -0.7130 -0.7983
  811MPD2     H11942   3.671   0.285  10.711 -1.7849  2.4485  0.7792
  811MPD2    H111943   3.366   0.282  10.422 -0.2962  0.7630  0.0604
  811MPD2    H211944   3.383   4.699  10.715 -0.1493 -1.2814 -0.6376
  811MPD2    H311945   3.280   0.075  10.519 -0.0089  1.1712 -2.7523
  811MPD2     N11946   3.571   0.433  10.532 -0.6058 -0.0346 -0.5951
  811MPD2    H511947   3.667   0.456  10.555 -1.3586  3.3555 -0.9232
  811MPD2    N111948   3.589   0.056  10.840  0.2354 -0.3422 -0.3035
  811MPD2    H711949   3.539   4.694  10.860  3.1300 -2.2471 -1.1910
  812MPD2     C11950   3.108   4.502  12.584  0.0439  0.1784 -0.6427
  812MPD2    C111951   3.038   4.553  12.692  0.3163 -0.4793 -1.3154
  812MPD2    C211952   3.003   4.463  12.790 -0.2254 -0.3956  0.1416
  812MPD2    C311953   3.022   4.323  12.778  0.4253 -0.8009 -0.6615
  812MPD2    C411954   3.068   4.279  12.658  0.3341  0.3969 -0.7601
  812MPD2    C511955   3.111   4.367  12.564  0.3664  0.0414 -0.7229
  812MPD2     H11956   2.969   4.513  12.880 -0.3326 -0.2357  0.0119
  812MPD2    H111957   3.081   4.172  12.640 -1.5613  0.0933 -0.2900
  812MPD2    H211958   3.153   4.564  12.507 -0.6429  1.1608 -0.2561
  812MPD2    H311959   3.158   4.320  12.478 -0.6186 -0.2739 -1.0835
  812MPD2     N11960   2.998   4.241  12.890  0.4967 -0.4283  0.2256
  812MPD2    H511961   2.978   4.277  12.983 -2.9275 -0.2281 -0.5740
  812MPD2    N111962   2.997   4.687  12.697 -0.6991  0.3195  0.4259
  812MPD2    H711963   3.025   0.024  12.620  2.2108  0.2730  1.4415
  813MPD2     C11964   1.763   2.095  12.758 -0.7574 -0.1308  0.1170
  813MPD2    C111965   1.826   2.060  12.879 -0.0872  0.0680  0.4527
  813MPD2    C211966   1.744   2.048  12.991  0.1379 -0.1423  0.2308
  813MPD2    C311967   1.608   2.077  12.984  0.8191  0.7250  0.0959
  813MPD2    C411968   1.554   2.121  12.863  0.4672 -0.2320  0.5182
  813MPD2    C511969   1.626   2.123  12.752  0.3359  0.5677  0.5113
  813MPD2     H11970   1.784   2.022  13.088 -0.5440 -1.3786  0.1751
  813MPD2    H111971   1.450   2.150  12.854  1.0493  2.1197  1.1644
  813MPD2    H211972   1.818   2.108  12.666  0.2165 -0.6312  0.6327
  813MPD2    H311973   1.579   2.151  12.658 -1.7497  1.2299  1.7559
  813MPD2     N11974   1.544   2.070  13.107  0.0812  0.0904 -0.0046
  813MPD2    H511975   1.582   2.025  13.190  1.8204  1.8611  0.1613
  813MPD2    N111976   1.959   2.036  12.875  0.5969  0.8180 -0.5326
  813MPD2    H711977   2.007   2.048  12.787 -0.0220  0.2583 -0.9429
  814MPD2     C11978   2.695   3.016  12.646  0.0089  0.7210 -0.8461
  814MPD2    C111979   2.708   3.070  12.519  0.3090 -0.5906 -0.0260
  814MPD2    C211980   2.762   3.195  12.511 -0.6894  0.1621  0.2382
  814MPD2    C311981   2.794   3.272  12.617  0.1390 -0.6143  0.1006
  814MPD2    C411982   2.783   3.224  12.743  0.2711 -0.1972 -0.3814
  814MPD2    C511983   2.727   3.095  12.756  0.0342  0.6168  0.3717
  814MPD2     H11984   2.781   3.233  12.411 -2.9894  0.0872 -0.2284
  814MPD2    H111985   2.800   3.286  12.830 -0.2331 -0.7602  0.1170
  814MPD2    H211986   2.664   2.914  12.662  3.6002 -0.2454  0.0302
  814MPD2    H311987   2.707   3.052  12.854 -0.6881  2.0436  0.8483
  814MPD2     N11988   2.855   3.405  12.614 -0.2831  0.0947 -0.0694
  814MPD2    H511989   2.897   3.451  12.694  1.0742 -0.9564 -0.1808
  814MPD2    N111990   2.677   2.997  12.403  0.5321 -0.7069  0.1255
  814MPD2    H711991   2.698   3.037  12.313 -0.5754  1.1489  0.7088
  815MPD2     C11992   2.911   1.232  12.589  0.1879  0.3266 -0.8004
  815MPD2    C111993   2.856   1.219  12.461 -0.1977  0.4935  0.2012
  815MPD2    C211994   2.741   1.149  12.444  0.3362  0.3876  0.3593
  815MPD2    C311995   2.676   1.088  12.546  0.1838  0.1514  0.0768
  815MPD2    C411996   2.723   1.115  12.674 -0.7504  0.5046  0.6417
  815MPD2    C511997   2.837   1.185  12.692  0.5292  0.0991 -0.5917
  815MPD2     H11998   2.701   1.120  12.348  1.3691  1.9869 -0.5370
  815MPD2    H111999   2.669   1.085  12.764  0.8818  1.1366  1.8182
  815MPD2    H212000   3.011   1.272  12.603 -0.5863  1.2096  2.1475
  815MPD2    H312001   2.873   1.203  12.792  3.1846  3.2027 -2.1048
  815MPD2     N12002   2.561   1.006  12.526 -0.0848 -0.2388  0.4452
  815MPD2    H512003   2.541   0.985  12.429  0.4704  2.3569 -0.2341
  815MPD2    N112004   2.927   1.274  12.349 -0.1267  0.1489 -0.4229
  815MPD2    H712005   3.023   1.299  12.369  0.6697 -1.8472 -1.7016
  816MPD2     C12006   3.272   0.568  17.630  1.0787 -0.6041  0.0643
  816MPD2    C112007   3.207   0.597  17.515 -0.3058  0.4251  0.0302
  816MPD2    C212008   3.246   0.545  17.390 -0.3424  0.3945 -0.6858
  816MPD2    C312009   3.367   0.481  17.387  0.0594  0.5013  0.0978
  816MPD2    C412010   3.431   0.456  17.507 -0.0884  0.1963 -0.6387
  816MPD2    C512011   3.387   0.504  17.625  0.1289  0.3716 -1.0336
  816MPD2     H12012   3.201   0.555  17.292 -0.6451  1.0730 -0.4795
  816MPD2    H112013   3.525   0.402  17.513  0.1596  0.8904  1.6210
  816MPD2    H212014   3.246   0.595   0.033 -2.4580 -1.4509 -0.6229
  816MPD2    H312015   3.445   0.480   0.016  1.6229  2.3270 -1.4834
  816MPD2     N12016   3.431   0.434  17.272 -0.4468  0.3608 -0.5406
  816MPD2    H512017   3.388   0.462  17.185  1.8059 -0.2755 -1.8507
  816MPD2    N112018   3.083   0.663  17.537  0.1896 -0.0253 -0.3741
  816MPD2    H712019   3.069   0.684  17.635 -1.9933  1.5733 -1.0306
  817MPD2     C12020   3.354   2.893   9.929  0.3452 -0.5208 -0.0524
  817MPD2    C112021   3.228   2.857   9.902  0.5201  0.4419 -0.2955
  817MPD2    C212022   3.154   2.926   9.807 -0.1810 -0.2557  0.0353
  817MPD2    C312023   3.199   3.038   9.742 -0.0936 -0.0363 -0.1679
  817MPD2    C412024   3.321   3.087   9.777 -0.8479  0.8337  0.3546
  817MPD2    C512025   3.398   3.016   9.875  0.1454 -0.3056  0.8185
  817MPD2     H12026   3.056   2.884   9.785 -0.3791  0.7859 -1.0619
  817MPD2    H112027   3.368   3.170   9.724  0.1812 -1.5211 -2.3915
  817MPD2    H212028   3.429   2.841   9.987  0.0272 -0.1119  0.7195
  817MPD2    H312029   3.504   3.034   9.890  0.4158 -0.9289 -0.3727
  817MPD2     N12030   3.117   3.088   9.635 -0.6856 -0.1306 -0.3400
  817MPD2    H512031   3.036   3.033   9.609 -0.8378  0.7642 -1.7900
  817MPD2    N112032   3.168   2.747   9.965 -0.4064 -0.4678  0.3023
  817MPD2    H712033   3.070   2.733   9.944 -0.4770 -1.3847  1.2730
  818MPD2     C12034   1.219   1.812  10.077 -0.6346 -0.2212  0.2859
  818MPD2    C112035   1.144   1.800  10.185  0.3611 -0.0794  0.0299
  818MPD2    C212036   1.030   1.725  10.179  0.0840 -0.3486 -0.3180
  818MPD2    C312037   1.004   1.649  10.066 -0.1851  0.1095  0.0843
  818MPD2    C412038   1.082   1.652   9.961  0.0029 -0.1559  0.3201
  818MPD2    C512039   1.185   1.739   9.969  0.1317  0.4068 -0.1598
  818MPD2     H12040   0.969   1.709  10.267  0.9260  1.0606  0.5377
  818MPD2    H112041   1.064   1.592   9.872  0.1586 -1.1325  0.9494
  818MPD2    H212042   1.308   1.874  10.063  1.5258 -2.9962  1.7733
  818MPD2    H312043   1.257   1.738   9.887  1.3571 -0.7019  0.9260
  818MPD2     N12044   0.912   1.547  10.062  0.2245  0.0617 -0.2715
  818MPD2    H512045   0.915   1.482   9.984 -0.9864 -2.1795  1.5434
  818MPD2    N112046   1.162   1.878  10.304 -0.2207  0.0607  0.0508
  818MPD2    H712047   1.089   1.874  10.374  0.8718 -0.6616  1.1343
  819MPD2     C12048   4.061   3.499  15.997 -0.5616 -0.6480  0.1144
  819MPD2    C112049   4.036   3.375  15.946  0.6912 -0.0865 -0.4507
  819MPD2    C212050   4.096   3.265  16.012 -0.7706  0.7773 -0.1928
  819MPD2    C312051   4.180   3.281  16.120 -0.3961  0.2653 -0.0240
  819MPD2    C412052   4.202   3.411  16.171  0.2505 -0.0619  0.4984
  819MPD2    C512053   4.137   3.514  16.104 -0.4450 -0.3954 -0.1539
  819MPD2     H12054   4.066   3.164  15.985 -2.3905  0.8408  1.3817
  819MPD2    H112055   4.266   3.432  16.256  2.0685  1.3689 -1.2345
  819MPD2    H212056   4.024   3.584  15.942 -0.2911 -0.5904  0.0211
  819MPD2    H312057   4.159   3.613  16.142 -0.0411  0.5578 -2.9032
  819MPD2     N12058   4.248   3.165  16.170 -1.0026 -0.0737 -0.5646
  819MPD2    H512059   4.253   3.082  16.112  1.2838  0.1631 -0.7029
  819MPD2    N112060   3.965   3.367  15.822 -0.0756 -0.2148 -0.4537
  819MPD2    H712061   3.937   3.458  15.785 -1.0115 -0.7754 -1.1220
  820MPD2     C12062   3.471   3.675  14.973  1.3933  0.5299 -0.6390
  820MPD2    C112063   3.583   3.724  15.034 -0.1502  0.2105  0.5123
  820MPD2    C212064   3.647   3.658  15.140  0.1589 -0.2135 -0.2800
  820MPD2    C312065   3.599   3.537  15.178  0.1504 -0.3928  0.0744
  820MPD2    C412066   3.484   3.483  15.121  0.3974  0.1184  0.3238
  820MPD2    C512067   3.425   3.556  15.017  0.8663  0.1444  0.3616
  820MPD2     H12068   3.739   3.703  15.174  0.7624 -0.2697 -1.8347
  820MPD2    H112069   3.438   3.390  15.153 -1.5813  1.1747  0.5324
  820MPD2    H212070   3.412   3.732  14.902  1.1573 -0.5799 -1.3235
  820MPD2    H312071   3.340   3.512  14.965  0.6996 -1.7315  2.2329
  820MPD2     N12072   3.665   3.456  15.271  0.2091 -0.1651 -0.6680
  820MPD2    H512073   3.626   3.365  15.292 -1.2075  0.5966  0.0053
  820MPD2    N112074   3.614   3.856  15.001 -0.0159  0.0079 -0.9314
  820MPD2    H712075   3.564   3.897  14.922 -0.9116 -1.7856 -1.2983
  821MPD2     C12076   4.537   0.100  13.938  0.1738  0.1846  0.1163
  821MPD2    C112077   4.639   0.001  13.949  0.8202 -0.3053 -0.7606
  821MPD2    C212078   4.705   4.687  13.837 -0.1247  0.8492  0.1021
  821MPD2    C312079   4.662   0.015  13.717  0.6029  0.6491 -0.1874
  821MPD2    C412080   4.559   0.112  13.705  0.2783 -0.6891 -0.1022
  821MPD2    C512081   4.500   0.154  13.820  0.1084  0.0201  0.0389
  821MPD2     H12082   0.074   4.631  13.839 -0.6239 -0.0027 -0.6641
  821MPD2    H112083   4.539   0.151  13.606 -0.2094 -1.1456 -0.1822
  821MPD2    H212084   4.477   0.141  14.019  0.6308  0.9421  0.0749
  821MPD2    H312085   4.416   0.222  13.813  0.6146  0.9061  2.4447
  821MPD2     N12086   4.722   4.704  13.594 -0.4196  0.0461 -1.1569
  821MPD2    H512087   4.694   0.026  13.508  0.2275  0.6096 -1.0684
  821MPD2    N112088   4.681   4.665  14.067 -0.3250 -0.0689  0.1264
  821MPD2    H712089   0.023   4.591  14.044  1.9269  2.4188 -1.5344
  822MPD2     C12090   0.215   0.007  16.030  0.6151  0.8193 -0.6951
  822MPD2    C112091   0.200   4.697  16.163 -0.2621 -0.5487  0.1921
  822MPD2    C212092   0.092   0.023  16.240 -0.6452 -0.0285 -0.0625
  822MPD2    C312093   0.014   0.125  16.190 -0.1818  0.1990  0.4458
  822MPD2    C412094   0.032   0.154  16.055 -0.1845  0.0517  0.0075
  822MPD2    C512095   0.132   0.103  15.983  0.6471  0.6035  0.4637
  822MPD2     H12096   0.073   4.709  16.339  0.5235  1.9098  0.8963
  822MPD2    H112097   4.689   0.225  16.007  0.8690  1.3588  0.4541
  822MPD2    H212098   0.303   4.704  15.972  2.1110 -0.1694  2.0353
  822MPD2    H312099   0.134   0.141  15.882 -0.7082 -0.6622 -0.0476
  822MPD2     N12100   4.642   0.196  16.268  0.1224  0.1581 -0.1620
  822MPD2    H512101   4.625   0.146  16.355  0.1201  0.4012 -0.0197
  822MPD2    N112102   0.288   4.612  16.237  0.2510 -0.7442  0.0058
  822MPD2    H712103   0.259   4.601  16.334 -0.5901 -1.9585 -0.3871
  823MPD2     C12104   4.300   0.328  17.024 -0.3052  0.1416 -0.3764
  823MPD2    C112105   4.382   0.271  16.924  0.0537  0.6172  0.1544
  823MPD2    C212106   4.487   0.186  16.964 -0.1786  0.0069  0.1246
  823MPD2    C312107   4.519   0.168  17.095 -0.2058  0.4688 -0.8906
  823MPD2    C412108   4.450   0.247  17.185  0.1108 -0.1151  0.5469
  823MPD2    C512109   4.336   0.315  17.156 -0.1074 -0.4629  0.2852
  823MPD2     H12110   4.546   0.145  16.883  0.6152  0.4326  0.4882
  823MPD2    H112111   4.471   0.248  17.291 -1.6604  0.9509  0.8796
  823MPD2    H212112   4.214   0.390  17.002  0.1542  0.8492 -0.1447
  823MPD2    H312113   4.283   0.373  17.231 -2.2642 -1.5522 -0.3799
  823MPD2     N12114   4.627   0.085  17.148 -0.1454  0.1275 -0.0245
  823MPD2    H512115   4.640   0.094  17.249 -0.8407  0.6873  0.0125
  823MPD2    N112116   4.372   0.308  16.795  0.0821 -0.2007  0.6353
  823MPD2    H712117   4.310   0.385  16.772  0.5350 -0.2444 -0.7119
  824MPD2     C12118   0.754   3.946  16.234 -0.1544 -0.5868  0.1749
  824MPD2    C112119   0.778   4.055  16.156 -0.1579 -0.2193 -0.7207
  824MPD2    C212120   0.837   4.044  16.029  0.3776  0.3775 -0.2519
  824MPD2    C312121   0.875   3.924  15.981  0.9443 -0.3009 -0.0047
  824MPD2    C412122   0.843   3.818  16.059 -0.4883 -0.2878  0.6296
  824MPD2    C512123   0.784   3.830  16.182 -0.4030  0.7455 -0.2351
  824MPD2     H12124   0.875   4.130  15.976 -0.5848  0.2001 -1.2589
  824MPD2    H112125   0.863   3.717  16.024  0.4660 -0.3752  1.4161
  824MPD2    H212126   0.709   3.949  16.333 -2.9170 -0.5562 -1.0935
  824MPD2    H312127   0.747   3.741  16.231 -0.9612  1.5329  0.7503
  824MPD2     N12128   0.932   3.898  15.858  0.9383  0.0830  0.5593
  824MPD2    H512129   0.949   3.799  15.841 -0.7550  0.3674 -2.7181
  824MPD2    N112130   0.735   4.186  16.198 -0.0963  0.7601  0.6307
  824MPD2    H712131   0.737   4.253  16.121  2.4217 -0.6567 -0.5578
  825MPD2     C12132   1.485   3.996  15.114  0.6821 -0.6621 -0.3240
  825MPD2    C112133   1.423   4.071  15.211  0.1263 -0.5338  0.0747
  825MPD2    C212134   1.457   4.208  15.227 -0.2125 -0.3637 -0.3087
  825MPD2    C312135   1.562   4.254  15.148 -0.1406 -0.1133  0.4746
  825MPD2    C412136   1.639   4.178  15.058  0.5221 -0.2890 -0.6980
  825MPD2    C512137   1.590   4.056  15.048  0.6064 -0.2804  0.0017
  825MPD2     H12138   1.405   4.277  15.293  0.9254 -0.0893  0.3033
  825MPD2    H112139   1.718   4.216  14.993  1.0669 -1.8131 -0.9276
  825MPD2    H212140   1.445   3.897  15.092 -1.4908  0.4144 -1.2978
  825MPD2    H312141   1.628   3.996  14.966  1.4733 -1.8332  1.5283
  825MPD2     N12142   1.584   4.393  15.131 -0.4393 -0.3658  0.3513
  825MPD2    H512143   1.627   4.422  15.043 -0.2038 -1.3594  0.1433
  825MPD2    N112144   1.321   4.008  15.292 -0.2942 -0.2488  0.3721
  825MPD2    H712145   1.302   3.911  15.270 -0.9907  0.6763 -3.1865
  826MPD2     C12146   1.142   3.770  14.141  0.8712  0.0433 -0.0982
  826MPD2    C112147   1.202   3.889  14.124  0.9307 -0.0712  0.1478
  826MPD2    C212148   1.137   4.006  14.160 -0.0232  0.2635 -0.0314
  826MPD2    C312149   1.007   3.990  14.220 -0.5391 -1.0669 -0.8579
  826MPD2    C412150   0.950   3.866  14.232  0.6711  0.2176  0.0152
  826MPD2    C512151   1.019   3.758  14.193 -0.2606 -0.5900  0.4451
  826MPD2     H12152   1.180   4.104  14.138 -2.6740  1.0799 -1.5184
  826MPD2    H112153   0.853   3.854  14.279  1.3447 -1.4341  0.9670
  826MPD2    H212154   1.188   3.674  14.120  0.7125  0.1949 -1.1689
  826MPD2    H312155   0.978   3.658  14.207  0.6880 -0.7409  2.1625
  826MPD2     N12156   0.926   4.095  14.271  0.0595 -0.2074  0.5551
  826MPD2    H512157   0.828   4.079  14.291  0.1486 -0.5599  0.7114
  826MPD2    N112158   1.330   3.901  14.059  0.2569  0.3364  0.4213
  826MPD2    H712159   1.383   3.816  14.043 -1.4869 -1.1092  2.4456
  827MPD2     C12160   1.808   0.928  10.294  0.4945 -0.8289 -1.0443
  827MPD2    C112161   1.755   0.861  10.400 -0.0967  1.0786  0.2592
  827MPD2    C212162   1.634   0.804  10.388  0.5797  0.8015 -0.0091
  827MPD2    C312163   1.567   0.816  10.272  0.1937 -0.3111 -0.2124
  827MPD2    C412164   1.617   0.882  10.157 -0.4147  0.1864  0.2277
  827MPD2    C512165   1.744   0.935  10.177  0.1500  0.3041  0.0707
  827MPD2     H12166   1.584   0.749  10.467  1.6938 -1.9962 -1.2362
  827MPD2    H112167   1.576   0.873  10.057 -0.0785  1.5308 -0.0355
  827MPD2    H212168   1.907   0.972  10.305 -0.1780  0.1037  1.4325
  827MPD2    H312169   1.788   0.975  10.086 -0.5520  2.0704  0.5084
  827MPD2     N12170   1.431   0.772  10.274 -0.4248 -0.1073 -0.2375
  827MPD2    H512171   1.401   0.748  10.368 -1.3396 -0.8043 -0.7143
  827MPD2    N112172   1.842   0.845  10.514 -0.1960 -0.3729 -0.3823
  827MPD2    H712173   1.930   0.896  10.509 -0.8076  0.8716  1.7834
  828MPD2     C12174   0.849   0.683  12.785 -0.3681  0.1179  0.3516
  828MPD2    C112175   0.788   0.687  12.664  0.4633  0.1872 -0.2084
  828MPD2    C212176   0.868   0.687  12.550 -0.4952 -0.3882  0.2043
  828MPD2    C312177   1.008   0.679  12.557 -0.6193  0.3560 -0.3352
  828MPD2    C412178   1.058   0.690  12.686  0.1292 -0.0426 -0.1432
  828MPD2    C512179   0.978   0.692  12.794  0.1584  0.3909  0.3122
  828MPD2     H12180   0.820   0.675  12.454 -1.3460  1.1505  0.4314
  828MPD2    H112181   1.163   0.702  12.706  0.2024  0.6707 -0.9468
  828MPD2    H212182   0.794   0.675  12.878 -0.9625  0.8474  0.0714
  828MPD2    H312183   1.033   0.692  12.887 -1.7231 -1.3223  1.4293
  828MPD2     N12184   1.092   0.660  12.447  0.1909  0.9257  0.0899
  828MPD2    H512185   1.184   0.635  12.480  0.7236  1.8353 -0.6656
  828MPD2    N112186   0.646   0.701  12.649  0.1113  0.9197  0.4128
  828MPD2    H712187   0.623   0.720  12.552  1.5573 -0.3490 -0.1839
  829MPD2     C12188   4.646   1.008  12.039  0.1570  0.0305 -0.4195
  829MPD2    C112189   4.577   0.934  12.134  0.0042  0.2928  0.2589
  829MPD2    C212190   4.653   0.865  12.224  0.5032 -0.8059 -0.3075
  829MPD2    C312191   0.066   0.884  12.242 -0.3585  0.1648  0.3550
  829MPD2    C412192   0.134   0.958  12.150 -0.0288  0.0694  0.0581
  829MPD2    C512193   0.057   1.013  12.046  0.2943 -0.1079  0.0554
  829MPD2     H12194   4.600   0.802  12.295 -1.6817  1.1410 -0.2039
  829MPD2    H112195   0.241   0.971  12.139 -0.0150 -0.8979 -0.9801
  829MPD2    H212196   4.593   1.056  11.958 -3.5894  1.1745  2.7228
  829MPD2    H312197   0.103   1.074  11.970 -0.5460  1.8375  1.1030
  829MPD2     N12198   0.122   0.818  12.346 -0.1982  0.5064  0.5335
  829MPD2    H512199   0.071   0.746  12.397 -0.1104 -0.1679 -0.3237
  829MPD2    N112200   4.434   0.935  12.137 -0.1699  0.2069 -0.1890
  829MPD2    H712201   4.389   1.004  12.077 -1.6855 -1.3713 -0.8722
  830MPD2     C12202   4.692   2.920  15.697  0.2146 -1.0898 -0.2569
  830MPD2    C112203   4.619   3.022  15.766  0.4297 -0.1616 -0.1159
  830MPD2    C212204   4.554   3.121  15.697 -0.7147 -0.9148 -0.1665
  830MPD2    C312205   4.525   3.111  15.563  0.3672 -0.4752  0.6040
  830MPD2    C412206   4.602   3.012  15.495  0.7465  0.2873 -0.7720
  830MPD2    C512207   4.686   2.928  15.563 -0.2443 -0.2287 -0.0108
  830MPD2     H12208   4.503   3.191  15.762 -2.0593 -2.5595  0.5421
  830MPD2    H112209   4.578   2.993  15.391  0.1395  0.6486 -0.6959
  830MPD2    H212210   0.025   2.842  15.744  0.1802 -0.8315  0.2094
  830MPD2    H312211   0.005   2.849  15.502 -0.1157 -0.4316  0.3481
  830MPD2     N12212   4.428   3.190  15.497  0.1107 -0.2783  0.0648
  830MPD2    H512213   4.413   3.161  15.401  0.1849  1.9570 -0.6377
  830MPD2    N112214   4.614   3.030  15.904  0.4215  0.1759  0.4257
  830MPD2    H712215   4.559   3.106  15.943  1.5576  0.5213  1.3641
  831MPD2     C12216   0.163   0.378  16.549  0.3650  0.6460  0.0344
  831MPD2    C112217   0.220   0.277  16.468  0.2273  0.0653 -0.3083
  831MPD2    C212218   0.210   0.149  16.511  0.0874  0.1594  0.1046
  831MPD2    C312219   0.120   0.113  16.617  0.7485  0.3577 -0.1355
  831MPD2    C412220   0.079   0.213  16.694  0.4210 -0.3509  0.4236
  831MPD2    C512221   0.092   0.344  16.665  0.0062  0.1117  0.1356
  831MPD2     H12222   0.261   0.073  16.453  1.9678  0.5061  1.2661
  831MPD2    H112223   0.033   0.182  16.787 -0.0450 -0.7366  0.0621
  831MPD2    H212224   0.172   0.480  16.514  3.0582  0.7899  1.1476
  831MPD2    H312225   0.062   0.427  16.729 -0.2831  1.1730 -1.3821
  831MPD2     N12226   0.075   4.703  16.639 -1.2720  0.3286 -0.0554
  831MPD2    H512227   0.004   4.684  16.709  1.9569  1.5552  3.5538
  831MPD2    N112228   0.291   0.306  16.349  0.4393 -0.1189  0.0796
  831MPD2    H712229   0.273   0.390  16.295  0.6348  1.2676  2.1828
  832MPD2     C12230   3.175   2.234  17.397  0.9671  0.4598  0.2148
  832MPD2    C112231   3.220   2.103  17.404 -0.2841 -0.0786 -0.2988
  832MPD2    C212232   3.155   2.005  17.329 -0.2072 -0.5346 -0.0082
  832MPD2    C312233   3.056   2.039  17.239 -0.1781  0.6429 -0.3426
  832MPD2    C412234   3.017   2.173  17.226  0.4294 -0.2055  0.2152
  832MPD2    C512235   3.076   2.268  17.308 -0.4871 -0.2595 -0.4210
  832MPD2     H12236   3.182   1.901  17.336 -0.2018 -0.5210  0.1912
  832MPD2    H112237   2.950   2.200  17.145  1.1052  0.1154 -0.2342
  832MPD2    H212238   3.216   2.313  17.458  2.2645 -1.0652  1.3088
  832MPD2    H312239   3.047   2.372  17.305  0.0354 -0.1258 -0.7094
  832MPD2     N12240   2.988   1.945  17.161 -0.1274  0.0538  0.3266
  832MPD2    H512241   2.920   1.984  17.098  0.7815  0.3785 -0.4589
  832MPD2    N112242   3.336   2.083  17.479  0.1290  0.2498 -0.0306
  832MPD2    H712243   3.386   2.164  17.512  0.2479  0.6657 -1.2097
  833MPD2     C12244   0.855   3.174  12.440  0.2122  0.1773 -0.7888
  833MPD2    C112245   0.881   3.308  12.437  0.0941 -0.1131 -0.3497
  833MPD2    C212246   1.013   3.334  12.407 -0.5536  0.2727  0.2564
  833MPD2    C312247   1.107   3.237  12.382  0.6143 -0.5088 -0.1160
  833MPD2    C412248   1.071   3.101  12.382 -0.1952 -1.0127  0.6848
  833MPD2    C512249   0.943   3.073  12.418  0.1504  0.1560  0.2094
  833MPD2     H12250   1.051   3.435  12.394  1.1050 -0.3929 -0.0851
  833MPD2    H112251   1.142   3.023  12.360  1.0674  1.0564 -2.5027
  833MPD2    H212252   0.757   3.135  12.464  0.4064 -0.8393 -1.6696
  833MPD2    H312253   0.913   2.969  12.420  1.0216  0.0016  3.6911
  833MPD2     N12254   1.244   3.281  12.358  0.3262 -0.3957 -0.4213
  833MPD2    H512255   1.249   3.382  12.349 -0.9096 -0.2780  0.2345
  833MPD2    N112256   0.776   3.394  12.477 -0.6600  0.2861 -0.1283
  833MPD2    H712257   0.690   3.361  12.519  0.4618 -2.7688 -0.2269
  834MPD2     C12258   1.574   3.079  11.475 -0.8347  0.4820  0.2603
  834MPD2    C112259   1.497   3.008  11.569 -0.4617  0.1031  0.3451
  834MPD2    C212260   1.488   3.055  11.698 -0.2003  0.3466  0.2218
  834MPD2    C312261   1.560   3.165  11.737 -0.4779 -0.5169 -0.4265
  834MPD2    C412262   1.632   3.233  11.648  0.4118 -0.1191  0.4261
  834MPD2    C512263   1.638   3.188  11.514 -0.0668 -0.5881 -0.3035
  834MPD2     H12264   1.425   3.008  11.772 -0.9737  1.3574  0.2033
  834MPD2    H112265   1.688   3.324  11.667  2.7633 -1.4129 -0.2492
  834MPD2    H212266   1.580   3.049  11.371  0.5686  0.7476  0.2618
  834MPD2    H312267   1.694   3.252  11.446  0.9958 -1.5705 -0.3565
  834MPD2     N12268   1.542   3.210  11.871  0.5178  0.1158  0.1805
  834MPD2    H512269   1.479   3.152  11.926  0.0445 -1.0429 -1.5835
  834MPD2    N112270   1.432   2.892  11.530 -0.1925  0.1700 -0.0665
  834MPD2    H712271   1.455   2.869  11.434 -0.4429 -1.4679  0.2796
  835MPD2     C12272   1.335   0.742  11.756  0.8678  0.0351  0.6288
  835MPD2    C112273   1.214   0.763  11.818 -0.1996 -0.2828 -0.0251
  835MPD2    C212274   1.206   0.808  11.951 -0.4216  0.3085  0.2245
  835MPD2    C312275   1.325   0.842  12.015  1.1743  0.1935  0.2162
  835MPD2    C412276   1.445   0.839  11.941  0.3882  0.3018  0.7267
  835MPD2    C512277   1.450   0.781  11.814  0.5252 -0.1085 -0.1490
  835MPD2     H12278   1.109   0.806  12.000 -1.2739 -1.0557 -1.5508
  835MPD2    H112279   1.539   0.874  11.982  0.6719  0.2390  0.1252
  835MPD2    H212280   1.344   0.703  11.656  1.4707  0.8839  0.3492
  835MPD2    H312281   1.543   0.777  11.758 -0.2361 -0.5683 -1.3636
  835MPD2     N12282   1.337   0.888  12.147  0.1743 -0.0221  0.1808
  835MPD2    H512283   1.429   0.912  12.181 -0.5663  1.6464  1.0063
  835MPD2    N112284   1.094   0.750  11.742 -0.4118 -0.2845 -0.2160
  835MPD2    H712285   1.008   0.769  11.793  0.3603 -0.2847  1.0906
  836MPD2     C12286   0.707   1.094  12.431  0.1446 -0.4875 -0.6552
  836MPD2    C112287   0.785   1.076  12.544 -0.2534 -0.2556  0.0958
  836MPD2    C212288   0.731   1.053  12.669 -0.1411  0.5213 -0.2969
  836MPD2    C312289   0.597   1.050  12.692  0.1371 -0.0662 -0.3486
  836MPD2    C412290   0.520   1.083  12.579  0.0536 -0.4945  0.2098
  836MPD2    C512291   0.574   1.104  12.451 -0.3333 -0.2320 -0.4499
  836MPD2     H12292   0.801   1.016  12.742 -2.8781  0.0552  2.0934
  836MPD2    H112293   0.413   1.080  12.595  0.1938  0.3648  1.3389
  836MPD2    H212294   0.743   1.103  12.330  1.0173  0.9285 -0.2183
  836MPD2    H312295   0.494   1.114  12.378 -0.1523 -2.3354 -0.9452
  836MPD2     N12296   0.534   1.045  12.815  0.2074 -0.7509 -0.0210
  836MPD2    H512297   0.433   1.054  12.808  0.1795 -1.2177 -0.2540
  836MPD2    N112298   0.927   1.080  12.528 -0.4824 -1.1707 -0.0973
  836MPD2    H712299   0.960   1.081  12.432 -3.4031  0.7485 -1.1119
  837MPD2     C12300   4.100   0.664  10.039  0.5912  0.0588 -0.1217
  837MPD2    C112301   4.038   0.779  10.088  0.4081 -0.7004 -0.1353
  837MPD2    C212302   4.072   0.897  10.024 -0.7554  0.0745 -0.3831
  837MPD2    C312303   4.143   0.898   9.903  0.4972 -0.6868  0.9071
  837MPD2    C412304   4.193   0.781   9.849 -0.2389  0.3426 -0.1530
  837MPD2    C512305   4.162   0.661   9.915 -0.3836  0.3845 -0.9113
  837MPD2     H12306   4.040   0.992  10.064  0.9841  1.2211 -1.7187
  837MPD2    H112307   4.248   0.780   9.756 -0.8144 -0.2093 -0.4843
  837MPD2    H212308   4.080   0.567  10.084 -1.1233  0.0647 -0.8601
  837MPD2    H312309   4.194   0.562   9.883  1.2558 -0.2208  2.5143
  837MPD2     N12310   4.147   1.027   9.839 -0.3638 -0.4800  0.1912
  837MPD2    H512311   4.098   1.098   9.892  3.6457 -0.3344  3.7085
  837MPD2    N112312   3.952   0.781  10.202  0.7591  0.1256 -0.2882
  837MPD2    H712313   3.913   0.874  10.213 -0.0046  0.2327 -3.7344
  838MPD2     C12314   2.479   4.100  12.026 -0.4304  0.0169 -0.3402
  838MPD2    C112315   2.438   3.974  12.023 -0.0156 -0.2460 -0.2054
  838MPD2    C212316   2.304   3.958  12.063 -0.3234  0.2151  0.0422
  838MPD2    C312317   2.216   4.052  12.106 -0.1755  0.0078  0.9081
  838MPD2    C412318   2.261   4.184  12.088  0.2019  0.1668  0.1931
  838MPD2    C512319   2.394   4.207  12.048 -0.1489 -0.5977 -0.1492
  838MPD2     H12320   2.278   3.853  12.074  3.1748 -0.8829 -2.2025
  838MPD2    H112321   2.205   4.270  12.124 -2.0465 -0.7081 -1.1817
  838MPD2    H212322   2.577   4.132  11.992 -0.7956  1.9068  0.3761
  838MPD2    H312323   2.429   4.309  12.041 -1.6046 -0.1794 -1.5752
  838MPD2     N12324   2.101   4.003  12.173 -0.1744  0.1178 -0.1709
  838MPD2    H512325   2.088   3.903  12.184 -1.4281  0.0603 -2.1542
  838MPD2    N112326   2.524   3.868  11.979 -0.3963 -0.0075  0.5427
  838MPD2    H712327   2.488   3.774  11.987  3.2348 -1.6028 -1.5877
  839MPD2     C12328   2.362   3.053  12.027  0.1928  0.1392 -0.2617
  839MPD2    C112329   2.391   3.060  11.889 -0.3476  0.9347  0.5541
  839MPD2    C212330   2.474   3.168  11.849 -0.7113  0.3174 -0.4160
  839MPD2    C312331   2.514   3.263  11.941 -0.5605 -0.7024 -1.1942
  839MPD2    C412332   2.488   3.241  12.072 -0.0212 -0.0334 -0.5026
  839MPD2    C512333   2.418   3.135  12.118  0.3714 -0.2743 -0.4624
  839MPD2     H12334   2.511   3.167  11.748  0.2520 -0.4185 -0.0494
  839MPD2    H112335   2.536   3.302  12.148 -0.4904  0.6253 -0.7412
  839MPD2    H212336   2.304   2.969  12.065 -0.7305  0.6829 -0.4665
  839MPD2    H312337   2.403   3.117  12.224 -0.1784 -1.1819 -0.6942
  839MPD2     N12338   2.582   3.380  11.909 -0.9443 -0.2241 -0.6711
  839MPD2    H512339   2.604   3.441  11.987  0.1733  2.0262 -2.7426
  839MPD2    N112340   2.351   2.954  11.795  0.4113  0.1863 -0.3711
  839MPD2    H712341   2.392   2.952  11.702  2.1408  4.1332  0.3405
  840MPD2     C12342   2.365   1.116  10.521  0.4334 -0.4277 -0.4576
  840MPD2    C112343   2.377   1.049  10.638  0.3867  0.1934 -0.4527
  840MPD2    C212344   2.471   1.092  10.735 -0.3320  0.0150  0.3143
  840MPD2    C312345   2.568   1.183  10.700 -1.0418  0.3062  0.1049
  840MPD2    C412346   2.568   1.238  10.571 -0.0790 -0.3907  0.2406
  840MPD2    C512347   2.466   1.205  10.491  0.4896  0.5644 -0.0388
  840MPD2     H12348   2.457   1.057  10.837  1.1398  1.3136  0.9529
  840MPD2    H112349   2.626   1.322  10.536 -0.1149  0.2548  1.7473
  840MPD2    H212350   2.283   1.099  10.452  0.6530  0.3940 -0.9210
  840MPD2    H312351   2.448   1.270  10.406 -0.2523  0.9672  0.4217
  840MPD2     N12352   2.667   1.238  10.787  0.3271 -0.3047 -0.3327
  840MPD2    H512353   2.723   1.311  10.744  1.4022 -1.7673 -1.4816
  840MPD2    N112354   2.270   0.960  10.681 -0.3597  0.0419  0.3121
  840MPD2    H712355   2.196   0.944  10.614  1.2079 -1.3824 -1.0879
  841MPD2     C12356   1.857   0.669  15.313  0.5117 -0.1381  0.4848
  841MPD2    C112357   1.876   0.644  15.184  0.1309 -0.2354 -0.2123
  841MPD2    C212358   1.877   0.744  15.094  0.6095 -0.0190  0.4322
  841MPD2    C312359   1.864   0.875  15.129  1.5672  0.2277  0.4975
  841MPD2    C412360   1.841   0.898  15.264 -0.0921 -0.2767  0.1375
  841MPD2    C512361   1.836   0.793  15.357  0.9285  0.6770  0.6474
  841MPD2     H12362   1.910   0.717  14.995 -0.5888 -1.9692  0.5746
  841MPD2    H112363   1.820   1.000  15.294 -1.2901 -0.0702 -1.4146
  841MPD2    H212364   1.848   0.588  15.384 -0.1775  1.1416  1.8388
  841MPD2    H312365   1.812   0.822  15.459  0.0920  0.6978  0.4402
  841MPD2     N12366   1.882   0.978  15.031  0.6678 -0.2211 -0.0264
  841MPD2    H512367   1.906   0.935  14.942  3.0724 -1.7343  1.3438
  841MPD2    N112368   1.903   0.517  15.131  0.1397 -0.0099  0.0011
  841MPD2    H712369   1.898   0.503  15.031  0.6434  0.6673 -0.1190
  842MPD2     C12370   2.581   1.973  17.168  0.6506  0.3171  0.4697
  842MPD2    C112371   2.512   1.860  17.132 -0.2694 -0.4776 -0.8643
  842MPD2    C212372   2.515   1.758  17.222  0.7841  0.7862 -0.5574
  842MPD2    C312373   2.584   1.756  17.342 -0.6276  0.2280 -0.0537
  842MPD2    C412374   2.667   1.854  17.364 -0.1482 -0.0706 -0.8777
  842MPD2    C512375   2.666   1.967  17.281 -0.0632 -0.0745  0.1877
  842MPD2     H12376   2.432   1.691  17.205  0.2258  0.8921  1.6857
  842MPD2    H112377   2.735   1.852  17.448  0.6270 -2.6030 -1.5793
  842MPD2    H212378   2.583   2.068  17.116  1.0565  0.9518  1.6339
  842MPD2    H312379   2.730   2.051  17.305  1.7606 -1.0750 -1.2124
  842MPD2     N12380   2.564   1.661  17.440  0.0540  0.0605 -0.2704
  842MPD2    H512381   2.599   1.680  17.533 -1.9758 -1.8277  0.8993
  842MPD2    N112382   2.443   1.861  17.004  0.0475 -0.3343  0.3985
  842MPD2    H712383   2.439   1.952  16.958  2.1053 -1.4008 -1.8989
  843MPD2     C12384   0.473   1.187   1.508  0.4028 -0.1829  0.2696
  843MPD2    C112385   0.388   1.287   1.478 -0.7482  0.9812  0.1937
  843MPD2    C212386   0.372   1.330   1.344  0.0747  0.4160  0.2477
  843MPD2    C312387   0.457   1.286   1.251 -0.3953 -0.3388 -0.0994
  843MPD2    C412388   0.542   1.194   1.287 -0.0698 -1.2149  0.2858
  843MPD2    C512389   0.550   1.136   1.409  0.1159 -0.2832  0.5672
  843MPD2     H12390   0.298   1.405   1.318  0.6614  1.0579  0.4487
  843MPD2    H112391   0.604   1.139   1.217 -0.7714  1.6670 -2.6097
  843MPD2    H212392   0.476   1.136   1.604 -1.3761 -1.9162 -0.6026
  843MPD2    H312393   0.624   1.058   1.425 -1.3919 -1.5609  1.2406
  843MPD2     N12394   0.465   1.328   1.118 -0.2700 -0.3566  0.0312
  843MPD2    H512395   0.548   1.294   1.071  1.8810  1.9510  2.1867
  843MPD2    N112396   0.308   1.332   1.585  0.3563 -0.4146 -0.4585
  843MPD2    H712397   0.309   1.268   1.664  2.6103  0.5354  0.2677
  844MPD2     C12398   2.916   1.182  16.887  0.7971 -0.3621  0.2627
  844MPD2    C112399   3.008   1.238  16.802  0.2601  0.8174  1.2464
  844MPD2    C212400   3.085   1.343  16.854  0.1112  0.3716  0.1425
  844MPD2    C312401   3.080   1.377  16.990 -0.2095 -0.1594 -0.6226
  844MPD2    C412402   2.997   1.312  17.076 -1.0322 -0.7938  0.3314
  844MPD2    C512403   2.915   1.216  17.021  0.2181  0.1780  0.9208
  844MPD2     H12404   3.155   1.402  16.797  1.3887  0.5445  1.8801
  844MPD2    H112405   2.979   1.343  17.179 -0.6834 -0.7087  0.3663
  844MPD2    H212406   2.850   1.104  16.851  1.6904  0.2574 -2.7133
  844MPD2    H312407   2.832   1.180  17.081 -0.8265  1.0508 -0.0033
  844MPD2     N12408   3.165   1.482  17.040 -0.1277  0.1628  0.1112
  844MPD2    H512409   3.209   1.545  16.974  0.0651  1.0274  1.0600
  844MPD2    N112410   3.027   1.204  16.668 -0.2770  0.8846 -0.3962
  844MPD2    H712411   3.072   1.273  16.608  1.0251 -0.6106 -1.1362
  845MPD2     C12412   3.249   2.321  16.981 -0.3132  0.1499 -0.0706
  845MPD2    C112413   3.333   2.302  17.091 -0.0617 -0.2866  0.0446
  845MPD2    C212414   3.373   2.172  17.113 -0.2740 -0.5127 -0.3137
  845MPD2    C312415   3.324   2.072  17.039  0.7124 -0.0893  0.4837
  845MPD2    C412416   3.236   2.094  16.935  0.0957 -0.9207 -0.2813
  845MPD2    C512417   3.195   2.217  16.909  0.5525 -0.0285 -0.2861
  845MPD2     H12418   3.443   2.155  17.194 -0.3810  1.3030  0.1680
  845MPD2    H112419   3.189   2.017  16.875  1.7166 -1.4192 -0.9274
  845MPD2    H212420   3.229   2.422  16.944  0.7077  0.4307  0.1461
  845MPD2    H312421   3.118   2.240  16.836  0.3274 -0.8118 -0.2972
  845MPD2     N12422   3.356   1.937  17.064 -0.3613  0.7199 -0.8659
  845MPD2    H512423   3.310   1.869  17.004  1.1270 -0.7391 -0.3464
  845MPD2    N112424   3.371   2.416  17.159  0.3807  0.3821 -0.1461
  845MPD2    H712425   3.315   2.498  17.140  0.2170  0.5214  0.9153
  846MPD2     C12426   0.192   2.793  13.590 -0.0168 -0.0754 -0.5128
  846MPD2    C112427   0.120   2.900  13.621  0.1689 -0.5505 -0.3578
  846MPD2    C212428   0.049   2.900  13.740  0.2268  0.0040  0.0679
  846MPD2    C312429   0.059   2.802  13.835  0.2151 -0.5263 -0.4542
  846MPD2    C412430   0.132   2.693  13.802 -0.9299 -0.1180  0.2321
  846MPD2    C512431   0.197   2.689  13.677  0.6725 -0.9376  1.1659
  846MPD2     H12432   4.713   2.987  13.764 -1.1176 -0.6596 -0.9052
  846MPD2    H112433   0.137   2.608  13.870  0.7574 -1.4140 -1.4994
  846MPD2    H212434   0.252   2.790  13.499 -0.6412  1.9336 -0.9731
  846MPD2    H312435   0.254   2.601  13.649  0.0381 -0.5233 -1.3895
  846MPD2     N12436   4.709   2.814  13.955 -0.1568 -0.7688  0.2789
  846MPD2    H512437   4.651   2.897  13.966  2.7659  0.9016  3.4628
  846MPD2    N112438   0.129   3.016  13.546 -0.0671  0.7101 -0.4154
  846MPD2    H712439   0.092   3.099  13.591 -2.3530 -1.2402  1.3725
  847MPD2     C12440   0.803   4.013  14.589  0.0063  0.5107  0.3321
  847MPD2    C112441   0.677   3.952  14.583 -0.0923 -0.5195  0.1123
  847MPD2    C212442   0.671   3.816  14.571  0.6275  0.2554  0.0735
  847MPD2    C312443   0.783   3.738  14.552  0.7243 -0.4934 -0.3420
  847MPD2    C412444   0.902   3.797  14.566 -0.1327  0.3397  0.2328
  847MPD2    C512445   0.916   3.926  14.582  0.2342 -0.0355 -0.9025
  847MPD2     H12446   0.573   3.768  14.566  0.6004  0.3978 -0.8665
  847MPD2    H112447   0.992   3.736  14.574 -2.1289 -2.5499  0.4516
  847MPD2    H212448   0.835   4.112  14.619  1.3032  0.9867 -2.5551
  847MPD2    H312449   1.015   3.966  14.565 -0.5861  2.5174  0.3389
  847MPD2     N12450   0.774   3.599  14.526 -0.3914  0.2699  0.1762
  847MPD2    H512451   0.848   3.536  14.556 -1.6651 -1.3894 -0.1707
  847MPD2    N112452   0.560   4.020  14.620 -0.0965  0.1381  0.5645
  847MPD2    H712453   0.482   3.969  14.660 -0.9589  2.4268  1.7964
  848MPD2     C12454   2.642   1.917  16.530  0.2538 -0.1602  0.4899
  848MPD2    C112455   2.731   1.978  16.629  0.1426 -0.9925 -0.6380
  848MPD2    C212456   2.774   2.108  16.609  0.0370 -1.0185  0.1416
  848MPD2    C312457   2.747   2.177  16.492 -0.3160 -0.2442  0.0641
  848MPD2    C412458   2.677   2.117  16.392  0.0786  0.0019  0.5074
  848MPD2    C512459   2.616   1.996  16.419 -0.9771 -0.1197  0.7171
  848MPD2     H12460   2.824   2.153  16.694 -1.6061 -1.2549  1.2407
  848MPD2    H112461   2.636   2.173  16.309 -3.4214 -1.0262  1.5473
  848MPD2    H212462   2.599   1.818  16.535 -2.2569  1.0312  2.3074
  848MPD2    H312463   2.541   1.955  16.352 -1.9192  3.3358 -0.3728
  848MPD2     N12464   2.798   2.306  16.462  0.3777  0.3069  0.4250
  848MPD2    H512465   2.770   2.350  16.375  0.2118 -1.0827 -0.2332
  848MPD2    N112466   2.758   1.907  16.750 -0.0716  0.0338  0.3128
  848MPD2    H712467   2.795   1.961  16.827 -0.9901  1.0355  0.0416
  849MPD2     C12468   2.175   1.821  14.235 -0.6223 -0.7760  0.3049
  849MPD2    C112469   2.274   1.726  14.240 -0.8523 -0.1059 -0.1233
  849MPD2    C212470   2.253   1.625  14.321  0.2462 -0.1828  0.2410
  849MPD2    C312471   2.133   1.608  14.391 -0.1533  0.2690  0.3852
  849MPD2    C412472   2.043   1.710  14.401  0.3851  0.4709  0.3264
  849MPD2    C512473   2.060   1.809  14.307  0.1394 -0.0680 -0.2706
  849MPD2     H12474   2.333   1.552  14.324  0.7441  0.3699  0.3773
  849MPD2    H112475   1.960   1.710  14.470 -0.0148  1.0738 -0.1512
  849MPD2    H212476   2.179   1.905  14.166  0.5735 -2.1465 -1.3076
  849MPD2    H312477   1.997   1.895  14.322 -0.2290 -0.6975  1.7351
  849MPD2     N12478   2.098   1.496  14.462  0.3017 -0.0428 -0.2324
  849MPD2    H512479   1.998   1.495  14.478  0.4887 -0.7560  0.8982
  849MPD2    N112480   2.402   1.734  14.181 -0.2199  0.5230  0.4723
  849MPD2    H712481   2.482   1.679  14.212  0.6296  0.6197 -1.5600
  850MPD2     C12482   0.662   3.953  15.182 -0.7746 -0.3842 -0.3234
  850MPD2    C112483   0.651   4.037  15.286 -0.4707  0.4163 -1.3066
  850MPD2    C212484   0.751   4.135  15.297 -0.0955 -0.1978  0.5660
  850MPD2    C312485   0.853   4.158  15.204 -1.2772  0.5629 -0.2334
  850MPD2    C412486   0.860   4.070  15.097  0.5467 -0.1361 -0.2827
  850MPD2    C512487   0.760   3.970  15.086  0.9493  0.1731  0.4460
  850MPD2     H12488   0.748   4.192  15.389 -0.0965 -0.5921  0.8114
  850MPD2    H112489   0.943   4.072  15.028  0.1216 -0.3217 -0.7976
  850MPD2    H212490   0.588   3.875  15.175 -1.2846 -0.1384  2.3299
  850MPD2    H312491   0.755   3.908  14.997 -3.4825  0.0632  0.8102
  850MPD2     N12492   0.950   4.263  15.205  0.0277  0.5992 -0.9055
  850MPD2    H512493   1.013   4.267  15.126  1.8183  0.3672  0.5077
  850MPD2    N112494   0.546   4.020  15.376  0.0427 -0.4161 -0.6015
  850MPD2    H712495   0.476   3.955  15.343  0.3703 -0.4792 -1.1829
  851MPD2     C12496   0.044   3.774  15.108  0.4672 -0.3172  0.3594
  851MPD2    C112497   4.723   3.808  15.233  0.2264  0.6128  0.8375
  851MPD2    C212498   4.608   3.744  15.277 -0.3572  0.7601  0.4594
  851MPD2    C312499   4.539   3.660  15.195  0.2260  0.8546  0.2410
  851MPD2    C412500   4.591   3.623  15.076  0.3580  0.5178 -0.1744
  851MPD2    C512501   4.704   3.684  15.029 -0.0459 -0.2046  0.2923
  851MPD2     H12502   4.561   3.767  15.372  2.2809  1.1930  1.6568
  851MPD2    H112503   4.542   3.552  15.011  0.2017  1.4370 -1.0688
  851MPD2    H212504   0.128   3.828  15.065  0.2561 -0.2616  0.0202
  851MPD2    H312505   0.026   3.641  14.941 -1.2079  1.8315 -1.2935
  851MPD2     N12506   4.420   3.608  15.245  0.0866  0.2708 -0.4705
  851MPD2    H512507   4.403   3.646  15.338  0.6262  1.5765 -0.9142
  851MPD2    N112508   0.083   3.892  15.308  0.1965 -0.0333  0.0576
  851MPD2    H712509   0.153   3.950  15.262 -0.2924  0.2809 -0.2979
  852MPD2     C12510   0.629   2.531  10.272 -0.4719 -0.1219 -0.3890
  852MPD2    C112511   0.634   2.665  10.281 -0.1929 -0.2074  0.3213
  852MPD2    C212512   0.743   2.732  10.230  0.0399  0.5364  0.0801
  852MPD2    C312513   0.843   2.666  10.169 -0.0535 -0.0300 -0.3922
  852MPD2    C412514   0.841   2.528  10.159  0.8521  0.7941 -0.5643
  852MPD2    C512515   0.725   2.466  10.207  0.3686 -0.5339  0.5292
  852MPD2     H12516   0.750   2.837  10.256 -1.0606  0.7777 -0.6144
  852MPD2    H112517   0.914   2.468  10.107  0.8423  0.8779 -0.6753
  852MPD2    H212518   0.540   2.473  10.293 -0.0831 -0.5414  0.0925
  852MPD2    H312519   0.723   2.358  10.216 -0.8188 -0.6571 -1.2599
  852MPD2     N12520   0.958   2.741  10.135  0.6650  0.5036 -0.1048
  852MPD2    H512521   0.958   2.840  10.155  2.4941  1.1173 -3.1149
  852MPD2    N112522   0.521   2.741  10.325 -0.1446 -0.0258 -1.6496
  852MPD2    H712523   0.529   2.842  10.323 -0.6294  0.0762  2.9032
  853MPD2     C12524   2.402   2.450  12.431 -0.0398 -0.0145 -0.1330
  853MPD2    C112525   2.271   2.437  12.466 -0.3017 -0.3569 -0.0164
  853MPD2    C212526   2.189   2.345  12.391  0.0042  0.4930  0.3753
  853MPD2    C312527   2.241   2.272  12.288 -0.0339 -0.2390 -0.0252
  853MPD2    C412528   2.376   2.288  12.255 -0.5247 -0.5435  0.1331
  853MPD2    C512529   2.459   2.371  12.338 -0.1638 -0.4576  0.3635
  853MPD2     H12530   2.085   2.338  12.420 -0.6178  1.4608 -1.6207
  853MPD2    H112531   2.423   2.237  12.172  1.0787  1.0429  0.0702
  853MPD2    H212532   2.474   2.513  12.481 -1.3318 -0.4259  2.2833
  853MPD2    H312533   2.563   2.372  12.310 -0.3164 -1.7354 -0.2515
  853MPD2     N12534   2.158   2.192  12.207 -0.1498  0.2326 -0.3992
  853MPD2    H512535   2.218   2.137  12.147 -0.3584 -0.4802  0.0463
  853MPD2    N112536   2.218   2.527  12.569 -0.4706 -0.3314  0.7112
  853MPD2    H712537   2.284   2.591  12.610 -0.8886  1.0362 -0.7428
  854MPD2     C12538   3.432   2.178  12.901  0.3276 -0.8191  0.1843
  854MPD2    C112539   3.513   2.218  12.802  0.3354 -0.6031 -0.1603
  854MPD2    C212540   3.646   2.182  12.801  0.1627  0.2541  0.4600
  854MPD2    C312541   3.697   2.094  12.897  0.3383 -0.4288  0.1591
  854MPD2    C412542   3.615   2.058  12.997  0.1534 -0.3662 -0.3114
  854MPD2    C512543   3.485   2.105  12.999 -0.7117  0.2102  0.4421
  854MPD2     H12544   3.703   2.217  12.716  0.5381  0.6772  0.8862
  854MPD2    H112545   3.663   1.998  13.073  0.5435  0.3523  0.0025
  854MPD2    H212546   3.327   2.205  12.908  0.3847 -1.1761  2.3561
  854MPD2    H312547   3.422   2.067  13.079 -1.6889  0.4758 -0.2017
  854MPD2     N12548   3.823   2.042  12.897 -0.0879 -0.3427  0.4779
  854MPD2    H512549   3.853   1.996  12.983 -2.6409  0.1674  1.6361
  854MPD2    N112550   3.463   2.305  12.696 -0.2405  0.2476  0.2138
  854MPD2    H712551   3.363   2.321  12.699 -0.6044 -1.4595 -3.3990
  855MPD2     C12552   4.285   2.172  13.543  0.1096  0.2738 -0.7674
  855MPD2    C112553   4.237   2.039  13.538  0.5539 -0.4972 -0.2175
  855MPD2    C212554   4.210   1.989  13.415 -0.4997  0.5584  0.1539
  855MPD2    C312555   4.226   2.064  13.297 -0.7146  0.2351  0.2727
  855MPD2    C412556   4.276   2.195  13.305  0.3467 -0.3534 -0.2876
  855MPD2    C512557   4.304   2.245  13.434 -0.0576  0.2607  0.1237
  855MPD2     H12558   4.181   1.885  13.413  0.5682  0.2729 -0.3802
  855MPD2    H112559   4.287   2.261  13.221 -0.8865 -1.8341 -1.6184
  855MPD2    H212560   4.307   2.228  13.634  0.2754 -0.5784 -0.2831
  855MPD2    H312561   4.343   2.346  13.443  2.1039 -0.7153  1.8249
  855MPD2     N12562   4.212   2.013  13.164  0.4113  0.1145  0.2539
  855MPD2    H512563   4.237   2.085  13.096  1.2666 -0.5481 -0.1288
  855MPD2    N112564   4.211   1.966  13.660  0.0631 -0.2138 -0.1593
  855MPD2    H712565   4.176   1.873  13.640 -0.4732  0.4082 -2.1659
  856MPD2     C12566   1.495   2.416  14.438 -0.1467 -0.1165 -0.5873
  856MPD2    C112567   1.483   2.537  14.497  0.3096 -0.2040 -0.1004
  856MPD2    C212568   1.357   2.598  14.481  0.7807 -0.2635  0.3975
  856MPD2    C312569   1.252   2.555  14.397  0.1124 -0.3327 -0.4949
  856MPD2    C412570   1.265   2.428  14.344 -0.1563 -0.0517 -0.0907
  856MPD2    C512571   1.388   2.367  14.370  0.6064 -0.0231 -0.1725
  856MPD2     H12572   1.334   2.691  14.533 -0.3133  0.3668 -1.1941
  856MPD2    H112573   1.192   2.384  14.277 -1.0148 -0.3196  1.0279
  856MPD2    H212574   1.586   2.358  14.455 -1.2413 -1.4397  0.7633
  856MPD2    H312575   1.410   2.272  14.322 -1.2994 -1.3266  1.5236
  856MPD2     N12576   1.134   2.628  14.383  0.0264  1.2349  0.3406
  856MPD2    H512577   1.075   2.606  14.303  0.2233  0.1530  0.4893
  856MPD2    N112578   1.587   2.604  14.565  0.2125  0.1691 -0.6100
  856MPD2    H712579   1.568   2.698  14.598  2.0395  0.5557 -0.6781
  857MPD2     C12580   2.969   0.404  13.174  0.2411 -0.4033 -0.2826
  857MPD2    C112581   3.090   0.344  13.147  0.6876  0.8585  0.0474
  857MPD2    C212582   3.176   0.406  13.055  0.5878  0.4540  0.5382
  857MPD2    C312583   3.134   0.527  12.989 -0.7870  0.0224 -0.7092
  857MPD2    C412584   3.009   0.579  13.019  0.4513  0.2095  0.0202
  857MPD2    C512585   2.928   0.518  13.107  0.5967 -0.2331  0.3011
  857MPD2     H12586   3.275   0.365  13.036  0.4991  0.3390  0.3178
  857MPD2    H112587   2.969   0.668  12.971  0.2864  1.0861  1.7511
  857MPD2    H212588   2.891   0.354  13.231  1.0045  0.6130  1.6794
  857MPD2    H312589   2.824   0.549  13.116  0.8345  0.2522  1.3550
  857MPD2     N12590   3.225   0.594  12.907  0.1209 -1.0722 -0.1555
  857MPD2    H512591   3.320   0.559  12.905  0.6843  0.4892 -2.0712
  857MPD2    N112592   3.115   0.217  13.211 -0.2518  0.7589  0.0424
  857MPD2    H712593   3.036   0.157  13.234  1.3085 -1.0500  0.7137
  858MPD2     C12594   3.537   3.922  16.632  0.5082  1.1869  0.4110
  858MPD2    C112595   3.559   3.870  16.761  0.0087 -0.3564 -0.0260
  858MPD2    C212596   3.564   3.962  16.868  0.2307  0.0475  0.1438
  858MPD2    C312597   3.553   4.100  16.856 -0.0502 -0.1271  1.3881
  858MPD2    C412598   3.528   4.143  16.735  0.0433  0.0667 -0.1209
  858MPD2    C512599   3.524   4.058  16.626  0.0577 -0.1086  0.0253
  858MPD2     H12600   3.583   3.922  16.966  1.1090  1.7689  0.6593
  858MPD2    H112601   3.521   4.249  16.715 -0.8558  0.0746  0.2283
  858MPD2    H212602   3.529   3.871  16.537  1.3040 -0.8931  1.4683
  858MPD2    H312603   3.497   4.114  16.536  0.1779 -2.1174 -1.2591
  858MPD2     N12604   3.561   4.187  16.966 -0.2974 -0.4204 -0.5170
  858MPD2    H512605   3.582   4.284  16.944  2.0663 -1.0621 -1.1259
  858MPD2    N112606   3.564   3.726  16.786  0.1306  0.1188 -0.0262
  858MPD2    H712607   3.543   3.665  16.707 -1.0934  1.0575 -0.4271
  859MPD2     C12608   1.778   1.347  15.540  0.1174  0.3635 -0.6159
  859MPD2    C112609   1.917   1.353  15.543  0.5048  0.0037  0.2785
  859MPD2    C212610   1.983   1.237  15.574  0.8420  0.1390  0.1051
  859MPD2    C312611   1.918   1.111  15.584 -0.2757 -0.1892 -0.6801
  859MPD2    C412612   1.779   1.113  15.591 -0.0696  0.0396 -0.2841
  859MPD2    C512613   1.715   1.227  15.568 -0.1111 -0.0498 -0.0740
  859MPD2     H12614   2.092   1.237  15.574  0.8457  0.0301 -0.5368
  859MPD2    H112615   1.733   1.016  15.605 -0.3829 -0.0673 -2.0893
  859MPD2    H212616   1.723   1.431  15.499 -0.3709 -1.1254 -3.0347
  859MPD2    H312617   1.609   1.220  15.549 -0.7726  1.6353  3.0551
  859MPD2     N12618   1.987   0.986  15.585  0.0188 -0.2122  0.0955
  859MPD2    H512619   1.931   0.909  15.618 -1.0613 -0.0585 -1.3490
  859MPD2    N112620   1.986   1.480  15.525  0.2342  0.0994  0.4052
  859MPD2    H712621   1.930   1.557  15.492  0.6117  0.5509  0.8206
  860MPD2     C12622   0.559   2.013  11.600 -0.3024  0.0749  0.3245
  860MPD2    C112623   0.568   2.062  11.733 -1.2122  0.2644 -0.0887
  860MPD2    C212624   0.453   2.099  11.797  0.5042 -0.1999  0.5999
  860MPD2    C312625   0.328   2.092  11.727 -0.1022 -0.0737 -0.3011
  860MPD2    C412626   0.324   2.039  11.596 -0.7461 -0.2777 -1.6197
  860MPD2    C512627   0.440   1.996  11.534 -0.0315  0.1382 -0.0953
  860MPD2     H12628   0.456   2.138  11.898 -0.5101  0.7170  0.2699
  860MPD2    H112629   0.237   2.047  11.533 -2.5733 -1.8380  0.7100
  860MPD2    H212630   0.644   1.980  11.542 -1.3480 -3.6148  0.8919
  860MPD2    H312631   0.437   1.982  11.426 -0.3795 -1.1463  0.0861
  860MPD2     N12632   0.209   2.128  11.800 -0.3057  0.1419 -0.0967
  860MPD2    H512633   0.217   2.167  11.893  0.2084 -0.0171 -0.0743
  860MPD2    N112634   0.681   2.060  11.816 -0.2453  0.4085 -0.2770
  860MPD2    H712635   0.669   2.090  11.912  1.0281  0.8142 -0.2494
  861MPD2     C12636   3.733   0.733  11.295  0.3422  0.0248  0.0862
  861MPD2    C112637   3.631   0.667  11.363  0.3944 -0.5760 -0.9556
  861MPD2    C212638   3.499   0.674  11.312  0.3243 -0.5014  0.0836
  861MPD2    C312639   3.477   0.739  11.189  1.2304 -0.4340 -0.2091
  861MPD2    C412640   3.575   0.799  11.121 -0.2454 -0.0685 -0.1427
  861MPD2    C512641   3.703   0.792  11.176 -0.0073  0.0134 -0.3728
  861MPD2     H12642   3.422   0.631  11.375  0.0939  1.9266  1.4228
  861MPD2    H112643   3.556   0.857  11.032 -1.9522  0.2197  0.4166
  861MPD2    H212644   3.837   0.736  11.327  0.7812 -0.2440 -1.2971
  861MPD2    H312645   3.781   0.848  11.128 -2.0950  2.7623 -0.5474
  861MPD2     N12646   3.348   0.754  11.140  0.5977  0.0227  0.3776
  861MPD2    H512647   3.338   0.816  11.059  0.7695  0.8841  1.0136
  861MPD2    N112648   3.655   0.600  11.485  0.0465  0.2744  0.3143
  861MPD2    H712649   3.573   0.564  11.532 -0.5004  0.3190 -0.6160
  862MPD2     C12650   2.639   0.324  11.033  0.1444  0.0871  0.1481
  862MPD2    C112651   2.762   0.316  11.097  0.0818 -0.4826 -0.6056
  862MPD2    C212652   2.827   0.189  11.107  0.7330  0.3291 -0.0141
  862MPD2    C312653   2.767   0.074  11.062 -0.0886 -0.7247 -0.4654
  862MPD2    C412654   2.642   0.081  11.002 -0.5749 -0.0788 -0.2461
  862MPD2    C512655   2.578   0.205  11.000  0.3585  0.3880 -0.2327
  862MPD2     H12656   2.926   0.195  11.151 -0.4972 -1.8161  2.9955
  862MPD2    H112657   2.586   4.719  10.966  0.1713 -0.0712 -1.4281
  862MPD2    H212658   2.584   0.417  11.026  0.1880  0.0861 -0.1719
  862MPD2    H312659   2.473   0.211  10.975  0.6058 -0.1668 -1.4410
  862MPD2     N12660   2.837   4.674  11.065  0.5586  0.4334 -0.1811
  862MPD2    H512661   2.797   4.593  11.019  0.5349  1.2310 -1.5681
  862MPD2    N112662   2.834   0.438  11.135  0.5774 -0.3321  0.0630
  862MPD2    H712663   2.932   0.426  11.156  0.4832 -1.1203  0.0834
  863MPD2     C12664   1.357   3.024  17.254 -0.8255 -0.4305 -0.6472
  863MPD2    C112665   1.442   3.122  17.199  0.0530 -0.1275 -0.0422
  863MPD2    C212666   1.571   3.121  17.234 -0.6648  0.4261 -0.4194
  863MPD2    C312667   1.618   3.025  17.322  0.4783 -0.0730  0.0535
  863MPD2    C412668   1.539   2.929  17.379 -0.2996  0.0812  0.8113
  863MPD2    C512669   1.401   2.930  17.350 -0.1962  0.0089  0.0257
  863MPD2     H12670   1.637   3.195  17.190  2.0298 -1.8070 -0.0888
  863MPD2    H112671   1.584   2.854  17.443 -0.6852 -1.4563 -0.7110
  863MPD2    H212672   1.250   3.024  17.236 -0.7043  3.6847 -1.3036
  863MPD2    H312673   1.328   2.873  17.407  0.6880 -0.6652  0.4782
  863MPD2     N12674   1.756   3.013  17.349 -0.0781 -0.0461  0.4211
  863MPD2    H512675   1.774   2.942  17.419 -0.9773  0.2497  0.9530
  863MPD2    N112676   1.384   3.209  17.101 -0.5145  0.1179  0.1891
  863MPD2    H712677   1.285   3.191  17.089 -0.6393  0.2702  1.0236
  864MPD2     C12678   2.322   4.243  17.655 -0.0796 -0.1984  0.5776
  864MPD2    C112679   2.332   4.236  17.515  0.1090  0.2324  0.3141
  864MPD2    C212680   2.367   4.347  17.440  0.1092  0.0418  0.3352
  864MPD2    C312681   2.416   4.458  17.501 -0.3002 -0.4617 -0.4150
  864MPD2    C412682   2.412   4.467  17.639  0.4454 -0.6001  0.7600
  864MPD2    C512683   2.365   4.361   0.013  0.1671  0.6923  0.3464
  864MPD2     H12684   2.372   4.349  17.332 -3.0918  1.3314  0.2047
  864MPD2    H112685   2.440   4.559  17.689 -0.8452 -1.4927  3.0985
  864MPD2    H212686   2.302   4.162   0.027  4.3741  0.1199  2.2394
  864MPD2    H312687   2.384   4.377   0.118 -0.8098 -1.9337  0.9219
  864MPD2     N12688   2.477   4.562  17.433 -0.4191  0.2006 -0.0341
  864MPD2    H512689   2.519   4.630  17.495 -1.5324  0.4819  0.3963
  864MPD2    N112690   2.302   4.108  17.460 -0.0636  0.3135 -0.3736
  864MPD2    H712691   2.253   4.045  17.523  1.6479  0.2734  0.9198
  865MPD2     C12692   2.857   0.016  16.452  0.0566 -0.2430  0.4485
  865MPD2    C112693   2.756   4.664  16.497  0.5678  0.0195  0.3381
  865MPD2    C212694   2.715   4.675  16.633  0.0166  0.2664  0.0484
  865MPD2    C312695   2.770   0.053  16.708  0.1595 -0.1667  0.0133
  865MPD2    C412696   2.871   0.136  16.661 -0.2842  0.1164 -0.4676
  865MPD2    C512697   2.912   0.112  16.530 -0.6759  0.2068  0.8973
  865MPD2     H12698   2.629   4.618  16.667 -0.3813  0.9769  0.2469
  865MPD2    H112699   2.906   0.223  16.715 -1.6500 -0.2667  1.0223
  865MPD2    H212700   2.899   4.717  16.355  0.2716 -0.1778  0.5246
  865MPD2    H312701   3.004   0.165  16.505  1.6890 -3.1912  2.4052
  865MPD2     N12702   2.736   0.083  16.844 -0.4136  0.2080 -0.2693
  865MPD2    H512703   2.780   0.161  16.892  0.8298  0.2892 -1.5416
  865MPD2    N112704   2.713   4.557  16.411 -0.0549  0.6482  0.3838
  865MPD2    H712705   2.739   4.557  16.313 -0.5840 -2.4985  0.2540
  866MPD2     C12706   3.946   0.721  12.022 -0.1176  0.7636 -0.0834
  866MPD2    C112707   3.978   0.772  11.897 -0.4379 -0.6563  1.3876
  866MPD2    C212708   3.892   0.857  11.834  0.7109 -0.2621 -0.5002
  866MPD2    C312709   3.768   0.875  11.889  1.1347 -0.4898  0.0279
  866MPD2    C412710   3.723   0.818  12.012  0.3488  0.5048  0.2623
  866MPD2    C512711   3.818   0.741  12.073 -0.2344  0.2864  0.1867
  866MPD2     H12712   3.931   0.904  11.744  0.7115 -0.7216 -0.7383
  866MPD2    H112713   3.629   0.830  12.066  0.1973 -0.1265  0.1444
  866MPD2    H212714   4.004   0.641  12.066 -1.4039  0.5568  1.2261
  866MPD2    H312715   3.790   0.679  12.157 -0.6959  0.1894 -0.0392
  866MPD2     N12716   3.661   0.938  11.817  0.1732  0.4151 -0.7182
  866MPD2    H512717   3.569   0.942  11.860  0.8596  2.7898  0.4993
  866MPD2    N112718   4.115   0.770  11.857 -0.2180 -0.5372 -1.0137
  866MPD2    H712719   4.132   0.824  11.773 -0.2301 -0.2581 -0.8388
  867MPD2     C12720   1.173   4.578  16.998  0.6766  0.2707 -0.0258
  867MPD2    C112721   1.179   4.467  17.085 -0.0976  1.0944  0.0908
  867MPD2    C212722   1.120   4.480  17.209 -0.3926  0.7007 -0.0731
  867MPD2    C312723   1.047   4.589  17.249  0.5715 -0.3190 -0.1312
  867MPD2    C412724   1.049   4.700  17.162  0.1994 -0.1827  0.1863
  867MPD2    C512725   1.109   4.693  17.043 -0.1073 -0.6985 -0.5192
  867MPD2     H12726   1.122   4.396  17.277 -0.4391  0.1978 -0.6873
  867MPD2    H112727   1.003   0.066  17.200  2.9902  0.7148  1.4742
  867MPD2    H212728   1.216   4.572  16.899 -2.0361  2.3406 -1.3435
  867MPD2    H312729   1.106   0.051  16.971  2.0089  1.5110  1.9334
  867MPD2     N12730   0.971   4.589  17.370  0.0025 -0.3520 -0.6666
  867MPD2    H512731   0.900   4.661  17.381  1.0759  0.5023  0.6041
  867MPD2    N112732   1.269   4.362  17.051  0.5713 -0.0155  0.1809
  867MPD2    H712733   1.304   4.358  16.956 -1.2500  0.2634 -0.5019
  868MPD2     C12734   3.190   3.570  13.330 -0.0672 -0.3488 -0.1982
  868MPD2    C112735   3.211   3.481  13.432 -0.0461  0.5951  0.2462
  868MPD2    C212736   3.121   3.493  13.539  0.0206  0.8845  0.2902
  868MPD2    C312737   3.003   3.566  13.522  0.5481  0.2371 -0.4003
  868MPD2    C412738   2.977   3.637  13.406  0.4259 -0.5169  0.3461
  868MPD2    C512739   3.071   3.638  13.312  0.5715 -0.2884  0.0341
  868MPD2     H12740   3.147   3.451  13.636 -1.3376 -2.3754 -0.7690
  868MPD2    H112741   2.882   3.686  13.389  1.4810  1.5399  0.2810
  868MPD2    H212742   3.263   3.578  13.251 -2.2498  0.3425 -2.1461
  868MPD2    H312743   3.065   3.708  13.229 -1.1051 -0.8861 -0.3635
  868MPD2     N12744   2.917   3.572  13.628 -0.3481  0.3984  0.5800
  868MPD2    H512745   2.946   3.524  13.713 -1.0303  1.8410  1.6409
  868MPD2    N112746   3.327   3.397  13.437  0.2120  0.0044  0.1589
  868MPD2    H712747   3.406   3.413  13.375  1.0781 -0.1828  1.1903
  869MPD2     C12748   3.676   1.880   2.828 -0.0944 -0.2242  0.1952
  869MPD2    C112749   3.738   1.777   2.751 -0.9789 -0.3542  0.0735
  869MPD2    C212750   3.781   1.798   2.630  0.0020 -0.2014  0.7031
  869MPD2    C312751   3.753   1.908   2.560 -0.0913 -0.3843 -0.5494
  869MPD2    C412752   3.681   2.006   2.626 -0.0323  0.5282 -0.4123
  869MPD2    C512753   3.648   1.999   2.761  0.3359 -0.1361  0.1477
  869MPD2     H12754   3.836   1.721   2.576  1.8345  1.4295  0.2508
  869MPD2    H112755   3.646   2.089   2.565  0.5284  1.0235 -0.0669
  869MPD2    H212756   3.642   1.864   2.930  0.4957  0.3421  0.4762
  869MPD2    H312757   3.594   2.079   2.809  0.8770  0.3045  0.0219
  869MPD2     N12758   3.782   1.929   2.417  0.4801  0.3117  0.0886
  869MPD2    H512759   3.734   2.008   2.376  0.1006  0.0772  0.0859
  869MPD2    N112760   3.752   1.656   2.828 -0.3773  0.2294  0.6879
  869MPD2    H712761   3.709   1.642   2.919 -0.7121  0.7512  0.6110
  870MPD2     C12762   3.382   1.292   1.575 -0.2816 -0.1629  0.1422
  870MPD2    C112763   3.475   1.245   1.488  0.3845  0.4589  0.5679
  870MPD2    C212764   3.446   1.242   1.352 -0.5488 -0.4993  0.0514
  870MPD2    C312765   3.315   1.273   1.314  0.3039  0.4956  0.1734
  870MPD2    C412766   3.220   1.314   1.401 -0.6770 -0.2928 -0.3974
  870MPD2    C512767   3.257   1.326   1.533  0.7470 -0.2242 -0.1382
  870MPD2     H12768   3.510   1.208   1.272  0.4717 -1.9692  1.5025
  870MPD2    H112769   3.117   1.335   1.375 -0.3708  1.5363 -0.1098
  870MPD2    H212770   3.412   1.305   1.678  0.5790 -1.8114  0.0973
  870MPD2    H312771   3.179   1.361   1.599  1.5733 -1.7367  1.6655
  870MPD2     N12772   3.287   1.248   1.181  0.2030  0.3548  0.6029
  870MPD2    H512773   3.362   1.198   1.134  1.6014  0.3464  2.8618
  870MPD2    N112774   3.599   1.210   1.539 -0.2044 -0.3548  0.8341
  870MPD2    H712775   3.614   1.203   1.639 -3.7284 -0.1712  1.3844
  871MPD2     C12776   0.343   4.300  16.755  0.5900 -0.3772  0.4640
  871MPD2    C112777   0.325   4.266  16.883 -0.6329  0.5380  0.6470
  871MPD2    C212778   0.345   4.132  16.911 -0.8216  0.3312  0.3032
  871MPD2    C312779   0.385   4.038  16.817  0.8173  0.7325  0.0484
  871MPD2    C412780   0.397   4.082  16.693 -0.7020 -0.9420  0.0755
  871MPD2    C512781   0.368   4.212  16.654  0.6106 -0.4115 -0.6427
  871MPD2     H12782   0.334   4.089  17.010  0.6407 -0.9338 -0.0863
  871MPD2    H112783   0.438   4.023  16.612  2.4341 -0.3395  1.2180
  871MPD2    H212784   0.325   4.399  16.714  0.7075 -0.9325 -0.9534
  871MPD2    H312785   0.392   4.248  16.555 -3.9781  1.7350 -0.9778
  871MPD2     N12786   0.427   3.911  16.853  0.2225 -0.2202 -0.5374
  871MPD2    H512787   0.391   3.884  16.944 -0.2268 -0.1013 -0.6802
  871MPD2    N112788   0.288   4.360  16.977 -0.1652  0.2732  0.2156
  871MPD2    H712789   0.284   4.457  16.948 -0.8425 -0.0866 -0.9278
  872MPD2     C12790   0.589   2.872  13.904  0.5042  0.8587  0.4489
  872MPD2    C112791   0.667   2.770  13.960  0.5168  0.1258  0.4357
  872MPD2    C212792   0.607   2.681  14.037  0.5562 -0.4617 -0.4615
  872MPD2    C312793   0.473   2.694  14.066  0.3444 -0.1507  0.0146
  872MPD2    C412794   0.392   2.771  13.987  0.8802  0.2826  0.3408
  872MPD2    C512795   0.451   2.874  13.916  0.3003  0.7257 -0.1701
  872MPD2     H12796   0.664   2.609  14.095 -0.8025  0.4068  1.9366
  872MPD2    H112797   0.286   2.757  13.998  1.0089  1.1295  2.6097
  872MPD2    H212798   0.624   2.953  13.842  1.9166 -0.3394 -0.3212
  872MPD2    H312799   0.404   2.958  13.868 -0.1039 -0.4049 -1.7405
  872MPD2     N12800   0.400   2.609  14.154  0.0937  0.4254 -0.0577
  872MPD2    H512801   0.298   2.612  14.152  0.0902  0.3192 -0.0488
  872MPD2    N112802   0.807   2.760  13.931 -0.1705  0.1284 -0.4043
  872MPD2    H712803   0.859   2.691  13.985 -0.3223 -0.0546 -0.4949
  873MPD2     C12804   1.717   2.034   0.887 -0.4181  0.6552 -0.0834
  873MPD2    C112805   1.834   2.054   0.968 -0.4552  0.0800 -1.5075
  873MPD2    C212806   1.937   1.966   0.959 -0.1881  0.1060  0.1067
  873MPD2    C312807   1.931   1.857   0.869  0.5015  0.1563  0.7949
  873MPD2    C412808   1.825   1.848   0.785  0.9674 -0.5734  1.0075
  873MPD2    C512809   1.714   1.934   0.786  0.0819 -0.8793 -0.2122
  873MPD2     H12810   2.026   1.969   1.020 -0.3897 -1.9994  0.4832
  873MPD2    H112811   1.807   1.754   0.732  0.9118  1.1712 -2.1035
  873MPD2    H212812   1.635   2.104   0.896 -0.7866 -0.2043  3.0822
  873MPD2    H312813   1.623   1.921   0.728 -0.1347 -0.2948 -0.0031
  873MPD2     N12814   2.027   1.754   0.868  0.2480  0.0219  0.1582
  873MPD2    H512815   2.008   1.685   0.797 -1.1953  0.7398 -0.1469
  873MPD2    N112816   1.831   2.154   1.067  0.3719 -0.0081  0.0976
  873MPD2    H712817   1.739   2.197   1.075  1.0901  1.4022  0.8895
  874MPD2     C12818   2.312   2.187  16.244  0.4186  0.2252 -0.4771
  874MPD2    C112819   2.337   2.186  16.381 -0.1743  0.2689 -0.4946
  874MPD2    C212820   2.411   2.290  16.436 -0.2953  0.3587 -0.2444
  874MPD2    C312821   2.454   2.395  16.359  0.0994 -0.5168 -0.1929
  874MPD2    C412822   2.415   2.395  16.227  0.4351 -0.0983 -0.3808
  874MPD2    C512823   2.355   2.289  16.165  0.3864 -0.0285  0.0966
  874MPD2     H12824   2.429   2.297  16.543  0.6151 -0.4980 -0.3515
  874MPD2    H112825   2.445   2.477  16.164  0.0200  1.1949  1.1037
  874MPD2    H212826   2.252   2.113  16.194 -2.7229  1.2491  1.8144
  874MPD2    H312827   2.332   2.290  16.060  2.6890 -0.7163 -0.4165
  874MPD2     N12828   2.534   2.495  16.424  0.7831 -0.0307 -0.2338
  874MPD2    H512829   2.560   2.477  16.520  2.7035 -0.0361 -0.7682
  874MPD2    N112830   2.289   2.071  16.455  0.3556 -0.4621 -0.2150
  874MPD2    H712831   2.244   1.995  16.405 -1.6644  0.9511 -0.5235
  875MPD2     C12832   3.851   0.389  14.705 -0.5065 -0.3338 -0.8841
  875MPD2    C112833   3.747   0.471  14.739  0.5156  0.1673 -0.6284
  875MPD2    C212834   3.768   0.565  14.841 -0.5005 -0.1718 -0.1449
  875MPD2    C312835   3.881   0.559  14.920  0.0543 -0.5521  0.4272
  875MPD2    C412836   3.968   0.460  14.892 -0.1647 -0.7951 -0.0256
  875MPD2    C512837   3.958   0.383  14.781  0.2313  0.3292  0.1042
  875MPD2     H12838   3.696   0.644  14.858  1.5037  1.8204 -0.8985
  875MPD2    H112839   4.063   0.462  14.945 -1.4342 -0.1329  2.2492
  875MPD2    H212840   3.845   0.321  14.621 -1.0245 -0.6637 -0.5810
  875MPD2    H312841   4.041   0.320  14.753 -0.7192 -1.1283  0.5387
  875MPD2     N12842   3.902   0.638  15.029  0.6161 -0.5590 -0.1344
  875MPD2    H512843   3.984   0.624  15.087 -0.4919 -0.7004  1.4068
  875MPD2    N112844   3.628   0.484  14.661 -0.4673 -0.3539  0.1556
  875MPD2    H712845   3.569   0.563  14.684  0.2593  0.5554 -1.0618
  876MPD2     C12846   2.205   1.565  16.112  0.1755 -0.0985  0.0950
  876MPD2    C112847   2.326   1.599  16.167  0.2124  0.1374 -0.5411
  876MPD2    C212848   2.356   1.524  16.280  0.4531  0.4503  0.1139
  876MPD2    C312849   2.279   1.418  16.326  0.1430  0.0399  0.0847
  876MPD2    C412850   2.159   1.397  16.261 -0.3300  0.1604 -0.4651
  876MPD2    C512851   2.115   1.476  16.164 -0.5406  0.6478 -0.5698
  876MPD2     H12852   2.446   1.548  16.335 -0.0103 -0.5805  1.3254
  876MPD2    H112853   2.088   1.318  16.285 -0.8140  0.0512 -2.2558
  876MPD2    H212854   2.162   1.631  16.038  0.7971  0.6423  0.4012
  876MPD2    H312855   2.019   1.458  16.117 -0.8062 -0.6456  0.4593
  876MPD2     N12856   2.324   1.334  16.431  0.0067  0.3580 -0.5391
  876MPD2    H512857   2.417   1.350  16.469 -0.4162 -0.5893  0.8510
  876MPD2    N112858   2.397   1.706  16.111  0.1946  0.6480 -0.1469
  876MPD2    H712859   2.346   1.763  16.044  0.2359 -0.0850 -0.8062
  877MPD2     C12860   2.195   2.168  15.638 -0.3524 -0.0655 -0.4554
  877MPD2    C112861   2.326   2.184  15.645 -0.5531 -0.2999  0.7838
  877MPD2    C212862   2.397   2.238  15.540  0.3184 -0.1222 -0.8412
  877MPD2    C312863   2.339   2.260  15.416  0.1652  0.3175  0.7899
  877MPD2    C412864   2.205   2.227  15.397 -0.2392 -0.4661  0.3562
  877MPD2    C512865   2.141   2.188  15.514 -0.4646 -0.0647 -0.0778
  877MPD2     H12866   2.505   2.250  15.542  0.6341 -3.3085  0.3900
  877MPD2    H112867   2.149   2.234  15.305  2.5180 -1.7364 -1.4030
  877MPD2    H212868   2.122   2.139  15.713 -1.0884 -1.1954 -1.6088
  877MPD2    H312869   2.034   2.177  15.503 -0.6030  0.7700  0.4624
  877MPD2     N12870   2.412   2.294  15.301  0.0325 -0.1973  0.1564
  877MPD2    H512871   2.358   2.300  15.215  0.3018 -1.3768 -0.0929
  877MPD2    N112872   2.407   2.161  15.752 -0.2600 -0.2407 -0.2285
  877MPD2    H712873   2.505   2.187  15.742 -0.7147  0.0867 -3.5775
  878MPD2     C12874   2.521   1.604  13.208 -0.1214  0.4916 -0.3780
  878MPD2    C112875   2.487   1.725  13.266 -0.0637 -0.6450 -0.2896
  878MPD2    C212876   2.509   1.746  13.399 -0.1901  0.5519 -0.0536
  878MPD2    C312877   2.569   1.655  13.477 -0.1511  0.2181  0.0472
  878MPD2    C412878   2.614   1.541  13.416 -0.0254  0.3975  0.4642
  878MPD2    C512879   2.595   1.519  13.284 -0.1273  0.6657  0.6526
  878MPD2     H12880   2.480   1.842  13.441  1.7623  0.6290  1.0886
  878MPD2    H112881   2.669   1.463  13.466 -1.0010 -0.0737  0.7882
  878MPD2    H212882   2.502   1.587  13.102 -0.2290  1.1525 -0.4665
  878MPD2    H312883   2.634   1.431  13.235  0.7308  1.1379  0.5038
  878MPD2     N12884   2.577   1.674  13.615  0.2894  0.2033 -0.8052
  878MPD2    H512885   2.548   1.762  13.657 -0.5551 -0.8701  0.8943
  878MPD2    N112886   2.416   1.819  13.178 -0.0522 -0.2663  0.7389
  878MPD2    H712887   2.393   1.787  13.084  1.7162 -2.3065  0.9981
  879MPD2     C12888   2.431   2.563  17.662  0.0774 -0.8421  0.0653
  879MPD2    C112889   2.488   2.616  17.547 -0.3808  0.5959  0.0073
  879MPD2    C212890   2.443   2.573  17.426 -0.4222 -0.6832 -0.2037
  879MPD2    C312891   2.350   2.464  17.417  0.7929  0.8952 -0.1911
  879MPD2    C412892   2.302   2.408  17.532 -0.3693  0.1627 -0.2698
  879MPD2    C512893   2.338   2.459  17.656 -0.1229 -0.3755 -0.3641
  879MPD2     H12894   2.495   2.599  17.334  2.7677  1.0093  2.0816
  879MPD2    H112895   2.243   2.317  17.535  0.1984 -0.2181 -0.7050
  879MPD2    H212896   2.450   2.599   0.065 -0.6804 -0.3003  0.0150
  879MPD2    H312897   2.291   2.411   0.043 -0.4689 -0.3858 -0.5616
  879MPD2     N12898   2.312   2.400  17.296  0.1798  0.3283 -0.1893
  879MPD2    H512899   2.249   2.321  17.305  1.3731 -0.5624  0.1602
  879MPD2    N112900   2.589   2.711  17.567  0.3010 -0.1748 -0.4947
  879MPD2    H712901   2.622   2.717  17.663 -0.4072  0.2544 -0.2806
  880MPD2     C12902   4.270   0.539   1.282  0.6613  0.0964  0.1039
  880MPD2    C112903   4.313   0.485   1.165 -0.2073 -0.0916 -0.6312
  880MPD2    C212904   4.417   0.395   1.167  0.0150 -0.5734 -0.4293
  880MPD2    C312905   4.469   0.364   1.289  0.6153  0.3232 -0.2940
  880MPD2    C412906   4.422   0.422   1.410  0.2872  0.8674  0.5661
  880MPD2    C512907   4.318   0.506   1.403  0.4137  0.0137 -0.5740
  880MPD2     H12908   4.448   0.346   1.075  2.8112  0.2609  0.0814
  880MPD2    H112909   4.467   0.409   1.507 -0.3689 -1.1049  0.5989
  880MPD2    H212910   4.192   0.615   1.287 -0.1372 -0.6758 -0.5506
  880MPD2    H312911   4.298   0.563   1.493 -2.5924 -1.0100 -0.5868
  880MPD2     N12912   4.571   0.267   1.284  0.3354 -0.1742  0.3864
  880MPD2    H512913   4.604   0.237   1.192 -0.6605  0.7014 -0.2596
  880MPD2    N112914   4.263   0.539   1.047 -0.3407  0.5088 -0.2264
  880MPD2    H712915   4.190   0.608   1.057  1.2162  1.3275  5.3631
  881MPD2     C12916   3.731   0.388   0.085 -0.4731 -0.4494 -0.7638
  881MPD2    C112917   3.844   0.321   0.135 -0.0732  0.2272  0.0780
  881MPD2    C212918   3.911   0.376   0.246  0.3172  0.1713  0.0662
  881MPD2    C312919   3.862   0.491   0.312  0.5052  0.2059 -0.4552
  881MPD2    C412920   3.749   0.548   0.262  0.9313  0.1413  0.3297
  881MPD2    C512921   3.680   0.499   0.150 -0.1499 -0.2188 -0.9350
  881MPD2     H12922   4.005   0.330   0.274 -1.0086 -2.4443  0.2393
  881MPD2    H112923   3.709   0.640   0.305 -1.1341 -1.3890  1.6530
  881MPD2    H212924   3.681   0.357  17.691  2.3946 -0.0228 -2.4559
  881MPD2    H312925   3.603   0.562   0.107 -1.5697 -2.5433 -1.7914
  881MPD2     N12926   3.921   0.544   0.435  0.0366 -0.1587  0.7953
  881MPD2    H512927   3.867   0.617   0.480  0.6168  0.4605  0.4837
  881MPD2    N112928   3.901   0.237   0.040 -0.0748  0.6272  0.2477
  881MPD2    H712929   3.847   0.224  17.652  0.2113 -0.8690  0.3070
  882MPD2     C12930   2.370   2.167  14.490 -0.2338  0.0613  0.2808
  882MPD2    C112931   2.312   2.215  14.613 -0.6767 -0.0490  0.1831
  882MPD2    C212932   2.173   2.226  14.635 -0.1996  1.2969  0.4740
  882MPD2    C312933   2.085   2.182  14.533 -0.1686 -0.1377 -0.3125
  882MPD2    C412934   2.143   2.153  14.408  0.1447 -0.1998  0.4906
  882MPD2    C512935   2.278   2.152  14.390  0.0391 -0.1503  0.2538
  882MPD2     H12936   2.134   2.244  14.735 -0.9212 -2.3162  0.8607
  882MPD2    H112937   2.078   2.127  14.326 -1.3760  2.9034  0.7289
  882MPD2    H212938   2.474   2.137  14.482 -0.8128 -2.6840  2.9417
  882MPD2    H312939   2.309   2.116  14.293 -2.0532 -1.1534 -0.0495
  882MPD2     N12940   1.944   2.172  14.545 -0.1550 -0.6705  0.1490
  882MPD2    H512941   1.893   2.147  14.461  1.0442  0.6071 -0.9634
  882MPD2    N112942   2.401   2.251  14.714 -0.2847  0.0838  0.2084
  882MPD2    H712943   2.499   2.230  14.702  0.0425  1.2426  0.9422
  883MPD2     C12944   4.268   2.433  16.661  0.0011  0.9229 -0.5750
  883MPD2    C112945   4.279   2.316  16.592  0.4018 -0.2632 -0.3136
  883MPD2    C212946   4.364   2.216  16.651 -0.6242 -0.0877 -0.1100
  883MPD2    C312947   4.424   2.235  16.770  0.3963  0.1006 -0.5955
  883MPD2    C412948   4.406   2.352  16.838  0.2678  0.2611 -0.3863
  883MPD2    C512949   4.332   2.452  16.780 -0.3068 -0.7680  0.0408
  883MPD2     H12950   4.394   2.121  16.609 -0.7564  0.0166 -0.4432
  883MPD2    H112951   4.447   2.373  16.936  0.2216  1.9528 -0.7214
  883MPD2    H212952   4.200   2.514  16.637 -0.9835  0.4143  0.4526
  883MPD2    H312953   4.323   2.548  16.831 -0.2385  0.3813 -2.1014
  883MPD2     N12954   4.499   2.124  16.818  0.1467 -0.0825 -0.3957
  883MPD2    H512955   4.517   2.044  16.758  0.0658 -1.3899  1.3090
  883MPD2    N112956   4.218   2.293  16.470 -0.2441  0.1787  0.2422
  883MPD2    H712957   4.246   2.204  16.430  0.1614 -0.2246  1.4544
  884MPD2     C12958   1.281   2.743  15.527 -0.2137 -0.5835  0.0751
  884MPD2    C112959   1.266   2.861  15.452 -0.3051 -0.1639 -0.0512
  884MPD2    C212960   1.157   2.946  15.477  0.4374  0.9193  0.4073
  884MPD2    C312961   1.053   2.895  15.562  0.2107  0.3361 -0.4277
  884MPD2    C412962   1.081   2.788  15.650 -0.0966  0.3079 -0.0718
  884MPD2    C512963   1.186   2.717  15.625  0.0454  0.8938  0.0915
  884MPD2     H12964   1.139   3.042  15.430  0.1495  0.4105 -0.5213
  884MPD2    H112965   1.011   2.753  15.726  0.0318  0.0149 -0.0873
  884MPD2    H212966   1.356   2.667  15.513  0.1572  0.2220 -2.2847
  884MPD2    H312967   1.208   2.634  15.691 -0.7681  1.3566  0.9424
  884MPD2     N12968   0.936   2.968  15.567  0.1457 -0.4412  0.3302
  884MPD2    H512969   0.934   3.054  15.514  2.7026 -0.4513  0.2254
  884MPD2    N112970   1.369   2.900  15.358  0.3684  0.1303  0.0110
  884MPD2    H712971   1.340   2.974  15.295  0.3228  0.3770  0.3223
  885MPD2     C12972   4.566   3.440   0.605 -0.1367 -0.2658 -0.2182
  885MPD2    C112973   4.567   3.302   0.590  0.6409 -0.7078  0.6241
  885MPD2    C212974   4.552   3.247   0.459  0.6012  0.1931 -0.1314
  885MPD2    C312975   4.548   3.330   0.350 -0.1383 -0.1010  0.0148
  885MPD2    C412976   4.546   3.467   0.370  0.1015  0.2220  0.2394
  885MPD2    C512977   4.551   3.520   0.496 -0.2665 -0.1568  0.1869
  885MPD2     H12978   4.548   3.140   0.444  0.7487  0.3558 -1.3097
  885MPD2    H112979   4.535   3.537   0.289  0.9808  0.0686 -0.0135
  885MPD2    H212980   4.577   3.480   0.705  0.8619 -2.0535  0.3698
  885MPD2    H312981   4.531   3.625   0.515  1.4255  0.5324 -1.8960
  885MPD2     N12982   4.543   3.291   0.217 -0.8016  0.8810  0.0438
  885MPD2    H512983   4.534   3.363   0.146 -1.1519 -1.1762 -2.0014
  885MPD2    N112984   4.585   3.221   0.707 -0.0481 -0.1392 -0.1133
  885MPD2    H712985   4.580   3.274   0.794 -0.8111  2.0849 -1.5352
  886MPD2     C12986   0.976   1.580  15.890 -0.3330  0.1794  0.2362
  886MPD2    C112987   1.054   1.538  15.785  0.2060 -0.5116 -0.1247
  886MPD2    C212988   1.083   1.619  15.679 -0.4099 -0.6865 -0.0899
  886MPD2    C312989   1.028   1.738  15.671 -0.2907 -0.4447 -0.4802
  886MPD2    C412990   0.936   1.779  15.767 -0.1760  0.0854  0.7196
  886MPD2    C512991   0.917   1.702  15.877  0.1106  0.0370  0.6660
  886MPD2     H12992   1.162   1.589  15.611  0.8126 -1.1828  1.5568
  886MPD2    H112993   0.883   1.874  15.770  0.4447  0.4067  1.8162
  886MPD2    H212994   0.932   1.519  15.968  0.0056  1.2571  1.2651
  886MPD2    H312995   0.848   1.736  15.954  0.6800  1.7626  0.4275
  886MPD2     N12996   1.065   1.820  15.560 -0.0009  0.2251 -0.0028
  886MPD2    H512997   1.129   1.778  15.493  1.2921  0.6948  0.9389
  886MPD2    N112998   1.133   1.419  15.805  0.1930  0.4811  0.0106
  886MPD2    H712999   1.214   1.413  15.744 -0.2467 -1.0527 -0.4310
  887MPD2     C13000   1.812   1.489  15.846  0.0867 -0.4929 -0.9637
  887MPD2    C113001   1.679   1.498  15.809 -0.5180 -0.2674 -0.4464
  887MPD2    C213002   1.635   1.613  15.743 -1.0143 -1.1192  0.9374
  887MPD2    C313003   1.728   1.713  15.715 -0.9960 -0.2114 -0.3476
  887MPD2    C413004   1.856   1.700  15.750 -0.2308 -0.0741 -0.2331
  887MPD2    C513005   1.896   1.581  15.805 -0.2730 -0.6587 -0.7284
  887MPD2     H13006   1.531   1.626  15.712 -0.0760  1.7741 -1.0545
  887MPD2    H113007   1.935   1.771  15.728 -1.0180  0.5245 -1.1463
  887MPD2    H213008   1.858   1.407  15.899 -3.2047  0.5916  3.5496
  887MPD2    H313009   2.002   1.562  15.821 -0.2578 -0.1171 -0.1461
  887MPD2     N13010   1.677   1.830  15.646  0.5583 -0.1716  0.6936
  887MPD2    H513011   1.581   1.824  15.614  0.5525 -1.5837  0.9764
  887MPD2    N113012   1.581   1.396  15.832 -0.6095  0.0516  1.0429
  887MPD2    H713013   1.491   1.423  15.793 -0.4243 -0.1512  0.4914
  888MPD2     C13014   3.426   1.958  14.800 -0.6852  0.0734 -1.1615
  888MPD2    C113015   3.527   1.999  14.891 -0.6645  0.3483  0.0681
  888MPD2    C213016   3.604   2.114  14.866  0.1273 -0.4964 -0.2120
  888MPD2    C313017   3.577   2.190  14.751  0.0008 -0.6412 -0.0707
  888MPD2    C413018   3.495   2.144  14.654  0.2122  0.3924 -0.1053
  888MPD2    C513019   3.419   2.027  14.682 -0.4926 -0.0972 -1.1335
  888MPD2     H13020   3.675   2.151  14.938  1.1315 -0.0737 -1.4288
  888MPD2    H113021   3.472   2.203  14.566 -0.3651  0.5211  0.1333
  888MPD2    H213022   3.369   1.867  14.812 -0.7381  0.3079  0.4157
  888MPD2    H313023   3.352   1.986  14.607 -2.1716  1.6450 -0.5946
  888MPD2     N13024   3.649   2.307  14.735 -0.1320  0.2583  0.7972
  888MPD2    H513025   3.702   2.335  14.817  1.0990  0.4384 -0.0447
  888MPD2    N113026   3.548   1.937  15.016 -0.1004 -0.5439 -0.3005
  888MPD2    H713027   3.618   1.974  15.079 -0.6942 -0.4194  0.2856
  889MPD2     C13028   3.394   1.365  12.631  0.2599 -0.1132  0.1358
  889MPD2    C113029   3.331   1.280  12.721  0.2138 -0.2245  0.2415
  889MPD2    C213030   3.239   1.339  12.802 -0.3071  0.9122  0.0894
  889MPD2    C313031   3.225   1.483  12.815  0.2391 -0.5340 -0.6451
  889MPD2    C413032   3.297   1.563  12.732  0.3147 -0.6504  0.2511
  889MPD2    C513033   3.380   1.503  12.637 -0.3011 -0.2815  0.7652
  889MPD2     H13034   3.191   1.271  12.871  1.1424  0.2877  0.4884
  889MPD2    H113035   3.293   1.670  12.750  3.3793 -0.1930 -1.6973
  889MPD2    H213036   3.470   1.329  12.563 -0.5970 -1.1291 -0.2964
  889MPD2    H313037   3.441   1.566  12.573  0.0805 -0.0134  1.3848
  889MPD2     N13038   3.130   1.532  12.912  1.1710 -0.2877 -0.8294
  889MPD2    H513039   3.087   1.470  12.980  1.9494 -0.0241 -0.0872
  889MPD2    N113040   3.331   1.138  12.698  0.7031 -0.3273 -0.3301
  889MPD2    H713041   3.285   1.081  12.769  1.2057 -1.3921 -0.8551
  890MPD2     C13042   2.588   2.793  14.815  0.5291  0.8409 -0.2899
  890MPD2    C113043   2.679   2.868  14.884  0.8721 -0.1074 -0.4656
  890MPD2    C213044   2.690   2.839  15.018  0.3766 -0.1869  0.2614
  890MPD2    C313045   2.608   2.757  15.090  1.0680 -0.8539 -0.6050
  890MPD2    C413046   2.523   2.676  15.015  0.1982 -0.4809  0.0676
  890MPD2    C513047   2.516   2.693  14.879 -0.0101  0.0918  0.3423
  890MPD2     H13048   2.775   2.882  15.068  0.0675  1.5854 -0.7399
  890MPD2    H113049   2.453   2.608  15.061 -2.6030  0.6389 -2.5652
  890MPD2    H213050   2.567   2.810  14.710  0.6734 -1.8435 -0.7460
  890MPD2    H313051   2.447   2.638  14.816  1.1448 -0.3642 -0.5221
  890MPD2     N13052   2.619   2.748  15.229 -0.1181 -0.0127 -0.5349
  890MPD2    H513053   2.695   2.798  15.275 -1.1577  1.7004 -0.6771
  890MPD2    N113054   2.747   2.976  14.814  0.2597  0.3322  0.5937
  890MPD2    H713055   2.725   2.992  14.716  3.3243 -0.3863 -0.2284
  891MPD2     C13056   0.415   1.232  16.742 -0.1079 -0.3994 -0.1740
  891MPD2    C113057   0.324   1.190  16.838  0.5204 -0.3555  0.3731
  891MPD2    C213058   0.364   1.142  16.966  0.1994 -0.1657  0.5904
  891MPD2    C313059   0.505   1.130  16.988  0.4431  0.1959  0.3338
  891MPD2    C413060   0.590   1.175  16.885 -0.5691  0.1346  0.0856
  891MPD2    C513061   0.545   1.222  16.765 -0.1520 -0.4904  0.3011
  891MPD2     H13062   0.292   1.109  17.040 -0.3962 -3.4643 -1.4140
  891MPD2    H113063   0.696   1.156  16.898 -0.6541 -0.0526  0.4918
  891MPD2    H213064   0.390   1.277  16.646  0.4763  1.1574  0.4075
  891MPD2    H313065   0.612   1.246  16.683  2.1849 -0.0347  2.3463
  891MPD2     N13066   0.540   1.065  17.114  0.2934 -0.6769 -0.2046
  891MPD2    H513067   0.468   1.040  17.181 -0.0605 -2.0891 -1.1039
  891MPD2    N113068   0.187   1.189  16.802  0.4424 -0.4164  0.0564
  891MPD2    H713069   0.175   1.210  16.704  0.5709  2.0720  0.5862
  892MPD2     C13070   1.493   2.348  15.370  0.5125 -0.1805  0.6157
  892MPD2    C113071   1.399   2.375  15.275 -0.2739 -0.5264 -0.7139
  892MPD2    C213072   1.430   2.349  15.146 -0.1881 -0.4696 -0.1107
  892MPD2    C313073   1.552   2.306  15.102  1.3075 -0.3714  0.2160
  892MPD2    C413074   1.647   2.282  15.194  0.7987  0.3553 -0.4286
  892MPD2    C513075   1.618   2.303  15.329 -0.4097  0.5404  0.1190
  892MPD2     H13076   1.349   2.359  15.075  0.1548  1.8979 -0.1802
  892MPD2    H113077   1.744   2.244  15.165  1.3540  0.8101  0.8185
  892MPD2    H213078   1.465   2.379  15.470 -1.8282  0.0048 -0.1016
  892MPD2    H313079   1.694   2.277  15.403 -0.4883 -0.0157  0.0061
  892MPD2     N13080   1.579   2.279  14.969 -0.2126  0.2446 -0.0216
  892MPD2    H513081   1.674   2.280  14.935 -0.4827 -1.9428 -0.7941
  892MPD2    N113082   1.274   2.427  15.298  0.3421  0.0886 -0.0362
  892MPD2    H713083   1.217   2.461  15.221  0.0704 -0.4690 -0.0791
  893MPD2     C13084   4.069   1.503   1.512  0.3365 -0.0887 -0.1229
  893MPD2    C113085   4.000   1.448   1.620  0.0290 -0.2089 -0.2078
  893MPD2    C213086   3.869   1.486   1.644 -0.0051  0.0526  0.2058
  893MPD2    C313087   3.812   1.572   1.553 -0.4132 -0.3764  0.0443
  893MPD2    C413088   3.871   1.611   1.443  0.0131 -0.3169 -0.0210
  893MPD2    C513089   4.001   1.580   1.418 -0.0812 -1.2720 -0.9894
  893MPD2     H13090   3.813   1.450   1.729 -1.7089 -1.9245 -1.7511
  893MPD2    H113091   3.818   1.665   1.366  3.3932  0.2327 -1.9858
  893MPD2    H213092   4.167   1.468   1.482  1.0029  2.1704 -0.5919
  893MPD2    H313093   4.055   1.617   1.332  0.5020  0.9127  0.3217
  893MPD2     N13094   3.678   1.615   1.564 -0.0274  0.1602 -0.3128
  893MPD2    H513095   3.636   1.655   1.481  1.0134 -1.9189 -1.8492
  893MPD2    N113096   4.070   1.360   1.706  0.3621 -0.1867 -0.1870
  893MPD2    H713097   4.169   1.354   1.688 -0.2274 -3.1419 -2.6060
  894MPD2     C13098   2.086   4.229   1.151  0.1164 -0.3730  0.1692
  894MPD2    C113099   1.952   4.270   1.126 -0.4398  0.1549  0.4387
  894MPD2    C213100   1.907   4.388   1.177  0.1528 -0.1468  0.3366
  894MPD2    C313101   1.989   4.464   1.252  0.2377  0.2308  0.0958
  894MPD2    C413102   2.117   4.422   1.281  0.7353  0.8470 -0.4211
  894MPD2    C513103   2.164   4.310   1.225 -0.2719 -0.0683  0.0004
  894MPD2     H13104   1.806   4.426   1.170  1.3323  2.9169 -0.0510
  894MPD2    H113105   2.192   4.475   1.338 -0.7004  3.3513 -0.8529
  894MPD2    H213106   2.129   4.133   1.125 -0.3560 -0.4540 -0.3043
  894MPD2    H313107   2.267   4.282   1.244 -0.6280 -2.0526 -0.9799
  894MPD2     N13108   1.948   4.598   1.297 -0.0588  0.1242  0.1973
  894MPD2    H513109   1.860   4.642   1.271  0.1965 -0.0657 -1.0271
  894MPD2    N113110   1.857   4.184   1.061 -0.4765 -0.1392 -0.2599
  894MPD2    H713111   1.764   4.224   1.057 -1.3555 -2.2525 -1.3322
  895MPD2     C13112   0.281   1.652  13.784  0.8384 -0.3408 -0.1231
  895MPD2    C113113   0.262   1.701  13.653  0.1509 -0.2111 -0.3000
  895MPD2    C213114   0.364   1.682  13.561 -0.3030 -0.4434  0.1742
  895MPD2    C313115   0.472   1.603  13.588 -0.0991  0.8010  0.1973
  895MPD2    C413116   0.485   1.539  13.713  0.6450 -0.0017 -0.4889
  895MPD2    C513117   0.388   1.570  13.805 -0.1665 -0.1210  0.5565
  895MPD2     H13118   0.347   1.725  13.463  0.4275  0.7104  0.5571
  895MPD2    H113119   0.571   1.484  13.749  1.1998  0.9938 -0.3015
  895MPD2    H213120   0.210   1.655  13.866  2.9389  1.7041  1.6427
  895MPD2    H313121   0.397   1.517  13.899 -1.6853  1.6562  1.7124
  895MPD2     N13122   0.580   1.580  13.491 -0.6212 -0.2013 -0.5251
  895MPD2    H513123   0.635   1.495  13.500  0.8863  0.6241 -1.9880
  895MPD2    N113124   0.166   1.790  13.601 -0.4812 -0.2266 -0.2564
  895MPD2    H713125   0.175   1.828  13.507  0.1446 -1.3899 -0.6663
  896MPD2     C13126   3.085   0.109   2.070  0.0455 -0.3647  0.5246
  896MPD2    C113127   3.006   0.111   1.955  0.0859 -0.3554 -0.3340
  896MPD2    C213128   2.871   0.072   1.965 -1.0615 -0.4013  0.4120
  896MPD2    C313129   2.820   0.039   2.086  0.2259  0.0552  0.1690
  896MPD2    C413130   2.894   0.051   2.199  0.2797 -0.7283  0.1937
  896MPD2    C513131   3.022   0.093   2.194  0.6170  0.3138 -0.3990
  896MPD2     H13132   2.803   0.088   1.882  1.2232  1.7517 -1.0617
  896MPD2    H113133   2.853   0.044   2.299  1.4464 -1.4299  0.6229
  896MPD2    H213134   3.191   0.132   2.071 -0.2452  0.9782  0.2972
  896MPD2    H313135   3.072   0.101   2.290  1.1894 -0.0172 -0.6678
  896MPD2     N13136   2.686   4.709   2.085  0.0757  0.0218  0.1938
  896MPD2    H513137   2.655   4.686   1.991  1.8247  1.9303 -0.8610
  896MPD2    N113138   3.068   0.154   1.834  0.1678 -0.0698  0.4387
  896MPD2    H713139   3.166   0.181   1.842  0.0935  0.2530  0.2435
  897MPD2     C13140   4.374   1.382  11.011  0.1520 -0.1168 -0.4450
  897MPD2    C113141   4.266   1.383  10.926  0.3788  0.4088  0.2164
  897MPD2    C213142   4.138   1.377  10.976 -0.6045  0.7676  0.1658
  897MPD2    C313143   4.112   1.375  11.109 -0.2445 -1.1390  0.3554
  897MPD2    C413144   4.219   1.392  11.192 -0.4185  0.4478 -0.3867
  897MPD2    C513145   4.352   1.399  11.143  0.7473  1.2334 -0.2395
  897MPD2     H13146   4.053   1.355  10.913 -1.0072  0.2642  0.8798
  897MPD2    H113147   4.202   1.415  11.297 -0.8119 -0.3132 -0.2854
  897MPD2    H213148   4.475   1.386  10.973 -0.3171  2.8680 -1.4018
  897MPD2    H313149   4.434   1.415  11.212  2.1743  0.3457 -1.7287
  897MPD2     N13150   3.978   1.370  11.148 -0.1836 -0.5060 -0.1871
  897MPD2    H513151   3.905   1.362  11.078  0.4227  1.1785 -1.0095
  897MPD2    N113152   4.296   1.387  10.787 -0.2189  0.2197  0.0551
  897MPD2    H713153   4.396   1.390  10.775 -0.4538  0.2963 -1.7936
  898MPD2     C13154   0.451   1.643   0.284  0.7161  0.3887  0.5159
  898MPD2    C113155   0.553   1.652   0.186 -0.1804  0.3462 -0.0302
  898MPD2    C213156   0.555   1.776   0.114  0.7540  0.1615  0.0070
  898MPD2    C313157   0.442   1.859   0.105  0.2203 -0.1484  0.8489
  898MPD2    C413158   0.338   1.832   0.189  0.5313 -0.2043 -0.7757
  898MPD2    C513159   0.348   1.732   0.283  0.6511 -0.5564 -0.6959
  898MPD2     H13160   0.643   1.806   0.059  0.1803 -1.6217 -1.9104
  898MPD2    H113161   0.252   1.898   0.198 -0.9149 -2.0848 -0.7876
  898MPD2    H213162   0.447   1.568   0.361 -1.3899  0.4992  0.4981
  898MPD2    H313163   0.275   1.722   0.361  1.2944 -1.6293 -0.2325
  898MPD2     N13164   0.425   1.961   0.006  0.3084 -0.2453  0.4248
  898MPD2    H513165   0.506   1.977  17.645  1.8621 -4.4715  1.4148
  898MPD2    N113166   0.667   1.566   0.176 -0.1003 -0.1412 -0.0468
  898MPD2    H713167   0.747   1.602   0.125  0.0089 -0.6715 -0.2497
  899MPD2     C13168   1.932   2.458  17.599 -0.0798  0.6581 -0.1008
  899MPD2    C113169   1.981   2.572  17.660 -0.5373 -0.1014  0.4116
  899MPD2    C213170   1.988   2.567   0.098  0.3382  0.1285 -0.3180
  899MPD2    C313171   1.924   2.469   0.173  0.2830  0.1739  0.4744
  899MPD2    C413172   1.884   2.356   0.106 -0.3022  0.8512 -0.4385
  899MPD2    C513173   1.890   2.349  17.671  0.7562 -0.0096 -0.0495
  899MPD2     H13174   2.020   2.658   0.149 -0.7695  0.8843 -0.9676
  899MPD2    H113175   1.843   2.270   0.157  0.2466 -0.7879 -2.7779
  899MPD2    H213176   1.927   2.460  17.491 -0.4385 -1.3935 -0.1179
  899MPD2    H313177   1.848   2.265  17.617  0.5929  0.0374  0.0031
  899MPD2     N13178   1.894   2.478   0.311  0.5635 -0.0494  0.0194
  899MPD2    H513179   1.849   2.397   0.353 -0.6528  1.2317  1.1560
  899MPD2    N113180   2.027   2.678  17.576  0.4541 -0.3940 -0.1612
  899MPD2    H713181   2.039   2.648  17.480  0.3451  1.0709 -0.6291
  900MPD2     C13182   1.951   0.042  12.857 -0.3820 -0.3675  0.3004
  900MPD2    C113183   1.951   4.646  12.791 -0.4791  0.0252  0.2562
  900MPD2    C213184   1.864   4.634  12.680  0.1358 -0.3516  0.2474
  900MPD2    C313185   1.798   0.019  12.625  0.2939  0.5575  0.7567
  900MPD2    C413186   1.798   0.131  12.699 -0.1160  0.1415 -0.0445
  900MPD2    C513187   1.876   0.143  12.809 -0.0878  0.4826  0.5845
  900MPD2     H13188   1.861   4.542  12.623 -1.0351 -1.2489  1.7377
  900MPD2    H113189   1.741   0.219  12.672 -1.1399 -0.3559  0.5097
  900MPD2    H213190   2.007   0.055  12.949  0.7827 -0.7849 -0.3482
  900MPD2    H313191   1.891   0.242  12.852  1.6189  1.0855 -1.4194
  900MPD2     N13192   1.711   0.006  12.513  0.1488  0.4855  0.0219
  900MPD2    H513193   1.710   4.637  12.474 -0.5513  0.7000 -0.4790
  900MPD2    N113194   2.030   4.541  12.840  0.2286 -0.6773 -0.2828
  900MPD2    H713195   2.076   4.545  12.931 -0.7062 -2.1672  0.2528
  901MPD2     C13196   2.098   3.584  13.120  0.6353 -0.1287 -0.0932
  901MPD2    C113197   2.188   3.602  13.015 -0.3892  0.1471 -0.3668
  901MPD2    C213198   2.218   3.729  12.983 -0.7863  0.0650 -0.2127
  901MPD2    C313199   2.160   3.842  13.045 -0.3673 -0.1308  0.0597
  901MPD2    C413200   2.071   3.814  13.151 -0.5116 -0.3971 -0.4605
  901MPD2    C513201   2.042   3.685  13.188 -0.2574  0.1988  0.4453
  901MPD2     H13202   2.268   3.761  12.892  0.1164 -0.2020  0.1990
  901MPD2    H113203   2.034   3.899  13.207  0.3106  0.2496 -0.8993
  901MPD2    H213204   2.074   3.483  13.150  1.8771 -0.2604  0.4737
  901MPD2    H313205   1.974   3.664  13.270  0.9290 -1.5188  0.9914
  901MPD2     N13206   2.200   3.967  12.998 -0.0839  0.3243  0.1517
  901MPD2    H513207   2.266   3.973  12.921  0.6469 -0.7348  0.7022
  901MPD2    N113208   2.232   3.486  12.938  0.7709  1.2607 -0.1586
  901MPD2    H713209   2.201   3.400  12.983  0.4349  1.4596 -0.0108
  902MPD2     C13210   0.293   2.601  13.189  0.0715 -0.9030  0.3672
  902MPD2    C113211   0.340   2.568  13.066 -1.0804  0.4158  0.3680
  902MPD2    C213212   0.470   2.528  13.046 -0.5522  0.3117 -0.5627
  902MPD2    C313213   0.559   2.554  13.147  0.2848 -0.3124  0.5295
  902MPD2    C413214   0.515   2.592  13.274 -0.0848  0.0410 -0.3387
  902MPD2    C513215   0.379   2.601  13.295 -1.0129  0.1933 -0.5265
  902MPD2     H13216   0.501   2.498  12.947 -1.5636  1.4748 -1.2326
  902MPD2    H113217   0.587   2.608  13.354 -3.0926  0.0867  2.3837
  902MPD2    H213218   0.188   2.620  13.205 -0.3567 -3.0692  0.0212
  902MPD2    H313219   0.347   2.631  13.394  0.1738  1.3146 -0.4826
  902MPD2     N13220   0.699   2.544  13.124  0.8356 -0.2969 -0.1476
  902MPD2    H513221   0.765   2.528  13.199  0.5172 -2.0733 -0.2667
  902MPD2    N113222   0.247   2.584  12.961 -0.3299 -0.0159  0.3668
  902MPD2    H713223   0.163   2.627  12.998 -1.0385 -0.9790 -0.1510
  903MPD2     C13224   0.930   2.680  12.458  0.2787  1.1366  0.0945
  903MPD2    C113225   0.997   2.572  12.513 -0.2738  0.3182  0.3650
  903MPD2    C213226   1.006   2.454  12.435 -0.4621 -0.1197 -0.7535
  903MPD2    C313227   0.955   2.452  12.309 -0.7467  0.4687  0.5597
  903MPD2    C413228   0.905   2.564  12.255 -0.7432  0.0641 -0.0043
  903MPD2    C513229   0.879   2.677  12.329 -0.1695  0.4909 -0.1459
  903MPD2     H13230   1.046   2.360  12.472  1.4590  0.8939 -0.2071
  903MPD2    H113231   0.881   2.577  12.150  0.3238  1.6293 -0.0732
  903MPD2    H213232   0.932   2.767  12.522 -0.9002  1.6512 -0.5750
  903MPD2    H313233   0.833   2.770  12.299 -0.8294  0.4100  0.6178
  903MPD2     N13234   0.955   2.328  12.240 -0.0943 -0.3637  0.0023
  903MPD2    H513235   1.000   2.255  12.294  0.2950 -1.2972 -1.5784
  903MPD2    N113236   1.044   2.592  12.646  0.5755  0.0155 -0.5348
  903MPD2    H713237   1.034   2.684  12.688  2.3988  0.2135 -0.5357
  904MPD2     C13238   0.699   0.891  14.138 -0.1965  0.5393  0.3237
  904MPD2    C113239   0.691   0.970  14.028  1.0838 -0.3556  0.0888
  904MPD2    C213240   0.805   1.031  13.976  0.0257  0.6054 -0.4156
  904MPD2    C313241   0.932   0.996  14.031  0.6046 -0.4446  0.0689
  904MPD2    C413242   0.945   0.902  14.128 -0.2415  0.2125  0.2086
  904MPD2    C513243   0.829   0.850  14.181  0.7728  0.4236  0.6064
  904MPD2     H13244   0.803   1.109  13.901 -0.6205  0.5217 -0.4813
  904MPD2    H113245   1.038   0.866  14.170  0.6952  1.0310 -1.1395
  904MPD2    H213246   0.615   0.855  14.196 -0.0865 -0.3521 -0.0642
  904MPD2    H313247   0.829   0.773  14.258  0.8221 -1.3162 -1.1329
  904MPD2     N13248   1.043   1.064  13.980 -0.2360  0.2524  0.0791
  904MPD2    H513249   1.021   1.139  13.916 -0.0302 -0.6907 -1.1006
  904MPD2    N113250   0.566   1.012  13.977 -0.2336 -0.4818 -0.2144
  904MPD2    H713251   0.573   1.077  13.900  0.2790  0.3469  0.5405
  905MPD2     C13252   0.000   1.390  13.464 -0.1351  0.1171 -0.0929
  905MPD2    C113253   0.131   1.358  13.507  0.0570 -0.0389 -0.4394
  905MPD2    C213254   0.229   1.364  13.405  0.1451  0.1444  0.4322
  905MPD2    C313255   0.209   1.402  13.271  0.1021  0.0474 -0.0486
  905MPD2    C413256   0.079   1.432  13.237  1.1781  1.0227  0.7355
  905MPD2    C513257   4.703   1.423  13.330  0.3345 -0.0066  0.3425
  905MPD2     H13258   0.330   1.337  13.434  0.0859  0.3633  0.8530
  905MPD2    H113259   0.053   1.476  13.142  2.1559 -0.2110 -0.0957
  905MPD2    H213260   4.644   1.398  13.536  0.9659 -0.5039  1.2163
  905MPD2    H313261   4.609   1.462  13.292  0.4297  0.9155  1.0328
  905MPD2     N13262   0.314   1.395  13.176  0.1494 -0.6569 -0.1453
  905MPD2    H513263   0.305   1.465  13.103 -1.0979  1.2406  1.8468
  905MPD2    N113264   0.150   1.326  13.646 -0.5328 -0.3436  0.5049
  905MPD2    H713265   0.071   1.350  13.705 -0.8157 -2.1418  0.8601
  906MPD2     C13266   2.703   1.402  11.651  0.4873 -0.0191 -0.7922
  906MPD2    C113267   2.713   1.301  11.559 -0.3451  0.4971  0.2904
  906MPD2    C213268   2.697   1.169  11.596  0.4027 -0.4473 -0.0840
  906MPD2    C313269   2.660   1.139  11.727  0.3007 -0.6879  0.8689
  906MPD2    C413270   2.634   1.242  11.816 -0.2061  0.8717  0.7457
  906MPD2    C513271   2.658   1.370  11.775 -0.2042 -0.0018  0.1374
  906MPD2     H13272   2.705   1.094  11.519  1.4926  1.5086 -1.8715
  906MPD2    H113273   2.596   1.232  11.917  2.8807  0.7471  1.9061
  906MPD2    H213274   2.721   1.500  11.608 -0.4795  0.4611 -0.0999
  906MPD2    H313275   2.654   1.454  11.843 -1.4854  0.7202 -0.8156
  906MPD2     N13276   2.613   1.007  11.746 -0.3059  0.5506  0.1937
  906MPD2    H513277   2.632   0.947  11.667  1.2650  1.3390 -0.0360
  906MPD2    N113278   2.742   1.316  11.421  0.1154  0.1480 -0.7257
  906MPD2    H713279   2.740   1.231  11.365 -0.6392  0.1617 -0.7293
  907MPD2     C13280   1.738   0.363  15.594 -0.0834  0.6663 -0.2193
  907MPD2    C113281   1.726   0.228  15.591 -0.4040 -0.0647  0.4300
  907MPD2    C213282   1.758   0.153  15.701  0.8087  0.1248 -0.2786
  907MPD2    C313283   1.801   0.210  15.824 -0.6397 -0.0766  0.4361
  907MPD2    C413284   1.809   0.353  15.822  0.2728 -0.2267 -0.5643
  907MPD2    C513285   1.774   0.426  15.712 -0.0208 -0.3093  0.0480
  907MPD2     H13286   1.761   0.045  15.696 -0.7322  0.0762 -0.1892
  907MPD2    H113287   1.844   0.413  15.906  2.4351 -3.4896  0.8840
  907MPD2    H213288   1.709   0.425  15.511  2.8548  0.6516 -1.2541
  907MPD2    H313289   1.779   0.533  15.725  0.8166 -0.4507  0.8422
  907MPD2     N13290   1.837   0.134  15.939 -0.1374 -0.4245 -0.0763
  907MPD2    H513291   1.809   0.038  15.923 -2.2565 -0.0374  1.3714
  907MPD2    N113292   1.701   0.168  15.465 -0.0380 -0.3432  0.2852
  907MPD2    H713293   1.709   0.067  15.454 -0.3392 -0.1665 -1.5903
  908MPD2     C13294   4.477   0.852  10.027  0.4630 -0.2132  0.5025
  908MPD2    C113295   4.399   0.830  10.137  0.4455  0.6918 -0.7189
  908MPD2    C213296   4.355   0.943  10.211 -0.5527  0.1014  0.8265
  908MPD2    C313297   4.375   1.073  10.166  0.1130 -0.4604  0.0205
  908MPD2    C413298   4.444   1.087  10.047  0.1275  0.1941  0.3622
  908MPD2    C513299   4.504   0.977   9.984  0.0115  0.1966 -0.4307
  908MPD2     H13300   4.302   0.926  10.303  1.4647 -0.2645  1.9163
  908MPD2    H113301   4.469   1.184  10.007 -0.6808  0.8102  1.3785
  908MPD2    H213302   4.515   0.771   9.965 -1.6532  0.6214 -1.8580
  908MPD2    H313303   4.573   0.994   9.903  2.2330 -0.0325  1.4131
  908MPD2     N13304   4.340   1.183  10.250 -1.1287 -0.2074 -0.4164
  908MPD2    H513305   4.288   1.158  10.333  0.4742 -0.3609  0.5520
  908MPD2    N113306   4.379   0.694  10.169  0.5277 -0.4392  0.0172
  908MPD2    H713307   4.409   0.634  10.093  1.0272 -1.3933  0.9654
  909MPD2     C13308   0.016   3.923  12.050  0.1018  0.8308 -0.5897
  909MPD2    C113309   4.717   4.012  11.953  0.5067 -0.0929 -0.2271
  909MPD2    C213310   4.692   4.146  11.990 -0.7535  0.1231 -0.9029
  909MPD2    C313311   4.681   4.183  12.126  0.9622 -0.1059  0.1558
  909MPD2    C413312   4.708   4.086  12.223 -0.1367 -0.4000 -0.1427
  909MPD2    C513313   0.014   3.958  12.180  0.4205  0.5101 -0.0015
  909MPD2     H13314   4.682   4.222  11.913 -0.7316 -0.5666 -1.5805
  909MPD2    H113315   4.705   4.101  12.330  0.3440 -0.6616 -0.0941
  909MPD2    H213316   0.049   3.822  12.026  0.5037  0.6638  0.6709
  909MPD2    H313317   0.039   3.882  12.254 -1.6723 -0.9131 -0.7543
  909MPD2     N13318   4.645   4.319  12.148  0.1202 -1.1316 -0.0232
  909MPD2    H513319   4.611   4.372  12.068 -1.0096 -0.5650  0.8353
  909MPD2    N113320   4.721   3.983  11.816  0.2707  0.1946 -0.5636
  909MPD2    H713321   4.718   4.064  11.755  0.0837 -0.6383 -1.6597
  910MPD2     C13322   0.553   0.591  16.427 -0.2377 -0.1552 -0.1308
  910MPD2    C113323   0.610   0.523  16.322 -0.5974  0.4676  0.0427
  910MPD2    C213324   0.582   0.562  16.193  0.2872 -0.3321 -0.1347
  910MPD2    C313325   0.487   0.658  16.167  0.0982 -0.2415 -0.0796
  910MPD2    C413326   0.424   0.713  16.281  0.4437  0.2226 -0.1922
  910MPD2    C513327   0.456   0.676  16.404  0.4908  0.0132  0.3575
  910MPD2     H13328   0.648   0.521  16.117  0.2693 -1.3651  0.4102
  910MPD2    H113329   0.352   0.792  16.261 -0.1333  0.4821  2.8583
  910MPD2    H213330   0.575   0.575  16.532 -0.0052  1.4919  0.0812
  910MPD2    H313331   0.395   0.712  16.486 -0.0228 -0.6430  0.2653
  910MPD2     N13332   0.466   0.715  16.040 -0.2244  0.0696 -0.8972
  910MPD2    H513333   0.387   0.779  16.036 -1.2058 -1.1074 -0.0153
  910MPD2    N113334   0.704   0.417  16.351 -0.5684  0.2357  0.0608
  910MPD2    H713335   0.740   0.355  16.279 -0.4381 -0.0330  0.3597
  911MPD2     C13336   3.425   1.468  16.344  0.8988  0.8396 -0.4499
  911MPD2    C113337   3.408   1.506  16.476 -0.2188  0.0885  0.5563
  911MPD2    C213338   3.376   1.636  16.502  0.1005  0.3438 -0.7193
  911MPD2    C313339   3.355   1.730  16.406 -0.2166  0.0809 -0.1019
  911MPD2    C413340   3.374   1.693  16.273  0.1679 -0.4549  0.3706
  911MPD2    C513341   3.412   1.560  16.245  0.3529  0.4411  0.5113
  911MPD2     H13342   3.379   1.663  16.607 -0.2048 -2.1760 -0.0562
  911MPD2    H113343   3.347   1.753  16.187  0.6831  0.1525  0.6304
  911MPD2    H213344   3.440   1.364  16.318  0.6390  0.2527  1.7348
  911MPD2    H313345   3.423   1.532  16.141 -1.0376 -0.4522  0.6006
  911MPD2     N13346   3.326   1.863  16.437  0.1526  0.2854 -0.9099
  911MPD2    H513347   3.328   1.934  16.365 -1.0848  2.2149  0.9650
  911MPD2    N113348   3.436   1.402  16.567 -0.0581  0.6018  0.2076
  911MPD2    H713349   3.471   1.312  16.537  1.5418  1.3756 -0.2252
  912MPD2     C13350   3.069   1.730  16.005  0.1016  0.3914  0.6301
  912MPD2    C113351   3.030   1.726  16.133  0.5157 -0.1072 -0.4714
  912MPD2    C213352   3.042   1.604  16.195  0.7644 -0.5747 -0.2829
  912MPD2    C313353   3.097   1.493  16.136  0.2293  0.1571  0.1379
  912MPD2    C413354   3.143   1.499  16.005 -0.4954 -0.5609  0.1808
  912MPD2    C513355   3.114   1.619  15.942 -0.1014 -0.3981  0.4568
  912MPD2     H13356   3.026   1.600  16.302 -1.1313  2.9428 -0.4508
  912MPD2    H113357   3.172   1.411  15.947  0.2945 -0.9523  1.1817
  912MPD2    H213358   3.061   1.824  15.952  1.6524  0.4195  0.4524
  912MPD2    H313359   3.142   1.628  15.838 -3.2665 -0.9331 -0.4293
  912MPD2     N13360   3.113   1.383  16.220 -0.0575 -0.0833  0.3528
  912MPD2    H513361   3.059   1.387  16.306 -2.0729 -0.6881 -0.9018
  912MPD2    N113362   3.000   1.850  16.190  0.4587 -0.5871  0.3278
  912MPD2    H713363   2.997   1.935  16.135 -3.9984 -1.2584 -0.4739
  913MPD2     C13364   4.429   2.917  10.447  0.2772  0.5461  0.4695
  913MPD2    C113365   4.454   2.846  10.563 -0.2369 -0.3412 -0.1000
  913MPD2    C213366   4.501   2.919  10.677  0.2619  0.2080  0.8240
  913MPD2    C313367   4.535   3.052  10.660 -0.1415  0.6723 -0.1667
  913MPD2    C413368   4.506   3.117  10.543 -0.0267  0.3875 -1.0020
  913MPD2    C513369   4.459   3.046  10.435 -0.6196 -0.2316 -0.7686
  913MPD2     H13370   4.523   2.864  10.768 -3.0257  1.1876  2.2170
  913MPD2    H113371   4.515   3.224  10.530 -1.4774  0.5270 -0.7988
  913MPD2    H213372   4.387   2.873  10.357  1.6782 -1.0308  0.5892
  913MPD2    H313373   4.435   3.088  10.338  1.3303  1.5588 -0.4600
  913MPD2     N13374   4.575   3.133  10.766  0.1205  0.1714 -0.3184
  913MPD2    H513375   4.603   3.227  10.741  0.4338  0.3783  0.8331
  913MPD2    N113376   4.411   2.709  10.566 -0.2241 -0.2230 -0.2280
  913MPD2    H713377   4.350   2.674  10.494 -0.4765 -0.5821  0.1598
  914MPD2     C13378   2.003   3.336  12.104  0.4038  0.6078 -0.0456
  914MPD2    C113379   2.013   3.436  12.199  0.0597 -0.4563  0.2077
  914MPD2    C213380   2.106   3.421  12.302  1.2757 -0.1682 -0.2159
  914MPD2    C313381   2.167   3.296  12.321 -0.2589 -0.1271  0.1411
  914MPD2    C413382   2.133   3.190  12.240 -0.1527  0.0811  0.4351
  914MPD2    C513383   2.062   3.208  12.129 -0.1142  0.3925  0.4630
  914MPD2     H13384   2.131   3.502  12.369 -0.1139  0.8005 -0.8602
  914MPD2    H113385   2.185   3.096  12.255 -1.4221 -0.5870  0.5591
  914MPD2    H213386   1.948   3.347  12.011  0.2569 -2.0782 -0.2786
  914MPD2    H313387   2.048   3.127  12.059  0.8475 -0.0878  0.8213
  914MPD2     N13388   2.267   3.294  12.422  0.1936 -0.3909 -0.0355
  914MPD2    H513389   2.293   3.384  12.462  0.0461 -0.9043  1.1952
  914MPD2    N113390   1.947   3.557  12.179 -0.8284 -0.1929  0.4221
  914MPD2    H713391   1.905   3.568  12.087  3.2643  0.7020 -1.3574
  915MPD2     C13392   4.373   2.600  16.240 -0.3116 -0.0125 -0.2382
  915MPD2    C113393   4.301   2.706  16.189  0.0677 -0.0361 -0.0797
  915MPD2    C213394   4.238   2.793  16.278 -0.4280  0.8814  0.8339
  915MPD2    C313395   4.264   2.784  16.417  0.4851  0.5342  0.0868
  915MPD2    C413396   4.351   2.688  16.458 -0.1645  0.0596 -0.0413
  915MPD2    C513397   4.398   2.585  16.374 -0.4948 -0.7997  0.4990
  915MPD2     H13398   4.174   2.874  16.243  1.4910  2.1001  0.1583
  915MPD2    H113399   4.387   2.675  16.559  0.1867  3.2259  0.2285
  915MPD2    H213400   4.408   2.527  16.167 -1.1907 -1.1445  0.4734
  915MPD2    H313401   4.465   2.511  16.416 -0.0556 -0.5555  0.2317
  915MPD2     N13402   4.219   2.887  16.498  0.0875 -0.2367  0.4176
  915MPD2    H513403   4.170   2.963  16.452  0.2350  0.5792  1.6119
  915MPD2    N113404   4.284   2.712  16.048  0.1907  0.0685 -0.0850
  915MPD2    H713405   4.312   2.631  15.995 -1.3867 -0.7344  0.3194
  916MPD2     C13406   2.831   1.200  16.105  0.6751  0.4411 -0.2397
  916MPD2    C113407   2.807   1.079  16.168  0.2376 -0.4328 -0.2557
  916MPD2    C213408   2.874   0.972  16.117 -0.2441  0.8445  0.0749
  916MPD2    C313409   2.955   0.980  16.003 -0.1728 -0.1143  0.8082
  916MPD2    C413410   2.977   1.103  15.940  0.8159  0.0980  0.0505
  916MPD2    C513411   2.907   1.209  15.995  0.6013  0.1496 -0.0613
  916MPD2     H13412   2.855   0.872  16.155  1.3357 -0.4109 -2.4314
  916MPD2    H113413   3.041   1.128  15.856 -0.4314  0.1925 -0.8677
  916MPD2    H213414   2.796   1.292  16.149  0.9095  1.5213 -2.3064
  916MPD2    H313415   2.920   1.301  15.940 -1.3697  0.1333 -0.5575
  916MPD2     N13416   3.026   0.863  15.963  0.4926 -0.5039  0.4276
  916MPD2    H513417   2.987   0.778  16.003  2.7683 -1.2669  1.0242
  916MPD2    N113418   2.720   1.076  16.278 -0.3895  0.4114  0.4840
  916MPD2    H713419   2.683   1.166  16.306  0.2640  0.8068  0.0560
  917MPD2     C13420   3.587   3.599  11.578 -0.0211 -1.3464  1.0060
  917MPD2    C113421   3.621   3.628  11.707 -0.2105 -0.0287  0.2711
  917MPD2    C213422   3.702   3.739  11.728  0.1433  0.6336  0.4932
  917MPD2    C313423   3.748   3.820  11.628 -0.0587  0.5564  0.2429
  917MPD2    C413424   3.702   3.790  11.503 -0.4046 -0.5581  0.3793
  917MPD2    C513425   3.627   3.676  11.478 -0.2066  0.6859  0.2993
  917MPD2     H13426   3.746   3.755  11.826  0.9583  1.1684  0.0400
  917MPD2    H113427   3.742   3.844  11.419 -1.3561 -0.0450  0.2544
  917MPD2    H213428   3.526   3.513  11.555 -1.5888  0.2757 -0.8122
  917MPD2    H313429   3.592   3.651  11.378 -0.9415 -1.6571  1.1223
  917MPD2     N13430   3.833   3.929  11.645  0.8637  0.7765  0.1716
  917MPD2    H513431   3.844   3.983  11.560  0.3016 -2.2417 -1.8288
  917MPD2    N113432   3.549   3.562  11.806  0.4914  0.4085 -0.0219
  917MPD2    H713433   3.491   3.482  11.783  0.4520  0.1320  1.0497
  918MPD2     C13434   3.487   3.619  12.826 -0.7363  0.5396 -0.1078
  918MPD2    C113435   3.569   3.673  12.737  1.0489 -0.0335 -0.2547
  918MPD2    C213436   3.542   3.669  12.603 -0.0326 -0.1875  0.4770
  918MPD2    C313437   3.428   3.600  12.560 -0.0311  0.0423 -0.9251
  918MPD2    C413438   3.352   3.534  12.651  0.0901  0.5256 -0.1364
  918MPD2    C513439   3.386   3.535  12.784 -0.2065 -0.2699 -0.5724
  918MPD2     H13440   3.599   3.731  12.535 -1.9188 -1.7701 -2.5811
  918MPD2    H113441   3.270   3.468  12.625 -1.1765  2.2213 -0.4504
  918MPD2    H213442   3.500   3.636  12.932  1.4396 -1.5817 -0.0411
  918MPD2    H313443   3.332   3.481  12.861 -0.3837  0.8928  0.1137
  918MPD2     N13444   3.408   3.598  12.416 -0.0414 -0.1594  0.4216
  918MPD2    H513445   3.457   3.673  12.370 -1.3795 -0.0883 -0.9155
  918MPD2    N113446   3.684   3.744  12.795 -0.2441 -0.1978  0.2524
  918MPD2    H713447   3.676   3.755  12.896  0.7181  0.6337  0.2412
  919MPD2     C13448   3.881   2.916  11.658 -0.8627 -0.1612  0.2352
  919MPD2    C113449   3.892   2.790  11.620  0.0461 -0.0374 -0.4887
  919MPD2    C213450   3.911   2.758  11.485 -0.0603  0.5487  0.8647
  919MPD2    C313451   3.931   2.862  11.394 -0.0631  0.0525 -0.4348
  919MPD2    C413452   3.941   2.995  11.439 -0.5007  0.4646  0.1939
  919MPD2    C513453   3.921   3.019  11.574  0.6078 -0.3123 -0.7256
  919MPD2     H13454   3.899   2.657  11.448 -1.8984  0.8167  0.7215
  919MPD2    H113455   3.951   3.081  11.374 -1.3071 -0.2525 -0.8660
  919MPD2    H213456   3.844   2.947  11.756 -1.2176  0.4340 -0.0890
  919MPD2    H313457   3.909   3.119  11.614 -2.2550 -1.2774  0.8293
  919MPD2     N13458   3.949   2.831  11.257 -0.3424  0.0709  0.6227
  919MPD2    H513459   3.959   2.916  11.203 -2.2597 -1.6621 -2.5073
  919MPD2    N113460   3.873   2.683  11.709 -0.5714  0.8217  0.1511
  919MPD2    H713461   3.876   2.591  11.666  1.4385  0.5978  0.7770
  920MPD2     C13462   3.678   3.351  10.511  0.7623  0.2722 -0.2316
  920MPD2    C113463   3.629   3.222  10.485  0.7037 -0.2448  0.3632
  920MPD2    C213464   3.679   3.112  10.543  0.0093  0.1655 -0.8691
  920MPD2    C313465   3.769   3.124  10.643 -0.9209  0.5739  0.0976
  920MPD2    C413466   3.804   3.255  10.690  0.3325 -0.0476 -0.1271
  920MPD2    C513467   3.759   3.365  10.620 -0.1946 -0.4340  0.2611
  920MPD2     H13468   3.657   3.009  10.516  1.8585 -0.0341 -1.6743
  920MPD2    H113469   3.880   3.259  10.768 -0.7881 -0.0833  0.9712
  920MPD2    H213470   3.653   3.447  10.467 -0.0956 -0.2964 -0.9794
  920MPD2    H313471   3.795   3.465  10.641  0.3148 -0.6217  0.2836
  920MPD2     N13472   3.802   3.003  10.706 -0.0070  0.6599  0.2381
  920MPD2    H513473   3.772   2.914  10.667 -1.9135 -0.1663  3.5833
  920MPD2    N113474   3.523   3.199  10.390  0.5410 -0.2420  0.4377
  920MPD2    H713475   3.507   3.100  10.377  1.2933 -0.4972  1.4928
  921MPD2     C13476   4.217   1.286  17.226 -0.1873 -0.0869 -0.2587
  921MPD2    C113477   4.207   1.267  17.089  0.1726 -0.1130  0.3322
  921MPD2    C213478   4.083   1.286  17.039  0.6142  0.0025  0.5843
  921MPD2    C313479   3.967   1.289  17.115 -0.5474 -0.1802  0.1900
  921MPD2    C413480   3.971   1.283  17.251  0.1333 -0.5410 -0.3565
  921MPD2    C513481   4.099   1.291  17.307 -0.4546  1.1750 -0.7018
  921MPD2     H13482   4.073   1.296  16.931 -0.1175  1.2692  0.7745
  921MPD2    H113483   3.892   1.289  17.325  1.1104  2.1053  0.4480
  921MPD2    H213484   4.315   1.287  17.271  0.4310 -2.1796 -1.6103
  921MPD2    H313485   4.103   1.294  17.415  1.7306  1.3289 -0.7867
  921MPD2     N13486   3.848   1.294  17.036 -0.0774  0.6414  0.5571
  921MPD2    H513487   3.852   1.299  16.934 -1.5104 -1.1118  0.4103
  921MPD2    N113488   4.327   1.252  17.012  0.3181  0.2517 -0.2741
  921MPD2    H713489   4.415   1.244  17.063  0.8017  0.8610 -1.0164
  922MPD2     C13490   0.708   3.866   0.541 -0.9564 -0.2666  0.7125
  922MPD2    C113491   0.698   3.849   0.406 -0.1441 -0.2691  0.3593
  922MPD2    C213492   0.581   3.806   0.349  0.0981 -0.4246  0.0275
  922MPD2    C313493   0.479   3.777   0.438  0.6360 -0.2248  0.1619
  922MPD2    C413494   0.494   3.781   0.576  0.1409  0.2730  0.6048
  922MPD2    C513495   0.613   3.807   0.626  0.5529 -0.3887  0.0172
  922MPD2     H13496   0.566   3.800   0.242 -1.2708  1.2660  0.1308
  922MPD2    H113497   0.423   3.737   0.644  0.2739  0.6810  1.0092
  922MPD2    H213498   0.802   3.900   0.582 -2.1871  1.9487  1.6842
  922MPD2    H313499   0.628   3.798   0.732 -0.4148  1.7482  0.3541
  922MPD2     N13500   0.358   3.744   0.376 -0.3987 -0.2900 -0.7274
  922MPD2    H513501   0.351   3.746   0.275  2.6194  1.9245 -0.9129
  922MPD2    N113502   0.800   3.896   0.317 -0.1611 -0.4142 -0.6530
  922MPD2    H713503   0.771   3.901   0.220 -1.8160 -0.0741 -0.1350
  923MPD2     C13504   1.752   1.019   9.753 -0.5609  1.1170  0.0995
  923MPD2    C113505   1.809   1.138   9.791 -0.5868 -1.0067  0.0718
  923MPD2    C213506   1.917   1.140   9.877  0.1980  0.3818  0.8683
  923MPD2    C313507   1.975   1.018   9.910  0.8972  0.2892  0.1273
  923MPD2    C413508   1.919   0.899   9.877 -0.5578  0.0798  0.0239
  923MPD2    C513509   1.809   0.903   9.792  0.0601 -0.4310 -0.5396
  923MPD2     H13510   1.972   1.231   9.895 -0.8599  1.3541 -0.8030
  923MPD2    H113511   1.963   0.803   9.902 -1.2582 -0.1342  0.4588
  923MPD2    H213512   1.657   1.009   9.701 -0.7422  2.9001  0.1026
  923MPD2    H313513   1.769   0.806   9.767 -0.0450 -0.6389  0.4576
  923MPD2     N13514   2.105   1.022   9.966  0.8384  0.2888  0.4480
  923MPD2    H513515   2.135   0.928   9.991  0.0830  0.2998  1.3879
  923MPD2    N113516   1.749   1.260   9.746  0.0645  0.3619 -0.1772
  923MPD2    H713517   1.662   1.247   9.695  0.0702  0.1541 -0.1349
  924MPD2     C13518   1.852   4.052  15.949  0.3050 -0.3171 -0.0585
  924MPD2    C113519   1.858   4.082  16.079 -0.5309  0.0860 -0.1518
  924MPD2    C213520   1.925   4.192  16.121  0.8306  0.6440  0.4467
  924MPD2    C313521   1.960   4.291  16.033  0.1977  0.5415  0.4694
  924MPD2    C413522   1.941   4.265  15.897 -0.0796  0.4001  0.3699
  924MPD2    C513523   1.888   4.148  15.855 -0.0020  0.2678  0.4295
  924MPD2     H13524   1.946   4.210  16.226 -0.6156  2.4522  0.4389
  924MPD2    H113525   1.948   4.336  15.815 -1.8758  0.7388  0.5254
  924MPD2    H213526   1.806   3.961  15.910 -1.5069 -0.3367  2.1364
  924MPD2    H313527   1.859   4.116  15.755 -0.0688 -1.1723  0.9082
  924MPD2     N13528   2.002   4.424  16.075 -0.3283 -0.5626  0.5742
  924MPD2    H513529   2.029   4.486  15.999  1.0147 -1.6581  0.1607
  924MPD2    N113530   1.788   3.993  16.167  0.1223  0.4208 -0.5116
  924MPD2    H713531   1.736   3.916  16.126 -0.7184  0.9343 -0.4018
  925MPD2     C13532   0.544   2.322  14.959 -0.2786  0.3911  0.9401
  925MPD2    C113533   0.411   2.314  14.928 -0.2986  0.8070  0.5209
  925MPD2    C213534   0.315   2.297  15.030  0.1703 -0.4138 -0.2910
  925MPD2    C313535   0.356   2.279  15.164  0.1669  0.2707  0.3585
  925MPD2    C413536   0.486   2.276  15.192 -0.0914 -0.2284 -0.0372
  925MPD2    C513537   0.581   2.301  15.092 -0.0592  0.1086 -0.2359
  925MPD2     H13538   0.208   2.294  15.010  0.1603 -1.8495 -0.0611
  925MPD2    H113539   0.520   2.265  15.294 -1.0359  2.4194  0.5530
  925MPD2    H213540   0.627   2.358  14.899 -0.3364 -0.6886  0.2045
  925MPD2    H313541   0.686   2.308  15.118  0.7605 -0.2299 -3.4519
  925MPD2     N13542   0.262   2.261  15.272  0.2096  0.6380 -0.2222
  925MPD2    H513543   0.310   2.238  15.359 -1.0012 -0.0275  0.2714
  925MPD2    N113544   0.366   2.335  14.794  0.3948 -0.2005 -0.1873
  925MPD2    H713545   0.265   2.339  14.779 -0.0475 -3.4255  1.8908
  926MPD2     C13546   4.602   0.735  13.436  0.0428 -0.1043 -0.4567
  926MPD2    C113547   4.490   0.787  13.382  0.2532 -0.3017 -0.4619
  926MPD2    C213548   4.490   0.822  13.245 -0.5463  0.6403 -0.2516
  926MPD2    C313549   4.603   0.794  13.169 -0.3849  0.1669 -0.3417
  926MPD2    C413550   4.713   0.729  13.224  0.1722  0.8916  0.8547
  926MPD2    C513551   4.707   0.700  13.359  0.4789  0.2748 -0.4325
  926MPD2     H13552   4.401   0.864  13.199 -2.2099 -1.6392  0.8869
  926MPD2    H113553   0.078   0.695  13.174 -1.0300 -2.2820  0.8730
  926MPD2    H213554   4.612   0.701  13.539  0.6383 -3.5197 -1.6526
  926MPD2    H313555   0.064   0.646  13.407 -0.0599 -0.3421 -0.2187
  926MPD2     N13556   4.616   0.828  13.030 -0.1345 -0.3395 -0.4666
  926MPD2    H513557   4.697   0.791  12.980  0.8192  1.9377 -0.6103
  926MPD2    N113558   4.365   0.805  13.449 -0.4203  0.0311  0.5843
  926MPD2    H713559   4.288   0.848  13.398  0.8058  0.6815 -0.7290
  927MPD2     C13560   3.436   3.200   0.327  1.1029  0.3256  0.1684
  927MPD2    C113561   3.459   3.089   0.405 -0.2557 -0.2333  0.1615
  927MPD2    C213562   3.589   3.040   0.413 -0.5596 -0.3632 -0.4555
  927MPD2    C313563   3.692   3.093   0.337 -0.2483  0.0178  0.6374
  927MPD2    C413564   3.663   3.198   0.249 -0.5544 -0.3873  0.2207
  927MPD2    C513565   3.531   3.248   0.245 -0.5299 -0.4010 -0.2885
  927MPD2     H13566   3.611   2.951   0.471  1.4727  0.4335 -0.0122
  927MPD2    H113567   3.731   3.241   0.176 -0.5431  0.2226  0.5928
  927MPD2    H213568   3.340   3.251   0.335  0.3557 -0.5913 -2.9163
  927MPD2    H313569   3.506   3.325   0.173  2.6325 -0.2585 -1.2124
  927MPD2     N13570   3.816   3.028   0.327  0.1656 -0.2667  0.5734
  927MPD2    H513571   3.831   2.945   0.383  1.3851 -1.8454 -2.0698
  927MPD2    N113572   3.346   3.030   0.472 -0.2608  0.3222  0.3972
  927MPD2    H713573   3.253   3.067   0.452 -0.1153 -0.2703 -1.3872
  928MPD2     C13574   1.569   0.963   1.511 -0.1615 -0.8992  0.3211
  928MPD2    C113575   1.649   1.073   1.503  0.5838  0.8371  0.4392
  928MPD2    C213576   1.718   1.102   1.383  0.3793  0.0507  0.3272
  928MPD2    C313577   1.701   1.021   1.266 -0.0465  0.2742 -0.3470
  928MPD2    C413578   1.636   0.899   1.289 -0.4351  0.7376 -0.3882
  928MPD2    C513579   1.566   0.877   1.402  0.0460  0.1634  0.4282
  928MPD2     H13580   1.767   1.198   1.370 -0.1067  0.3675  0.8783
  928MPD2    H113581   1.610   0.825   1.215 -1.1479 -2.2766  2.8509
  928MPD2    H213582   1.500   0.933   1.588 -0.1237 -1.2742  0.2099
  928MPD2    H313583   1.504   0.789   1.416  2.7142 -1.5953  1.0368
  928MPD2     N13584   1.754   1.065   1.145 -0.1902  0.4605 -0.1478
  928MPD2    H513585   1.809   1.149   1.149 -0.7782  0.8540 -0.2906
  928MPD2    N113586   1.646   1.172   1.594  0.1704  0.1932  0.2015
  928MPD2    H713587   1.713   1.248   1.593  0.4090 -0.0386 -1.8204
  929MPD2     C13588   1.196   1.163  10.394 -0.5570 -1.0071  0.5721
  929MPD2    C113589   1.062   1.174  10.401 -0.1505  0.5238  0.7988
  929MPD2    C213590   0.981   1.146  10.284  0.1656 -0.5260 -0.3318
  929MPD2    C313591   1.042   1.109  10.159 -0.3141 -0.0427  0.7713
  929MPD2    C413592   1.180   1.102  10.163 -0.1366  0.2158 -0.2573
  929MPD2    C513593   1.252   1.135  10.278 -0.9766  0.2867  0.3455
  929MPD2     H13594   0.876   1.130  10.305  0.4676  2.5734  3.5395
  929MPD2    H113595   1.236   1.075  10.075 -1.6055 -2.5556 -0.3202
  929MPD2    H213596   1.254   1.195  10.480 -0.2593  2.3140 -0.8531
  929MPD2    H313597   1.360   1.136  10.267 -1.3043 -1.9639 -3.1617
  929MPD2     N13598   0.977   1.056  10.043 -0.5686 -0.2033  0.1261
  929MPD2    H513599   1.031   1.011   9.970  3.0114  2.6811  1.0137
  929MPD2    N113600   1.006   1.204  10.525  0.8507  0.2068 -0.2200
  929MPD2    H713601   1.066   1.200  10.607 -0.1058 -1.2871  0.4120
  930MPD2     C13602   3.417   3.863  14.403  0.3148  0.0265  0.3739
  930MPD2    C113603   3.498   3.815  14.310 -0.6366  0.2480  0.4675
  930MPD2    C213604   3.444   3.726  14.224 -0.5380  0.0384  0.2199
  930MPD2    C313605   3.316   3.681  14.228 -0.1433  0.0785  1.2908
  930MPD2    C413606   3.231   3.730  14.332 -0.1780 -0.0773 -0.1884
  930MPD2    C513607   3.291   3.819  14.417 -0.2627  0.2938 -0.4398
  930MPD2     H13608   3.508   3.691  14.144  1.8560  1.5438  1.4995
  930MPD2    H113609   3.125   3.712  14.341 -0.0691 -0.7986 -0.3264
  930MPD2    H213610   3.447   3.952  14.458  0.2403 -0.1373  0.6764
  930MPD2    H313611   3.244   3.876  14.496 -1.3240 -0.1601 -0.7501
  930MPD2     N13612   3.260   3.597  14.129 -0.0228 -0.2306  0.6182
  930MPD2    H513613   3.158   3.593  14.125  0.0391 -0.0768 -1.0375
  930MPD2    N113614   3.624   3.861  14.302 -0.0368  0.2755 -0.1702
  930MPD2    H713615   3.664   3.898  14.388  0.3388  0.0273 -0.2371
  931MPD2     C13616   3.423   2.503   0.995 -1.0536 -0.9528 -0.0525
  931MPD2    C113617   3.308   2.562   1.035  0.0105  0.2672 -0.2948
  931MPD2    C213618   3.239   2.518   1.150 -0.1458  0.6215 -0.0708
  931MPD2    C313619   3.283   2.399   1.210 -0.0098 -0.2033  0.3904
  931MPD2    C413620   3.407   2.344   1.172  0.2452 -0.0883 -0.8302
  931MPD2    C513621   3.470   2.395   1.061  0.4160  0.8626 -0.0393
  931MPD2     H13622   3.140   2.556   1.170 -0.1731  0.7373 -0.4152
  931MPD2    H113623   3.438   2.262   1.235  0.0552  0.4110 -0.0857
  931MPD2    H213624   3.480   2.535   0.909 -0.8285 -1.5434 -0.1233
  931MPD2    H313625   3.555   2.345   1.014  0.1230  0.9305 -0.6413
  931MPD2     N13626   3.216   2.339   1.312 -0.1758 -0.0522 -0.3297
  931MPD2    H513627   3.270   2.258   1.342 -3.6695 -1.5940  1.8213
  931MPD2    N113628   3.264   2.659   0.943 -0.1440 -0.1488  0.5020
  931MPD2    H713629   3.323   2.678   0.863 -1.2331 -2.7595 -0.9353
  932MPD2     C13630   1.151   1.996  11.584 -0.2038 -0.2895 -0.1399
  932MPD2    C113631   1.222   2.093  11.648  0.6365 -0.1329  0.7662
  932MPD2    C213632   1.287   2.058  11.770 -0.3381  0.6817 -0.2858
  932MPD2    C313633   1.261   1.936  11.838  0.0296 -0.8058 -0.1418
  932MPD2    C413634   1.189   1.842  11.765  0.1530 -0.3996  0.3516
  932MPD2    C513635   1.126   1.877  11.645 -0.2108 -0.2024 -0.5049
  932MPD2     H13636   1.357   2.125  11.820 -2.0520  0.4871  2.3324
  932MPD2    H113637   1.164   1.744  11.803 -0.1947  0.1914  1.6728
  932MPD2    H213638   1.102   2.016  11.490  1.1375  0.6229 -0.6498
  932MPD2    H313639   1.066   1.802  11.597 -1.2205 -0.5095  1.2381
  932MPD2     N13640   1.319   1.896  11.955 -0.1902  0.2615 -0.3157
  932MPD2    H513641   1.310   1.801  11.989  2.4653  0.3317  0.5865
  932MPD2    N113642   1.230   2.228  11.592  0.0313  0.1235  0.5167
  932MPD2    H713643   1.181   2.240  11.505  1.1325  4.2066  0.4784
  933MPD2     C13644   1.455   1.934   2.040  0.4143 -0.3251  0.2126
  933MPD2    C113645   1.404   1.843   1.947 -0.6965  0.7098  0.2782
  933MPD2    C213646   1.287   1.876   1.881 -0.4561 -0.6054  0.4798
  933MPD2    C313647   1.241   2.006   1.886  0.5680  0.0404  0.1471
  933MPD2    C413648   1.304   2.102   1.966 -0.1672  0.4701  0.8000
  933MPD2    C513649   1.406   2.062   2.050  0.1004  0.5764  0.6930
  933MPD2     H13650   1.225   1.806   1.826 -0.2212 -1.2303  1.0149
  933MPD2    H113651   1.274   2.205   1.975  3.0094  1.4886 -0.3476
  933MPD2    H213652   1.533   1.911   2.111 -0.4110  1.7141  1.7906
  933MPD2    H313653   1.451   2.130   2.121 -2.0717 -0.8988  3.4601
  933MPD2     N13654   1.133   2.035   1.801 -0.1731 -0.6862  0.0049
  933MPD2    H513655   1.100   1.964   1.736  1.1233 -0.9566 -0.3501
  933MPD2    N113656   1.460   1.717   1.936  0.0669  0.0104  0.1810
  933MPD2    H713657   1.537   1.704   2.001  0.1290  3.3369  0.7738
  934MPD2     C13658   2.872   4.375   2.264 -0.0718 -0.2259 -0.0794
  934MPD2    C113659   2.844   4.344   2.133 -0.3100 -0.1417 -0.5681
  934MPD2    C213660   2.720   4.287   2.097 -0.2054 -0.0540  0.2663
  934MPD2    C313661   2.625   4.260   2.193  0.2836  0.3933  0.5919
  934MPD2    C413662   2.644   4.299   2.326 -0.1035 -0.3099  0.5922
  934MPD2    C513663   2.771   4.351   2.355  0.4154 -0.2971  0.8901
  934MPD2     H13664   2.707   4.253   1.994  2.3436 -0.1595 -0.0209
  934MPD2    H113665   2.576   4.261   2.401  1.0381 -1.2491  1.1555
  934MPD2    H213666   2.966   4.412   2.304 -1.7759  0.0161  3.7668
  934MPD2    H313667   2.799   4.375   2.457 -0.5675 -1.4053  1.4217
  934MPD2     N13668   2.492   4.204   2.164 -0.4886  0.4407 -1.1344
  934MPD2    H513669   2.422   4.209   2.238 -0.8071  0.7892 -1.4611
  934MPD2    N113670   2.942   4.361   2.032  0.3508  0.6927 -0.2938
  934MPD2    H713671   2.916   4.324   1.941 -2.4405  0.4502  0.6005
  935MPD2     C13672   1.729   3.557   1.791  0.1370 -0.1688  0.2377
  935MPD2    C113673   1.866   3.569   1.764  0.5383  0.6021  0.2441
  935MPD2    C213674   1.933   3.667   1.826 -0.8103 -0.0186  0.1643
  935MPD2    C313675   1.871   3.770   1.894  0.1878  0.1192 -0.2098
  935MPD2    C413676   1.737   3.756   1.916 -0.5285 -0.4219 -0.9119
  935MPD2    C513677   1.672   3.647   1.875  0.1497 -0.4165  0.3467
  935MPD2     H13678   2.040   3.649   1.821 -1.2040 -2.8574  1.5292
  935MPD2    H113679   1.675   3.821   1.978 -1.8750 -2.1914 -0.4107
  935MPD2    H213680   1.669   3.486   1.735  2.3562 -1.0871 -0.9952
  935MPD2    H313681   1.567   3.651   1.904 -0.5030  1.0988 -2.2025
  935MPD2     N13682   1.945   3.869   1.959 -0.3653 -0.5417  0.1449
  935MPD2    H513683   1.894   3.933   2.019 -1.6242 -0.4098 -1.0728
  935MPD2    N113684   1.934   3.464   1.694  0.3468  0.3861  0.5217
  935MPD2    H713685   2.035   3.460   1.698  0.3445  0.1114  0.3095
  936MPD2     C13686   1.244   0.419  12.954 -0.2931  0.5095 -0.4708
  936MPD2    C113687   1.265   0.373  13.087  0.4543  0.0492  0.3186
  936MPD2    C213688   1.333   0.446  13.171  0.6665 -0.1067 -0.0411
  936MPD2    C313689   1.383   0.569  13.140 -0.4127 -0.7686 -0.1384
  936MPD2    C413690   1.364   0.613  13.006  1.0975 -0.1260  0.2906
  936MPD2    C513691   1.287   0.541  12.921  0.5981 -0.6209 -0.0908
  936MPD2     H13692   1.352   0.407  13.271 -0.9625 -1.8311 -0.4147
  936MPD2    H113693   1.398   0.709  12.969  0.5908  0.2625  0.8359
  936MPD2    H213694   1.202   0.351  12.881  1.7025  0.0145 -1.1491
  936MPD2    H313695   1.267   0.575  12.820 -1.4790 -0.3936  0.3946
  936MPD2     N13696   1.475   0.644  13.217 -0.3360  0.0882 -0.5216
  936MPD2    H513697   1.504   0.734  13.179 -0.1826  0.9971  1.7647
  936MPD2    N113698   1.236   0.241  13.120 -0.4145 -0.1940 -0.2989
  936MPD2    H713699   1.255   0.215  13.216  1.2829 -2.5568 -1.2526
  937MPD2     C13700   4.241   2.106  11.813  0.2798 -0.0275 -0.4503
  937MPD2    C113701   4.244   2.238  11.784 -0.1565  0.4981 -0.1629
  937MPD2    C213702   4.297   2.285  11.671  0.6382 -0.3745  0.1161
  937MPD2    C313703   4.355   2.198  11.588  0.9824 -0.7443 -0.4338
  937MPD2    C413704   4.356   2.067  11.611  0.1184  0.3175 -0.1818
  937MPD2    C513705   4.291   2.015  11.729  0.1226  0.2238 -0.4146
  937MPD2     H13706   4.284   2.391  11.649  1.3714 -0.5899 -1.3468
  937MPD2    H113707   4.397   1.994  11.543 -0.5112 -1.1678  1.0268
  937MPD2    H213708   4.197   2.066  11.904 -2.8001  1.3096 -1.3323
  937MPD2    H313709   4.296   1.910  11.753  1.5966  0.0728 -1.3632
  937MPD2     N13710   4.402   2.250  11.466  0.1893 -0.0120  0.1816
  937MPD2    H513711   4.399   2.351  11.453 -1.6342 -0.2042 -0.9665
  937MPD2    N113712   4.157   2.327  11.858 -0.5922  0.3508  0.3202
  937MPD2    H713713   4.143   2.419  11.817 -1.1659  0.1937  0.1627
  938MPD2     C13714   1.580   3.596   1.119 -0.8050  0.8108  0.4619
  938MPD2    C113715   1.550   3.571   1.250 -0.3672 -0.0436  0.4614
  938MPD2    C213716   1.465   3.468   1.290  0.2188 -0.2841 -0.5018
  938MPD2    C313717   1.417   3.380   1.191  0.4467 -0.2655  0.5388
  938MPD2    C413718   1.445   3.413   1.059  0.0147  0.1526 -0.0598
  938MPD2    C513719   1.514   3.528   1.023  0.2284 -0.2626 -0.2643
  938MPD2     H13720   1.450   3.457   1.397 -0.2920  2.7609 -0.2639
  938MPD2    H113721   1.389   3.355   0.986 -0.6890 -0.1522  0.7210
  938MPD2    H213722   1.648   3.674   1.087 -0.9818 -0.2988 -2.5568
  938MPD2    H313723   1.533   3.543   0.918 -1.8909  1.5210 -0.3742
  938MPD2     N13724   1.335   3.269   1.224  0.2370  0.3020  0.2809
  938MPD2    H513725   1.304   3.215   1.144  1.0129  1.5336 -0.8545
  938MPD2    N113726   1.607   3.645   1.354 -0.4587 -0.2187  0.5770
  938MPD2    H713727   1.557   3.637   1.442  0.2622  1.2619  1.1255
  939MPD2     C13728   2.937   0.346   0.733 -0.7664  0.3753  0.4174
  939MPD2    C113729   3.046   0.353   0.815  0.3079 -0.3923  0.0376
  939MPD2    C213730   3.176   0.342   0.761  0.6047  0.7399  0.4219
  939MPD2    C313731   3.194   0.314   0.621 -1.1400 -0.5770 -0.0310
  939MPD2    C413732   3.083   0.304   0.545  0.1170 -0.3493  0.5765
  939MPD2    C513733   2.955   0.329   0.598 -0.1793 -0.7067  0.1646
  939MPD2     H13734   3.266   0.345   0.821  0.0643 -2.1059  1.3833
  939MPD2    H113735   3.082   0.296   0.437 -0.0836 -0.0395  0.5574
  939MPD2    H213736   2.838   0.346   0.776 -0.9095 -0.7294  0.0940
  939MPD2    H313737   2.867   0.326   0.536  0.2402 -0.7609 -0.4214
  939MPD2     N13738   3.325   0.313   0.575 -0.2262  0.2491  0.0552
  939MPD2    H513739   3.389   0.301   0.653 -1.4481  2.3095  1.3663
  939MPD2    N113740   3.020   0.365   0.951  0.1541  0.3409 -0.0017
  939MPD2    H713741   2.924   0.361   0.984 -0.0719 -0.3676 -0.7174
  940MPD2     C13742   2.208   0.743  13.469  0.9365 -0.3387 -0.1950
  940MPD2    C113743   2.224   0.630  13.551 -0.6226  0.5887  0.5873
  940MPD2    C213744   2.271   0.519  13.494  0.0003  0.4798 -0.8139
  940MPD2    C313745   2.320   0.519  13.362  0.0162 -0.0149 -0.2163
  940MPD2    C413746   2.301   0.634  13.286  0.6197 -0.1755 -0.3615
  940MPD2    C513747   2.254   0.753  13.338  0.6804  1.1769 -0.5237
  940MPD2     H13748   2.278   0.433  13.559 -1.6453 -0.1021 -1.4156
  940MPD2    H113749   2.315   0.637  13.179 -0.6168  3.4377 -0.4097
  940MPD2    H213750   2.164   0.834  13.508 -0.5985 -0.4711 -1.6057
  940MPD2    H313751   2.237   0.837  13.272  1.8863  2.1210  0.3640
  940MPD2     N13752   2.385   0.412  13.296  0.4655  0.5971  0.7179
  940MPD2    H513753   2.437   0.428  13.210 -0.3682  0.5871  0.2115
  940MPD2    N113754   2.162   0.604  13.678 -0.4417  0.2082  0.0724
  940MPD2    H713755   2.180   0.514  13.721 -1.4204  0.3596  0.8054
  941MPD2     C13756   1.449   4.307   9.392  0.0478 -0.2314 -0.1397
  941MPD2    C113757   1.492   4.348   9.512  0.1157  0.3572  0.0262
  941MPD2    C213758   1.534   4.252   9.603  0.8578  0.2523 -0.1732
  941MPD2    C313759   1.535   4.119   9.571  0.3941 -0.5183  0.3850
  941MPD2    C413760   1.488   4.090   9.454  0.6495  0.1398 -0.3942
  941MPD2    C513761   1.442   4.181   9.361  0.0882  0.3829  0.1658
  941MPD2     H13762   1.571   4.286   9.699  1.1594  1.0549 -0.5718
  941MPD2    H113763   1.484   3.985   9.425 -0.7167 -0.8240  3.2985
  941MPD2    H213764   1.399   4.364   9.314 -1.1318  0.6306  1.2461
  941MPD2    H313765   1.400   4.140   9.270  1.1782  1.1676 -0.6852
  941MPD2     N13766   1.581   4.011   9.653  0.0716  1.3358 -0.8050
  941MPD2    H513767   1.578   3.919   9.610 -2.1460  0.8008  0.4881
  941MPD2    N113768   1.507   4.486   9.547 -0.0040 -0.5836  0.5945
  941MPD2    H713769   1.551   4.498   9.638  1.4922  0.5762 -0.2872
  942MPD2     C13770   0.091   0.639   9.939  0.9402 -0.3232  0.1310
  942MPD2    C113771   0.131   0.563   9.832 -0.0115 -0.4013  0.3976
  942MPD2    C213772   0.130   0.622   9.708 -1.1079  0.4144  0.0575
  942MPD2    C313773   0.118   0.760   9.699 -0.1580 -0.5572  0.6030
  942MPD2    C413774   0.101   0.835   9.810 -0.0344 -0.5606  0.1835
  942MPD2    C513775   0.085   0.775   9.930  0.0752 -0.0197 -0.4751
  942MPD2     H13776   0.147   0.573   9.612 -1.2858  1.7743 -0.6664
  942MPD2    H113777   0.089   0.943   9.806  1.4059 -0.3526  1.3473
  942MPD2    H213778   0.072   0.597  10.037 -0.7568  0.1689  0.0064
  942MPD2    H313779   0.053   0.833  10.015  0.3012 -0.5011 -0.0633
  942MPD2     N13780   0.110   0.827   9.572 -0.9187 -0.2708  0.0789
  942MPD2    H513781   0.106   0.928   9.575 -1.7859 -0.3149  0.3444
  942MPD2    N113782   0.155   0.427   9.839 -0.3918  0.0213  0.1525
  942MPD2    H713783   0.145   0.372   9.755 -0.3978 -2.0199  1.4901
  943MPD2     C13784   4.105   3.735   9.922 -0.3990 -0.4109  0.0435
  943MPD2    C113785   4.137   3.726  10.057 -0.0611 -0.2383 -0.5568
  943MPD2    C213786   4.089   3.617  10.129  0.3272 -0.7893  0.6445
  943MPD2    C313787   4.030   3.503  10.067  0.3061 -0.0972  0.1962
  943MPD2    C413788   4.005   3.508   9.928  0.2968  0.3491  0.8440
  943MPD2    C513789   4.034   3.622   9.863  0.2333  0.2270 -0.2372
  943MPD2     H13790   4.121   3.602  10.232  0.1396  0.0784  0.8359
  943MPD2    H113791   3.966   3.425   9.870  0.5423 -0.9522  2.5556
  943MPD2    H213792   4.137   3.819   9.861  2.2711 -0.9623  0.6647
  943MPD2    H313793   4.003   3.629   9.760  1.1490 -1.3731 -0.6207
  943MPD2     N13794   4.024   3.379  10.125 -0.0474  0.1147 -0.2945
  943MPD2    H513795   4.009   3.298  10.065  0.2924  0.6305 -1.0760
  943MPD2    N113796   4.215   3.821  10.128 -0.0603  0.1080  0.3123
  943MPD2    H713797   4.250   3.786  10.216 -0.0735  0.9760  0.6637
  944MPD2     C13798   0.159   2.882  11.728 -0.1473 -0.8505 -0.0655
  944MPD2    C113799   0.188   3.002  11.672  0.2335 -0.3434  0.1695
  944MPD2    C213800   0.097   3.106  11.695 -0.3991 -0.7605 -0.0367
  944MPD2    C313801   4.714   3.099  11.777  0.5467 -0.2210 -0.3157
  944MPD2    C413802   4.684   2.977  11.831  0.2717 -0.1814 -0.6280
  944MPD2    C513803   0.044   2.871  11.809 -0.1561  0.6828  0.4164
  944MPD2     H13804   0.105   3.204  11.649 -0.7272 -1.3329 -1.3198
  944MPD2    H113805   4.600   2.965  11.898 -1.2558  1.2393 -2.3062
  944MPD2    H213806   0.221   2.794  11.719  0.9008 -0.1816  0.5433
  944MPD2    H313807   0.020   2.779  11.861  0.3175  0.5357  0.3716
  944MPD2     N13808   4.636   3.221  11.791  0.1972 -0.0619  0.0989
  944MPD2    H513809   4.650   3.302  11.731 -0.0085 -0.7799 -0.9218
  944MPD2    N113810   0.310   3.024  11.597  0.5260  0.2136  0.3734
  944MPD2    H713811   0.374   2.948  11.580  0.3715  0.1725 -0.0133
    1TCq1    O113812   2.330   4.019  14.503  0.3056  0.2185 -0.3902
    1TCq1    C113813   2.439   4.093  14.525  0.0792 -0.4655 -0.4611
    1TCq1    O213814   2.520   4.117  14.437 -0.6652  0.0654 -0.8762
    1TCq1    C213815   2.464   4.095  14.670 -0.6286  0.3267  0.6669
    1TCq1    C313816   2.376   4.174  14.747  0.2523 -0.9100  0.0150
    1TCq1    C413817   2.431   4.239  14.860  0.8210  0.3935  0.3734
    1TCq1    C513818   2.561   4.230  14.894  0.4812  0.1776  0.5786
    1TCq1    C613819   2.639   4.156  14.807  0.0008  0.3669 -0.2210
    1TCq1    C713820   2.591   4.077  14.709 -0.2101 -0.0643 -0.9791
    1TCq1    C813821   2.783   4.166  14.812 -0.9328  0.3480  0.7737
    1TCq1    O413822   2.859   4.078  14.778 -0.4503  0.3159  0.1109
    1TCq1    C913823   2.343   4.317  14.949  0.4605 -0.3896 -0.9860
    1TCq1    O513824   2.396   4.412  15.016  0.8785 -0.2271  0.2524
    1TCq1    O613825   2.216   4.299  14.939 -0.5916  0.3498 -0.7448
    1TCq1    H113826   2.278   4.017  14.586 -0.0749  3.3340 -0.5494
    1TCq1    H213827   2.274   4.184  14.712  0.6326 -0.4031 -0.9503
    1TCq1    H313828   2.607   4.289  14.973  0.6469  0.5783  0.1804
    1TCq1    H413829   2.661   4.036  14.637  1.2091  0.2777  0.2062
    2MPD2     C13830   3.162   4.532  14.836  0.1945 -0.5530  0.0393
    2MPD2    C113831   3.042   4.587  14.861  0.2419 -0.1054  0.6994
    2MPD2    C213832   2.933   4.503  14.856 -0.0037 -0.0715  0.3411
    2MPD2    C313833   2.939   4.370  14.835 -0.2821  0.3989 -0.5715
    2MPD2    C413834   3.057   4.313  14.806 -0.1459  0.1060 -0.3953
    2MPD2    C513835   3.166   4.395  14.803  0.7283 -0.2416 -0.9077
    2MPD2     H13836   2.836   4.534  14.894 -0.8973 -0.2800 -1.7601
    2MPD2    H113837   3.060   4.205  14.808 -1.8727  0.0607  0.0517
    2MPD2    H213838   3.247   4.597  14.845 -1.0875  0.8250  2.0317
    2MPD2    H313839   3.262   4.349  14.782  1.6772 -0.7389  4.4302
    2MPD2     N13840   2.816   4.298  14.840  0.0448  0.8978  0.1573
    2MPD2    H513841   2.732   4.350  14.862 -0.3547 -0.7271  2.4830
    2MPD2    N113842   3.038   0.005  14.872  0.2242 -0.3171 -0.5960
    2MPD2    H713843   3.119   0.054  14.838  1.5501 -0.7783  1.8576
    3TMC2    C113844   2.902   0.203  14.835 -0.0424  0.0168  0.3018
    3TMC2    C213845   3.010   0.273  14.789  0.2264 -0.2014 -0.2506
    3TMC2    C313846   2.985   0.385  14.720  0.2498  0.6319  0.4703
    3TMC2    C413847   2.772   0.239  14.798 -0.0177 -0.1283  0.7584
    3TMC2    C513848   2.752   0.345  14.716  0.2078  0.4438 -0.3288
    3TMC2    C613849   2.857   0.427  14.687  0.0175  0.0143  0.1974
    3TMC2     C13850   2.912   0.067  14.883  0.5640 -0.3474  0.3412
    3TMC2     O13851   2.808   0.014  14.925 -0.0846  0.1248  0.7103
    3TMC2     H13852   3.111   0.247  14.817  0.3901  0.6267 -0.0769
    3TMC2    H113853   2.686   0.176  14.815 -1.4715  1.9398  1.0690
    3TMC2    H213854   2.849   0.513  14.622  1.4400 -1.3548 -1.7799
    3TMC2    C713855   2.618   0.387  14.679 -0.9015 -0.2681  0.4961
    3TMC2    C813856   3.088   0.455  14.658  0.1402 -0.3448  0.1390
    3TMC2    O113857   2.530   0.347  14.754 -0.0725 -0.2885 -0.0439
    3TMC2    O213858   3.069   0.561  14.599  0.1588  0.1555  0.1985
    3TMC2    O513859   3.206   0.400  14.687 -0.2496  0.1324  0.3173
    3TMC2    H513860   3.205   0.302  14.692  0.8669  0.1564  0.9417
    4MPD2     C13861   2.128   1.618  13.746  0.6058 -0.8386  0.1505
    4MPD2    C113862   2.199   1.531  13.663 -0.5730  0.0035  0.1854
    4MPD2    C213863   2.283   1.435  13.720 -0.0966 -0.1367  0.8384
    4MPD2    C313864   2.288   1.418  13.854 -0.3179  0.2575  0.2813
    4MPD2    C413865   2.230   1.509  13.942 -0.4009  0.8379 -0.1533
    4MPD2    C513866   2.150   1.613  13.887 -0.5474  0.0477 -0.3945
    4MPD2     H13867   2.338   1.364  13.659  0.2443  0.5653  0.3285
    4MPD2    H113868   2.227   1.486  14.048 -1.8224 -0.4351 -0.4595
    4MPD2    H213869   2.071   1.701  13.706 -1.5944 -2.3209  0.1640
    4MPD2    H313870   2.103   1.687  13.950 -1.8074 -2.2209  1.3686
    4MPD2     N13871   2.369   1.316  13.904  0.0464  1.5220 -0.6470
    4MPD2    H513872   2.397   1.249  13.833 -1.6027  0.7294 -0.5501
    4MPD2    N113873   2.178   1.550  13.521  0.3373  0.6042  0.8860
    4MPD2    H713874   2.105   1.616  13.494 -0.2111 -0.1032  0.6446
    5TCq2    C113875   2.377   1.269  14.035  0.4169 -0.0161 -0.0096
    5TCq2    O213876   2.313   1.285  14.138 -0.2393 -0.0302  0.1127
    5TCq2    C213877   2.476   1.160  14.037 -0.1674  0.1475  0.2111
    5TCq2    C313878   2.582   1.166  13.953 -1.0583  0.5930 -0.6145
    5TCq2    C413879   2.667   1.060  13.941  0.0980  0.1628  0.3188
    5TCq2    C513880   2.651   0.958  14.028  0.2762 -0.1586  0.3194
    5TCq2    C613881   2.545   0.953  14.115 -0.0309  0.0855  0.4492
    5TCq2    C713882   2.451   1.055  14.121  0.8658 -0.1843 -0.7237
    5TCq2    C813883   2.543   0.833  14.197  0.7030  0.4699  0.4240
    5TCq2    O413884   2.630   0.749  14.175 -0.0255  0.4750  0.0200
    5TCq2    C913885   2.758   1.050  13.835 -0.4090 -0.0693  0.5372
    5TCq2    O513886   2.844   0.958  13.828 -0.4711  0.3048 -0.1133
    5TCq2    O613887   2.744   1.144  13.750 -0.0293  0.3233 -0.0551
    5TCq2    H213888   2.609   1.250  13.890 -0.6276 -0.4613 -1.8309
    5TCq2    H313889   2.713   0.872  14.006 -2.2878 -1.9730  0.1268
    5TCq2    H413890   2.361   1.057  14.182 -0.2971 -0.6953 -2.4504
    6MPD1     C13891   0.656   1.580  14.056 -0.5237 -0.3725 -0.2658
    6MPD1    C113892   0.694   1.451  14.045 -1.0548 -0.2901 -0.3625
    6MPD1    C213893   0.794   1.418  13.954 -0.1194 -0.3766  0.3845
    6MPD1    C313894   0.830   1.512  13.857 -0.2586 -0.0560 -0.3321
    6MPD1    C413895   0.768   1.639  13.856 -0.0622  0.1167  0.0794
    6MPD1    C513896   0.695   1.678  13.968 -0.4933 -0.9926  0.4741
    6MPD1     H13897   0.846   1.324  13.974  0.0195 -0.4479 -0.3080
    6MPD1    H113898   0.786   1.718  13.784  1.6129  0.3614  0.7701
    6MPD1    H213899   0.589   1.609  14.137  0.4600  0.8120  0.1132
    6MPD1    H313900   0.651   1.777  13.975 -0.2648 -1.0112  2.1632
    6MPD1     N13901   0.933   1.489  13.756 -0.1055  0.2747  0.6715
    6MPD1    H513902   0.959   1.570  13.700 -0.4436  0.5146  0.8645
    6MPD1    N113903   0.683   1.365  14.155  0.0847 -0.6269 -0.1254
    6MPD1    H613904   0.700   1.270  14.126  0.5837 -1.1356  1.8202
    6MPD1    H713905   0.593   1.379  14.203  0.7421 -1.3375  1.3219
    7MPD2     C13906   1.647   1.058  13.587 -0.3768 -0.3696  0.0061
    7MPD2    C113907   1.609   1.136  13.480 -0.2810  0.5471  0.1879
    7MPD2    C213908   1.706   1.182  13.398 -0.2083  0.2453 -0.8737
    7MPD2    C313909   1.838   1.154  13.409  0.0407 -0.2931  0.5379
    7MPD2    C413910   1.872   1.072  13.514  0.4148  0.3584  0.1035
    7MPD2    C513911   1.779   1.023  13.607 -0.0814  0.5700 -0.5041
    7MPD2     H13912   1.666   1.250  13.324  1.0146  0.9822 -0.8689
    7MPD2    H113913   1.968   1.024  13.526 -0.0338 -0.4505  0.4600
    7MPD2    H213914   1.578   1.004  13.651 -0.4700 -1.3586 -0.9203
    7MPD2    H313915   1.805   0.946  13.679 -0.3167  1.1810  0.2338
    7MPD2     N13916   1.937   1.207  13.325  0.4394 -0.0710  0.4296
    7MPD2    H513917   2.032   1.188  13.354  0.5199  0.0480  0.2430
    7MPD2    N113918   1.476   1.188  13.472  0.0818  0.2131 -0.2573
    7MPD2    H713919   1.450   1.225  13.381 -0.2934 -1.1768 -0.7151
    8TMC3    C113920   2.029   1.360  13.151 -0.2193 -0.4986  0.6407
    8TMC3    C213921   2.143   1.356  13.237  0.1742  0.3522 -0.2399
    8TMC3    C313922   2.168   1.481  13.289 -0.4966 -0.1591 -0.3801
    8TMC3    C413923   1.973   1.478  13.100 -0.2221  0.8238 -0.6284
    8TMC3    C513924   2.003   1.600  13.160  0.0914  0.2653 -0.1506
    8TMC3    C613925   2.109   1.597  13.247  0.0806 -0.2313  0.2760
    8TMC3     C13926   1.916   1.288  13.212  0.0374 -0.7899  0.2493
    8TMC3     O13927   1.809   1.299  13.150 -0.3072  0.7649 -0.2927
    8TMC3     H13928   2.201   1.268  13.261 -0.1036 -0.0440 -1.0060
    8TMC3    H113929   1.886   1.470  13.035  1.0876 -1.8141 -2.0478
    8TMC3    H213930   2.131   1.685  13.306 -0.9291 -0.8934  1.6278
    8TMC3    C713931   1.876   1.647  13.210 -0.3873  0.1261  0.0367
    8TMC3    C813932   2.228   1.468  13.422  0.2465 -0.2744 -0.7851
    8TMC3    O113933   1.864   1.653  13.331  0.2212 -0.3631 -0.2746
    8TMC3    O213934   2.290   1.366  13.442 -0.4649  0.2726  0.0037
    9TMC3    C113935   1.104   1.378  13.641 -0.0129  0.0585  0.3229
    9TMC3    C213936   1.152   1.499  13.595 -0.6212 -0.1005 -0.0251
    9TMC3    C313937   1.255   1.494  13.506  0.0091  0.3573  0.0067
    9TMC3    C413938   1.165   1.259  13.607 -0.1655 -1.2148 -0.6136
    9TMC3    C513939   1.270   1.263  13.529  0.0809 -0.2409 -0.2466
    9TMC3    C613940   1.308   1.375  13.464 -1.3725 -0.6670 -0.5425
    9TMC3     C13941   0.992   1.366  13.736 -0.2428 -0.2902  0.7796
    9TMC3     O13942   0.979   1.258  13.789  0.6602  0.2581  0.5445
    9TMC3     H13943   1.111   1.587  13.643 -2.0828 -0.5519 -0.4367
    9TMC3    H113944   1.133   1.173  13.665 -1.0756 -1.5488 -1.6066
    9TMC3    H213945   1.372   1.374  13.377  0.3744 -0.9594  0.7497
    9TMC3    C713946   1.370   1.164  13.559  0.4037  0.0192 -0.6960
    9TMC3    C813947   1.267   1.602  13.414  1.0754  0.0099 -0.8948
    9TMC3    O113948   1.363   1.101  13.662  0.6344 -0.6465  0.0148
    9TMC3    O213949   1.166   1.661  13.377 -0.5465  0.0427 -0.1300
   10MPD2     C13950   1.577   1.758  13.037  0.4518  0.0624  0.0755
   10MPD2    C113951   1.652   1.692  13.125  0.4162  0.6505 -0.4990
   10MPD2    C213952   1.589   1.646  13.239  0.1425  0.1001 -0.5044
   10MPD2    C313953   1.456   1.667  13.263  0.5879 -0.1713  0.4463
   10MPD2    C413954   1.382   1.743  13.177 -0.0784  1.1099  0.1333
   10MPD2    C513955   1.446   1.784  13.060 -0.3392 -0.4375  0.5637
   10MPD2     H13956   1.645   1.596  13.317  1.1997 -1.8016 -2.4703
   10MPD2    H113957   1.275   1.757  13.194 -0.3382  0.2478 -0.7707
   10MPD2    H213958   1.625   1.793  12.946 -0.0797  0.4859 -0.0433
   10MPD2    H313959   1.400   1.842  12.981  0.5234 -0.3771  0.1070
   10MPD2     N13960   1.398   1.610  13.378 -0.3579 -0.0845  0.0021
   10MPD2    H513961   1.461   1.566  13.445 -2.0381 -2.4279  0.0345
   10MPD2    N113962   1.794   1.682  13.109  0.2815  0.2778 -0.6186
   10MPD2    H713963   1.836   1.704  13.019 -1.1160  0.6549 -1.1772
   11MPD2     C13964   2.393   0.570  14.610  0.5462 -0.0115 -0.8811
   11MPD2    C113965   2.508   0.562  14.535  0.7391 -0.0889 -0.3067
   11MPD2    C213966   2.523   0.644  14.427  0.8152  0.5026  0.9852
   11MPD2    C313967   2.430   0.744  14.400  0.0400 -0.7506 -0.3307
   11MPD2    C413968   2.317   0.746  14.470  0.1443 -0.2990 -0.3589
   11MPD2    C513969   2.302   0.661  14.573  0.4849 -0.6459  0.1583
   11MPD2     H13970   2.617   0.653  14.375  1.2049  3.4242  2.2124
   11MPD2    H113971   2.238   0.815  14.443  0.7241  0.8739  0.9435
   11MPD2    H213972   2.371   0.510  14.698  0.0985  1.1697 -0.1882
   11MPD2    H313973   2.222   0.670  14.647  3.7708 -1.5814  3.8177
   11MPD2     N13974   2.441   0.832  14.289  0.1516  0.4693 -0.0453
   11MPD2    H513975   2.366   0.899  14.273 -0.0644  0.6276  1.6194
   11MPD2    N113976   2.614   0.475  14.575 -0.0346 -0.1919 -0.4260
   11MPD2    H713977   2.699   0.478  14.519  0.0824 -0.1238 -0.2437
    1MPD1     C13978   0.837   1.215  17.562 -0.3942 -0.1672 -0.1948
    1MPD1    C113979   0.911   1.242  17.446  0.3980 -0.9504  0.7148
    1MPD1    C213980   0.853   1.290  17.331  0.1966 -0.0867  0.3764
    1MPD1    C313981   0.724   1.348  17.337  0.2253  0.7157  0.2344
    1MPD1    C413982   0.657   1.344  17.456 -0.0467 -0.6276  0.2328
    1MPD1    C513983   0.720   1.287  17.567 -0.4797  0.2407  0.8810
    1MPD1     H13984   0.906   1.277  17.238 -0.5187  1.0285 -0.1915
    1MPD1    H113985   0.559   1.385  17.477 -0.2152 -0.7675 -0.2959
    1MPD1    H213986   0.874   1.160  17.648  0.2749  2.5575  1.2608
    1MPD1    H313987   0.651   1.281  17.650 -0.0883 -0.4603  1.1575
    1MPD1     N13988   0.660   1.399  17.224  0.9614  0.2742  0.1815
    1MPD1    H513989   0.568   1.439  17.243 -0.3020 -3.1364  1.2158
    1MPD1    N113990   1.038   1.185  17.440  0.6698 -0.2825 -0.3458
    1MPD1    H613991   1.104   1.240  17.385  1.8522 -1.3775 -0.0205
    1MPD1    H713992   1.079   1.178  17.533 -0.8287  1.0762  0.4096
    2MPD1     C13993   0.661   1.777  16.190  0.7077 -1.1722 -0.0405
    2MPD1    C113994   0.571   1.854  16.269 -0.8241 -0.5758 -0.2349
    2MPD1    C213995   0.541   1.814  16.394 -0.0578 -0.7602  0.1755
    2MPD1    C313996   0.596   1.700  16.447  0.4972  0.0428 -0.4105
    2MPD1    C413997   0.686   1.628  16.371  0.1728 -0.4806  0.7337
    2MPD1    C513998   0.717   1.668  16.246  0.2513 -0.2573 -0.4097
    2MPD1     H13999   0.481   1.863  16.470 -1.0688  1.0039 -1.7336
    2MPD1    H114000   0.721   1.529  16.399 -1.1035 -0.8963  0.8516
    2MPD1    H214001   0.699   1.818  16.097 -1.3597  1.4063  0.2345
    2MPD1    H314002   0.784   1.602  16.193  1.5939 -1.1093  2.3424
    2MPD1     N14003   0.552   1.669  16.578  0.1717 -0.2453  0.4693
    2MPD1    H514004   0.474   1.726  16.608 -0.3344 -0.8233  0.2535
    2MPD1    N114005   0.509   1.965  16.203 -0.0706  0.6647 -0.6320
    2MPD1    H614006   0.449   2.019  16.265  0.7375  2.0574 -1.0682
    2MPD1    H714007   0.590   2.022  16.178 -0.1713 -1.0934 -4.9795
    3TMC3    C114008   0.558   1.578  16.793 -0.1609  0.0810 -0.0627
    3TMC3    C214009   0.428   1.579  16.816 -0.3180 -0.1278 -0.0303
    3TMC3    C314010   0.389   1.531  16.945  0.5800  0.0439  0.5552
    3TMC3    C414011   0.650   1.523  16.882  0.0316  0.1883 -0.0673
    3TMC3    C514012   0.611   1.485  17.009  0.2494 -0.5110  0.5729
    3TMC3    C614013   0.478   1.498  17.042 -0.0772 -0.0603  0.7351
    3TMC3     C14014   0.603   1.573  16.655  0.5404 -0.0732  0.1073
    3TMC3     O14015   0.707   1.513  16.632 -0.2839  0.1297 -0.1525
    3TMC3     H14016   0.362   1.602  16.734  0.0734  1.3135  0.0652
    3TMC3    H114017   0.755   1.525  16.854  0.2722  1.8841  0.9513
    3TMC3    H214018   0.439   1.472  17.140  0.6392 -2.4210  0.3863
    3TMC3    C714019   0.713   1.445  17.104  0.0680  0.1990  0.5556
    3TMC3    C814020   0.248   1.531  16.986  0.5341 -0.6853 -0.2681
    3TMC3    O114021   0.832   1.444  17.065  0.2239 -0.0110  0.6648
    3TMC3    O214022   0.228   1.530  17.106 -0.4246  0.2926 -0.0519
    4MPD1     C14023   4.467   1.550  16.903 -0.4156  0.0258  0.0818
    4MPD1    C114024   4.530   1.541  16.785 -0.0186 -0.5954  0.8191
    4MPD1    C214025   4.669   1.541  16.780  0.5027 -0.2613  0.9937
    4MPD1    C314026   0.018   1.547  16.896  0.8967 -0.4538 -0.3437
    4MPD1    C414027   4.677   1.554  17.017 -0.3525  0.2359 -0.4855
    4MPD1    C514028   4.540   1.551  17.016 -0.3641 -0.3624  0.2830
    4MPD1     H14029   0.006   1.542  16.691 -0.7180  0.4650  0.1658
    4MPD1    H114030   0.000   1.562  17.114  1.7682 -1.5614 -1.3656
    4MPD1    H214031   4.359   1.561  16.903 -0.6441 -2.0235 -0.5590
    4MPD1    H314032   4.491   1.555  17.113 -0.8336 -1.3680  0.0912
    4MPD1     N14033   0.154   1.532  16.885 -0.3735 -0.7417  0.4222
    4MPD1    H514034   0.195   1.513  16.795 -2.6054  0.3089 -0.8126
    4MPD1    N114035   4.465   1.578  16.667 -0.2403  0.5130  0.1371
    4MPD1    H614036   4.510   1.536  16.587  0.5327  0.9193  0.3575
    4MPD1    H714037   4.368   1.546  16.664  0.0305 -0.0615 -1.6955
    1TCq1    O114038   2.228   1.547  12.926 -0.6379  0.2411 -0.1662
    1TCq1    C114039   2.339   1.598  12.887  0.4488 -0.3265  0.0601
    1TCq1    O214040   2.383   1.706  12.923 -0.1567 -0.6142 -0.5152
    1TCq1    C214041   2.391   1.508  12.789 -0.4264 -0.2118 -0.1684
    1TCq1    C314042   2.319   1.435  12.703 -0.0276 -0.0027 -0.3221
    1TCq1    C414043   2.386   1.387  12.595  0.0916  0.1555 -0.2663
    1TCq1    C514044   2.512   1.421  12.560  0.0231  0.3709 -0.9137
    1TCq1    C614045   2.583   1.497  12.654 -0.5209  0.5801  0.3797
    1TCq1    C714046   2.521   1.544  12.771  0.6779 -0.9538  0.2674
    1TCq1    C814047   2.720   1.526  12.635  0.6753 -0.0184 -0.0756
    1TCq1    O414048   2.780   1.581  12.729 -0.3935  0.2781  0.0199
    1TCq1    C914049   2.307   1.323  12.496  0.2173  0.4694  0.0165
    1TCq1    O514050   2.186   1.295  12.517 -0.0482 -0.5233 -0.0827
    1TCq1    O614051   2.356   1.320  12.377 -0.2664 -0.4937 -0.1160
    1TCq1    H114052   2.213   1.453  12.901  1.8696  0.0464 -0.9394
    1TCq1    H214053   2.211   1.443  12.707 -0.1107 -0.7140 -1.0526
    1TCq1    H314054   2.563   1.373  12.477 -1.4227 -0.5716 -1.2700
    1TCq1    H414055   2.579   1.614  12.830 -0.2991  0.7405 -0.7947
    2MPD1     C14056   3.094   1.695  12.348 -0.1211  0.1045  0.1948
    2MPD1    C114057   2.988   1.687  12.263  1.3847  0.3566  0.0348
    2MPD1    C214058   2.871   1.628  12.315 -0.6396 -0.5600 -0.3529
    2MPD1    C314059   2.857   1.605  12.453 -0.0786 -0.0832  0.4000
    2MPD1    C414060   2.957   1.642  12.536 -0.9169 -0.3008 -0.3811
    2MPD1    C514061   3.077   1.681  12.482  0.0720  0.1012 -0.0917
    2MPD1     H14062   2.782   1.616  12.254 -0.0804 -3.1580 -0.6601
    2MPD1    H114063   2.960   1.592  12.632  0.0620 -1.1692 -0.8617
    2MPD1    H214064   3.194   1.725  12.317 -0.3857  0.7148 -0.0756
    2MPD1    H314065   3.163   1.688  12.546 -1.4548  1.5075  1.8224
    2MPD1     N14066   2.748   1.535  12.502  0.0794 -0.0588  0.5236
    2MPD1    H514067   2.670   1.512  12.442 -0.7404  1.7389  0.9027
    2MPD1    N114068   2.989   1.709  12.123  0.8279  0.0317  0.6656
    2MPD1    H614069   2.898   1.730  12.082  0.7560 -2.2702 -0.3453
    2MPD1    H714070   3.053   1.778  12.085 -1.5598  2.2967  0.7580
    1TCq1    O114071   2.919   1.071  10.025 -0.1365  0.2502 -0.1848
    1TCq1    C114072   3.049   1.118  10.034  0.0831  0.1832 -0.0783
    1TCq1    O214073   3.140   1.051   9.994 -0.6975 -0.3577 -0.1124
    1TCq1    C214074   3.045   1.264  10.046  0.3647  0.1244  0.1972
    1TCq1    C314075   3.153   1.330  10.099  0.0214  0.5953  0.3083
    1TCq1    C414076   3.148   1.458  10.118 -0.1891  0.5654  0.0760
    1TCq1    C514077   3.055   1.533  10.043 -0.4379  0.2471 -0.0540
    1TCq1    C614078   2.954   1.472   9.982  0.3518  0.1821  0.5491
    1TCq1    C714079   2.937   1.334   9.996 -0.0921 -0.4903  0.6446
    1TCq1    C814080   2.839   1.540   9.914  0.5984  0.3334  0.0271
    1TCq1    O414081   2.729   1.492   9.905  0.8075  0.1966 -0.8689
    1TCq1    C914082   3.274   1.532  10.155 -0.1377  0.3140 -0.4864
    1TCq1    O514083   3.375   1.468  10.199 -0.3385  0.4201  0.1584
    1TCq1    O614084   3.273   1.656  10.142  0.3711  0.4390 -0.3267
    1TCq1    H114085   2.863   1.139  10.068  1.9655  2.9173 -1.7241
    1TCq1    H214086   3.230   1.274  10.151 -1.8299 -0.5015  1.8731
    1TCq1    H314087   3.077   1.639  10.040 -0.3868  0.2660  1.1372
    1TCq1    H414088   2.851   1.286   9.952  1.2434  0.0024 -2.5080
    2MPD1     C14089   2.658   1.964   9.696  0.6930  0.0599 -0.7058
    2MPD1    C114090   2.786   1.996   9.734 -0.3789 -0.3834 -0.2209
    2MPD1    C214091   2.859   1.890   9.789 -0.4409 -0.3978 -0.0507
    2MPD1    C314092   2.802   1.765   9.823 -0.3378  0.3277 -0.0460
    2MPD1    C414093   2.676   1.742   9.783  0.2022 -0.4720  0.3493
    2MPD1    C514094   2.603   1.841   9.716 -0.5162 -0.2937  0.0985
    2MPD1     H14095   2.963   1.903   9.817 -1.2859  2.9704  1.5691
    2MPD1    H114096   2.607   1.660   9.804 -0.3487  0.3885  1.9088
    2MPD1    H214097   2.595   2.041   9.653  0.3439 -1.3261 -2.6382
    2MPD1    H314098   2.499   1.815   9.696 -0.1547 -0.9819 -0.8871
    2MPD1     N14099   2.882   1.662   9.883 -0.0106 -0.1703 -0.0065
    2MPD1    H514100   2.978   1.690   9.903 -0.5090  0.6375  1.2628
    2MPD1    N114101   2.847   2.109   9.677 -0.1760  0.0648  0.5249
    2MPD1    H614102   2.927   2.142   9.730 -0.7355 -1.0252  2.0371
    2MPD1    H714103   2.788   2.183   9.638  0.1866 -0.1409 -0.4123
    1MPD1     C14104   2.743   2.113  12.228 -0.0681 -0.3642 -0.2520
    1MPD1    C114105   2.753   2.167  12.105 -0.4589  0.1722 -0.1053
    1MPD1    C214106   2.873   2.146  12.041  0.1114 -0.1328 -0.7099
    1MPD1    C314107   2.973   2.073  12.101 -0.5675 -0.8512 -0.1663
    1MPD1    C414108   2.956   2.014  12.225  0.3028  0.5433 -0.5367
    1MPD1    C514109   2.838   2.017  12.283 -0.5203 -0.5998  0.3207
    1MPD1     H14110   2.880   2.191  11.942 -1.6030 -1.6877 -1.5536
    1MPD1    H114111   3.022   1.939  12.267  0.2855  0.3632 -0.8292
    1MPD1    H214112   2.655   2.115  12.291 -1.7738  1.0016 -2.7012
    1MPD1    H314113   2.813   1.950  12.365 -2.3693  1.4453  1.4115
    1MPD1     N14114   3.097   2.077  12.032 -0.1077 -0.5115 -0.0702
    1MPD1    H514115   3.112   2.146  11.959 -0.3774  3.1657  3.2813
    1MPD1    N114116   2.648   2.235  12.044 -0.3306  0.9567  0.3390
    1MPD1    H614117   2.686   2.315  11.995 -0.5289  0.7644 -0.1287
    1MPD1    H714118   2.600   2.277  12.123 -1.6128 -0.8527  0.5407
    2MPD1     C14119   2.189   2.199  11.848 -0.0421  0.1845  0.2807
    2MPD1    C114120   2.151   2.141  11.725  0.6258 -0.2618 -0.2737
    2MPD1    C214121   2.248   2.113  11.634  0.2175 -0.5186  0.2185
    2MPD1    C314122   2.381   2.138  11.659 -0.1075  0.5567 -0.2350
    2MPD1    C414123   2.413   2.211  11.769 -0.1661  0.2890 -0.2147
    2MPD1    C514124   2.321   2.230  11.866 -0.7910  0.4320  0.3418
    2MPD1     H14125   2.218   2.052  11.550 -2.0297 -0.4502  0.9832
    2MPD1    H114126   2.520   2.224  11.787 -0.3531 -1.3340  2.1146
    2MPD1    H214127   2.117   2.221  11.925  0.8104 -1.7000  1.6107
    2MPD1    H314128   2.359   2.272  11.959  0.8239 -2.2649  0.9040
    2MPD1     N14129   2.485   2.098  11.577  0.2641 -0.1922 -0.0831
    2MPD1    H514130   2.578   2.124  11.608  0.6451  0.4294 -1.7245
    2MPD1    N114131   2.015   2.110  11.698 -0.7935 -0.3751 -0.7554
    2MPD1    H614132   1.951   2.171  11.747  0.5080  0.9445 -0.6826
    2MPD1    H714133   1.990   2.120  11.600 -1.3845  1.5109 -0.4168
    3MPD1     C14134   2.829   1.782  10.629  0.3760  0.1667  0.0988
    3MPD1    C114135   2.898   1.888  10.679 -0.5790 -0.0844 -0.7569
    3MPD1    C214136   2.860   1.923  10.808  0.6049  0.1881 -0.8720
    3MPD1    C314137   2.774   1.844  10.887 -0.3987 -0.2958 -0.4077
    3MPD1    C414138   2.723   1.726  10.834 -0.0344 -0.0757  0.2582
    3MPD1    C514139   2.746   1.698  10.705  0.3451  0.6440  0.5468
    3MPD1     H14140   2.898   2.011  10.860  1.0733  0.0905 -1.0451
    3MPD1    H114141   2.669   1.649  10.889  1.6822 -0.1572  1.8383
    3MPD1    H214142   2.840   1.754  10.525 -0.4613 -2.1204  0.6379
    3MPD1    H314143   2.707   1.607  10.660  1.2334  0.7176 -0.3783
    3MPD1     N14144   2.765   1.876  11.020 -0.6430 -0.1581 -0.5194
    3MPD1    H514145   2.820   1.957  11.049 -2.4237 -0.0285  2.5066
    3MPD1    N114146   2.977   1.976  10.603  0.2453 -0.4140 -0.0798
    3MPD1    H614147   3.035   1.938  10.529 -1.0693 -0.1921 -1.2165
    3MPD1    H714148   3.032   2.041  10.659  0.0538  0.5995 -1.0722
    4MPD2     C14149   3.556   2.551  11.721 -0.0193  0.7273  0.1266
    4MPD2    C114150   3.591   2.426  11.693 -0.3387 -0.1035  0.2709
    4MPD2    C214151   3.642   2.391  11.570 -0.1928 -0.0996 -0.1975
    4MPD2    C314152   3.631   2.485  11.465 -0.3080 -0.1470 -0.5967
    4MPD2    C414153   3.590   2.613  11.497 -0.0590  0.7004 -0.3142
    4MPD2    C514154   3.565   2.642  11.627 -0.2337 -0.2920  0.2613
    4MPD2     H14155   3.664   2.286  11.555  1.2453  0.3840 -1.4951
    4MPD2    H114156   3.565   2.683  11.418  2.4284  0.8539 -0.9483
    4MPD2    H214157   3.501   2.587  11.808  1.2742  1.8658  0.4827
    4MPD2    H314158   3.535   2.745  11.648 -0.1090 -0.1316 -0.3556
    4MPD2     N14159   3.644   2.437  11.333 -0.3733 -0.3945 -0.1375
    4MPD2    H514160   3.674   2.341  11.318  1.4786  0.3212 -0.9789
    4MPD2    N114161   3.573   2.320  11.789 -0.0292 -0.8936 -0.1125
    4MPD2    H714162   3.626   2.239  11.756  0.9704  0.0139 -0.7183
    5TMC3    C114163   3.484   2.201  11.961 -0.4259 -0.0233 -0.3524
    5TMC3    C214164   3.363   2.168  12.000 -0.2771 -0.2429 -0.2934
    5TMC3    C314165   3.329   2.038  11.993  0.3892  0.8304 -0.2792
    5TMC3    C414166   3.578   2.107  11.915 -0.1460 -0.3132 -0.5057
    5TMC3    C514167   3.530   1.977  11.890  1.1479 -0.1152 -0.2910
    5TMC3    C614168   3.408   1.935  11.945  0.2830  0.7969  0.0403
    5TMC3     C14169   3.493   2.322  11.900  0.0317  0.3173 -0.5023
    5TMC3     O14170   3.431   2.413  11.953 -0.2312 -0.1950  0.8525
    5TMC3     H14171   3.300   2.247  12.040  0.1936  0.3617 -0.7412
    5TMC3    H114172   3.683   2.131  11.898 -0.9300  1.5713 -2.5998
    5TMC3    H214173   3.375   1.833  11.959 -0.5494  1.3900  2.5284
    5TMC3    C714174   3.530   1.964  11.745  0.1584 -0.4087  0.2357
    5TMC3    C814175   3.211   1.999  12.064  0.3121  0.3625  0.1258
    5TMC3    O114176   3.628   2.023  11.694 -0.7930  0.4668 -0.0307
    5TMC3    O214177   3.206   1.889  12.119 -0.2161  0.1258 -0.0172
    6TMC3    C114178   2.595   1.985  11.399 -0.2228  0.5134  0.0678
    6TMC3    C214179   2.597   1.882  11.312 -0.2300 -0.2137 -0.7883
    6TMC3    C314180   2.710   1.857  11.246  0.6555  0.0997  0.5147
    6TMC3    C414181   2.699   2.070  11.414  0.4015 -1.1471  0.2557
    6TMC3    C514182   2.813   2.032  11.352 -0.1643  0.1225  0.2023
    6TMC3    C614183   2.826   1.924  11.267  0.0400 -0.1559  0.0894
    6TMC3     C14184   2.466   2.014  11.471 -0.0971 -0.3690 -0.9612
    6TMC3     O14185   2.374   1.938  11.439 -0.4856 -0.7358 -0.0621
    6TMC3     H14186   2.517   1.811  11.292 -0.7749  0.0978  0.2962
    6TMC3    H114187   2.689   2.172  11.447  1.4000 -1.3572  1.1880
    6TMC3    H214188   2.916   1.914  11.208 -0.9592 -0.1123 -1.4224
    6TMC3    C714189   2.902   2.139  11.303 -1.0997  0.1217 -0.0510
    6TMC3    C814190   2.696   1.804  11.109 -0.5048  0.5621 -0.5351
    6TMC3    O114191   2.924   2.127  11.182 -0.3066 -0.3095 -0.0187
    6TMC3    O214192   2.596   1.738  11.088  0.3063  0.5134 -0.0660
    7MPD2     C14193   3.286   1.893  11.304  0.2254  0.6828 -0.1577
    7MPD2    C114194   3.403   1.970  11.331 -0.2706 -0.0786 -0.9377
    7MPD2    C214195   3.453   1.965  11.463  0.2884  0.2013  0.3589
    7MPD2    C314196   3.398   1.873  11.559 -0.2360 -0.2757 -0.6612
    7MPD2    C414197   3.293   1.790  11.526 -0.2353  0.9270  0.1391
    7MPD2    C514198   3.236   1.810  11.398 -1.1076  0.2388 -0.4017
    7MPD2     H14199   3.543   2.021  11.487  1.0256  0.1697 -2.3214
    7MPD2    H114200   3.230   1.735  11.595  0.3943  0.3248  0.2274
    7MPD2    H214201   3.235   1.901  11.209  0.7350  0.5349 -0.4447
    7MPD2    H314202   3.148   1.750  11.376 -0.0870 -0.8738 -1.4754
    7MPD2     N14203   3.414   1.902  11.692 -0.0798  0.2512  0.0880
    7MPD2    H514204   3.353   1.863  11.764 -1.3794 -1.2570 -1.8070
    7MPD2    N114205   3.451   2.049  11.224  0.0833  0.9782 -0.1517
    7MPD2    H714206   3.400   2.043  11.136 -1.9678  1.4793  1.0103
    8TMC3    C114207   3.599   2.195  11.113 -0.5164 -0.1765  0.2383
    8TMC3    C214208   3.483   2.217  11.037 -0.7138  0.5079 -0.0809
    8TMC3    C314209   3.448   2.345  10.994 -0.3903 -0.4633  0.6369
    8TMC3    C414210   3.673   2.300  11.149 -0.3764 -0.3390  0.1761
    8TMC3    C514211   3.635   2.425  11.110  0.0001 -0.0233  0.0116
    8TMC3    C614212   3.523   2.448  11.032  0.1510  0.7033  0.6524
    8TMC3     C14213   3.570   2.122  11.233 -0.3372  0.5494 -1.0944
    8TMC3     O14214   3.641   2.136  11.329  0.4060  0.0653 -0.5572
    8TMC3     H14215   3.413   2.142  11.004  0.4648 -1.0130  0.8670
    8TMC3    H114216   3.767   2.270  11.194 -0.5616 -1.3439 -0.0978
    8TMC3    H214217   3.487   2.545  10.999 -1.4439  0.1030  0.6052
    8TMC3    C714218   3.615   2.511  11.224 -0.2108 -0.3940  0.1306
    8TMC3    C814219   3.307   2.372  11.029 -0.3359  0.9082 -0.5464
    8TMC3    O114220   3.535   2.601  11.200 -0.7550  0.5677 -0.3257
    8TMC3    O214221   3.226   2.288  10.989  0.5778  0.9913 -0.4972
    9MPD2     C14222   3.216   2.545  11.345 -0.1251 -0.9461  0.0217
    9MPD2    C114223   3.197   2.456  11.243  0.2741  0.0386  0.5038
    9MPD2    C214224   3.097   2.358  11.250 -0.2208 -0.5887  0.2472
    9MPD2    C314225   3.019   2.346  11.366  0.3913  0.4814 -0.2820
    9MPD2    C414226   3.033   2.437  11.465 -0.0061  0.2854  0.2778
    9MPD2    C514227   3.114   2.542  11.444 -0.3698  0.6122  0.6263
    9MPD2     H14228   3.096   2.280  11.175  0.5554 -0.7045  0.3505
    9MPD2    H114229   2.959   2.444  11.543 -1.2861  1.9746 -1.0704
    9MPD2    H214230   3.293   2.621  11.340 -3.7468  2.6191 -2.0009
    9MPD2    H314231   3.135   2.605  11.529  0.0811  1.9975 -0.5092
    9MPD2     N14232   2.928   2.241  11.390 -0.0624  0.0409  0.2979
    9MPD2    H514233   2.873   2.244  11.474  0.8103 -0.2933  0.8851
    9MPD2    N114234   3.297   2.457  11.135  0.1992  0.1879 -0.2976
    9MPD2    H714235   3.378   2.514  11.160  0.4088  0.1268 -0.8232
    1MPD1     C14236   2.614   0.548  16.574 -0.4026  0.0455  0.0076
    1MPD1    C114237   2.646   0.468  16.680 -0.5752 -0.5298  0.1662
    1MPD1    C214238   2.538   0.406  16.748 -0.4365 -0.3721  0.5805
    1MPD1    C314239   2.406   0.423  16.699 -0.3385 -0.3620 -0.0656
    1MPD1    C414240   2.384   0.499  16.587 -0.6320 -0.2082  1.6931
    1MPD1    C514241   2.484   0.557  16.523 -0.6368 -1.0944 -0.7400
    1MPD1     H14242   2.557   0.368  16.847  0.7586  0.7711  0.7987
    1MPD1    H114243   2.285   0.514  16.544  0.1312  1.3773  0.5061
    1MPD1    H214244   2.688   0.611  16.526 -2.9569  1.5168 -2.0359
    1MPD1    H314245   2.480   0.604  16.426 -1.2698  1.7742  0.6725
    1MPD1     N14246   2.294   0.363  16.761 -0.2048  0.7120 -0.2343
    1MPD1    H514247   2.208   0.377  16.709 -0.2501  1.9047  0.1725
    1MPD1    N114248   2.775   0.470  16.744  0.4921 -0.3044  0.0550
    1MPD1    H614249   2.849   0.482  16.675  1.2958 -1.1366  0.7763
    1MPD1    H714250   2.789   0.400  16.816  0.8936 -0.4111 -0.1269
    2MPD1     C14251   1.557   0.350  16.375 -0.7726 -0.3327 -0.3309
    2MPD1    C114252   1.680   0.410  16.365 -0.8730 -0.9317 -0.2337
    2MPD1    C214253   1.766   0.415  16.474  0.2085  0.6704  0.6678
    2MPD1    C314254   1.725   0.357  16.592 -0.2945  0.3408 -0.0921
    2MPD1    C414255   1.599   0.294  16.601 -0.0479 -0.3932 -0.9896
    2MPD1    C514256   1.516   0.296  16.491  0.5272 -0.6913  0.7853
    2MPD1     H14257   1.862   0.465  16.462  0.8696 -0.4536  1.3008
    2MPD1    H114258   1.557   0.234  16.681 -1.9024  2.8233  0.4152
    2MPD1    H214259   1.495   0.351  16.285 -1.5201  0.3957  0.1891
    2MPD1    H314260   1.418   0.250  16.486  0.4842 -0.7009  1.7247
    2MPD1     N14261   1.818   0.341  16.699  0.4890 -1.0215  0.1294
    2MPD1    H514262   1.912   0.374  16.683  0.6795 -0.9686  1.3464
    2MPD1    N114263   1.701   0.498  16.257 -0.0241  0.0997  0.5611
    2MPD1    H614264   1.651   0.485  16.169  1.5998  1.3333 -0.5501
    2MPD1    H714265   1.800   0.513  16.237 -0.4809  2.4318  0.0214
    3TCq2    C114266   1.803   0.265  16.813 -0.4544 -0.1337  0.2962
    3TCq2    O214267   1.706   0.199  16.852  0.0305 -0.3440  0.3833
    3TCq2    C214268   1.931   0.262  16.901 -0.2340 -0.3288  0.6111
    3TCq2    C314269   1.918   0.209  17.025  0.2622  1.0210 -0.7247
    3TCq2    C414270   2.033   0.189  17.095 -0.6214 -0.7416  0.6359
    3TCq2    C514271   2.161   0.187  17.039  0.1102 -0.0138 -0.1932
    3TCq2    C614272   2.169   0.242  16.914  0.0922  0.4178  0.1194
    3TCq2    C714273   2.053   0.272  16.843 -0.0901  0.4715  0.2383
    3TCq2    C814274   2.295   0.292  16.876  0.6136 -0.4995  0.9494
    3TCq2    O414275   2.391   0.258  16.945 -0.3247  0.0351  0.2976
    3TCq2    C914276   2.014   0.135  17.230 -0.4224 -0.1280 -0.5322
    3TCq2    O514277   1.906   0.155  17.283  0.5849 -0.2083  0.5510
    3TCq2    O614278   2.121   0.092  17.290 -0.2150  0.2282  0.3938
    3TCq2    H214279   1.818   0.199  17.067 -0.6704  0.4048 -3.0709
    3TCq2    H314280   2.250   0.165  17.098  0.9071 -1.0659 -1.7745
    3TCq2    H414281   2.065   0.292  16.738 -1.1904  2.6715  0.5531
    1TCq1    O114282   0.536   4.638  12.680  0.3339 -0.2677  0.1060
    1TCq1    C114283   0.461   4.539  12.724  0.1993 -0.2270  0.0311
    1TCq1    O214284   0.351   4.515  12.685  0.0724  0.1045 -0.6975
    1TCq1    C214285   0.537   4.456  12.818  0.9036 -0.1667  0.2287
    1TCq1    C314286   0.470   4.361  12.886 -0.2378 -0.6824 -0.4614
    1TCq1    C414287   0.545   4.279  12.966  0.2990  0.0053  0.3241
    1TCq1    C514288   0.675   4.302  12.987 -0.3085 -0.2559 -0.0947
    1TCq1    C614289   0.741   4.398  12.918 -0.2964  0.0333  0.5825
    1TCq1    C714290   0.677   4.482  12.836 -0.4944 -0.2702 -0.5906
    1TCq1    C814291   0.882   4.421  12.931  0.5840  0.0809 -0.8507
    1TCq1    O414292   0.932   4.525  12.887  0.2941 -0.5453  0.1840
    1TCq1    C914293   0.488   4.176  13.039 -0.6647 -0.3469 -0.4459
    1TCq1    O514294   0.367   4.147  13.011  0.8206  0.0490  0.7144
    1TCq1    O614295   0.567   4.099  13.100 -0.4805 -0.1420 -0.7410
    1TCq1    H114296   0.602   4.666  12.747  2.3708 -0.6374 -1.7129
    1TCq1    H214297   0.362   4.364  12.877 -0.0149  0.6953 -2.5883
    1TCq1    H314298   0.733   4.233  13.048 -0.3280  1.1387  1.5043
    1TCq1    H414299   0.725   4.554  12.771 -0.5045 -0.1621 -0.4777
    2MPD2     C14300   1.175   4.363  13.006  0.0085  1.0408  0.3842
    2MPD2    C114301   1.061   4.320  13.075  0.0758  0.2545  0.8914
    2MPD2    C214302   1.078   4.248  13.192  0.1209  0.6949  0.0379
    2MPD2    C314303   1.203   4.231  13.247 -0.3913 -0.2583 -0.4759
    2MPD2    C414304   1.314   4.285  13.188  0.5764  0.1611  0.2979
    2MPD2    C514305   1.299   4.344  13.063  1.0140 -0.6628 -0.1799
    2MPD2     H14306   0.991   4.204  13.239  0.8202 -1.5111 -0.7299
    2MPD2    H114307   1.416   4.282  13.225  0.4688 -0.0466  0.5790
    2MPD2    H214308   1.167   4.404  12.906 -0.5436  1.3822  0.5691
    2MPD2    H314309   1.383   4.378  13.003  2.8044  2.5954  4.2192
    2MPD2     N14310   1.216   4.157  13.368 -0.5167 -0.4414 -0.1965
    2MPD2    H514311   1.141   4.113  13.420  0.6862 -0.4821  1.4866
    2MPD2    N114312   0.932   4.336  13.026  0.2244  0.2425  0.1672
    2MPD2    H714313   0.855   4.288  13.071  0.4028 -0.2157 -0.0206
    3TCq1    O114314   0.942   4.123  13.825 -0.5591  0.6450  0.1158
    3TCq1    C114315   1.041   4.033  13.795  0.4293 -0.0320  0.7492
    3TCq1    O214316   1.016   3.920  13.752  0.1670  0.1615 -0.2430
    3TCq1    C214317   1.144   4.120  13.737 -0.7296 -0.1486 -0.2800
    3TCq1    C314318   1.192   4.224  13.815  0.9594  0.3928  0.0064
    3TCq1    C414319   1.313   4.276  13.766 -0.2490  0.1276  0.2977
    3TCq1    C514320   1.365   4.241  13.646  0.0924 -0.3328 -0.6241
    3TCq1    C614321   1.308   4.141  13.577 -0.4886 -1.1026 -0.2919
    3TCq1    C714322   1.202   4.071  13.622 -0.2259 -0.1656 -0.4193
    3TCq1    C814323   1.333   4.142  13.433 -0.4942 -0.3378 -0.2275
    3TCq1    O414324   1.450   4.154  13.403 -0.0816 -0.5443 -0.1665
    3TCq1    C914325   1.394   4.362  13.857 -0.1522 -0.3751 -0.5835
    3TCq1    O514326   1.333   4.411  13.954  0.7188 -0.1732 -0.0823
    3TCq1    O614327   1.506   4.394  13.815  0.1877  0.0058 -0.3108
    3TCq1    H114328   0.976   4.212  13.850  2.4356 -0.4740 -0.0139
    3TCq1    H214329   1.167   4.236  13.920 -0.3938  1.0552 -0.3978
    3TCq1    H314330   1.461   4.285  13.618  0.6244 -0.8089  0.4417
    3TCq1    H414331   1.162   3.988  13.565  0.3423 -1.6228  1.3129
    1MPD2     C14332   0.833   0.794  14.943 -0.4971 -0.2398 -0.5978
    1MPD2    C114333   0.720   0.726  14.974 -0.4138  0.3718  0.4191
    1MPD2    C214334   0.712   0.590  14.941  0.0043  0.4530  0.0130
    1MPD2    C314335   0.799   0.524  14.865  0.0178 -0.0699 -0.2125
    1MPD2    C414336   0.920   0.590  14.838 -0.2910  0.3915  0.2956
    1MPD2    C514337   0.931   0.724  14.870  0.5013  0.2610  0.2584
    1MPD2     H14338   0.620   0.536  14.960  0.6992 -1.0981 -1.0596
    1MPD2    H114339   1.001   0.544  14.782 -1.4585 -0.7812 -0.4118
    1MPD2    H214340   0.826   0.902  14.951 -0.0438 -0.2930  0.5365
    1MPD2    H314341   1.028   0.769  14.853  0.8578 -1.4002 -2.0811
    1MPD2     N14342   0.786   0.390  14.815  0.6608 -0.4814  0.3121
    1MPD2    H514343   0.867   0.349  14.769  1.9776  2.0701  0.3543
    1MPD2    N114344   0.625   0.795  15.050  0.2637  1.0299 -0.1813
    1MPD2    H714345   0.644   0.894  15.064  1.1328  0.9584 -0.8351
    2TMC3    C114346   0.424   0.822  15.176  0.5564  0.2795  0.0470
    2TMC3    C214347   0.336   0.741  15.238 -0.0162 -0.2149 -0.2254
    2TMC3    C314348   0.203   0.770  15.241  0.0792  0.1721 -0.0912
    2TMC3    C414349   0.389   0.948  15.129  0.4822  0.2367  0.7373
    2TMC3    C514350   0.252   0.975  15.129 -0.4893  0.3830 -0.1547
    2TMC3    C614351   0.161   0.883  15.175 -0.6349 -1.0535  0.1591
    2TMC3     C14352   0.509   0.739  15.094 -0.6788 -0.4574 -0.4857
    2TMC3     O14353   0.452   0.636  15.061 -0.3591  0.3039 -0.0940
    2TMC3     H14354   0.380   0.650  15.275 -3.0500 -0.5210  2.5490
    2TMC3    H114355   0.458   0.990  15.056 -0.2963  0.7933  0.3138
    2TMC3    H214356   0.058   0.903  15.147 -0.3736  1.3907  0.9791
    2TMC3    C714357   0.205   1.086  15.049  0.2631  0.4464 -0.4752
    2TMC3    C814358   0.119   0.658  15.203 -0.1890 -0.1841  0.0827
    2TMC3    O114359   0.118   1.064  14.962 -0.4245 -0.1892 -0.3133
    2TMC3    O214360   0.001   0.664  15.207 -0.2844  0.3106 -0.1763
    3TCq1    O114361   0.991   1.919  14.767 -1.0043 -0.4598 -0.6286
    3TCq1    C114362   1.013   1.935  14.898 -0.8324  0.5123 -0.2621
    3TCq1    O214363   1.122   1.941  14.945  0.0119 -0.1980 -0.3000
    3TCq1    C214364   0.912   1.875  14.980  0.9548  0.9098  0.2360
    3TCq1    C314365   0.954   1.831  15.103  0.0877  0.3074  0.4699
    3TCq1    C414366   0.882   1.737  15.174  0.1069 -0.2258 -0.3052
    3TCq1    C514367   0.765   1.686  15.120  0.4849  0.1098  0.4571
    3TCq1    C614368   0.719   1.748  15.006 -0.2183  0.2308 -0.6312
    3TCq1    C714369   0.791   1.839  14.929 -0.0645  0.8606  0.1219
    3TCq1    C814370   0.618   1.675  14.919 -0.2017 -0.0416 -0.8171
    3TCq1    O414371   0.594   1.711  14.805 -1.2115  0.7110 -0.1828
    3TCq1    C914372   0.939   1.678  15.290 -0.9742 -0.0787 -0.7770
    3TCq1    O514373   1.063   1.671  15.295  0.0097 -0.2957 -0.1833
    3TCq1    O614374   0.870   1.577  15.326 -0.5616 -0.0289 -0.4037
    3TCq1    H114375   0.900   1.884  14.755 -1.4250  1.0688 -1.9533
    3TCq1    H214376   1.052   1.861  15.139 -0.5392  2.1363  0.6585
    3TCq1    H314377   0.702   1.626  15.184  0.6486 -1.3022 -0.7003
    3TCq1    H414378   0.757   1.880  14.835 -0.3141  1.5310  0.5095
    4MPD2     C14379   0.373   1.522  14.843  0.3074  0.3696 -0.3473
    4MPD2    C114380   0.448   1.491  14.951  0.3603  0.0756  0.2340
    4MPD2    C214381   0.412   1.376  15.017  0.1523  0.1329 -0.0802
    4MPD2    C314382   0.311   1.294  14.975  0.3414  0.0071  0.4601
    4MPD2    C414383   0.237   1.321  14.861  0.0286 -0.4044 -0.4593
    4MPD2    C514384   0.277   1.438  14.794  0.1774  0.0739  0.8835
    4MPD2     H14385   0.479   1.348  15.098 -1.6918 -1.2561  0.9646
    4MPD2    H114386   0.167   1.248  14.820  0.6132 -1.2529  0.0437
    4MPD2    H214387   0.390   1.612  14.786  2.3622  2.0839  2.9501
    4MPD2    H314388   0.243   1.455  14.692  1.4436 -0.4242  0.3811
    4MPD2     N14389   0.290   1.191  15.061  0.4869 -0.4052  0.0511
    4MPD2    H514390   0.356   1.178  15.137  0.8776 -0.9474 -0.3866
    4MPD2    N114391   0.557   1.574  14.989 -1.0313  0.2964  0.5688
    4MPD2    H714392   0.584   1.567  15.087 -0.5063  0.5811  0.4439
    5TMC2    C114393   0.501   0.030  14.848 -0.1795 -0.5217  0.1219
    5TMC2    C214394   0.585   4.660  14.902  1.0491  0.1809 -0.0113
    5TMC2    C314395   0.717   4.704  14.914 -0.5514 -0.4976 -0.3635
    5TMC2    C414396   0.542   0.139  14.792  0.0878 -0.9941  0.1548
    5TMC2    C514397   0.674   0.178  14.791 -0.0363  0.3245  0.2386
    5TMC2    C614398   0.757   0.100  14.866  0.9354 -0.0081  0.1463
    5TMC2     C14399   0.372   0.045  14.925  0.4169 -0.1500 -0.3484
    5TMC2     O14400   0.317   4.666  14.962  0.3458  0.2491 -0.6439
    5TMC2     H14401   0.558   4.571  14.958  2.2645  0.7403  1.4736
    5TMC2    H114402   0.474   0.200  14.734  0.3522 -2.2121 -1.4478
    5TMC2    H214403   0.857   0.143  14.868 -0.6827  3.7286 -0.1711
    5TMC2    C714404   0.670   0.312  14.839  0.9717  0.6135 -0.2273
    5TMC2    C814405   0.792   4.630  15.011  0.6650 -0.9046  0.3821
    5TMC2    O114406   0.570   0.330  14.904  0.3578 -0.1258 -0.3024
    5TMC2    O214407   0.735   4.589  15.112 -0.0287 -0.2268  0.1388
    5TMC2    O514408   0.917   4.676  15.009  0.1096 -0.4045 -0.0872
    5TMC2    H514409   0.945   4.717  14.925  0.8220  0.5127  0.5992
    6MPD2     C14410   0.053   0.364  15.173 -0.1579 -0.4197  0.4113
    6MPD2    C114411   0.166   0.430  15.129  0.2775  0.9639 -0.2343
    6MPD2    C214412   0.261   0.367  15.052 -0.2471  0.1583 -0.1022
    6MPD2    C314413   0.249   0.228  15.029  0.2394  0.0670 -0.0239
    6MPD2    C414414   0.145   0.163  15.079  0.8160 -0.0704 -0.3282
    6MPD2    C514415   0.046   0.229  15.145  0.0004  0.3754  0.0175
    6MPD2     H14416   0.345   0.421  15.009 -0.8109  1.5225  0.5125
    6MPD2    H114417   0.135   0.055  15.069  0.3582  0.0457 -1.1033
    6MPD2    H214418   4.700   0.418  15.228  0.2933  1.7046 -1.0263
    6MPD2    H314419   4.684   0.172  15.179 -1.2162  2.4521  0.4135
    6MPD2     N14420   0.350   0.178  14.952  0.1035  0.2909 -0.7550
    6MPD2    H514421   0.424   0.240  14.919  0.0582  1.4618  1.3769
    6MPD2    N114422   0.199   0.563  15.150  0.0033  0.2461  0.2333
    6MPD2    H714423   0.290   0.591  15.115  0.3984  2.1394  2.7437
  945NH4     N114424   4.203   0.673  14.181  0.2263  0.8472  0.1475
  945NH4     H214425   4.115   0.653  14.128  0.1811  0.7306  0.2671
  945NH4     H314426   4.208   0.598  14.253  4.2676  0.2929 -0.6748
  945NH4     H414427   4.192   0.766  14.225  0.2028  0.7501  0.3464
  945NH4     H514428   4.285   0.684  14.117  0.9283  0.6318  1.0178
  946SOD     NA14429   2.678   1.288   7.632  0.1168 -0.4421  0.1260
  947SOD     NA14430   0.101   3.862   4.539  0.2079  0.0756 -0.0521
  948SOD     NA14431   4.599   4.371  10.062  0.5234 -0.3780 -0.2856
  949SOD     NA14432   2.392   4.619  14.947 -0.0388 -0.0100  0.1214
  950SOD     NA14433   3.822   4.671   0.787 -0.2248  0.4248  0.1760
  951SOD     NA14434   1.165   4.451  11.712  0.1504 -0.0335  0.2813
  952SOD     NA14435   1.706   3.988   5.726  0.2561  0.5538 -0.4313
  953SOD     NA14436   2.203   1.360   3.868 -0.1689 -0.2195  0.0643
  954SOD     NA14437   1.372   4.328  14.157 -0.4311 -0.0136  0.3476
  955SOD     NA14438   2.614   3.116   1.950  0.0311  0.1839  0.7024
  956SOD     NA14439   2.797   3.260  13.243 -0.4845 -0.6015  0.0007
  957SOD     NA14440   4.646   0.953  10.769  0.0251  0.2396  0.3036
  958SOD     NA14441   0.073   1.147  15.595 -0.1380 -0.4017  0.0757
  959SOD     NA14442   3.728   0.447  10.885  0.5843  0.7797  0.4515
  960SOD     NA14443   0.840   2.580  11.078  0.0389 -0.3391  0.3904
  961SOD     NA14444   3.041   2.466   4.101  0.6780 -0.0345 -1.0114
  962SOD     NA14445   1.218   3.708   1.733 -0.1063  0.3204 -0.0451
  963SOD     NA14446   1.339   1.646   7.415  0.0911  0.6963  0.0510
  964SOD     NA14447   2.340   1.075  12.051  0.0760  0.3566 -0.2469
  965SOD     NA14448   4.075   1.429  11.586  0.2972  0.0974  0.5217
  966SOD     NA14449   2.113   4.116  13.365 -0.1419  0.0411  0.0940
  967SOD     NA14450   1.727   0.339  11.853  0.1662  0.1422  0.0668
  968SOD     NA14451   2.393   3.773  12.622  0.2854  0.2844  0.1256
  969SOD     NA14452   0.188   4.095  13.102  0.2370 -0.1200 -0.4643
  970SOD     NA14453   3.677   0.805   2.643  0.1820  0.3588 -0.3522
  971SOD     NA14454   0.379   3.926   6.742  0.0966  0.4623 -0.2267
  972SOD     NA14455   2.357   4.100  15.676  0.0243 -0.0936 -0.1303
  973SOD     NA14456   0.487   3.884  13.196  0.7384  0.2710  0.2552
  974SOD     NA14457   1.383   4.556  10.977  0.0284 -0.4142  0.2647
  975SOD     NA14458   1.224   2.820  11.909  0.0119 -0.0155 -0.5213
  976SOD     NA14459   2.270   0.353  15.897  0.0139 -0.1969  0.2379
  977SOD     NA14460   0.766   4.104   7.305  0.7700 -0.0264  0.5212
  978SOD     NA14461   3.033   4.246  10.135  0.4547  0.4131  0.4822
  979SOD     NA14462   3.146   1.346  17.481 -0.1464 -0.4279  0.2076
  980SOD     NA14463   0.509   4.588  15.449 -0.4091 -0.1676  0.0367
  981SOD     NA14464   3.390   1.582   5.817  0.1776 -0.3157 -0.2629
  982SOD     NA14465   1.582   3.473  10.615  0.2733  0.6527  0.0819
  983SOD     NA14466   1.860   3.754  17.071 -0.2781 -0.0387 -0.0849
  984SOD     NA14467   0.588   4.234  10.191 -0.0838 -0.0950 -0.1095
  985SOD     NA14468   0.475   0.339   2.787  0.2861  0.1506 -0.6043
  986SOD     NA14469   2.283   4.463  15.196 -0.3717  0.4955 -0.5705
  987SOD     NA14470   2.176   3.130   1.975 -0.5213 -0.2962  0.1318
  988SOD     NA14471   2.696   0.689  16.854  0.0642  0.6925 -0.9478
  989SOD     NA14472   0.842   0.648  16.700  0.2019  0.0970  0.4063
  990SOD     NA14473   1.155   3.368   1.620  0.0627  0.1532 -0.0331
  991SOD     NA14474   2.090   4.460  14.880 -0.2257  0.5636  0.1799
  992SOD     NA14475   2.719   1.269  13.589 -0.2509  0.1961 -0.2317
  993SOD     NA14476   1.567   4.428  15.557  0.0376 -0.1564 -0.1803
  994SOD     NA14477   3.949   0.239  13.829 -0.1001 -0.1510 -0.0584
  995SOD     NA14478   0.521   4.511  10.283  0.4084 -0.2645 -0.5591
  996SOD     NA14479   3.339   0.144  12.259 -0.6763  0.6038 -0.1089
  997SOD     NA14480   1.343   4.453   1.929 -0.1500 -0.9706 -0.0061
  998SOD     NA14481   1.123   0.123  12.705 -0.0102 -0.6319 -0.1242
  999SOD     NA14482   4.567   0.940  11.315 -0.0939  0.0108 -0.6636
 1000SOD     NA14483   0.999   2.975  11.442  0.0830 -0.3705 -0.2757
 1001SOD     NA14484   1.688   2.111  13.974  0.1510 -0.6096  0.6028
 1002SOD     NA14485   2.488   3.937   0.251 -0.1870  0.4966  0.0439
 1003SOD     NA14486   2.707   2.938   5.685 -0.5350 -0.1205  0.7810
 1004SOD     NA14487   3.349   0.987  15.343 -0.0371  0.3188  0.3067
 1005SOD     NA14488   1.366   0.225  11.734  0.4809  0.0675 -0.2267
 1006SOD     NA14489   1.992   1.379  12.489  0.3175 -0.0841 -0.1553
 1007SOD     NA14490   1.475   4.599   8.379  0.2506 -0.1046 -0.1461
 1008SOD     NA14491   0.200   2.323   2.064 -0.0461 -0.1957 -0.2019
 1009SOD     NA14492   2.508   0.671  11.335  0.3974 -0.4664  0.1219
 1010SOD     NA14493   1.992   0.199  17.484 -0.0149 -0.6308 -0.3112
 1011SOL     OW14494   1.058   2.120   5.686  0.2272 -0.1031 -0.1207
 1011SOL    HW114495   1.142   2.095   5.724 -1.0488 -1.2168  1.9443
 1011SOL    HW214496   1.019   2.159   5.764 -0.3320 -1.2585  0.1769
 1012SOL     OW14497   0.803   4.456   6.017  0.4044 -0.0349 -0.1268
 1012SOL    HW114498   0.736   4.423   6.076  0.9365  0.5312  0.7956
 1012SOL    HW214499   0.843   4.379   5.978  1.5955  0.0269  0.9664
 1013SOL     OW14500   4.020   2.381   4.470  0.0083 -0.0074  0.2973
 1013SOL    HW114501   4.034   2.358   4.562  0.9093 -2.1611 -0.3648
 1013SOL    HW214502   3.965   2.459   4.477  0.1599 -0.0075  1.4242
 1014SOL     OW14503   1.930   2.009   0.385 -0.2091  0.3409  0.2482
 1014SOL    HW114504   1.976   2.085   0.420  0.6469 -0.8542  1.7623
 1014SOL    HW214505   1.845   2.046   0.364  0.1510  1.0902  0.1047
 1015SOL     OW14506   3.293   3.699   7.853  0.1893  0.2440 -0.0536
 1015SOL    HW114507   3.333   3.741   7.930 -0.0864  1.3429 -0.5152
 1015SOL    HW214508   3.335   3.612   7.853 -0.2679  0.0251 -1.2602
 1016SOL     OW14509   0.420   1.206   2.998  0.3156 -0.3069  0.2875
 1016SOL    HW114510   0.509   1.238   3.013  1.0491 -3.4430  2.6732
 1016SOL    HW214511   0.416   1.176   2.907 -0.5852 -1.7959  0.8273
 1017SOL     OW14512   4.508   4.571   5.678  0.0755  0.1882 -0.0304
 1017SOL    HW114513   4.491   4.629   5.753  2.2190  0.1632  0.4815
 1017SOL    HW214514   4.490   4.631   5.606 -1.8050 -0.5880 -0.1928
 1018SOL     OW14515   0.967   3.060   5.358  0.0254 -0.0517 -0.3589
 1018SOL    HW114516   0.886   3.020   5.328 -0.0752 -0.3311  0.2973
 1018SOL    HW214517   1.028   2.988   5.372  0.2940  0.0075 -1.1894
 1019SOL     OW14518   4.412   0.156   9.315  0.2673 -0.3043  0.1722
 1019SOL    HW114519   4.473   0.227   9.298 -1.2493  1.3877  1.7832
 1019SOL    HW214520   4.404   0.163   9.410 -0.5359  1.2487 -0.0092
 1020SOL     OW14521   0.407   4.197   3.758 -0.4839  0.0727  0.4334
 1020SOL    HW114522   0.403   4.268   3.694  2.1660 -1.0781 -0.9935
 1020SOL    HW214523   0.488   4.148   3.745 -0.8006 -0.3079 -0.0936
 1021SOL     OW14524   2.741   3.968   2.194  0.3484 -0.6879  0.3747
 1021SOL    HW114525   2.687   4.047   2.196  3.1530  1.2404  0.0956
 1021SOL    HW214526   2.671   3.908   2.170  0.3978  0.0521 -1.5899
 1022SOL     OW14527   3.021   1.282  13.061 -0.9602 -0.0293  0.4885
 1022SOL    HW114528   3.024   1.187  13.047 -1.1924 -0.1006  0.9250
 1022SOL    HW214529   2.938   1.288  13.109 -1.7604 -0.7536 -0.7839
 1023SOL     OW14530   3.409   3.672   5.963 -0.0030  0.4674 -0.6862
 1023SOL    HW114531   3.316   3.688   5.949  0.0935  0.5860 -1.2071
 1023SOL    HW214532   3.419   3.706   6.052  0.7209  1.9765 -1.3390
 1024SOL     OW14533   0.132   3.385   3.335  0.6169  0.0587  0.3193
 1024SOL    HW114534   0.080   3.324   3.388  2.5169 -0.7876  1.1721
 1024SOL    HW214535   0.065   3.453   3.322  0.6124  0.1074  0.5868
 1025SOL     OW14536   2.334   2.710   6.374 -0.3273  0.2449  0.2066
 1025SOL    HW114537   2.354   2.803   6.360 -1.9799  0.6245  0.2742
 1025SOL    HW214538   2.384   2.693   6.453 -3.3178  0.3310  2.1333
 1026SOL     OW14539   2.619   0.499   4.555 -0.1121 -0.8394  0.1263
 1026SOL    HW114540   2.634   0.433   4.487 -0.0212  0.5919 -1.2460
 1026SOL    HW214541   2.696   0.552   4.534 -1.1716 -0.2709 -2.3394
 1027SOL     OW14542   3.079   4.418   4.001  0.0248  0.0373 -0.1704
 1027SOL    HW114543   3.152   4.471   3.970 -0.6283  1.6863  1.1221
 1027SOL    HW214544   3.135   4.347   4.035 -2.3293 -1.6701  0.1350
 1028SOL     OW14545   3.224   1.115  12.381  0.3307  0.1633 -0.2033
 1028SOL    HW114546   3.222   1.210  12.391  1.1277  0.1286  0.2643
 1028SOL    HW214547   3.319   1.106  12.375  0.4321  1.5141 -0.6990
 1029SOL     OW14548   2.509   2.626  16.855  0.2016 -0.0915 -0.1672
 1029SOL    HW114549   2.485   2.718  16.862  2.0920  0.4324 -0.5138
 1029SOL    HW214550   2.546   2.613  16.942 -0.3099  1.9915  0.3504
 1030SOL     OW14551   1.669   1.724   9.277 -0.4314  0.1165  0.0027
 1030SOL    HW114552   1.653   1.800   9.222 -0.2328 -0.0972 -0.3459
 1030SOL    HW214553   1.638   1.647   9.229 -0.2726  0.5473 -0.7787
 1031SOL     OW14554   1.991   4.557   4.733  0.4528  0.0784  0.1430
 1031SOL    HW114555   2.024   4.552   4.823  0.7243 -0.9062 -0.0011
 1031SOL    HW214556   2.011   4.648   4.713  0.2676  0.0969  0.0380
 1032SOL     OW14557   0.436   3.687  13.297 -0.0756  0.1448 -0.3711
 1032SOL    HW114558   0.361   3.642  13.335  0.9085  0.9767  2.5150
 1032SOL    HW214559   0.472   3.618  13.241  0.9260 -1.9204  2.8131
 1033SOL     OW14560   3.063   3.965   7.661 -0.2862  0.1040 -0.3999
 1033SOL    HW114561   3.128   3.896   7.647  1.2982  1.6013 -0.3611
 1033SOL    HW214562   3.071   4.015   7.580 -1.4847  0.1516 -0.4817
 1034SOL     OW14563   0.701   4.603   4.508 -0.0445 -0.3544 -0.5087
 1034SOL    HW114564   0.689   4.509   4.516 -0.2573 -0.0462  2.6400
 1034SOL    HW214565   0.795   4.614   4.525  0.4056 -2.0447 -1.9173
 1035SOL     OW14566   1.869   2.539   5.203 -0.1711 -0.0151  0.3027
 1035SOL    HW114567   1.892   2.505   5.117  0.4066 -1.1790  0.9163
 1035SOL    HW214568   1.895   2.629   5.181 -0.0200 -0.2543 -0.4950
 1036SOL     OW14569   3.416   1.806   9.679 -0.8154  0.2926  0.8137
 1036SOL    HW114570   3.390   1.800   9.587 -1.4972 -0.0417  1.0269
 1036SOL    HW214571   3.445   1.897   9.674  0.2425 -0.0974 -0.1563
 1037SOL     OW14572   2.654   1.545   5.805  0.3149 -0.3422 -0.3455
 1037SOL    HW114573   2.680   1.584   5.721  0.5185 -0.8654 -0.5270
 1037SOL    HW214574   2.685   1.457   5.784  0.6935 -0.8748  2.4132
 1038SOL     OW14575   2.639   3.103  16.012 -0.3268 -0.3447  0.0849
 1038SOL    HW114576   2.558   3.067  16.050  1.4511  0.0427  4.1962
 1038SOL    HW214577   2.634   3.083  15.919  0.5817 -0.6471  0.0998
 1039SOL     OW14578   0.300   1.442   7.139  0.0586 -0.2649 -0.3284
 1039SOL    HW114579   0.215   1.417   7.176  0.8423  0.7602  2.1800
 1039SOL    HW214580   0.277   1.506   7.073  1.7006  2.0471  1.3701
 1040SOL     OW14581   4.286   0.040   6.195 -0.4631 -0.6059 -0.2782
 1040SOL    HW114582   4.309   4.721   6.112 -0.3092 -0.6088 -0.2354
 1040SOL    HW214583   4.209   0.078   6.153 -1.8011 -2.3684  0.5872
 1041SOL     OW14584   1.232   4.122   8.645  0.3865 -0.2027 -0.3357
 1041SOL    HW114585   1.235   4.051   8.710 -1.2960  1.1639  1.2288
 1041SOL    HW214586   1.269   4.194   8.696 -3.3205 -0.8752  3.3514
 1042SOL     OW14587   2.986   1.939   6.862  0.1602  0.3314 -0.1818
 1042SOL    HW114588   2.914   1.948   6.799  1.4471 -0.5455 -1.7661
 1042SOL    HW214589   3.028   2.024   6.847  0.0799  1.0542  3.7399
 1043SOL     OW14590   4.270   0.200  14.925 -0.2422 -0.4629 -0.2201
 1043SOL    HW114591   4.301   0.111  14.909  0.5947 -0.4087  1.1112
 1043SOL    HW214592   4.268   0.220  14.831  0.3503  0.5009 -0.0225
 1044SOL     OW14593   3.452   2.722   3.352 -0.0746  0.4586  0.3692
 1044SOL    HW114594   3.464   2.635   3.313 -0.1806  1.3574 -1.6892
 1044SOL    HW214595   3.466   2.696   3.443  0.4986  1.6176  0.6163
 1045SOL     OW14596   1.568   4.603  11.475  0.0892  0.0879 -0.2059
 1045SOL    HW114597   1.498   4.544  11.446  1.5502 -1.0143 -1.4720
 1045SOL    HW214598   1.551   4.598  11.569  1.7621  0.3941  0.1029
 1046SOL     OW14599   1.979   1.162   4.731  0.1458 -0.1541 -0.1013
 1046SOL    HW114600   1.911   1.228   4.747  0.1933 -0.2652  0.5363
 1046SOL    HW214601   2.036   1.214   4.673  1.3973 -1.2898  0.0981
 1047SOL     OW14602   3.359   4.295   5.919 -0.4711  0.5859  0.3449
 1047SOL    HW114603   3.407   4.251   5.989 -0.5573  0.0971  0.1003
 1047SOL    HW214604   3.379   4.387   5.934 -2.3314  0.3156  4.6526
 1048SOL     OW14605   1.392   1.237  12.427  0.1804  0.0050  0.0682
 1048SOL    HW114606   1.420   1.316  12.381  0.9573 -0.1820  0.2215
 1048SOL    HW214607   1.476   1.212  12.466  1.3387  0.8992 -1.8847
 1049SOL     OW14608   1.808   2.410   7.132  0.2449 -0.0445 -0.2480
 1049SOL    HW114609   1.790   2.328   7.178 -0.9724  1.4076  1.9009
 1049SOL    HW214610   1.903   2.407   7.127  0.1640 -1.3443 -0.9725
 1050SOL     OW14611   0.969   3.810   9.169 -0.2006  0.0903  0.1870
 1050SOL    HW114612   0.962   3.904   9.153  0.7714 -0.1516 -1.7515
 1050SOL    HW214613   1.053   3.787   9.128 -0.4095 -0.3370 -0.0046
 1051SOL     OW14614   4.354   1.417   0.782 -0.3412 -0.1228 -0.2949
 1051SOL    HW114615   4.443   1.413   0.746  0.2570 -1.1096  1.3041
 1051SOL    HW214616   4.323   1.507   0.797 -1.0315 -0.0665 -2.0532
 1052SOL     OW14617   3.789   3.977  13.542  1.0154 -0.5158  0.8491
 1052SOL    HW114618   3.879   4.009  13.533  0.5240  0.2627 -1.3655
 1052SOL    HW214619   3.752   4.020  13.619  1.9627  2.6090 -0.4511
 1053SOL     OW14620   1.847   0.919   6.252  0.0136  0.4605 -0.3636
 1053SOL    HW114621   1.836   0.964   6.335 -0.0113 -0.3716  0.0862
 1053SOL    HW214622   1.942   0.907   6.244  0.3492  2.6513  0.3133
 1054SOL     OW14623   3.385   2.701   4.142  0.8601  0.0832 -0.2305
 1054SOL    HW114624   3.313   2.682   4.083  0.9555 -3.3968  0.7683
 1054SOL    HW214625   3.329   2.698   4.219 -0.5177  0.9135 -1.2090
 1055SOL     OW14626   0.972   1.916   4.113  0.1464 -0.2616 -0.1243
 1055SOL    HW114627   0.960   1.823   4.094 -1.4584 -0.2121  0.5956
 1055SOL    HW214628   1.062   1.922   4.084  0.9424 -2.3853  1.8771
 1056SOL     OW14629   3.823   1.530   4.283 -0.7278  0.1297  0.2615
 1056SOL    HW114630   3.893   1.568   4.230  0.1938 -0.6694  0.9029
 1056SOL    HW214631   3.802   1.597   4.349  0.6432  0.1650  0.6778
 1057SOL     OW14632   3.469   2.741   4.494  0.1824 -0.0928 -0.1635
 1057SOL    HW114633   3.485   2.832   4.520 -1.1487  0.1131 -0.0786
 1057SOL    HW214634   3.385   2.759   4.451 -0.2973  0.7227  1.0961
 1058SOL     OW14635   4.333   4.507   3.358  0.7658 -0.2283 -0.3266
 1058SOL    HW114636   4.322   4.445   3.431 -1.4012  1.5466  0.8493
 1058SOL    HW214637   4.348   4.449   3.283  1.8298 -0.2570 -0.1025
 1059SOL     OW14638   2.737   1.492   7.153 -0.0059  0.8037 -0.4655
 1059SOL    HW114639   2.660   1.451   7.114  0.2001 -1.3499  1.4211
 1059SOL    HW214640   2.791   1.460   7.081  0.8816 -0.5353  0.8176
 1060SOL     OW14641   0.136   2.938   4.839 -0.2258  0.1113 -0.8125
 1060SOL    HW114642   0.093   2.889   4.768 -0.6899 -0.6518 -0.0117
 1060SOL    HW214643   0.224   2.933   4.800  0.2053  1.2911  0.0434
 1061SOL     OW14644   3.360   1.424   3.764  0.3365 -0.2695  0.1389
 1061SOL    HW114645   3.311   1.370   3.702 -1.0877 -0.2974  1.2677
 1061SOL    HW214646   3.453   1.409   3.750 -0.3194 -3.9434 -0.3053
 1062SOL     OW14647   1.474   1.092   3.819 -0.8699 -0.2014 -0.6222
 1062SOL    HW114648   1.536   1.063   3.752 -0.7092 -0.4032 -0.3866
 1062SOL    HW214649   1.430   1.159   3.767  0.6087  1.9172  0.9000
 1063SOL     OW14650   0.335   2.974  17.165 -0.1734 -0.2655  0.4628
 1063SOL    HW114651   0.264   2.973  17.229 -0.2932 -3.2645  0.2714
 1063SOL    HW214652   0.401   2.920  17.209 -0.9498 -1.2123  0.4603
 1064SOL     OW14653   4.168   1.545   8.658  0.1014  0.5820 -0.0160
 1064SOL    HW114654   4.074   1.538   8.643 -0.1596  0.9805  1.3439
 1064SOL    HW214655   4.172   1.476   8.725  0.9408 -1.2289 -1.9486
 1065SOL     OW14656   1.921   0.593   7.685  0.1372 -0.0716 -0.3754
 1065SOL    HW114657   1.845   0.652   7.692  1.3332  1.4510 -0.3637
 1065SOL    HW214658   1.902   0.546   7.604  0.3644 -1.5127  0.3962
 1066SOL     OW14659   2.582   0.336   9.956  0.1146 -0.8847  0.3013
 1066SOL    HW114660   2.569   0.241   9.964 -0.6689 -0.5735  2.9152
 1066SOL    HW214661   2.553   0.359   9.868 -1.6438 -1.0092  0.8441
 1067SOL     OW14662   2.073   2.097   6.843  0.5947  0.6365 -0.5155
 1067SOL    HW114663   2.064   2.001   6.849 -1.1525  0.8136 -0.2622
 1067SOL    HW214664   2.160   2.105   6.880  0.8661 -0.3250 -0.9374
 1068SOL     OW14665   1.626   1.905  16.493 -0.0076 -0.1219  1.0109
 1068SOL    HW114666   1.569   1.846  16.444  0.3326 -1.2012  1.9312
 1068SOL    HW214667   1.694   1.852  16.535  1.0477 -0.3428 -0.9873
 1069SOL     OW14668   0.598   4.415   6.235 -0.1475  0.6904  0.2885
 1069SOL    HW114669   0.517   4.430   6.187  1.3653  1.4633 -2.0544
 1069SOL    HW214670   0.571   4.412   6.326  2.1467 -0.3903  0.9528
 1070SOL     OW14671   1.337   1.816   6.340 -0.0716 -0.2053  0.0554
 1070SOL    HW114672   1.392   1.741   6.361  0.4712 -0.0302 -0.6926
 1070SOL    HW214673   1.365   1.881   6.405 -0.9264 -0.1846  0.3993
 1071SOL     OW14674   1.851   4.096   5.861 -0.2668 -0.1525  0.0230
 1071SOL    HW114675   1.934   4.071   5.901 -0.0123  3.7266  1.9315
 1071SOL    HW214676   1.818   4.167   5.915 -0.2349  0.5062 -0.8351
 1072SOL     OW14677   2.017   4.596   5.014  0.5607 -0.7286 -0.0073
 1072SOL    HW114678   2.036   4.690   5.019  1.9472 -1.0728  1.2599
 1072SOL    HW214679   2.028   4.572   5.106 -1.8646  0.7125  0.6704
 1073SOL     OW14680   4.131   2.500   5.719  0.3803 -0.2330 -0.1204
 1073SOL    HW114681   4.191   2.521   5.648 -0.7980  0.4931 -0.8868
 1073SOL    HW214682   4.114   2.405   5.714  0.4301 -0.1126 -2.5278
 1074SOL     OW14683   3.723   2.061  15.441  0.0588  0.5067  0.3536
 1074SOL    HW114684   3.663   2.124  15.481  0.6568  0.6435  1.0229
 1074SOL    HW214685   3.767   2.021  15.516  0.3033 -0.9092 -0.5522
 1075SOL     OW14686   4.409   3.256   6.775  0.5308 -0.0514  0.2124
 1075SOL    HW114687   4.392   3.247   6.869 -3.4845 -2.3481 -0.7499
 1075SOL    HW214688   4.504   3.253   6.788  0.3966 -1.0931  0.9357
 1076SOL     OW14689   4.339   4.168   5.743 -0.0908 -0.9435 -0.4321
 1076SOL    HW114690   4.336   4.109   5.818 -1.3202 -1.1609 -0.6437
 1076SOL    HW214691   4.271   4.234   5.761  1.9539  0.3629  2.5175
 1077SOL     OW14692   3.956   0.950   4.429 -0.1632 -0.5760 -0.2832
 1077SOL    HW114693   3.905   0.966   4.350 -1.9128 -0.2673  0.8990
 1077SOL    HW214694   3.969   0.858   4.410 -1.5057 -0.3569 -2.2119
 1078SOL     OW14695   1.320   0.637   6.958 -0.1071  0.1454  0.1074
 1078SOL    HW114696   1.386   0.689   6.913  0.4998  2.3764  3.5298
 1078SOL    HW214697   1.343   0.553   6.919 -1.4201  0.3285 -1.0746
 1079SOL     OW14698   2.682   3.078  13.344 -0.4923 -0.2591  0.5612
 1079SOL    HW114699   2.713   3.013  13.407 -2.1515 -2.6245 -1.0916
 1079SOL    HW214700   2.623   3.131  13.398  0.0055 -0.2195  1.0634
 1080SOL     OW14701   3.323   3.753   4.650  0.1570 -0.7235  0.1796
 1080SOL    HW114702   3.371   3.697   4.711 -0.3961  0.2088  1.4643
 1080SOL    HW214703   3.252   3.690   4.641 -1.5509  1.2348  0.1982
 1081SOL     OW14704   3.142   3.809   4.111 -0.2139  0.3776  0.2733
 1081SOL    HW114705   3.064   3.841   4.066  1.0334 -0.2207 -2.2615
 1081SOL    HW214706   3.135   3.829   4.205 -0.7198  1.5463 -0.0073
 1082SOL     OW14707   0.058   0.810  11.405  0.2459  0.3753  0.0147
 1082SOL    HW114708   0.092   0.800  11.494 -0.3518  1.9605  0.4254
 1082SOL    HW214709   0.108   0.887  11.377 -0.6728  1.0788  0.3269
 1083SOL     OW14710   1.445   4.502   1.115  0.4942  0.3627  0.0128
 1083SOL    HW114711   1.408   4.588   1.093  0.3101  0.1991 -0.3129
 1083SOL    HW214712   1.369   4.445   1.114  2.3010 -2.0623  1.0911
 1084SOL     OW14713   3.398   0.260   5.014 -0.0426 -0.3036 -0.1039
 1084SOL    HW114714   3.473   0.318   5.024 -1.3731  0.9775  2.6274
 1084SOL    HW214715   3.379   0.246   4.922 -0.9105  2.6499 -0.3815
 1085SOL     OW14716   4.091   4.035   4.554 -0.2487  0.2633 -0.3800
 1085SOL    HW114717   4.058   4.058   4.467  0.7034  1.3627 -0.4478
 1085SOL    HW214718   4.045   3.951   4.561  0.1017  0.1223  0.2546
 1086SOL     OW14719   0.473   3.404   9.800 -0.2682 -0.4741  0.4597
 1086SOL    HW114720   0.442   3.450   9.722 -2.0176  1.0648  2.1034
 1086SOL    HW214721   0.480   3.474   9.864 -1.3746 -1.0888  1.2374
 1087SOL     OW14722   3.977   0.242   6.581  0.5741  0.2030  0.0398
 1087SOL    HW114723   4.049   0.226   6.520 -1.1554 -0.5767 -1.7973
 1087SOL    HW214724   4.008   0.321   6.625  0.5712  0.8401 -1.0935
 1088SOL     OW14725   2.949   0.549  15.033 -0.2810 -0.7472  0.0634
 1088SOL    HW114726   2.895   0.626  15.018 -0.4887 -1.0337 -0.6696
 1088SOL    HW214727   3.037   0.586  15.032 -0.5680 -0.1141 -0.9401
 1089SOL     OW14728   4.214   1.644   4.654  0.1027  0.2516 -0.3380
 1089SOL    HW114729   4.217   1.704   4.729 -1.6009  1.7028 -1.4219
 1089SOL    HW214730   4.298   1.662   4.611  0.4142 -1.0118 -0.2568
 1090SOL     OW14731   0.277   3.145   9.654  0.7120 -0.1365  0.1626
 1090SOL    HW114732   0.373   3.151   9.660  0.5521  1.3555  1.1115
 1090SOL    HW214733   0.262   3.051   9.665 -1.0286  0.1734  0.3868
 1091SOL     OW14734   3.810   3.000   4.311 -0.4867  0.0740  0.3539
 1091SOL    HW114735   3.764   2.933   4.260 -0.1681 -2.4254  3.3659
 1091SOL    HW214736   3.765   2.999   4.396  1.2094 -0.0858  1.2486
 1092SOL     OW14737   1.065   2.928   0.563 -0.0723 -0.0771 -0.8034
 1092SOL    HW114738   1.025   2.849   0.527  0.0209 -0.5071  0.0358
 1092SOL    HW214739   1.130   2.944   0.495  1.7117  2.0681  1.3834
 1093SOL     OW14740   4.396   2.696   3.548 -0.0385  0.4452 -0.0529
 1093SOL    HW114741   4.427   2.713   3.459  0.6418  0.2345  0.1463
 1093SOL    HW214742   4.477   2.679   3.596 -0.5979  1.6836  1.3425
 1094SOL     OW14743   0.086   0.724   3.592 -0.4592  0.2055  0.5678
 1094SOL    HW114744   0.161   0.684   3.636 -0.1620 -1.7508 -1.7161
 1094SOL    HW214745   0.138   0.768   3.525  1.0401  1.2560  2.4423
 1095SOL     OW14746   2.324   0.359   9.127  0.0946  0.0257 -0.0218
 1095SOL    HW114747   2.380   0.405   9.190 -0.6504  1.0759 -0.1182
 1095SOL    HW214748   2.242   0.349   9.175  1.0728 -1.3390  1.3390
 1096SOL     OW14749   2.956   3.029   2.332  0.0919  0.3979  0.5916
 1096SOL    HW114750   3.045   2.999   2.350  1.0969  1.7869 -2.2077
 1096SOL    HW214751   2.923   3.060   2.417  1.4827  0.1493  1.2239
 1097SOL     OW14752   4.237   3.392   0.762  0.4778 -0.2290 -0.2113
 1097SOL    HW114753   4.300   3.408   0.833  1.2587  0.2793 -1.0121
 1097SOL    HW214754   4.289   3.337   0.702  0.1350  0.3418 -1.0284
 1098SOL     OW14755   4.386   2.054   5.903  0.1361  0.1455  0.7351
 1098SOL    HW114756   4.308   2.082   5.951 -0.1157 -0.3563  0.6102
 1098SOL    HW214757   4.408   1.977   5.956  3.0562 -0.4583 -1.3631
 1099SOL     OW14758   2.782   0.174   8.635 -0.3237 -0.3501  0.0366
 1099SOL    HW114759   2.757   0.093   8.591 -2.4892 -0.3981  1.3468
 1099SOL    HW214760   2.766   0.237   8.565 -2.3449  0.6486  1.4055
 1100SOL     OW14761   0.649   0.575   4.611  0.4583 -0.5358  0.4203
 1100SOL    HW114762   0.559   0.598   4.632 -0.1192 -2.4420  0.0399
 1100SOL    HW214763   0.637   0.502   4.550 -0.5736  1.3980 -1.7178
 1101SOL     OW14764   0.023   3.637  10.571  0.0159  0.0463 -0.4376
 1101SOL    HW114765   0.097   3.580  10.550  0.0530  0.3602 -1.1539
 1101SOL    HW214766   4.713   3.605  10.655 -0.2055  1.8237  0.1700
 1102SOL     OW14767   0.535   3.499   9.357 -0.2760 -0.0784  0.5148
 1102SOL    HW114768   0.483   3.528   9.432  1.2938  0.0535  1.5536
 1102SOL    HW214769   0.614   3.551   9.369 -1.2089  0.8113  2.8588
 1103SOL     OW14770   2.026   1.655   5.780  0.8962  0.3018  0.1683
 1103SOL    HW114771   2.080   1.576   5.790  0.5387  0.2408  1.7051
 1103SOL    HW214772   1.938   1.617   5.772  0.1323  1.8134  1.3890
 1104SOL     OW14773   2.051   2.627  17.307 -0.1577  0.1688 -0.6264
 1104SOL    HW114774   2.127   2.670  17.267  0.5926 -0.4148  0.1590
 1104SOL    HW214775   2.026   2.578  17.229 -0.3664  1.5557 -1.4333
 1105SOL     OW14776   1.718   0.571  17.166 -0.0619  0.7044  0.1476
 1105SOL    HW114777   1.713   0.481  17.199  1.1960 -0.0286 -1.6484
 1105SOL    HW214778   1.777   0.605  17.233  1.3471  1.4497 -1.4723
 1106SOL     OW14779   2.400   2.696   1.297 -0.2979 -0.1032  0.1860
 1106SOL    HW114780   2.319   2.685   1.346 -2.3642  4.1371 -2.2863
 1106SOL    HW214781   2.383   2.768   1.236 -1.1053 -1.0101 -0.6709
 1107SOL     OW14782   2.117   4.115   7.864  0.0053  0.1044  0.0421
 1107SOL    HW114783   2.102   4.079   7.952 -2.3792 -0.3660 -0.5506
 1107SOL    HW214784   2.062   4.056   7.813  1.7787  1.2187 -3.1267
 1108SOL     OW14785   0.708   0.653   7.112  0.2109  0.4590 -0.0944
 1108SOL    HW114786   0.680   0.687   7.197 -0.5736 -2.4769  0.7969
 1108SOL    HW214787   0.688   0.731   7.060  3.8772 -0.1344 -2.3796
 1109SOL     OW14788   0.421   2.205  15.543 -0.5653  0.3113 -0.2436
 1109SOL    HW114789   0.512   2.177  15.551 -1.1839 -1.8198 -0.8193
 1109SOL    HW214790   0.436   2.297  15.522 -0.5128 -0.3326 -3.0523
 1110SOL     OW14791   2.655   2.322   6.730  0.0889 -0.1888  0.3126
 1110SOL    HW114792   2.712   2.398   6.724  0.2204 -0.4304 -1.5322
 1110SOL    HW214793   2.670   2.286   6.642  2.2687  0.3802  0.4528
 1111SOL     OW14794   2.978   1.238   5.924 -0.4748 -0.0244  0.2917
 1111SOL    HW114795   2.999   1.209   6.012  3.3860  1.3474 -0.1959
 1111SOL    HW214796   3.017   1.168   5.872 -2.7492 -1.4839  0.5362
 1112SOL     OW14797   0.994   0.511   4.316 -0.2912  0.0073  0.3124
 1112SOL    HW114798   0.923   0.514   4.252  0.4115 -1.4772 -0.5368
 1112SOL    HW214799   0.965   0.572   4.384 -0.8285 -1.2568  1.2231
 1113SOL     OW14800   4.102   0.019  16.734 -0.3253  0.2686 -0.0461
 1113SOL    HW114801   4.031   4.697  16.688 -0.1291  0.9615 -1.0464
 1113SOL    HW214802   4.143   0.043  16.650 -1.3113  1.2947 -0.2242
 1114SOL     OW14803   3.940   4.552  10.181 -0.0617 -0.1891  0.0783
 1114SOL    HW114804   4.020   4.529  10.134 -0.6885 -0.4482 -0.8493
 1114SOL    HW214805   3.977   4.557  10.269  2.2486 -1.1022 -0.8599
 1115SOL     OW14806   2.333   4.204   4.844 -0.2876  0.5159  0.4103
 1115SOL    HW114807   2.291   4.164   4.920  0.4389  0.7642  0.9449
 1115SOL    HW214808   2.278   4.180   4.770 -0.7691 -1.5214  1.4381
 1116SOL     OW14809   1.251   1.448   8.768 -0.1560 -0.0657  0.0744
 1116SOL    HW114810   1.288   1.436   8.855 -1.3837 -0.4793  0.5389
 1116SOL    HW214811   1.202   1.367   8.762 -2.7310  1.5771 -1.3659
 1117SOL     OW14812   3.275   1.192  15.847  0.1199 -0.6942 -0.4850
 1117SOL    HW114813   3.282   1.206  15.941 -1.0935 -1.3226 -0.3040
 1117SOL    HW214814   3.233   1.106  15.850 -1.7513  0.2839  1.3448
 1118SOL     OW14815   2.473   2.775  11.266 -0.9761  0.4763  0.1199
 1118SOL    HW114816   2.491   2.735  11.351 -1.6020  0.2702  0.1538
 1118SOL    HW214817   2.379   2.783  11.278 -0.4942  2.2024  2.7542
 1119SOL     OW14818   4.172   0.091   3.376 -0.2083  0.6750  0.5198
 1119SOL    HW114819   4.203   0.071   3.464 -0.3629  0.8833  0.6212
 1119SOL    HW214820   4.129   0.012   3.343 -0.5610  0.6722  0.9915
 1120SOL     OW14821   4.640   2.326   9.921  0.2266 -0.4996 -0.0508
 1120SOL    HW114822   4.569   2.295   9.865  1.3000 -0.8021 -1.2625
 1120SOL    HW214823   4.629   2.273   9.999 -0.6982  1.0474  0.8692
 1121SOL     OW14824   2.967   2.502  16.907  0.4801  0.0792  0.2717
 1121SOL    HW114825   2.919   2.550  16.975 -0.1897  0.1931 -0.2742
 1121SOL    HW214826   2.916   2.429  16.874 -1.9244  2.8191 -2.1363
 1122SOL     OW14827   4.396   1.231   3.603 -0.7044 -0.3812  0.2034
 1122SOL    HW114828   4.309   1.200   3.578 -0.5363 -1.1196  0.5419
 1122SOL    HW214829   4.388   1.245   3.698  2.6497 -1.8336  0.6884
 1123SOL     OW14830   2.752   2.032   7.721  0.3876 -0.1074  0.1150
 1123SOL    HW114831   2.738   2.009   7.813 -0.3265 -0.2372 -0.0207
 1123SOL    HW214832   2.767   2.126   7.732  0.5742 -0.1884  0.5639
 1124SOL     OW14833   0.030   3.575   8.548 -0.1767  0.2979 -0.2076
 1124SOL    HW114834   0.120   3.596   8.523  0.7863 -2.7316  0.7396
 1124SOL    HW214835   0.049   3.569   8.642  2.4245  0.7832 -0.6946
 1125SOL     OW14836   0.120   2.870   2.575  0.6266 -0.2304  0.8158
 1125SOL    HW114837   0.113   2.897   2.484  0.4029 -0.2996  0.8111
 1125SOL    HW214838   0.063   2.793   2.575 -0.7786  0.8070 -0.9738
 1126SOL     OW14839   0.156   4.617  12.559  0.2698 -0.2547 -0.1404
 1126SOL    HW114840   0.069   4.610  12.598  0.5480 -0.5611  0.4213
 1126SOL    HW214841   0.216   4.583  12.625  0.8679  2.5156  0.7392
 1127SOL     OW14842   1.077   1.152   3.547 -0.1164  0.1744 -0.3338
 1127SOL    HW114843   1.073   1.221   3.481 -1.3445 -0.8659 -1.3632
 1127SOL    HW214844   0.984   1.132   3.548  0.2115 -1.3149  0.1076
 1128SOL     OW14845   1.996   0.827   2.240  0.1515 -0.4908  0.3272
 1128SOL    HW114846   2.088   0.841   2.216  0.5064 -0.5407  1.6557
 1128SOL    HW214847   2.018   0.773   2.316  1.2633 -1.5971 -0.7881
 1129SOL     OW14848   0.340   3.075  16.886  0.2458  0.8393 -0.6810
 1129SOL    HW114849   0.370   3.041  16.970 -0.3612  2.1095  0.0546
 1129SOL    HW214850   0.266   3.015  16.872  0.7608 -0.4196  1.9621
 1130SOL     OW14851   3.331   4.227   7.977  0.1829  0.1924  0.3270
 1130SOL    HW114852   3.255   4.178   8.007  1.0570 -0.7717  0.9652
 1130SOL    HW214853   3.302   4.316   7.995 -2.8254 -0.8519  0.7022
 1131SOL     OW14854   1.018   0.135   9.321  0.1817  0.0642  0.2791
 1131SOL    HW114855   1.016   0.130   9.416 -0.4980  2.5158  0.3804
 1131SOL    HW214856   1.064   0.052   9.310 -1.0325 -0.3687 -1.5539
 1132SOL     OW14857   1.553   1.500   9.053  0.0206 -0.1569 -0.2023
 1132SOL    HW114858   1.519   1.411   9.041  0.0251 -0.4828  2.0684
 1132SOL    HW214859   1.620   1.482   9.119  1.5885  0.7115 -1.5701
 1133SOL     OW14860   1.087   3.583   7.533  0.0647 -0.1807 -0.3136
 1133SOL    HW114861   0.993   3.566   7.523  0.4625 -1.6850 -1.6060
 1133SOL    HW214862   1.095   3.658   7.473 -0.0824  0.2194  0.1714
 1134SOL     OW14863   4.504   0.484   2.717 -0.3842  0.1307 -0.0313
 1134SOL    HW114864   4.426   0.428   2.725 -0.9923  1.3168  2.3885
 1134SOL    HW214865   4.501   0.533   2.799 -1.7452 -2.4787  1.5144
 1135SOL     OW14866   2.438   0.201   2.435 -0.1137  0.4372  0.6390
 1135SOL    HW114867   2.351   0.184   2.400  0.2238 -2.0250  1.0019
 1135SOL    HW214868   2.492   0.122   2.429  0.8879  1.0495  1.6343
 1136SOL     OW14869   2.324   0.236  17.384 -0.5226  0.2676  0.3487
 1136SOL    HW114870   2.309   0.320  17.340  2.1116  0.3906 -0.3196
 1136SOL    HW214871   2.259   0.177  17.345 -0.9400  0.9507  0.0107
 1137SOL     OW14872   3.844   4.435   4.577  0.3295  0.8367  0.2891
 1137SOL    HW114873   3.793   4.357   4.552  0.4184  0.3342  1.7036
 1137SOL    HW214874   3.878   4.411   4.663  2.8480  2.6873 -0.2173
 1138SOL     OW14875   0.906   1.876  14.193 -0.4633 -0.5067 -0.0867
 1138SOL    HW114876   0.927   1.783  14.199  4.6104  0.7552  1.6963
 1138SOL    HW214877   0.812   1.875  14.211 -0.6040 -1.6233 -0.8909
 1139SOL     OW14878   2.286   0.988   9.445 -0.8678 -0.4014 -0.2851
 1139SOL    HW114879   2.369   0.976   9.398  0.5328 -1.7269  2.5219
 1139SOL    HW214880   2.233   0.912   9.420 -0.3167 -0.7471 -0.4200
 1140SOL     OW14881   4.184   1.636   2.423 -0.0837  0.2580 -0.3522
 1140SOL    HW114882   4.147   1.556   2.384  1.9545 -0.9098  0.1517
 1140SOL    HW214883   4.103   1.687   2.418 -0.9125 -1.0303 -0.1347
 1141SOL     OW14884   1.262   1.391   4.914  0.2388 -0.2543 -0.2074
 1141SOL    HW114885   1.220   1.472   4.941 -1.1669 -0.6904 -1.1165
 1141SOL    HW214886   1.253   1.393   4.819 -0.5662  0.9668 -0.1025
 1142SOL     OW14887   1.322   1.034   1.219  0.4690  0.4083  0.1657
 1142SOL    HW114888   1.328   1.107   1.280  1.3996  0.6321 -0.1840
 1142SOL    HW214889   1.407   0.991   1.229 -1.2220 -2.9741  0.1011
 1143SOL     OW14890   4.484   4.489   3.636 -0.2417  0.1905  0.3087
 1143SOL    HW114891   4.561   4.501   3.693  0.4673  1.4400 -0.8961
 1143SOL    HW214892   4.430   4.441   3.698 -0.4793  0.1066  0.0345
 1144SOL     OW14893   1.519   4.155   2.746  0.2996 -0.1894  0.3256
 1144SOL    HW114894   1.445   4.214   2.761  0.7708 -0.3715  3.2649
 1144SOL    HW214895   1.538   4.178   2.655 -0.7472  0.1089  0.1756
 1145SOL     OW14896   2.281   1.459  10.287 -0.1481  0.0351  0.0283
 1145SOL    HW114897   2.277   1.545  10.329  0.0075 -0.5307  1.2048
 1145SOL    HW214898   2.261   1.479  10.196 -1.6069  2.2686  0.8283
 1146SOL     OW14899   3.693   2.948   5.542  0.0436 -0.1465  0.1438
 1146SOL    HW114900   3.695   2.996   5.459 -1.4972  1.4117  1.0030
 1146SOL    HW214901   3.666   3.017   5.602 -0.5661 -0.3366  0.0897
 1147SOL     OW14902   3.507   4.300   4.676 -0.3197 -0.7065  0.0242
 1147SOL    HW114903   3.509   4.396   4.672  0.5377 -0.8497 -2.9363
 1147SOL    HW214904   3.481   4.288   4.768 -1.2186 -0.9026 -0.2640
 1148SOL     OW14905   4.052   4.271   9.799 -0.9527 -0.1050 -0.0600
 1148SOL    HW114906   4.013   4.216   9.868 -0.8217  0.2110  0.2656
 1148SOL    HW214907   3.979   4.331   9.785 -1.2848  0.0578  2.2259
 1149SOL     OW14908   1.025   0.036   2.251 -0.1628  0.4571  0.7579
 1149SOL    HW114909   1.070   0.105   2.203 -1.3802  0.4288 -0.4108
 1149SOL    HW214910   0.988   0.088   2.322 -1.1461  0.4998  0.2116
 1150SOL     OW14911   3.359   4.464  12.382 -0.2178 -0.4926  0.0031
 1150SOL    HW114912   3.390   4.381  12.419  0.4663 -0.2838 -0.1025
 1150SOL    HW214913   3.267   4.451  12.358  0.0580 -1.6062 -0.4569
 1151SOL     OW14914   1.080   0.200   7.871 -0.7978 -0.2239 -0.0737
 1151SOL    HW114915   1.032   0.189   7.790 -0.2840  0.7051 -0.5067
 1151SOL    HW214916   1.171   0.220   7.847  0.0906 -2.3972  1.4102
 1152SOL     OW14917   1.120   0.643   2.624  0.5371  0.1402 -0.2051
 1152SOL    HW114918   1.153   0.651   2.714 -0.9551  0.5314  0.3078
 1152SOL    HW214919   1.152   0.556   2.603 -1.6746 -0.5499 -0.7104
 1153SOL     OW14920   4.108   1.768   7.826  0.2775 -0.2126 -0.4948
 1153SOL    HW114921   4.018   1.753   7.857  0.3701  0.6769  0.2096
 1153SOL    HW214922   4.102   1.861   7.805 -0.9237 -0.1240  0.2225
 1154SOL     OW14923   0.705   4.086   8.740 -0.4894  0.0733  0.0127
 1154SOL    HW114924   0.683   4.011   8.685  0.8428 -0.5337  0.3090
 1154SOL    HW214925   0.626   4.099   8.792 -1.3074 -0.8032 -1.0099
 1155SOL     OW14926   1.868   4.220   8.084  0.0645  0.3305  0.4915
 1155SOL    HW114927   1.914   4.231   8.168  0.8907  2.2267 -0.2274
 1155SOL    HW214928   1.827   4.135   8.099  0.4766  0.0914  0.2691
 1156SOL     OW14929   0.016   1.177   4.029  0.1668  0.7277  0.3369
 1156SOL    HW114930   0.066   1.143   3.955 -1.6206 -1.2326  0.0247
 1156SOL    HW214931   4.646   1.169   4.010  0.4420 -2.5112  0.3696
 1157SOL     OW14932   3.333   1.791  13.393 -0.4623 -0.1290 -0.1738
 1157SOL    HW114933   3.329   1.838  13.477  0.0818 -1.4381  0.5939
 1157SOL    HW214934   3.326   1.700  13.422  0.3838 -0.3999 -0.8239
 1158SOL     OW14935   4.169   4.577  10.364  0.3012 -0.1873 -0.0217
 1158SOL    HW114936   4.166   4.670  10.388 -1.2851 -0.3112  0.2628
 1158SOL    HW214937   4.261   4.549  10.366  0.6527  1.0181  0.5327
 1159SOL     OW14938   2.013   1.527   9.561  0.1823 -0.2938 -0.1143
 1159SOL    HW114939   2.045   1.441   9.533  0.7970 -0.2415  0.4324
 1159SOL    HW214940   2.026   1.517   9.655 -1.5612  0.4582  0.1963
 1160SOL     OW14941   2.691   3.657   8.753  0.4285  0.2380  0.3452
 1160SOL    HW114942   2.608   3.633   8.712  0.7010  1.7401 -1.1008
 1160SOL    HW214943   2.746   3.650   8.675  0.4579 -0.1277  0.4012
 1161SOL     OW14944   4.326   0.984   7.336 -0.6138 -0.0551  0.2996
 1161SOL    HW114945   4.323   0.958   7.244  0.3233 -0.4632  0.3862
 1161SOL    HW214946   4.371   1.065   7.313  0.0693 -0.3985  0.4382
 1162SOL     OW14947   1.192   4.675   5.907 -0.5918 -0.5103  0.0081
 1162SOL    HW114948   1.219   4.647   5.820 -0.5344  2.3027 -0.8992
 1162SOL    HW214949   1.253   0.019   5.937 -0.3854 -1.0415  0.8122
 1163SOL     OW14950   4.113   0.128   4.517  0.2049  0.0695  0.0241
 1163SOL    HW114951   4.022   0.096   4.521 -0.1941  1.2642  0.8406
 1163SOL    HW214952   4.135   0.125   4.425  0.6494 -2.0421  0.2088
 1164SOL     OW14953   0.652   3.654   3.943  0.0261 -0.2255 -0.1082
 1164SOL    HW114954   0.731   3.694   3.979  0.5105 -0.2498 -1.1487
 1164SOL    HW214955   0.588   3.724   3.931 -0.7416 -1.1346 -1.3017
 1165SOL     OW14956   1.355   1.447  16.930  0.3840  0.2561  0.5587
 1165SOL    HW114957   1.302   1.516  16.889  0.1023  0.3173  1.0300
 1165SOL    HW214958   1.321   1.368  16.889 -0.2055 -0.5649  2.6192
 1166SOL     OW14959   3.779   4.678   1.397  0.0613  0.1586 -0.6335
 1166SOL    HW114960   3.733   4.654   1.317  0.6370 -2.5753 -0.1493
 1166SOL    HW214961   3.856   4.622   1.400  0.2139  0.3577 -0.8445
 1167SOL     OW14962   3.695   1.750  11.564  0.2805 -0.3021 -0.0591
 1167SOL    HW114963   3.725   1.798  11.486  1.2884 -0.5021  0.2016
 1167SOL    HW214964   3.610   1.788  11.584  1.2195  2.8476 -2.0649
 1168SOL     OW14965   2.177   2.879   1.941  0.8282 -0.4211  0.2959
 1168SOL    HW114966   2.190   2.928   1.860  0.1438 -1.4178 -0.4187
 1168SOL    HW214967   2.205   2.791   1.914  1.2196 -0.0008 -0.6919
 1169SOL     OW14968   1.333   3.956   0.623 -0.3286  0.1817 -0.0909
 1169SOL    HW114969   1.354   3.919   0.537 -0.0856 -1.1948  0.5664
 1169SOL    HW214970   1.246   3.917   0.637 -0.4085  0.3018 -0.2447
 1170SOL     OW14971   2.261   2.336   2.486  0.4347  0.2551 -0.3758
 1170SOL    HW114972   2.229   2.416   2.526 -0.0552 -0.3822  0.4946
 1170SOL    HW214973   2.184   2.284   2.506  0.7380  0.1111  0.4370
 1171SOL     OW14974   4.447   0.907   5.310  0.0823  0.5298  0.1472
 1171SOL    HW114975   4.386   0.892   5.382  0.2942 -1.3891 -0.0730
 1171SOL    HW214976   4.405   0.975   5.257  0.9513  1.6529  0.8904
 1172SOL     OW14977   1.317   2.366   5.912  0.7934 -0.1135 -0.1252
 1172SOL    HW114978   1.323   2.275   5.944  1.2670  0.2842  0.8995
 1172SOL    HW214979   1.326   2.416   5.992  0.4956  0.5409 -0.5029
 1173SOL     OW14980   4.693   3.798   9.765  1.0208  0.0337 -0.6668
 1173SOL    HW114981   4.724   3.778   9.853 -1.0743 -0.6356 -0.0793
 1173SOL    HW214982   4.614   3.744   9.764 -0.0300  1.5716 -0.8109
 1174SOL     OW14983   2.941   3.197   6.393 -0.0802 -0.0486 -0.4237
 1174SOL    HW114984   2.859   3.173   6.351 -0.5920  0.8611  0.0797
 1174SOL    HW214985   2.966   3.281   6.356 -2.0171  1.0508  0.7759
 1175SOL     OW14986   2.492   3.062   7.899  0.0017 -0.0986 -0.0819
 1175SOL    HW114987   2.529   3.141   7.938 -0.6746  0.5471 -0.7412
 1175SOL    HW214988   2.413   3.095   7.855  0.8179  0.0969 -1.3930
 1176SOL     OW14989   0.917   1.479   5.905  0.5560 -0.3527 -0.2500
 1176SOL    HW114990   0.859   1.495   5.831  1.5041 -1.3313 -1.2192
 1176SOL    HW214991   0.990   1.438   5.858  2.2678  1.4350  0.8198
 1177SOL     OW14992   2.512   1.464   4.964 -0.2257  0.7522  0.1706
 1177SOL    HW114993   2.563   1.451   4.884 -0.3630  2.4396 -0.1942
 1177SOL    HW214994   2.424   1.474   4.928 -1.0210  0.7267  2.1149
 1178SOL     OW14995   0.625   1.497   4.370 -0.8145  0.2365 -0.1961
 1178SOL    HW114996   0.640   1.447   4.451  0.6779  0.6070 -0.2412
 1178SOL    HW214997   0.717   1.511   4.348 -0.1147 -1.3743  1.6102
 1179SOL     OW14998   3.326   1.767   8.950 -0.1678  0.2252  0.4203
 1179SOL    HW114999   3.356   1.837   9.008  2.1057 -0.7879  0.4702
 1179SOL    HW215000   3.319   1.688   9.004  0.1730  1.0411  1.6381
 1180SOL     OW15001   4.584   2.466   7.160 -0.0624 -0.2866  0.3267
 1180SOL    HW115002   4.510   2.406   7.154 -1.1394  0.8583  2.0854
 1180SOL    HW215003   4.652   2.407   7.127 -2.2338 -2.2133 -0.6857
 1181SOL     OW15004   2.274   1.815   5.632 -0.4311  0.1561  0.1888
 1181SOL    HW115005   2.200   1.801   5.572 -1.1399  2.4032  0.5436
 1181SOL    HW215006   2.276   1.732   5.680  0.2979 -0.6901 -1.3055
 1182SOL     OW15007   3.178   1.146  17.364  0.7605  0.0905  0.1291
 1182SOL    HW115008   3.268   1.113  17.366  1.0609  0.9658  0.7885
 1182SOL    HW215009   3.143   1.077  17.307  0.1334 -0.7100  1.4727
 1183SOL     OW15010   2.766   1.596   9.335 -0.1646  0.1667 -0.0795
 1183SOL    HW115011   2.701   1.610   9.404  1.7985  0.4767  1.6763
 1183SOL    HW215012   2.818   1.529   9.378 -0.0747 -1.0601 -2.0786
 1184SOL     OW15013   0.372   1.656   9.691 -0.1192  0.1055 -0.1192
 1184SOL    HW115014   0.347   1.734   9.641 -1.0336 -1.2867 -1.8445
 1184SOL    HW215015   0.305   1.597   9.657  2.3780 -2.0114 -1.3811
 1185SOL     OW15016   0.375   0.359   8.666 -0.5582 -0.5261  0.0434
 1185SOL    HW115017   0.289   0.347   8.708 -1.0392  0.9223 -0.5419
 1185SOL    HW215018   0.388   0.268   8.639 -3.1939 -0.4690 -1.4004
 1186SOL     OW15019   4.634   1.911  11.093  0.4421 -0.3645 -0.2245
 1186SOL    HW115020   4.672   1.833  11.132 -0.1154  0.4641  2.0004
 1186SOL    HW215021   4.544   1.881  11.077  1.5460 -3.4287 -0.6482
 1187SOL     OW15022   2.462   0.094  17.553  0.2101 -0.3077 -0.1530
 1187SOL    HW115023   2.402   0.136  17.492  1.5614 -1.0753 -2.0416
 1187SOL    HW215024   2.444   0.148  17.630  0.7225  0.2109 -0.3935
 1188SOL     OW15025   3.504   0.826   2.059  0.1926 -0.0753  0.3068
 1188SOL    HW115026   3.587   0.807   2.015 -0.0316 -2.6166  1.0292
 1188SOL    HW215027   3.487   0.919   2.040 -0.0691  0.1438  1.6308
 1189SOL     OW15028   1.643   2.227   5.500  0.4925 -0.7862  0.4636
 1189SOL    HW115029   1.610   2.153   5.450 -0.3646 -0.4204  0.4937
 1189SOL    HW215030   1.609   2.301   5.449 -0.1281 -0.6607  1.0661
 1190SOL     OW15031   1.532   3.757   7.139  0.4719 -0.3929 -0.0381
 1190SOL    HW115032   1.614   3.742   7.186  1.3632 -1.5147 -1.9570
 1190SOL    HW215033   1.558   3.736   7.049 -0.2168  2.5895 -0.9345
 1191SOL     OW15034   2.571   3.625   6.504 -0.6903 -0.2096  0.3583
 1191SOL    HW115035   2.519   3.653   6.429  2.4122  0.2160 -1.6216
 1191SOL    HW215036   2.524   3.549   6.539  3.4746 -2.5780  0.7617
 1192SOL     OW15037   2.798   1.430   6.020 -0.1578 -0.1824  0.2149
 1192SOL    HW115038   2.860   1.374   5.974  0.1331  1.2636 -1.1677
 1192SOL    HW215039   2.731   1.450   5.955 -0.2439 -3.1561 -0.6333
 1193SOL     OW15040   1.209   4.137   2.542 -0.2956 -0.8469 -0.4790
 1193SOL    HW115041   1.257   4.190   2.605 -0.1601 -1.9454  0.3497
 1193SOL    HW215042   1.118   4.157   2.564  0.9011  0.1927  3.4632
 1194SOL     OW15043   2.791   2.958   7.363 -0.0605  0.3443  0.0026
 1194SOL    HW115044   2.785   2.960   7.267 -1.1884 -1.3847  0.0279
 1194SOL    HW215045   2.867   3.011   7.386  0.1249  0.0348  0.1120
 1195SOL     OW15046   1.232   3.227  10.764 -0.1868  0.7647 -0.0157
 1195SOL    HW115047   1.264   3.301  10.815 -1.9197  0.1938  1.8802
 1195SOL    HW215048   1.161   3.264  10.711 -3.0869 -3.0461  1.1699
 1196SOL     OW15049   4.581   4.050   8.216 -0.6191  0.5020  0.3473
 1196SOL    HW115050   4.531   3.972   8.193  0.3039  0.3910 -1.2735
 1196SOL    HW215051   4.597   4.042   8.310 -1.6488 -1.7750  0.3219
 1197SOL     OW15052   3.375   0.101  13.691 -0.2332 -0.1596  0.3612
 1197SOL    HW115053   3.422   0.185  13.692  0.8697 -0.7731  0.7332
 1197SOL    HW215054   3.283   0.125  13.683  0.4463  2.5003  0.5052
 1198SOL     OW15055   2.235   3.362   4.289 -0.0312  0.1768 -0.1670
 1198SOL    HW115056   2.214   3.437   4.344 -1.9755 -0.0407 -0.5973
 1198SOL    HW215057   2.235   3.299   4.361 -2.2789 -2.7414 -2.6661
 1199SOL     OW15058   3.143   2.497   2.529  0.1243 -0.3459 -0.1555
 1199SOL    HW115059   3.221   2.513   2.582  1.6541 -1.7062 -2.0432
 1199SOL    HW215060   3.175   2.529   2.445 -0.0119  0.6233  0.1514
 1200SOL     OW15061   1.175   4.570   4.218  0.1285 -0.4688 -0.6998
 1200SOL    HW115062   1.148   4.621   4.295  0.3414 -1.7166  0.1926
 1200SOL    HW215063   1.264   4.549   4.244 -0.0521  0.9926  1.0858
 1201SOL     OW15064   0.560   1.412   7.251  0.2310 -0.2181 -0.1010
 1201SOL    HW115065   0.623   1.417   7.179 -1.2345 -0.5427 -1.4031
 1201SOL    HW215066   0.475   1.422   7.209 -0.1699  1.3372  1.0836
 1202SOL     OW15067   3.603   0.927   7.470  0.7309 -0.4496  0.0139
 1202SOL    HW115068   3.598   0.937   7.565  0.9221 -1.1527  0.1033
 1202SOL    HW215069   3.637   0.839   7.452  2.5771  0.1587  0.5118
 1203SOL     OW15070   1.642   2.905   3.696  0.2535 -0.2800  0.7891
 1203SOL    HW115071   1.651   2.996   3.667  1.4356 -0.6672 -0.0362
 1203SOL    HW215072   1.645   2.862   3.611 -1.5578  0.5593  0.3165
 1204SOL     OW15073   0.366   1.861  12.308  0.5000 -0.1476  0.0587
 1204SOL    HW115074   0.293   1.903  12.264 -0.1307 -0.0823  1.1620
 1204SOL    HW215075   0.409   1.812  12.238  1.3146 -0.9518  1.1208
 1205SOL     OW15076   3.362   3.348   7.478  0.2106 -0.2344  0.0854
 1205SOL    HW115077   3.347   3.259   7.507  0.5491 -0.5204 -0.6162
 1205SOL    HW215078   3.384   3.386   7.563 -1.0548  0.2951  0.1796
 1206SOL     OW15079   0.891   2.601   2.814  0.7417 -0.3661  0.2503
 1206SOL    HW115080   0.861   2.526   2.865  0.1815 -0.2779  0.0566
 1206SOL    HW215081   0.984   2.582   2.810  0.6028 -0.5245 -1.8148
 1207SOL     OW15082   3.750   3.199   2.781 -0.0902  0.3044  0.0066
 1207SOL    HW115083   3.783   3.110   2.788  0.3619  0.6096  1.9797
 1207SOL    HW215084   3.746   3.214   2.876  3.3279 -0.0752  0.2172
 1208SOL     OW15085   0.014   3.215   7.259 -0.2475 -0.4214  0.1880
 1208SOL    HW115086   0.055   3.174   7.335  0.9640 -2.1150 -1.3951
 1208SOL    HW215087   4.692   3.141   7.219  1.7097 -1.6786  0.2590
 1209SOL     OW15088   0.784   3.525  14.996  0.0002  0.4157  0.2194
 1209SOL    HW115089   0.693   3.514  15.023  0.2553  1.4838  1.4769
 1209SOL    HW215090   0.811   3.587  15.063  0.7928  2.3564 -1.9023
 1210SOL     OW15091   4.336   0.132   1.526 -0.9911  0.5179 -0.6881
 1210SOL    HW115092   4.429   0.149   1.535 -0.7125 -1.1634 -0.4344
 1210SOL    HW215093   4.331   0.094   1.438 -1.6595 -1.4955  0.2297
 1211SOL     OW15094   3.596   1.603   1.271  0.2419  0.3177  0.3512
 1211SOL    HW115095   3.657   1.532   1.251 -1.0631 -0.8285  0.4760
 1211SOL    HW215096   3.522   1.593   1.212 -0.9331 -1.6616  2.1561
 1212SOL     OW15097   1.227   2.951   6.228 -0.5867 -0.2005 -0.2298
 1212SOL    HW115098   1.272   2.872   6.256  1.7100  0.6455 -1.5114
 1212SOL    HW215099   1.246   3.006   6.305 -0.5149 -0.8034  0.1840
 1213SOL     OW15100   4.719   2.214   3.756 -0.4213 -0.5216 -0.0404
 1213SOL    HW115101   4.704   2.136   3.810 -0.6885  0.4348  1.2744
 1213SOL    HW215102   0.071   2.185   3.706 -1.6855 -1.1358 -1.5811
 1214SOL     OW15103   1.696   2.013  17.089  0.4373 -0.8606 -0.5286
 1214SOL    HW115104   1.743   1.951  17.033  1.1834 -0.1745 -0.6660
 1214SOL    HW215105   1.680   2.081  17.024 -2.8581 -0.1409  1.0426
 1215SOL     OW15106   1.149   0.791   4.161 -0.1120 -0.4029 -0.1882
 1215SOL    HW115107   1.058   0.821   4.163 -0.3377 -1.0533 -1.0502
 1215SOL    HW215108   1.165   0.760   4.250 -1.0357  1.3708  0.5904
 1216SOL     OW15109   1.060   3.280   9.627 -0.1398 -0.1677  0.9868
 1216SOL    HW115110   1.140   3.313   9.669 -0.9121  4.0276 -0.8263
 1216SOL    HW215111   0.997   3.345   9.658 -3.0929 -1.9111 -1.3429
 1217SOL     OW15112   0.167   4.603   4.172  0.0343  0.0208 -0.1130
 1217SOL    HW115113   0.206   4.617   4.086  2.3782 -1.6600  0.6820
 1217SOL    HW215114   0.221   4.645   4.239  0.8160 -0.4620 -0.4494
 1218SOL     OW15115   0.881   3.491   8.563 -0.1584  0.1627  0.3335
 1218SOL    HW115116   0.920   3.424   8.619 -2.9931 -1.9017 -0.1650
 1218SOL    HW215117   0.926   3.485   8.479 -0.7227 -0.0089  0.0431
 1219SOL     OW15118   0.544   3.315  12.280 -0.4008 -0.6481 -0.0483
 1219SOL    HW115119   0.478   3.308  12.211 -1.0989  0.3284  0.5254
 1219SOL    HW215120   0.491   3.319  12.359  0.3387 -2.2150  0.5309
 1220SOL     OW15121   2.736   3.677   9.022 -0.4235  0.0582  0.4353
 1220SOL    HW115122   2.702   3.682   8.933  0.1635 -1.0568  0.1478
 1220SOL    HW215123   2.820   3.633   9.011 -0.9215 -1.1612  1.6341
 1221SOL     OW15124   2.021   4.375  17.146 -0.3074  0.5291  0.1523
 1221SOL    HW115125   2.053   4.417  17.226  0.8226 -1.5446  0.7930
 1221SOL    HW215126   2.095   4.323  17.114 -0.9466 -1.0015  1.1379
 1222SOL     OW15127   3.449   2.096   0.220  0.3083 -0.3544 -0.3430
 1222SOL    HW115128   3.468   2.002   0.227  1.0308 -0.3567 -2.4281
 1222SOL    HW215129   3.497   2.137   0.292 -1.4307  2.3309 -0.7146
 1223SOL     OW15130   0.155   0.043   2.630 -0.0512 -0.0698  0.3827
 1223SOL    HW115131   0.075   0.014   2.675  0.4770  0.1080  1.4512
 1223SOL    HW215132   0.125   0.033   2.540  1.8524  0.2440 -0.2883
 1224SOL     OW15133   3.651   1.719  10.009  0.0726 -0.0868 -0.3787
 1224SOL    HW115134   3.654   1.641  10.066  1.2682  2.7362  3.4205
 1224SOL    HW215135   3.731   1.764  10.038 -0.0392 -0.5515  0.6456
 1225SOL     OW15136   2.343   3.637   4.913  0.3300  0.1426  0.3398
 1225SOL    HW115137   2.310   3.697   4.846  1.3208 -0.4097 -0.6410
 1225SOL    HW215138   2.359   3.706   4.977 -2.9331 -0.0087  1.3090
 1226SOL     OW15139   0.145   0.520  16.211  0.0242  0.1646 -0.2149
 1226SOL    HW115140   0.058   0.482  16.197 -0.9644  2.4358 -0.1522
 1226SOL    HW215141   0.144   0.603  16.164 -0.1924  0.8603  1.0118
 1227SOL     OW15142   3.281   2.449   3.510  0.0638 -0.1449  0.2342
 1227SOL    HW115143   3.251   2.364   3.543  0.2409 -0.6706 -0.9347
 1227SOL    HW215144   3.339   2.418   3.440  0.1740  1.1111 -0.2285
 1228SOL     OW15145   3.851   3.711   8.601 -0.0340  0.4748 -0.4610
 1228SOL    HW115146   3.764   3.741   8.630  0.4938 -0.1592  1.7800
 1228SOL    HW215147   3.911   3.742   8.669  0.4263  0.6300 -0.9396
 1229SOL     OW15148   1.784   4.579   7.053  0.5201  0.0082  0.6419
 1229SOL    HW115149   1.855   4.526   7.017  0.7398  0.1291  0.8959
 1229SOL    HW215150   1.726   4.518   7.099  0.6053 -1.4322 -1.1536
 1230SOL     OW15151   3.401   4.263   3.151 -0.1134 -0.3716  0.2864
 1230SOL    HW115152   3.430   4.354   3.141 -0.5465 -0.4854 -2.0378
 1230SOL    HW215153   3.405   4.226   3.063  0.8434 -0.6155  0.4288
 1231SOL     OW15154   1.341   2.779   8.477 -0.0262  0.3352 -0.5115
 1231SOL    HW115155   1.316   2.723   8.403 -1.5512 -1.7604  1.6081
 1231SOL    HW215156   1.435   2.768   8.494 -0.2221 -2.0122 -0.9755
 1232SOL     OW15157   3.856   0.225  11.466 -0.2191 -0.0549  0.5385
 1232SOL    HW115158   3.836   0.147  11.517  1.3080 -1.0896 -0.4283
 1232SOL    HW215159   3.772   0.254  11.430 -0.0477 -1.1640 -0.7899
 1233SOL     OW15160   0.390   2.890   2.146  0.4391 -0.0734 -0.3518
 1233SOL    HW115161   0.433   2.976   2.149  0.4032 -0.1133  1.4129
 1233SOL    HW215162   0.364   2.884   2.054 -2.8189 -0.6207  0.5979
 1234SOL     OW15163   0.704   4.419   5.570 -0.2810 -0.3171 -0.1254
 1234SOL    HW115164   0.701   4.482   5.643 -5.0736 -1.8371  0.9773
 1234SOL    HW215165   0.667   4.342   5.613 -3.2489  0.7113 -0.8215
 1235SOL     OW15166   1.941   4.633  11.562  0.0290  0.0186 -0.7266
 1235SOL    HW115167   1.940   4.555  11.507 -2.3999 -0.8642  0.6193
 1235SOL    HW215168   1.992   4.602  11.636  2.8016  0.3254 -2.4973
 1236SOL     OW15169   2.363   2.579   9.586  0.5773  0.4070 -0.1042
 1236SOL    HW115170   2.276   2.618   9.575 -0.2374 -0.7292  2.2993
 1236SOL    HW215171   2.373   2.573   9.681 -0.1793  0.6963 -0.0028
 1237SOL     OW15172   1.855   0.866  11.522  0.6776 -0.1532  0.3378
 1237SOL    HW115173   1.781   0.832  11.471 -0.3722  3.2403 -0.3819
 1237SOL    HW215174   1.907   0.893  11.447  1.0521 -0.7466  0.3869
 1238SOL     OW15175   1.977   1.770   9.108 -0.0819 -0.1688  0.6898
 1238SOL    HW115176   1.949   1.817   9.187  0.8650  1.5150  0.0284
 1238SOL    HW215177   1.981   1.681   9.144  0.9676 -0.2836  0.3085
 1239SOL     OW15178   3.320   0.045   5.915  0.3406 -0.2957 -0.0947
 1239SOL    HW115179   3.384   4.699   5.920 -0.9159 -1.4061  0.4830
 1239SOL    HW215180   3.239   4.719   5.925 -1.3974  2.9478  2.0656
 1240SOL     OW15181   1.271   3.955   8.918 -0.6926 -0.2247  0.2959
 1240SOL    HW115182   1.287   3.875   8.969  1.7889 -0.7933 -1.3840
 1240SOL    HW215183   1.240   3.919   8.835 -0.0303  0.1950 -0.1325
 1241SOL     OW15184   1.800   0.816  12.329  0.0192  0.2126 -0.0115
 1241SOL    HW115185   1.803   0.721  12.341  1.1132  0.1387 -0.8991
 1241SOL    HW215186   1.720   0.845  12.285 -0.9296  1.4203  2.5341
 1242SOL     OW15187   0.201   2.972   7.878  0.0163 -0.6372 -0.5844
 1242SOL    HW115188   0.147   3.042   7.916  1.3169  0.9025 -1.5975
 1242SOL    HW215189   0.287   3.003   7.903 -0.3137 -0.1241 -0.0805
 1243SOL     OW15190   4.238   1.831   4.866 -0.2054  0.0484 -0.1322
 1243SOL    HW115191   4.224   1.910   4.813  0.5873 -0.3013 -0.8800
 1243SOL    HW215192   4.241   1.866   4.955 -0.1400  0.2275 -0.2049
 1244SOL     OW15193   1.694   1.345   2.460  0.3399 -0.7712  0.4683
 1244SOL    HW115194   1.604   1.363   2.484  0.4514 -1.6029  1.4674
 1244SOL    HW215195   1.735   1.422   2.500 -0.7811 -0.6690  1.4077
 1245SOL     OW15196   2.798   2.704   8.734 -0.0923 -0.1844  0.0098
 1245SOL    HW115197   2.778   2.663   8.649 -4.0146  0.6353  0.5410
 1245SOL    HW215198   2.714   2.745   8.754  0.5744 -0.9108  4.3660
 1246SOL     OW15199   1.606   1.584   8.072  0.3789  0.0217  0.3928
 1246SOL    HW115200   1.600   1.506   8.126  1.6834 -0.4722 -0.1752
 1246SOL    HW215201   1.699   1.605   8.066  0.1687  0.3618 -1.9138
 1247SOL     OW15202   2.016   0.935   3.691 -0.1939 -0.0513  0.1542
 1247SOL    HW115203   2.021   1.020   3.648  1.3921  1.3688  3.1367
 1247SOL    HW215204   1.923   0.937   3.713 -0.2601  2.6811 -0.4032
 1248SOL     OW15205   1.984   3.123  15.431 -0.6174  0.3680 -0.9074
 1248SOL    HW115206   2.022   3.079  15.355 -0.7658 -0.8141 -0.3004
 1248SOL    HW215207   2.025   3.209  15.429 -1.3643  0.7602  0.3243
 1249SOL     OW15208   2.958   0.283  15.711  0.3423  0.6339 -0.0061
 1249SOL    HW115209   3.038   0.252  15.668  0.3433 -0.3667  0.7226
 1249SOL    HW215210   2.948   0.363  15.658 -2.1367  1.3619  1.5466
 1250SOL     OW15211   4.012   0.469   7.613  0.1681  0.0677  0.3340
 1250SOL    HW115212   4.100   0.504   7.612  0.3787 -0.4563  0.4687
 1250SOL    HW215213   3.997   0.443   7.522 -1.0109 -1.7768  1.0520
 1251SOL     OW15214   4.675   1.862   8.862  0.1868  0.1215  0.2334
 1251SOL    HW115215   0.035   1.857   8.817 -1.0753 -1.5357 -1.9177
 1251SOL    HW215216   4.697   1.912   8.941 -0.5084 -0.0974  0.5704
 1252SOL     OW15217   3.446   3.141   9.483  0.0360  0.2701  0.2216
 1252SOL    HW115218   3.372   3.166   9.538  0.9103  0.1210  1.4854
 1252SOL    HW215219   3.499   3.219   9.467  0.4823 -0.3760 -1.4145
 1253SOL     OW15220   4.215   1.012   8.218 -0.1918  0.1845 -0.1088
 1253SOL    HW115221   4.209   0.985   8.126 -0.0438  1.6407 -0.5562
 1253SOL    HW215222   4.304   0.982   8.236 -0.7461 -1.4074 -0.0123
 1254SOL     OW15223   2.123   2.836   5.560 -0.1391 -0.1860  0.5418
 1254SOL    HW115224   2.043   2.785   5.575 -0.5570 -0.3449 -2.3870
 1254SOL    HW215225   2.102   2.871   5.474 -1.1526 -0.0115  0.8653
 1255SOL     OW15226   0.449   1.056   3.223  0.0559  0.0389  0.6142
 1255SOL    HW115227   0.540   1.029   3.207 -0.1040 -0.1805  0.0902
 1255SOL    HW215228   0.426   1.101   3.142  3.7834  0.8746  0.0172
 1256SOL     OW15229   0.602   0.403  12.909 -0.0137 -0.0152 -0.4985
 1256SOL    HW115230   0.662   0.367  12.975 -2.8630 -2.7606  0.6085
 1256SOL    HW215231   0.591   0.497  12.924  0.3256 -0.0817  0.1720
 1257SOL     OW15232   4.466   3.416   7.078 -0.4474 -0.0893 -0.4594
 1257SOL    HW115233   4.470   3.391   7.170  0.1211 -0.0573 -0.4808
 1257SOL    HW215234   4.426   3.332   7.056  0.3908 -0.3164 -1.0934
 1258SOL     OW15235   0.404   2.225   4.380 -0.1140 -0.1810 -0.0051
 1258SOL    HW115236   0.408   2.141   4.335 -0.2038  0.0746 -0.4863
 1258SOL    HW215237   0.446   2.196   4.461 -1.8186 -0.2472  0.8478
 1259SOL     OW15238   3.534   2.701  10.740  0.1018 -0.0061 -0.0769
 1259SOL    HW115239   3.582   2.690  10.657 -0.1513  0.6013 -0.3033
 1259SOL    HW215240   3.503   2.614  10.764  2.2581 -0.1686  2.1473
 1260SOL     OW15241   1.923   2.286   4.120 -0.8334 -0.0573 -0.2972
 1260SOL    HW115242   1.975   2.263   4.044  1.6035  2.6866  0.5254
 1260SOL    HW215243   1.904   2.199   4.155 -0.1816 -0.4142 -0.8299
 1261SOL     OW15244   0.109   3.722   2.207 -0.5371  0.0991  0.1836
 1261SOL    HW115245   0.133   3.730   2.114  0.4045  1.5473  0.5515
 1261SOL    HW215246   0.055   3.799   2.219  0.8387  1.1600 -0.3467
 1262SOL     OW15247   2.330   3.701   9.144  0.2482  0.8635  0.2141
 1262SOL    HW115248   2.369   3.725   9.061 -1.4943  1.3412 -0.4656
 1262SOL    HW215249   2.369   3.613   9.146  0.1399  0.8022 -0.5533
 1263SOL     OW15250   3.483   2.165   6.876 -0.1909 -0.2880 -0.1116
 1263SOL    HW115251   3.446   2.245   6.912 -2.3240 -1.2197 -0.2085
 1263SOL    HW215252   3.408   2.127   6.829 -0.4793  0.6127 -0.3787
 1264SOL     OW15253   0.466   3.849   3.903  0.7664  0.0691 -0.0236
 1264SOL    HW115254   0.502   3.930   3.940  1.7465 -1.3647  2.1534
 1264SOL    HW215255   0.451   3.872   3.811 -3.3697 -1.7328  0.1996
 1265SOL     OW15256   4.365   1.378   2.277 -0.0292  0.3378 -0.9232
 1265SOL    HW115257   4.297   1.392   2.211 -0.7393 -0.5663 -0.3759
 1265SOL    HW215258   4.420   1.452   2.250 -1.5217  1.1578 -1.6681
 1266SOL     OW15259   2.532   2.489   3.448 -0.3324 -0.2588  0.2120
 1266SOL    HW115260   2.565   2.552   3.385 -0.4623 -1.8333 -1.4458
 1266SOL    HW215261   2.587   2.413   3.426 -2.1664 -1.3853 -0.4805
 1267SOL     OW15262   1.864   1.989  15.915  0.2231 -0.4720 -0.0846
 1267SOL    HW115263   1.778   2.027  15.930  0.7788  0.5328  0.5958
 1267SOL    HW215264   1.857   2.000  15.820  1.2229  0.8565 -0.0142
 1268SOL     OW15265   0.029   4.216  15.198 -0.1751 -0.2797  1.0669
 1268SOL    HW115266   0.020   4.133  15.152 -1.8883  1.6142 -2.0254
 1268SOL    HW215267   0.029   4.269  15.118 -0.6082 -2.0777 -0.1126
 1269SOL     OW15268   0.415   0.312  10.220 -0.4249 -0.4182 -0.1677
 1269SOL    HW115269   0.391   0.380  10.283 -2.6503 -0.4090 -1.0191
 1269SOL    HW215270   0.342   0.321  10.159 -0.8678  0.5099  0.4975
 1270SOL     OW15271   0.371   3.601   9.978  0.4066 -0.5613  0.0564
 1270SOL    HW115272   0.370   3.678  10.036  1.6483  0.1025 -0.8032
 1270SOL    HW215273   0.401   3.641   9.897 -0.8063 -1.0650 -0.6365
 1271SOL     OW15274   3.652   0.959   5.371 -0.3757 -0.1050 -0.1852
 1271SOL    HW115275   3.584   0.914   5.421 -1.2906  2.3239  0.8037
 1271SOL    HW215276   3.609   0.958   5.286 -1.3099  0.4256  0.2716
 1272SOL     OW15277   1.915   0.612  16.025 -0.4997  0.0313  0.0508
 1272SOL    HW115278   1.830   0.644  15.995 -2.2774 -2.5516  2.3290
 1272SOL    HW215279   1.973   0.606  15.949  2.9338 -1.7201  2.8316
 1273SOL     OW15280   3.741   0.348   7.637 -0.4347 -0.8517  0.1087
 1273SOL    HW115281   3.819   0.379   7.591  0.3743 -1.3558  1.1454
 1273SOL    HW215282   3.752   0.399   7.717  2.5993 -1.6145  0.1858
 1274SOL     OW15283   2.753   4.631  16.128 -0.0133  0.0307 -0.4720
 1274SOL    HW115284   2.724   4.665  16.044  1.0213  2.4743  0.1725
 1274SOL    HW215285   2.811   4.707  16.139  1.8616 -1.4229 -0.1868
 1275SOL     OW15286   3.730   0.527   8.640  0.2233  0.4076 -0.6741
 1275SOL    HW115287   3.741   0.433   8.626  2.2030  0.5134  0.2015
 1275SOL    HW215288   3.689   0.532   8.727 -0.1920  0.2994 -0.8604
 1276SOL     OW15289   1.774   2.817   7.043 -0.5122 -0.2833  0.5640
 1276SOL    HW115290   1.742   2.761   7.115  0.3536 -0.8348  0.5181
 1276SOL    HW215291   1.770   2.758   6.968 -2.7870 -1.1786  1.3644
 1277SOL     OW15292   1.387   1.190  14.322  0.4376 -0.7548  0.1659
 1277SOL    HW115293   1.362   1.275  14.356 -0.0563 -1.1417  0.7559
 1277SOL    HW215294   1.482   1.195  14.314  0.2144  1.5980 -0.9345
 1278SOL     OW15295   1.392   1.121   6.310 -0.0442 -0.5102  0.4500
 1278SOL    HW115296   1.304   1.152   6.289  1.0504  0.2570 -3.1249
 1278SOL    HW215297   1.439   1.134   6.227  0.1365 -0.1701  0.6030
 1279SOL     OW15298   2.357   4.589   8.941  0.3274 -0.3885 -0.4885
 1279SOL    HW115299   2.361   4.682   8.962  0.0488  0.2985 -3.5391
 1279SOL    HW215300   2.262   4.577   8.937  0.1019  0.9059  1.0765
 1280SOL     OW15301   4.074   1.342   1.177  0.2110  0.4812 -0.0858
 1280SOL    HW115302   4.115   1.351   1.091  3.4177  0.2105  1.4159
 1280SOL    HW215303   4.140   1.282   1.210 -1.5734 -2.4787 -1.9545
 1281SOL     OW15304   4.633   2.390   6.080  0.1210 -0.2677 -0.0387
 1281SOL    HW115305   4.556   2.431   6.118 -1.2874 -1.4678 -1.6078
 1281SOL    HW215306   4.592   2.375   5.995 -1.4802  2.1553  0.3017
 1282SOL     OW15307   4.366   2.738   0.091 -0.0446 -0.4868 -0.3774
 1282SOL    HW115308   4.312   2.671   0.049 -0.1359 -0.3955 -0.4074
 1282SOL    HW215309   4.342   2.722   0.182  0.9039  1.7886  0.2548
 1283SOL     OW15310   0.741   1.431   6.340 -0.1821 -0.0556  0.5592
 1283SOL    HW115311   0.778   1.486   6.271  0.2399 -1.2199 -0.1336
 1283SOL    HW215312   0.654   1.468   6.358 -0.4269 -1.1990  1.7515
 1284SOL     OW15313   1.477   1.907  16.786  0.4831  0.1248  0.1438
 1284SOL    HW115314   1.517   1.891  16.700  0.3915 -0.8079  0.2804
 1284SOL    HW215315   1.530   1.861  16.851 -1.7258 -0.7774  1.2772
 1285SOL     OW15316   3.769   3.994  10.498 -0.2070 -0.0299 -0.6139
 1285SOL    HW115317   3.817   4.031  10.572  1.0146 -0.2889 -1.2786
 1285SOL    HW215318   3.836   3.967  10.436 -1.3730 -2.3701 -0.8421
 1286SOL     OW15319   0.818   3.638   6.447  0.3557 -0.1612 -0.3612
 1286SOL    HW115320   0.740   3.667   6.400  1.8605  2.2040 -1.3635
 1286SOL    HW215321   0.879   3.700   6.409 -1.2658  1.0159 -1.0506
 1287SOL     OW15322   3.027   4.045   6.288 -0.6172  0.1930  0.5743
 1287SOL    HW115323   2.954   4.008   6.337 -0.6767 -2.5933 -1.6600
 1287SOL    HW215324   2.976   4.102   6.230  0.2838  0.0992 -0.3091
 1288SOL     OW15325   4.701   3.943   2.979  0.4476 -0.2564  0.1502
 1288SOL    HW115326   0.016   3.958   3.065  1.3989 -0.2648 -0.2809
 1288SOL    HW215327   4.618   3.986   2.999 -0.3140  0.3916 -4.5508
 1289SOL     OW15328   2.918   4.023   0.238  0.7245 -0.3389  0.0169
 1289SOL    HW115329   2.906   4.074   0.158 -1.4036 -1.5441 -0.4402
 1289SOL    HW215330   3.001   4.066   0.258  0.5882  0.3903 -0.9680
 1290SOL     OW15331   3.206   0.850   5.490  0.1051  0.3613  0.0577
 1290SOL    HW115332   3.129   0.799   5.516  0.2157  0.5949  0.8623
 1290SOL    HW215333   3.200   0.841   5.395 -0.6220 -1.0797  0.2403
 1291SOL     OW15334   0.733   4.326  15.953  0.3274  0.1073 -0.0166
 1291SOL    HW115335   0.647   4.357  15.922  0.2413  0.2075  0.3258
 1291SOL    HW215336   0.766   4.277  15.878 -1.6605 -0.9778 -0.1928
 1292SOL     OW15337   2.526   0.028  15.503 -0.3252 -0.4382  0.5977
 1292SOL    HW115338   2.556   0.116  15.480 -1.4112 -0.1110  0.4243
 1292SOL    HW215339   2.433   0.041  15.486 -0.6949 -1.6511  1.6826
 1293SOL     OW15340   0.022   1.453  10.961 -0.1876  0.0867 -0.6189
 1293SOL    HW115341   4.723   1.450  11.054  0.6273 -2.9757 -0.5018
 1293SOL    HW215342   0.077   1.530  10.945  1.3343 -1.1223 -1.2288
 1294SOL     OW15343   2.022   2.012   4.440  0.4721 -0.2510  0.6069
 1294SOL    HW115344   1.927   2.012   4.451  0.3337  1.7028 -0.6973
 1294SOL    HW215345   2.041   2.057   4.522 -2.3761  0.5216  0.8494
 1295SOL     OW15346   4.130   1.432  14.912  0.0801  0.0179 -0.1173
 1295SOL    HW115347   4.212   1.398  14.876 -0.1510  0.3298 -0.9498
 1295SOL    HW215348   4.131   1.386  14.996  1.7345 -1.4460 -0.9362
 1296SOL     OW15349   2.116   2.398   7.091 -0.1871  0.4841  0.2985
 1296SOL    HW115350   2.206   2.381   7.118 -0.1393 -0.2667 -0.3141
 1296SOL    HW215351   2.139   2.433   7.004  2.5054  1.2203  1.3113
 1297SOL     OW15352   2.456   0.798   9.098 -0.8612  0.0533  0.1500
 1297SOL    HW115353   2.459   0.843   9.182  1.0359  0.7691 -0.3208
 1297SOL    HW215354   2.529   0.736   9.104 -1.4088 -0.6370 -0.2917
 1298SOL     OW15355   3.209   2.954   2.369 -0.0484  0.1034  0.3080
 1298SOL    HW115356   3.298   2.926   2.392 -0.9334 -2.0025  1.1250
 1298SOL    HW215357   3.225   2.974   2.277 -1.7042  0.6442  0.1446
 1299SOL     OW15358   4.602   3.590   5.483  0.8963 -0.1103  0.2442
 1299SOL    HW115359   4.522   3.625   5.445  2.4912  3.6081  0.2330
 1299SOL    HW215360   4.639   3.578   5.396  2.8222  1.5288  0.8271
 1300SOL     OW15361   4.442   4.096   6.008 -0.1489 -0.1977 -0.0203
 1300SOL    HW115362   4.360   4.136   6.039 -1.7614 -2.6664 -1.0972
 1300SOL    HW215363   4.500   4.140   6.070 -2.1598  0.8089  1.1514
 1301SOL     OW15364   2.379   4.658   8.474  0.6307  0.0638  0.4528
 1301SOL    HW115365   2.421   4.715   8.539  0.4402 -0.7362  1.2778
 1301SOL    HW215366   2.290   4.649   8.507  0.2896  2.4708  0.1696
 1302SOL     OW15367   1.886   0.887   5.901  0.0157  0.6223 -0.1412
 1302SOL    HW115368   1.953   0.827   5.934 -0.3572 -0.2312 -0.9068
 1302SOL    HW215369   1.802   0.840   5.910  0.3121  0.0786 -0.1973
 1303SOL     OW15370   0.073   0.825   3.990  0.2704  0.2408 -0.1074
 1303SOL    HW115371   0.153   0.791   3.949  0.3101  0.6058 -0.3349
 1303SOL    HW215372   0.016   0.839   3.914 -1.1551  1.0449  1.1140
 1304SOL     OW15373   4.689   2.025  14.376  0.2840 -0.4693  0.5235
 1304SOL    HW115374   4.652   1.942  14.345  2.7458 -1.6636  0.7125
 1304SOL    HW215375   4.626   2.072  14.429 -0.1540 -0.5768  0.0921
 1305SOL     OW15376   3.829   3.974  13.210 -0.2428 -0.0505 -0.2233
 1305SOL    HW115377   3.779   4.054  13.223  0.2354  0.2002  0.0618
 1305SOL    HW215378   3.896   3.974  13.278 -0.6543 -0.7518  0.1799
 1306SOL     OW15379   1.907   2.400  15.471  0.3844  0.7197 -0.2371
 1306SOL    HW115380   1.817   2.427  15.490  1.1916  1.7517  2.1298
 1306SOL    HW215381   1.911   2.435  15.382 -2.8438 -1.9510 -1.3966
 1307SOL     OW15382   0.929   1.711   7.085  0.2883 -0.1598  0.2043
 1307SOL    HW115383   0.898   1.636   7.035  2.0323  0.8349 -2.3722
 1307SOL    HW215384   0.978   1.764   7.022 -2.0124  1.0516 -0.5762
 1308SOL     OW15385   0.325   1.974  14.629 -0.0853  0.2877 -0.0738
 1308SOL    HW115386   0.418   1.966  14.611 -0.1187 -0.5066  0.1229
 1308SOL    HW215387   0.309   2.026  14.549  1.9099  2.1869  0.7752
 1309SOL     OW15388   3.122   2.517   7.531 -0.7815  0.1216 -0.7207
 1309SOL    HW115389   3.172   2.547   7.454 -1.0010  2.4357  0.0393
 1309SOL    HW215390   3.144   2.581   7.598 -2.1148  0.9983 -1.1258
 1310SOL     OW15391   0.356   0.424   0.827 -0.5495  0.0900  0.5114
 1310SOL    HW115392   0.361   0.519   0.819 -0.5607 -0.1295 -2.1813
 1310SOL    HW215393   0.284   0.421   0.890 -0.7505 -0.8929  0.2334
 1311SOL     OW15394   3.472   0.616   4.375  0.5185 -0.4401  0.1443
 1311SOL    HW115395   3.515   0.656   4.299 -2.5612  1.6940 -0.4476
 1311SOL    HW215396   3.442   0.535   4.334 -0.8641  0.2375 -0.1437
 1312SOL     OW15397   1.449   1.789   8.169 -0.0202  0.5560  0.4844
 1312SOL    HW115398   1.502   1.726   8.120 -0.2640  0.3242  0.5242
 1312SOL    HW215399   1.427   1.725   8.236 -2.6578  1.4241  0.4428
 1313SOL     OW15400   3.918   2.509   5.153 -0.8997  0.2253  0.1342
 1313SOL    HW115401   3.900   2.418   5.180 -2.1590  0.3025 -0.4271
 1313SOL    HW215402   3.873   2.508   5.069  0.9933 -0.9117 -0.8503
 1314SOL     OW15403   2.190   2.393   5.942 -0.1829  0.4009 -0.3858
 1314SOL    HW115404   2.172   2.487   5.934 -0.7089  0.3679  0.4546
 1314SOL    HW215405   2.136   2.361   5.870 -0.2220 -1.9503  0.6990
 1315SOL     OW15406   4.432   0.946  15.704  1.1426 -0.7211  0.7032
 1315SOL    HW115407   4.348   0.925  15.662  0.2631  1.2574  1.4575
 1315SOL    HW215408   4.492   0.907  15.641  1.3277  0.6437  0.0323
 1316SOL     OW15409   2.169   3.237  13.092  0.3326  0.6286  0.2102
 1316SOL    HW115410   2.174   3.215  13.185 -1.7316  0.4469  0.2598
 1316SOL    HW215411   2.156   3.152  13.051 -2.3098 -0.2993  3.0030
 1317SOL     OW15412   0.305   3.215   3.595  0.6907  0.3092  0.1142
 1317SOL    HW115413   0.222   3.230   3.549  1.4624  2.0266 -0.7467
 1317SOL    HW215414   0.303   3.281   3.664  0.1776  0.0909  0.3017
 1318SOL     OW15415   1.843   0.327   4.357  0.3929 -0.8739 -0.1116
 1318SOL    HW115416   1.926   0.306   4.314  0.4763  3.1234 -1.8509
 1318SOL    HW215417   1.865   0.399   4.416 -0.7076 -0.9929  0.4351
 1319SOL     OW15418   0.486   2.050  16.692 -0.0614  0.7168 -0.0171
 1319SOL    HW115419   0.531   2.133  16.675  0.3416  0.8123  1.5706
 1319SOL    HW215420   0.398   2.065  16.658 -0.6638 -1.1013  0.7460
 1320SOL     OW15421   4.070   2.781  14.739  0.7260 -0.4973 -0.4116
 1320SOL    HW115422   4.011   2.816  14.672 -0.6875  1.1714  1.7364
 1320SOL    HW215423   4.089   2.862  14.785  0.1973 -0.1775 -0.7533
 1321SOL     OW15424   0.198   0.731   8.264  0.6098 -0.5139  0.4762
 1321SOL    HW115425   0.145   0.676   8.321 -0.5770  0.3730  0.2324
 1321SOL    HW215426   0.212   0.802   8.327 -0.7192  1.2967 -1.2720
 1322SOL     OW15427   1.687   1.014  11.674  0.7326 -0.3447  0.4595
 1322SOL    HW115428   1.750   0.964  11.622 -0.2105 -0.5517 -0.4818
 1322SOL    HW215429   1.652   1.083  11.618  1.4756 -1.8081 -1.8323
 1323SOL     OW15430   2.614   2.273   1.337 -0.1429 -0.2462  0.2090
 1323SOL    HW115431   2.630   2.363   1.310 -0.5988 -0.0466  0.6088
 1323SOL    HW215432   2.533   2.253   1.291 -0.6187 -2.7662  2.1107
 1324SOL     OW15433   2.132   0.869   6.197 -0.5183 -0.3419  0.0600
 1324SOL    HW115434   2.194   0.895   6.129 -0.1812 -0.5086  0.3039
 1324SOL    HW215435   2.176   0.901   6.276 -2.1264  2.1145 -0.0235
 1325SOL     OW15436   0.017   3.272   2.014 -0.2210 -0.3293  0.0558
 1325SOL    HW115437   4.656   3.226   2.016 -0.5060  0.3619  3.0765
 1325SOL    HW215438   0.059   3.221   1.945 -1.7354  0.7156 -1.6491
 1326SOL     OW15439   0.225   2.704   4.484  0.0786  0.4915  0.2608
 1326SOL    HW115440   0.178   2.645   4.426  0.2614 -1.0529  1.6997
 1326SOL    HW215441   0.304   2.708   4.431 -0.1693  1.9146 -0.0081
 1327SOL     OW15442   3.711   3.876   7.354  0.3892 -0.0463 -0.0957
 1327SOL    HW115443   3.621   3.883   7.384  0.7016 -0.8281  1.0706
 1327SOL    HW215444   3.698   3.921   7.271  1.2809  0.1476 -0.1353
 1328SOL     OW15445   4.328   3.838  17.684 -0.3525 -0.1006 -0.0844
 1328SOL    HW115446   4.237   3.836   0.017  0.1830  1.2408  1.6033
 1328SOL    HW215447   4.373   3.805   0.064  0.4059  0.7432 -0.1660
 1329SOL     OW15448   0.914   0.817   8.465  0.1508 -0.2789 -0.8297
 1329SOL    HW115449   0.824   0.849   8.476 -0.0117 -0.8184 -0.6217
 1329SOL    HW215450   0.915   0.736   8.516 -1.2530  0.3296  0.1661
 1330SOL     OW15451   1.323   0.700   7.986 -0.1429 -0.3214 -0.4798
 1330SOL    HW115452   1.301   0.701   8.079 -0.9306 -2.5554 -0.6321
 1330SOL    HW215453   1.371   0.782   7.973  0.9248 -1.0166 -0.8895
 1331SOL     OW15454   1.363   3.153   5.480  0.1175 -0.8493  0.1687
 1331SOL    HW115455   1.340   3.105   5.560  1.6430 -1.1339  0.4327
 1331SOL    HW215456   1.356   3.081   5.419  2.5841 -1.6904  0.8769
 1332SOL     OW15457   4.044   2.127   1.905 -0.6237 -0.0288  0.4796
 1332SOL    HW115458   4.031   2.123   1.810 -0.1813  1.1021  0.3742
 1332SOL    HW215459   3.970   2.182   1.931  0.6320  0.0233  3.9937
 1333SOL     OW15460   3.878   1.299   8.421 -0.0242  0.3585 -0.0943
 1333SOL    HW115461   3.921   1.215   8.437 -1.5304 -0.6649 -1.3354
 1333SOL    HW215462   3.786   1.273   8.421  0.3646 -1.0586 -1.5111
 1334SOL     OW15463   1.731   3.111   2.387  0.2027 -0.2328  0.5545
 1334SOL    HW115464   1.691   3.034   2.345  0.1947 -0.8450  1.6807
 1334SOL    HW215465   1.683   3.183   2.346  0.4109  0.3033  1.2446
 1335SOL     OW15466   3.631   1.854   4.582  0.8357  0.9726 -0.4987
 1335SOL    HW115467   3.638   1.942   4.548 -0.8220 -0.2657 -4.0194
 1335SOL    HW215468   3.563   1.825   4.521  0.3843  1.0361 -0.0273
 1336SOL     OW15469   0.279   3.787   6.347 -0.4245  0.2068 -0.0236
 1336SOL    HW115470   0.191   3.754   6.332 -0.0447 -0.9800  0.3154
 1336SOL    HW215471   0.275   3.796   6.442  1.0300 -3.7020  0.4331
 1337SOL     OW15472   2.154   4.176   7.495 -0.4804 -0.0700 -0.0922
 1337SOL    HW115473   2.221   4.212   7.438 -0.8563  0.4022 -0.2314
 1337SOL    HW215474   2.180   4.084   7.498 -1.5364 -0.2721  3.5760
 1338SOL     OW15475   0.998   0.093  16.083 -0.4768  0.1958 -0.3292
 1338SOL    HW115476   0.939   0.046  16.141 -2.6878  1.8624 -1.2365
 1338SOL    HW215477   0.952   0.164  16.037 -0.9937  1.3403  1.9422
 1339SOL     OW15478   3.267   1.266  14.320  0.2207 -0.3836 -0.0946
 1339SOL    HW115479   3.324   1.317  14.263  0.1365 -0.6288 -0.3961
 1339SOL    HW215480   3.263   1.186  14.268  0.9056  0.6084 -1.6857
 1340SOL     OW15481   4.617   1.434   0.731 -1.0109 -1.1341  0.0851
 1340SOL    HW115482   4.706   1.456   0.704 -1.1958 -0.4051  0.0824
 1340SOL    HW215483   4.628   1.409   0.823 -0.4501 -1.7989 -0.1589
 1341SOL     OW15484   3.182   1.468   7.082 -0.3833 -0.7491  0.3470
 1341SOL    HW115485   3.154   1.552   7.044  2.5922 -0.6343 -1.5044
 1341SOL    HW215486   3.156   1.493   7.171  0.5619  0.4008  0.3023
 1342SOL     OW15487   1.058   2.626  16.634  0.0773 -0.7771  0.0358
 1342SOL    HW115488   1.140   2.579  16.618  0.4196 -0.6605  1.5308
 1342SOL    HW215489   1.025   2.663  16.551 -0.3098 -0.5637  0.2859
 1343SOL     OW15490   1.327   2.939   7.883  0.6133 -0.5379 -0.1597
 1343SOL    HW115491   1.265   2.937   7.955  0.9513  0.8722  0.1652
 1343SOL    HW215492   1.312   3.027   7.851  1.2375 -0.0270  0.9489
 1344SOL     OW15493   2.134   1.264   9.433  1.4993 -0.5654 -0.0418
 1344SOL    HW115494   2.178   1.182   9.413 -1.7261 -2.3441  0.2220
 1344SOL    HW215495   2.177   1.298   9.511  0.6004 -1.7865  0.9906
 1345SOL     OW15496   3.818   1.334   7.930 -0.2447 -0.6066 -0.3474
 1345SOL    HW115497   3.862   1.419   7.935 -0.2103 -0.6637  0.2891
 1345SOL    HW215498   3.892   1.279   7.904  0.7178 -0.5746  2.3220
 1346SOL     OW15499   1.975   2.819   1.607  0.6307 -0.3918  0.2509
 1346SOL    HW115500   1.938   2.788   1.525 -0.0596  3.2328 -0.8237
 1346SOL    HW215501   2.062   2.855   1.589  1.1139 -1.1926  1.0138
 1347SOL     OW15502   4.597   3.970   0.991  0.4907 -0.0846 -0.8722
 1347SOL    HW115503   4.526   3.951   0.930  0.0105  0.2388 -0.4109
 1347SOL    HW215504   4.632   4.053   0.959 -0.5957 -0.5098 -3.1744
 1348SOL     OW15505   4.312   1.891   8.096 -0.1919 -0.2257 -0.1011
 1348SOL    HW115506   4.391   1.838   8.105  0.0615  0.0399 -0.7641
 1348SOL    HW215507   4.270   1.872   8.179  2.2058 -0.9558  0.9264
 1349SOL     OW15508   2.948   2.301   2.532  0.1236 -0.4206 -0.0192
 1349SOL    HW115509   2.950   2.282   2.438  1.1100 -1.6528  0.2540
 1349SOL    HW215510   3.017   2.366   2.542  1.2726 -1.7563  0.6914
 1350SOL     OW15511   3.903   0.458   3.869 -0.0851  0.0465 -0.0117
 1350SOL    HW115512   3.841   0.385   3.876 -1.0027  1.0759  2.6673
 1350SOL    HW215513   3.864   0.509   3.799  0.8337 -0.8560 -1.1845
 1351SOL     OW15514   3.493   2.558   3.081 -0.1403  0.2083 -0.1249
 1351SOL    HW115515   3.572   2.603   3.050  0.1300  0.5676  1.0639
 1351SOL    HW215516   3.514   2.465   3.077 -0.5127  0.1378 -0.4288
 1352SOL     OW15517   2.991   1.002  12.980 -0.6567 -0.6766 -0.1549
 1352SOL    HW115518   3.022   0.950  13.054 -0.4396 -1.8692 -1.0841
 1352SOL    HW215519   3.065   0.991  12.920 -0.7383  3.4038 -1.0636
 1353SOL     OW15520   2.320   0.461   5.708  0.4670 -0.4825 -0.5630
 1353SOL    HW115521   2.308   0.498   5.621 -0.9376 -0.0819 -0.1999
 1353SOL    HW215522   2.289   0.371   5.695  1.5974 -1.0356  0.5795
 1354SOL     OW15523   2.389   3.484  13.255 -0.8595 -0.2547  0.5457
 1354SOL    HW115524   2.480   3.470  13.281 -0.1379 -0.7469 -2.2792
 1354SOL    HW215525   2.386   3.509  13.163  0.8265 -0.6285  0.3911
 1355SOL     OW15526   1.761   4.253  10.069 -0.6494  0.3011  0.2075
 1355SOL    HW115527   1.691   4.199  10.107  0.5514 -1.6740 -0.4100
 1355SOL    HW215528   1.746   4.233   9.977 -1.1231  0.7400  0.1892
 1356SOL     OW15529   3.530   3.867   9.055  0.4785 -0.5751  0.2887
 1356SOL    HW115530   3.449   3.857   9.004 -0.0239  0.8726  0.8075
 1356SOL    HW215531   3.525   3.795   9.119 -1.0725 -0.9551 -0.2658
 1357SOL     OW15532   1.515   3.918  13.024 -0.7248 -0.0637  0.4284
 1357SOL    HW115533   1.582   3.939  12.959 -0.5606 -0.9183  0.3204
 1357SOL    HW215534   1.549   3.945  13.110 -1.7439 -1.7434  1.3623
 1358SOL     OW15535   0.471   2.026  13.404 -0.4011 -0.2806  0.1676
 1358SOL    HW115536   0.554   1.989  13.372 -0.7652 -2.0468  1.2415
 1358SOL    HW215537   0.408   2.018  13.332 -0.5709 -1.5157  0.4510
 1359SOL     OW15538   3.568   2.338  15.850 -0.4316 -0.2422  0.6812
 1359SOL    HW115539   3.577   2.432  15.869 -1.3018  0.1320 -0.7656
 1359SOL    HW215540   3.505   2.313  15.918 -2.1835  1.7129 -0.1802
 1360SOL     OW15541   3.017   0.339   8.348 -0.0982 -0.4764 -0.2769
 1360SOL    HW115542   3.047   0.294   8.427 -0.6479 -0.9523 -0.3451
 1360SOL    HW215543   3.028   0.279   8.274  0.8446 -0.4394 -0.1693
 1361SOL     OW15544   3.785   3.943   1.152  0.0047 -0.3770 -0.2401
 1361SOL    HW115545   3.793   3.865   1.207  0.7096  0.3044  0.6076
 1361SOL    HW215546   3.778   4.012   1.217 -0.1397 -0.5672 -0.0534
 1362SOL     OW15547   0.837   2.829   5.510 -0.1974  0.0092  0.1728
 1362SOL    HW115548   0.923   2.822   5.469 -0.0725  1.3275  0.2339
 1362SOL    HW215549   0.854   2.886   5.585 -1.1721  0.0786  0.3507
 1363SOL     OW15550   0.386   4.413   7.869  0.0071 -0.1380  0.5655
 1363SOL    HW115551   0.355   4.502   7.886  0.4461  0.0785  0.2325
 1363SOL    HW215552   0.307   4.359   7.866  0.6306 -0.8895 -2.3783
 1364SOL     OW15553   4.178   3.863   4.916  0.4693  0.8202 -0.2886
 1364SOL    HW115554   4.237   3.797   4.882  0.1097  0.1381  0.4244
 1364SOL    HW215555   4.104   3.864   4.854  1.6921 -1.6761 -1.7695
 1365SOL     OW15556   0.298   1.066   5.537 -0.0840 -0.3373  0.0269
 1365SOL    HW115557   0.325   1.024   5.456  0.5408 -1.6903  0.9259
 1365SOL    HW215558   0.380   1.100   5.572 -0.4835  0.2979  0.3427
 1366SOL     OW15559   1.963   1.689  14.789  0.0883 -0.3688 -0.0366
 1366SOL    HW115560   1.995   1.753  14.726 -0.7285 -1.3851 -1.4848
 1366SOL    HW215561   2.037   1.688  14.850 -0.2208 -1.3679  0.3242
 1367SOL     OW15562   2.342   0.221   3.116 -0.5012 -0.1013  0.0118
 1367SOL    HW115563   2.285   0.188   3.186 -1.0519  0.5188 -0.1357
 1367SOL    HW215564   2.288   0.213   3.038  0.3118 -1.2809 -0.4197
 1368SOL     OW15565   3.791   1.567   6.279  0.1958  0.1368 -0.6340
 1368SOL    HW115566   3.812   1.638   6.339  1.4999 -1.3407  0.6594
 1368SOL    HW215567   3.841   1.490   6.309  0.3761 -0.2057 -1.8203
 1369SOL     OW15568   3.112   3.370   7.242  0.5115  0.2513  0.6404
 1369SOL    HW115569   3.116   3.400   7.332 -0.7687 -0.1890  0.8469
 1369SOL    HW215570   3.206   3.356   7.229  0.3935  1.1053 -1.1309
 1370SOL     OW15571   3.657   2.208  14.235 -0.4021  0.5410  0.1610
 1370SOL    HW115572   3.607   2.137  14.275 -1.3577  0.4805 -1.1164
 1370SOL    HW215573   3.637   2.279  14.296 -0.7746  0.8805 -0.3481
 1371SOL     OW15574   2.744   1.879   5.944 -0.0084  0.6388  0.0036
 1371SOL    HW115575   2.808   1.941   5.911  1.6981 -0.4139  1.3560
 1371SOL    HW215576   2.666   1.932   5.960 -0.0048  0.2209  1.3733
 1372SOL     OW15577   2.072   0.228  15.522  0.0251 -0.6650  0.0137
 1372SOL    HW115578   2.038   0.301  15.471  1.6283  0.7731  1.0437
 1372SOL    HW215579   2.110   0.273  15.597 -1.4213 -1.8898  1.4973
 1373SOL     OW15580   0.389   0.526   0.236  0.4263  0.8225  0.6550
 1373SOL    HW115581   0.476   0.497   0.264  0.3103 -0.1536  0.0244
 1373SOL    HW215582   0.416   0.601   0.183 -2.0547  2.1794  1.3336
 1374SOL     OW15583   2.090   3.348  15.425  0.0128  0.0551  0.2926
 1374SOL    HW115584   2.068   3.439  15.445  1.3376  0.7968 -1.5853
 1374SOL    HW215585   2.079   3.352  15.330 -1.3859  0.9478  0.4923
 1375SOL     OW15586   3.515   0.029   6.341  0.6438 -0.0519  0.5920
 1375SOL    HW115587   3.604   0.062   6.352  0.8850 -0.1933 -1.0412
 1375SOL    HW215588   3.472   0.113   6.327  1.7637  0.5166  0.6095
 1376SOL     OW15589   2.693   2.863  10.899 -0.4623 -0.5791  0.3569
 1376SOL    HW115590   2.772   2.830  10.941 -1.1159  0.8506  2.7155
 1376SOL    HW215591   2.631   2.806  10.945  0.9228 -1.7435  0.7872
 1377SOL     OW15592   3.322   0.276  12.062 -0.7258 -0.1645  0.2196
 1377SOL    HW115593   3.385   0.347  12.073 -1.1674  0.4165 -1.0322
 1377SOL    HW215594   3.351   0.239  11.979  0.5865  1.2902  0.0267
 1378SOL     OW15595   0.724   4.407  10.290  0.0640 -0.2828  0.0820
 1378SOL    HW115596   0.771   4.419  10.373 -3.1084  1.0598  1.6970
 1378SOL    HW215597   0.803   4.398  10.237 -0.5765  2.3940 -1.3290
 1379SOL     OW15598   1.270   0.621   8.502 -0.2320  0.5385 -0.2680
 1379SOL    HW115599   1.321   0.701   8.518 -0.5289  0.9990 -1.6069
 1379SOL    HW215600   1.225   0.616   8.587  0.5151 -0.9900  0.0242
 1380SOL     OW15601   1.888   4.320   7.353  0.1048  0.1283  0.2800
 1380SOL    HW115602   1.963   4.262   7.340  1.1277  1.5983 -0.3376
 1380SOL    HW215603   1.891   4.341   7.446  0.8081 -0.6959  0.4414
 1381SOL     OW15604   0.665   0.913  10.285 -0.1849 -0.2305 -0.2079
 1381SOL    HW115605   0.584   0.956  10.314  0.1609  1.1250 -1.2380
 1381SOL    HW215606   0.635   0.827  10.258 -0.2173 -0.6529  1.1857
 1382SOL     OW15607   3.749   2.039   7.932  0.0828 -0.3467 -0.3567
 1382SOL    HW115608   3.811   2.109   7.911 -1.5124  1.0792 -0.2883
 1382SOL    HW215609   3.710   2.084   8.007  0.9413 -1.1530  0.5663
 1383SOL     OW15610   3.048   3.649   7.744  0.3864 -0.2548  1.0812
 1383SOL    HW115611   3.071   3.621   7.655 -1.5445  1.2367  0.1062
 1383SOL    HW215612   3.126   3.692   7.778  0.0558  1.6660 -0.6008
 1384SOL     OW15613   3.342   0.975   7.982  0.2002 -0.3335  0.1836
 1384SOL    HW115614   3.386   1.018   8.054 -2.3110  0.7348  1.0912
 1384SOL    HW215615   3.334   0.886   8.018 -0.8897  0.6056  2.2480
 1385SOL     OW15616   2.499   3.036   7.000  0.1243 -0.6230 -0.0085
 1385SOL    HW115617   2.571   3.068   6.945  0.2148 -1.4469 -0.3697
 1385SOL    HW215618   2.511   2.942   7.015 -1.8659 -0.9426 -0.4589
 1386SOL     OW15619   2.129   3.131   7.120 -0.4371 -0.0254 -0.4218
 1386SOL    HW115620   2.104   3.039   7.107 -0.6546 -0.0695  0.3178
 1386SOL    HW215621   2.042   3.171   7.119 -1.2308 -1.7009  1.3249
 1387SOL     OW15622   2.455   3.775   1.310  0.6863  0.3756  0.2667
 1387SOL    HW115623   2.417   3.688   1.311  1.9288 -0.1588  1.9693
 1387SOL    HW215624   2.442   3.808   1.399  0.7695 -0.5943  0.6327
 1388SOL     OW15625   3.748   2.128  17.172 -0.6233 -0.1358  0.0405
 1388SOL    HW115626   3.794   2.076  17.106  0.9003  1.8911 -0.4661
 1388SOL    HW215627   3.680   2.063  17.192 -2.0106  1.2913 -0.0070
 1389SOL     OW15628   0.266   4.673   0.333 -0.6257  0.8244 -0.2903
 1389SOL    HW115629   0.294   4.591   0.375 -2.5629  1.2331  1.7969
 1389SOL    HW215630   0.295   4.669   0.242  1.6970  1.7436  0.3991
 1390SOL     OW15631   4.336   0.291  12.484  0.1742  0.3623  0.6476
 1390SOL    HW115632   4.419   0.268  12.528 -0.4665  0.9708  2.1885
 1390SOL    HW215633   4.360   0.368  12.432  0.6266 -1.0302 -1.1948
 1391SOL     OW15634   1.456   0.024  16.190 -0.0712 -0.1307 -0.4578
 1391SOL    HW115635   1.486   0.098  16.136  1.8324 -0.9070 -0.4568
 1391SOL    HW215636   1.378   0.003  16.139 -1.1202  0.9189  0.7099
 1392SOL     OW15637   2.468   1.736   5.306  0.1927  0.0353  0.6713
 1392SOL    HW115638   2.392   1.677   5.311 -0.5647  0.8639 -1.0803
 1392SOL    HW215639   2.533   1.697   5.365  0.1774 -2.2951 -0.8220
 1393SOL     OW15640   0.968   3.310   4.217 -0.5052  0.0842  0.1016
 1393SOL    HW115641   0.920   3.329   4.137 -1.4169  0.5362  0.7581
 1393SOL    HW215642   1.012   3.393   4.236  1.4220 -0.9518  0.1610
 1394SOL     OW15643   0.917   2.403   7.120 -0.3006 -0.2299  0.4613
 1394SOL    HW115644   0.999   2.386   7.166  0.7323 -1.4697 -1.8182
 1394SOL    HW215645   0.896   2.486   7.162  0.3491  0.8290 -1.2688
 1395SOL     OW15646   3.892   2.019   3.900 -0.2297 -0.3606 -0.3628
 1395SOL    HW115647   3.929   2.091   3.849  0.9829 -0.7418 -0.0254
 1395SOL    HW215648   3.888   1.953   3.830  0.8726 -1.2329  0.4031
 1396SOL     OW15649   3.363   3.622  14.635 -0.2840  0.5884  0.4503
 1396SOL    HW115650   3.436   3.567  14.665  0.9790  3.0624  1.9569
 1396SOL    HW215651   3.392   3.702  14.679  1.8197 -1.1377  2.2137
 1397SOL     OW15652   4.643   2.692   5.591  0.2699 -0.4643  0.6258
 1397SOL    HW115653   4.722   2.671   5.642  0.7030  2.0130  1.0233
 1397SOL    HW215654   4.599   2.755   5.648 -0.2289 -0.2076 -0.0475
 1398SOL     OW15655   1.378   3.219   7.109 -0.7743 -0.2573  0.1970
 1398SOL    HW115656   1.301   3.275   7.107 -2.3057 -2.3326  1.1009
 1398SOL    HW215657   1.351   3.155   7.175 -0.9413 -0.5122 -0.1200
 1399SOL     OW15658   2.002   3.676  13.551  0.2513 -0.0882  0.0757
 1399SOL    HW115659   2.062   3.608  13.520 -0.1741 -0.9789  1.1939
 1399SOL    HW215660   1.928   3.633  13.595  0.1992  0.0363  0.1087
 1400SOL     OW15661   0.896   1.454   8.667 -0.3879 -0.1958  0.4401
 1400SOL    HW115662   0.803   1.431   8.664 -1.0319  2.3648  0.6435
 1400SOL    HW215663   0.894   1.528   8.728 -0.2722  0.1728 -0.0033
 1401SOL     OW15664   4.426   2.047   2.552 -0.2368  0.5140  0.4545
 1401SOL    HW115665   4.466   1.964   2.580  0.6553  1.2371  1.3273
 1401SOL    HW215666   4.377   2.032   2.472 -1.6703 -1.2902  1.6734
 1402SOL     OW15667   1.207   2.339   4.229  0.1204 -0.2494  0.2004
 1402SOL    HW115668   1.183   2.398   4.300 -1.0777 -0.5570  0.0435
 1402SOL    HW215669   1.230   2.256   4.271  0.7770 -0.0011  0.3342
 1403SOL     OW15670   1.993   2.140   5.300 -0.2536  0.7121  0.4566
 1403SOL    HW115671   1.974   2.088   5.379 -1.7923  0.3142 -0.1599
 1403SOL    HW215672   2.018   2.073   5.237  1.5433  1.3653  0.4746
 1404SOL     OW15673   0.208   2.944   7.194  0.0789  0.0092  0.4719
 1404SOL    HW115674   0.262   3.006   7.146 -0.4784  0.6164  0.6123
 1404SOL    HW215675   0.254   2.864   7.171 -0.5605 -0.3341  0.3853
 1405SOL     OW15676   3.012   2.888   4.163  0.4078  0.0807  0.3045
 1405SOL    HW115677   2.935   2.912   4.215  0.4166  0.7504  0.0103
 1405SOL    HW215678   3.001   2.952   4.092  1.1666 -1.7236 -1.4336
 1406SOL     OW15679   1.812   2.176   6.922 -0.1437 -0.7483  0.2473
 1406SOL    HW115680   1.903   2.154   6.901  0.0195 -1.4359  1.7231
 1406SOL    HW215681   1.810   2.161   7.016 -1.6332 -1.0752  0.1516
 1407SOL     OW15682   1.931   2.476   4.683  0.0266  0.7376  0.1209
 1407SOL    HW115683   1.953   2.494   4.592  1.4870  0.1545  0.3614
 1407SOL    HW215684   1.835   2.477   4.687  0.0288 -1.7916  0.3699
 1408SOL     OW15685   0.201   2.478   4.031  0.0510 -0.6894  0.5828
 1408SOL    HW115686   0.262   2.483   4.105  2.0073 -0.3093 -1.0730
 1408SOL    HW215687   0.200   2.385   4.007 -2.1887  0.4348 -3.6242
 1409SOL     OW15688   3.467   4.168   2.248  0.2906  0.6586  0.0583
 1409SOL    HW115689   3.560   4.150   2.257  0.1356 -0.1942 -0.0643
 1409SOL    HW215690   3.460   4.193   2.155 -1.3095  0.0927  0.0252
 1410SOL     OW15691   0.114   4.086   2.341 -0.6767  0.1957  0.0306
 1410SOL    HW115692   0.036   4.037   2.315  0.2818 -0.7908 -0.9757
 1410SOL    HW215693   0.091   4.173   2.309  0.4258  0.0855 -1.0509
 1411SOL     OW15694   4.443   3.060   5.444  0.2899 -0.1050  0.4397
 1411SOL    HW115695   4.489   3.144   5.450  1.4619 -0.5170 -2.8075
 1411SOL    HW215696   4.375   3.072   5.511  1.0332  2.0557  0.8106
 1412SOL     OW15697   0.373   1.684   3.479  0.1280 -0.3158 -0.1098
 1412SOL    HW115698   0.297   1.738   3.458  0.6729 -0.3371 -2.1472
 1412SOL    HW215699   0.408   1.649   3.397 -1.3661  0.6056 -1.1328
 1413SOL     OW15700   3.448   2.047   9.333 -0.0372 -0.3110 -0.7598
 1413SOL    HW115701   3.457   2.004   9.247  0.1214 -0.8137 -0.4935
 1413SOL    HW215702   3.484   1.977   9.388 -1.1485  0.3722  0.8181
 1414SOL     OW15703   3.155   1.484   2.341 -0.0162 -1.0837 -0.7077
 1414SOL    HW115704   3.186   1.417   2.280  1.0221 -0.7368 -0.5702
 1414SOL    HW215705   3.064   1.477   2.311 -0.5988  0.4581  0.7361
 1415SOL     OW15706   1.625   0.271   5.480  0.3414  0.8774 -0.2037
 1415SOL    HW115707   1.557   0.334   5.504  0.0970  0.2891  0.6665
 1415SOL    HW215708   1.602   0.193   5.531  3.5579  0.6188  0.8724
 1416SOL     OW15709   4.150   4.664   9.426 -0.5201 -0.2819 -0.2592
 1416SOL    HW115710   4.122   0.026   9.457 -1.2550 -0.2291 -1.0647
 1416SOL    HW215711   4.222   4.643   9.486 -0.8451  0.9206  0.5763
 1417SOL     OW15712   1.583   1.481   5.136 -0.2003 -0.0357  0.3194
 1417SOL    HW115713   1.560   1.389   5.152 -0.6931 -0.0202 -0.3349
 1417SOL    HW215714   1.501   1.530   5.139  0.2435  0.7446 -0.3902
 1418SOL     OW15715   3.631   2.014  10.758 -0.1548 -0.1128 -0.7329
 1418SOL    HW115716   3.624   1.923  10.729 -0.3760 -0.7122  1.1984
 1418SOL    HW215717   3.724   2.018  10.782 -0.8249  0.9220  1.6289
 1419SOL     OW15718   1.405   0.035  10.359 -0.3672  0.8704  0.2763
 1419SOL    HW115719   1.494   0.041  10.322 -0.7215  0.4394 -0.6360
 1419SOL    HW215720   1.373   0.126  10.357  3.5964  2.2643 -0.6538
 1420SOL     OW15721   3.773   2.138  15.872 -0.5032 -0.1639 -0.2420
 1420SOL    HW115722   3.743   2.178  15.953 -1.3421 -0.8533 -0.2177
 1420SOL    HW215723   3.691   2.142  15.823 -0.7870  1.2414  0.3479
 1421SOL     OW15724   1.104   2.979  16.403 -0.2047 -0.6742 -0.6524
 1421SOL    HW115725   1.127   2.995  16.312 -2.1295 -0.6146 -1.1308
 1421SOL    HW215726   1.142   2.891  16.415  1.4613  0.4201  2.1562
 1422SOL     OW15727   2.102   3.621   4.034  0.1240 -0.6171 -0.3525
 1422SOL    HW115728   2.141   3.708   4.044 -0.9208 -0.3631  1.4871
 1422SOL    HW215729   2.036   3.633   3.966 -0.1431  2.7309  0.4728
 1423SOL     OW15730   0.599   2.947   9.881 -0.1004  0.1614 -0.1509
 1423SOL    HW115731   0.637   2.868   9.843  0.5602  1.9624 -3.2440
 1423SOL    HW215732   0.546   2.920   9.957  0.6379 -0.1923  0.2298
 1424SOL     OW15733   2.782   3.016   2.672 -0.1770  0.2405 -0.4642
 1424SOL    HW115734   2.759   3.042   2.761 -1.0689 -1.7517 -0.1209
 1424SOL    HW215735   2.764   3.099   2.628 -1.7332  0.1782  0.0567
 1425SOL     OW15736   0.529   0.114   9.279  0.2336 -0.2433 -0.3156
 1425SOL    HW115737   0.580   0.187   9.314  0.6621 -1.7107  2.1371
 1425SOL    HW215738   0.568   0.041   9.327 -1.2590  0.2236  1.6190
 1426SOL     OW15739   3.751   3.530   4.350  0.1297  0.2108 -0.2933
 1426SOL    HW115740   3.806   3.486   4.415  0.2934 -1.0509 -1.2910
 1426SOL    HW215741   3.662   3.523   4.384 -0.6743  1.0353 -2.2786
 1427SOL     OW15742   2.432   3.981   2.517  0.7198 -0.2999 -0.0969
 1427SOL    HW115743   2.522   4.012   2.528  0.4432 -0.4466  2.5348
 1427SOL    HW215744   2.399   3.971   2.606 -2.7470 -2.5597 -1.6390
 1428SOL     OW15745   3.143   2.820   8.052  0.2947 -0.3388  0.8445
 1428SOL    HW115746   3.163   2.767   8.129  1.4315  0.0093  0.7959
 1428SOL    HW215747   3.112   2.902   8.091 -0.4136 -1.9439  3.6229
 1429SOL     OW15748   4.328   3.483  13.872  0.1635  0.2317 -0.1432
 1429SOL    HW115749   4.293   3.406  13.917  1.3042  0.0510  0.4450
 1429SOL    HW215750   4.253   3.500  13.816 -0.3819  1.2419  0.9113
 1430SOL     OW15751   2.840   2.927  13.812 -0.6603 -0.1303 -0.2117
 1430SOL    HW115752   2.755   2.908  13.850 -0.2097 -0.3208  0.7135
 1430SOL    HW215753   2.875   2.984  13.881  1.4364 -1.7603  0.0807
 1431SOL     OW15754   0.820   2.672   7.199 -0.3671 -0.5396 -0.2789
 1431SOL    HW115755   0.886   2.692   7.266  1.1439 -0.1672 -1.8667
 1431SOL    HW215756   0.826   2.745   7.137 -0.4507  0.5880  1.0224
 1432SOL     OW15757   3.907   1.813   7.086 -0.4981 -0.3820 -0.5729
 1432SOL    HW115758   3.959   1.852   7.016  1.1836 -0.3752  0.6878
 1432SOL    HW215759   3.878   1.730   7.046  0.8039 -0.9249 -0.3948
 1433SOL     OW15760   2.484   0.214   7.449  0.0321 -0.4293  0.0128
 1433SOL    HW115761   2.479   0.121   7.468 -0.6112 -0.2212  0.8925
 1433SOL    HW215762   2.392   0.234   7.430 -0.6528 -1.7925  1.9588
 1434SOL     OW15763   3.726   2.290   7.428 -0.4545 -0.0470 -0.1472
 1434SOL    HW115764   3.703   2.381   7.443 -0.9904  0.1112 -1.8853
 1434SOL    HW215765   3.749   2.301   7.336 -1.1010  0.5070 -0.2420
 1435SOL     OW15766   1.949   1.299  17.444  0.5513 -0.4001  0.0259
 1435SOL    HW115767   1.869   1.285  17.394  1.3395 -1.3277 -0.9861
 1435SOL    HW215768   1.927   1.238  17.514  0.7760  1.2681  1.5723
 1436SOL     OW15769   3.097   0.866   0.637  0.5089 -0.1825 -0.2671
 1436SOL    HW115770   3.063   0.788   0.594 -0.4003 -0.9283  1.7984
 1436SOL    HW215771   3.162   0.826   0.694  0.0477 -0.9022 -0.2479
 1437SOL     OW15772   1.898   1.815   7.997  0.6927  0.1078  0.1286
 1437SOL    HW115773   1.844   1.863   8.059  1.3294  0.0949  0.6922
 1437SOL    HW215774   1.937   1.892   7.955 -0.0037 -0.9546 -2.4946
 1438SOL     OW15775   2.418   2.748   7.753  0.4169  0.6594 -0.0114
 1438SOL    HW115776   2.467   2.804   7.693  2.3004 -1.0008 -0.0012
 1438SOL    HW215777   2.472   2.742   7.832 -0.6086  0.5074  0.6862
 1439SOL     OW15778   2.708   3.574   9.284  0.1027 -0.1180 -0.7245
 1439SOL    HW115779   2.803   3.583   9.295  0.3091 -0.4314 -2.1409
 1439SOL    HW215780   2.711   3.613   9.196 -0.8594  1.5753  0.0036
 1440SOL     OW15781   2.211   3.140  13.340 -0.1340 -0.2226  0.0575
 1440SOL    HW115782   2.296   3.184  13.347 -0.0072 -0.4643  0.0319
 1440SOL    HW215783   2.152   3.200  13.386  0.2364 -0.9974  1.5092
 1441SOL     OW15784   2.141   1.444   8.382 -0.1122 -0.0544 -0.3999
 1441SOL    HW115785   2.106   1.400   8.459  0.2417  2.8404  1.3939
 1441SOL    HW215786   2.147   1.533   8.416 -0.8213 -0.8463  1.7544
 1442SOL     OW15787   2.246   3.431  10.683  0.2558  0.4125 -0.1416
 1442SOL    HW115788   2.257   3.525  10.667  1.4621  0.7122  2.5613
 1442SOL    HW215789   2.260   3.402  10.592  0.2036 -1.2883  0.3939
 1443SOL     OW15790   4.429   3.559   9.553  0.6004 -0.2290  0.7577
 1443SOL    HW115791   4.456   3.548   9.644 -1.4220 -1.8407  1.1823
 1443SOL    HW215792   4.410   3.652   9.560 -0.8237 -0.3571 -1.2586
 1444SOL     OW15793   1.996   2.447   4.971  0.6204 -0.7156  0.3098
 1444SOL    HW115794   2.020   2.355   4.960 -0.3738 -0.9868  0.4084
 1444SOL    HW215795   1.956   2.465   4.886 -1.3624  0.2917  1.4307
 1445SOL     OW15796   0.320   1.272  12.190 -0.2085  0.1834 -0.1023
 1445SOL    HW115797   0.243   1.327  12.177 -1.1430 -1.8960 -3.3448
 1445SOL    HW215798   0.357   1.303  12.273  1.9673 -0.6500 -0.7460
 1446SOL     OW15799   4.305   3.848  17.100  0.2281  0.2512  0.2369
 1446SOL    HW115800   4.250   3.838  17.178  0.0761  1.0205  0.2268
 1446SOL    HW215801   4.380   3.883  17.148  0.9791 -1.9674  0.6767
 1447SOL     OW15802   0.824   0.896  12.147 -0.3690  0.1185 -0.0884
 1447SOL    HW115803   0.894   0.960  12.146  1.2766 -1.6265  1.6329
 1447SOL    HW215804   0.850   0.831  12.212  2.7271  1.2949 -0.1376
 1448SOL     OW15805   1.904   2.560   3.177 -0.5185  0.4295  0.0811
 1448SOL    HW115806   1.885   2.653   3.185  0.2105  0.3772  2.3673
 1448SOL    HW215807   1.829   2.523   3.222 -0.0235 -0.6537  0.0278
 1449SOL     OW15808   2.223   3.961   4.155  0.1639  0.5244 -0.1193
 1449SOL    HW115809   2.270   3.940   4.075  0.5460  2.2940 -0.3576
 1449SOL    HW215810   2.300   3.946   4.212  1.0211  1.7823 -0.9551
 1450SOL     OW15811   4.418   3.288   9.523  0.3093 -0.2090 -0.3327
 1450SOL    HW115812   4.411   3.384   9.524 -1.4228 -0.3457  1.1167
 1450SOL    HW215813   4.513   3.283   9.532 -0.0291 -1.0793  2.8687
 1451SOL     OW15814   0.274   0.888   2.303 -0.5444  0.5114  0.2446
 1451SOL    HW115815   0.184   0.882   2.270 -0.5831  3.7407 -0.2139
 1451SOL    HW215816   0.281   0.795   2.324 -0.4210  0.8027  1.5135
 1452SOL     OW15817   1.546   0.944   2.459  0.1729 -0.3223  0.0630
 1452SOL    HW115818   1.612   0.915   2.396 -0.4590  1.3403 -1.3756
 1452SOL    HW215819   1.573   1.034   2.481  2.2797 -0.7152 -0.8594
 1453SOL     OW15820   0.996   2.615  10.912  0.0396  0.3267 -0.2970
 1453SOL    HW115821   1.054   2.571  10.850 -0.8097  1.0972 -1.6297
 1453SOL    HW215822   1.015   2.707  10.893  0.9744  0.1454 -0.2691
 1454SOL     OW15823   1.394   1.298   6.041 -0.1726 -0.0684  0.4755
 1454SOL    HW115824   1.327   1.253   5.988  1.1294  0.0818 -1.2916
 1454SOL    HW215825   1.383   1.388   6.010  0.9299 -0.3734 -0.8069
 1455SOL     OW15826   2.026   3.976   9.922 -0.2146  0.0217  0.3936
 1455SOL    HW115827   2.071   4.030   9.986 -0.7899  0.6026  0.3084
 1455SOL    HW215828   2.095   3.918   9.890 -0.8909 -2.0984  2.7471
 1456SOL     OW15829   0.439   2.163   3.510 -0.1627 -0.7114 -0.7821
 1456SOL    HW115830   0.441   2.192   3.601  4.2952  3.0925 -2.0672
 1456SOL    HW215831   0.531   2.174   3.485 -0.2350  0.9760 -0.3021
 1457SOL     OW15832   0.880   0.587  15.808  0.4182 -1.0615 -0.2391
 1457SOL    HW115833   0.809   0.588  15.872  0.8861 -0.1194  0.2723
 1457SOL    HW215834   0.820   0.580  15.734 -0.0982 -0.2256  0.0986
 1458SOL     OW15835   2.445   2.391  13.635  0.6504 -0.0823  0.4693
 1458SOL    HW115836   2.349   2.397  13.630  0.5701  0.0103  2.2176
 1458SOL    HW215837   2.459   2.392  13.730  0.2938  0.1102  0.5197
 1459SOL     OW15838   1.750   0.216  14.122  0.0019 -0.0416  0.4060
 1459SOL    HW115839   1.768   0.127  14.094  0.0283 -0.1823  0.8722
 1459SOL    HW215840   1.790   0.265  14.050  2.1729  1.6213  2.7322
 1460SOL     OW15841   0.461   4.474   3.704  0.4913  0.5108 -0.0810
 1460SOL    HW115842   0.539   4.419   3.695  0.0187  0.0481 -1.3079
 1460SOL    HW215843   0.440   4.492   3.613  2.6898  0.7822 -0.5242
 1461SOL     OW15844   4.708   0.430   8.269 -0.6404 -0.3137 -0.0539
 1461SOL    HW115845   4.630   0.394   8.309 -0.5247  0.2018  0.6406
 1461SOL    HW215846   0.039   0.447   8.345  1.3406 -0.5605 -1.4078
 1462SOL     OW15847   4.572   2.284  16.264 -0.0383 -0.0761 -0.4985
 1462SOL    HW115848   4.509   2.263  16.195 -0.7298  1.2847 -0.2751
 1462SOL    HW215849   4.543   2.226  16.335  2.5685 -0.9690 -0.1679
 1463SOL     OW15850   0.047   4.366   2.215  0.2900 -0.0945  0.3152
 1463SOL    HW115851   4.680   4.341   2.227  0.5318 -1.3806 -0.5007
 1463SOL    HW215852   0.047   4.459   2.237  0.5781  0.2029 -0.9580
 1464SOL     OW15853   3.301   4.130   9.016  0.0975 -0.3819  0.0405
 1464SOL    HW115854   3.344   4.044   9.012  1.3208  0.1313  2.0045
 1464SOL    HW215855   3.212   4.105   9.038  0.1117 -0.0820  0.4230
 1465SOL     OW15856   0.589   2.478   8.047  0.0161  0.0266 -0.4748
 1465SOL    HW115857   0.543   2.448   7.968 -2.0837  0.0853  0.7086
 1465SOL    HW215858   0.652   2.546   8.023  2.2698 -1.6926  0.6117
 1466SOL     OW15859   2.970   0.663  10.813 -0.1224 -0.1266  0.0443
 1466SOL    HW115860   3.022   0.737  10.783 -0.1403 -0.0720  0.1512
 1466SOL    HW215861   2.886   0.707  10.804  1.1263  2.2967  0.0864
 1467SOL     OW15862   0.257   1.513   2.888 -0.1869  0.0194 -0.5616
 1467SOL    HW115863   0.193   1.583   2.879  0.2083  0.2132 -1.9538
 1467SOL    HW215864   0.242   1.460   2.809 -0.6533 -1.0189  0.2302
 1468SOL     OW15865   0.290   3.197  15.130  0.3460 -0.0835 -0.6610
 1468SOL    HW115866   0.329   3.174  15.045  0.1344 -0.7778 -0.5753
 1468SOL    HW215867   0.346   3.144  15.188 -2.1887 -0.8312  1.0864
 1469SOL     OW15868   3.371   1.632   7.706  0.4146 -0.0781  0.4199
 1469SOL    HW115869   3.424   1.621   7.785 -0.1899  0.9298  0.9670
 1469SOL    HW215870   3.283   1.611   7.735  0.4803  1.0564  1.4290
 1470SOL     OW15871   3.601   3.287  12.734 -0.0466 -0.3721  0.1540
 1470SOL    HW115872   3.535   3.351  12.710  0.1286  0.8948  3.1074
 1470SOL    HW215873   3.656   3.282  12.656 -2.4803  3.2749 -1.7911
 1471SOL     OW15874   1.507   1.986   2.372 -0.1723  0.1935 -0.3643
 1471SOL    HW115875   1.434   1.930   2.344 -0.7651 -0.0642  1.6759
 1471SOL    HW215876   1.465   2.016   2.452  0.6459  1.0040 -0.2410
 1472SOL     OW15877   3.951   1.466  14.654 -0.7772 -0.0612 -0.1706
 1472SOL    HW115878   3.933   1.560  14.655  1.9921  0.4511  1.1424
 1472SOL    HW215879   3.979   1.454  14.744 -0.3070 -1.3760 -0.4989
 1473SOL     OW15880   2.647   2.665   4.492  0.0711 -0.1488 -0.0788
 1473SOL    HW115881   2.557   2.688   4.472 -0.2390  1.0056  2.6644
 1473SOL    HW215882   2.642   2.650   4.586 -1.7446 -0.0453 -0.1599
 1474SOL     OW15883   2.352   1.712  10.399 -0.2229  0.4666 -0.0570
 1474SOL    HW115884   2.412   1.757  10.340  2.0472 -0.2894  1.6823
 1474SOL    HW215885   2.398   1.714  10.483 -1.5718 -3.9407  0.8123
 1475SOL     OW15886   0.582   0.153  16.582 -0.0573  0.1777  0.1718
 1475SOL    HW115887   0.545   0.154  16.494 -1.4524 -0.9152  0.7433
 1475SOL    HW215888   0.551   0.068  16.613  0.9109  0.3573  1.5929
 1476SOL     OW15889   0.438   1.903   9.057  0.2400  0.2193 -0.1546
 1476SOL    HW115890   0.468   1.815   9.082  0.2835  0.3238  0.1670
 1476SOL    HW215891   0.520   1.952   9.054  0.5503 -0.2552  0.6557
 1477SOL     OW15892   0.142   3.273   6.672 -0.1430  0.4836 -0.6831
 1477SOL    HW115893   0.102   3.230   6.597 -2.6587  0.9492  0.4082
 1477SOL    HW215894   0.155   3.356   6.625 -0.2053  1.8188  1.6624
 1478SOL     OW15895   3.277   1.722   2.781  0.2080 -0.2336 -0.3671
 1478SOL    HW115896   3.337   1.747   2.710 -1.0600  0.6224 -1.1455
 1478SOL    HW215897   3.219   1.655   2.745  1.1552 -0.5489 -1.2991
 1479SOL     OW15898   4.701   1.140  10.889 -0.6166  0.2021  0.3482
 1479SOL    HW115899   4.724   1.172  10.977  1.1473 -2.5864  0.9049
 1479SOL    HW215900   0.016   1.209  10.835 -0.7590 -1.3695 -1.7614
 1480SOL     OW15901   4.273   3.683   8.487 -0.1512  0.0841 -0.1417
 1480SOL    HW115902   4.203   3.681   8.421 -0.7450 -0.5195  0.5122
 1480SOL    HW215903   4.227   3.622   8.544 -0.4973  2.3862  2.0521
 1481SOL     OW15904   3.304   1.114   5.301 -0.6516 -0.0318  0.4973
 1481SOL    HW115905   3.275   1.194   5.258 -0.4260  0.8703  2.0442
 1481SOL    HW215906   3.375   1.088   5.242 -0.7550  2.0840 -0.5377
 1482SOL     OW15907   2.867   3.821   7.109  0.1807  0.2696  0.7280
 1482SOL    HW115908   2.946   3.766   7.105  0.6984  1.2176 -2.8458
 1482SOL    HW215909   2.813   3.797   7.033 -1.0940  0.4176  1.5962
 1483SOL     OW15910   3.203   4.379   4.467  0.7874  0.6623  0.4981
 1483SOL    HW115911   3.136   4.347   4.527  1.6976 -0.2280  1.0167
 1483SOL    HW215912   3.225   4.290   4.442 -2.0380  0.5640 -1.6302
 1484SOL     OW15913   3.230   1.409   9.775 -0.0979  0.4184 -0.0761
 1484SOL    HW115914   3.169   1.482   9.765  1.8436  1.9086 -0.9702
 1484SOL    HW215915   3.311   1.457   9.791 -0.4815  1.3244 -0.8363
 1485SOL     OW15916   0.596   0.997   5.403  0.3310 -0.2381 -0.1491
 1485SOL    HW115917   0.515   0.961   5.366 -0.9256  1.0463  1.3560
 1485SOL    HW215918   0.562   1.045   5.478  1.4916  0.6482 -0.1958
 1486SOL     OW15919   2.016   3.214   2.388  0.0327  0.0138  0.1633
 1486SOL    HW115920   1.945   3.267   2.351 -1.6486 -2.0667  0.4233
 1486SOL    HW215921   1.972   3.129   2.388 -0.9760  0.5387  1.4586
 1487SOL     OW15922   1.181   4.318   4.575 -0.2355  0.2307 -0.0671
 1487SOL    HW115923   1.168   4.264   4.497  1.6686  1.2232 -1.0798
 1487SOL    HW215924   1.274   4.336   4.590  0.0143 -1.6605  0.6227
 1488SOL     OW15925   2.670   3.140  16.526  0.3739 -0.1969  0.0450
 1488SOL    HW115926   2.627   3.139  16.611 -2.0704  0.7920 -1.1814
 1488SOL    HW215927   2.706   3.052  16.520 -1.4424 -1.1569  3.0331
 1489SOL     OW15928   2.122   4.560  17.329 -0.2002  0.0964 -0.1765
 1489SOL    HW115929   2.129   4.536  17.421  0.3703  1.9239  0.2653
 1489SOL    HW215930   2.134   4.655  17.335  2.3461 -0.1860 -0.7150
 1490SOL     OW15931   4.594   4.647   2.788 -0.6005 -0.6273 -0.2586
 1490SOL    HW115932   4.616   4.603   2.706  1.0351 -1.5379  0.6760
 1490SOL    HW215933   4.505   4.616   2.804 -1.3544  1.4798 -0.3804
 1491SOL     OW15934   1.453   4.630   8.837 -0.3626  0.2965 -0.2341
 1491SOL    HW115935   1.452   4.589   8.923  0.1984  2.0105  0.5894
 1491SOL    HW215936   1.366   4.604   8.804  0.4005 -0.0888 -1.9488
 1492SOL     OW15937   3.808   4.107   3.048  0.5954  0.1260 -0.4794
 1492SOL    HW115938   3.771   4.149   2.970  0.9456 -0.5738 -1.0316
 1492SOL    HW215939   3.761   4.145   3.122  1.7614 -0.6092  0.6390
 1493SOL     OW15940   1.018   0.008   3.907 -0.8088 -0.1289  0.2292
 1493SOL    HW115941   0.933   4.690   3.897 -1.7155  1.6572  0.4078
 1493SOL    HW215942   1.025   0.040   3.997  1.6187  3.9578 -1.3870
 1494SOL     OW15943   1.356   1.107   7.244 -0.1762 -0.1649  0.1189
 1494SOL    HW115944   1.405   1.069   7.171 -3.4472 -1.7468 -1.2253
 1494SOL    HW215945   1.433   1.135   7.294 -0.0442  0.1300 -0.2395
 1495SOL     OW15946   1.853   3.192   7.591 -0.4730  0.4412  0.1620
 1495SOL    HW115947   1.871   3.274   7.546 -2.5393  0.3287 -0.8510
 1495SOL    HW215948   1.829   3.138   7.515  2.8748 -1.7078  0.5972
 1496SOL     OW15949   1.838   2.686   0.934 -0.5658 -0.0452  0.1527
 1496SOL    HW115950   1.845   2.591   0.942 -0.3516 -0.0194  0.2853
 1496SOL    HW215951   1.782   2.699   1.011 -0.5536 -0.5329  0.2429
 1497SOL     OW15952   4.329   2.741   2.869 -0.0026 -0.2605  0.2090
 1497SOL    HW115953   4.323   2.645   2.863  1.1549 -0.3738  0.7024
 1497SOL    HW215954   4.402   2.765   2.811  2.7709 -2.8204  2.6269
 1498SOL     OW15955   3.592   3.333   4.661 -0.0666  0.1984 -0.0801
 1498SOL    HW115956   3.579   3.407   4.602 -0.0705  1.3518  1.3840
 1498SOL    HW215957   3.687   3.342   4.671 -0.2865  3.8811 -1.1799
 1499SOL     OW15958   2.406   4.314   6.326  0.0936 -0.3128 -0.1915
 1499SOL    HW115959   2.320   4.329   6.367 -0.5549  0.2895 -1.7771
 1499SOL    HW215960   2.384   4.359   6.245  0.2479  0.5820  0.2592
 1500SOL     OW15961   2.975   3.404   3.468  0.3514 -0.7833  0.0069
 1500SOL    HW115962   2.923   3.465   3.416  1.3988  0.4779  0.4325
 1500SOL    HW215963   3.065   3.429   3.447 -0.3225  2.9014  1.5898
 1501SOL     OW15964   4.074   2.017  16.659 -0.0397  0.1883  0.0982
 1501SOL    HW115965   4.105   1.941  16.707 -0.1631 -1.0918 -1.8826
 1501SOL    HW215966   4.102   2.082  16.724 -0.2963  1.3983 -0.9946
 1502SOL     OW15967   0.710   0.065   3.472  0.2054  0.2687  0.2772
 1502SOL    HW115968   0.801   0.042   3.494 -0.2687 -0.9763  0.9534
 1502SOL    HW215969   0.703   0.147   3.520  3.1400  0.3690  0.5594
 1503SOL     OW15970   0.947   0.552   2.916  0.4465  0.4090 -0.6326
 1503SOL    HW115971   0.872   0.584   2.866  0.5519  1.6784  0.0357
 1503SOL    HW215972   0.985   0.480   2.864  0.6188  1.3720 -1.8274
 1504SOL     OW15973   1.717   2.197   3.146 -0.0198 -0.5091  0.9452
 1504SOL    HW115974   1.768   2.234   3.073 -0.8912 -0.5460  0.3148
 1504SOL    HW215975   1.628   2.228   3.133  1.3724  2.3405 -1.9051
 1505SOL     OW15976   0.172   3.363  14.791 -0.1924  0.4300  0.2645
 1505SOL    HW115977   0.162   3.326  14.704  1.0745 -0.2895  0.4157
 1505SOL    HW215978   0.215   3.444  14.764 -1.0908  1.3887  1.6804
 1506SOL     OW15979   1.595   4.544   7.450  0.0524 -1.0738  0.0031
 1506SOL    HW115980   1.660   4.512   7.513  0.4507 -0.1434  0.0714
 1506SOL    HW215981   1.643   4.624   7.430 -1.2922  0.3756  2.5774
 1507SOL     OW15982   4.104   2.370   4.878 -0.5953 -0.0917  0.0745
 1507SOL    HW115983   4.082   2.458   4.847 -0.7584 -0.4603 -0.8443
 1507SOL    HW215984   4.025   2.327   4.846 -1.2354  0.7589  0.5286
 1508SOL     OW15985   4.562   1.782   4.868 -0.1469  0.1583  0.2739
 1508SOL    HW115986   4.650   1.753   4.845  0.0039  0.9394 -0.1234
 1508SOL    HW215987   4.513   1.700   4.863  0.5454 -0.2792  0.6065
 1509SOL     OW15988   1.789   4.659   6.209  0.0924  0.1367  0.1921
 1509SOL    HW115989   1.818   4.637   6.120  0.3234 -1.2050  0.5965
 1509SOL    HW215990   1.865   4.629   6.258  0.4910 -3.3227 -2.5343
 1510SOL     OW15991   0.389   0.628   9.462 -0.2385 -0.2549 -0.6057
 1510SOL    HW115992   0.296   0.609   9.454 -0.8820  1.5623  2.5385
 1510SOL    HW215993   0.408   0.572   9.537 -0.6205  1.0966  0.5163
 1511SOL     OW15994   2.266   2.218   3.450 -0.4681  0.3122  0.4537
 1511SOL    HW115995   2.316   2.258   3.379  0.2452  1.6935  1.7239
 1511SOL    HW215996   2.262   2.129   3.417 -1.6902  0.4755  0.1594
 1512SOL     OW15997   2.111   2.334   2.137 -0.5557 -0.2593 -0.4350
 1512SOL    HW115998   2.063   2.317   2.219  0.0576 -1.8887 -0.4100
 1512SOL    HW215999   2.064   2.276   2.076  1.2987 -1.6136 -0.5823
 1513SOL     OW16000   0.571   1.874   3.600 -0.0662 -0.0696 -0.0418
 1513SOL    HW116001   0.611   1.911   3.521 -2.0721  2.1725 -0.0093
 1513SOL    HW216002   0.508   1.809   3.569  0.9835 -1.3550  0.4974
 1514SOL     OW16003   1.894   1.823   9.759 -0.3576 -0.1318  0.2272
 1514SOL    HW116004   1.971   1.767   9.745  0.9722  1.5581  0.7587
 1514SOL    HW216005   1.857   1.840   9.672 -0.1715  1.3890  0.4394
 1515SOL     OW16006   1.752   4.032   2.160  0.3531  0.2490 -0.0401
 1515SOL    HW116007   1.656   4.024   2.160  0.4309 -0.6070  0.4602
 1515SOL    HW216008   1.776   4.074   2.243  1.8717 -1.6949  0.4943
 1516SOL     OW16009   0.434   4.111  11.055  0.1229 -0.5631  0.0755
 1516SOL    HW116010   0.421   4.058  10.976  1.0138  2.4824 -2.1290
 1516SOL    HW216011   0.527   4.135  11.055  0.4662 -1.8443 -2.8131
 1517SOL     OW16012   3.913   0.384   5.936 -0.0753 -0.0194 -0.1280
 1517SOL    HW116013   3.915   0.418   5.847 -0.4743 -1.2571 -0.6048
 1517SOL    HW216014   3.822   0.393   5.967  0.2169 -1.0213  1.0463
 1518SOL     OW16015   0.575   4.122   5.259 -0.0885  0.7312 -0.7471
 1518SOL    HW116016   0.618   4.066   5.195  0.6951  0.7098 -0.2032
 1518SOL    HW216017   0.489   4.079   5.260  1.1743 -1.8084 -1.3497
 1519SOL     OW16018   3.764   0.778   1.414 -0.8855  0.2997 -0.0490
 1519SOL    HW116019   3.741   0.686   1.401  2.0770 -0.4415 -0.2407
 1519SOL    HW216020   3.760   0.819   1.327 -0.6722 -1.1792 -0.7484
 1520SOL     OW16021   1.896   2.341   7.587 -0.1478 -0.2071  0.2588
 1520SOL    HW116022   1.960   2.317   7.654 -1.2313  0.6642  1.6042
 1520SOL    HW216023   1.898   2.267   7.527 -4.1285 -0.4808  0.4513
 1521SOL     OW16024   0.394   4.680   6.230  0.7042 -0.3305 -0.0322
 1521SOL    HW116025   0.405   0.051   6.234  0.0071 -0.2818  0.6834
 1521SOL    HW216026   0.357   4.669   6.317  0.7783  2.1419  0.3120
 1522SOL     OW16027   3.630   3.135   3.267 -0.4425 -0.4215 -0.1271
 1522SOL    HW116028   3.579   3.086   3.332  0.4185 -2.0895 -0.7206
 1522SOL    HW216029   3.714   3.095   3.285  0.4836  1.4034 -0.3643
 1523SOL     OW16030   2.677   4.313   9.823 -0.1813  0.4687 -0.3320
 1523SOL    HW116031   2.599   4.364   9.843 -0.8601 -0.4095 -0.7346
 1523SOL    HW216032   2.635   4.235   9.787 -0.8589  1.6703 -2.1781
 1524SOL     OW16033   3.424   4.577  13.805 -0.3285  0.5240 -0.3391
 1524SOL    HW116034   3.347   4.588  13.861 -0.6341 -3.4852  0.0283
 1524SOL    HW216035   3.419   4.655  13.750 -1.7955  1.7800  1.6248
 1525SOL     OW16036   3.862   1.725   7.324 -0.2909  0.2042  0.1079
 1525SOL    HW116037   3.872   1.767   7.239  0.2084  0.1939  0.1574
 1525SOL    HW216038   3.908   1.783   7.385 -1.6967  1.0213  0.3921
 1526SOL     OW16039   3.358   1.655   3.917 -0.1230  0.2677 -0.8332
 1526SOL    HW116040   3.403   1.624   3.996 -4.0737 -1.4395  0.7443
 1526SOL    HW216041   3.378   1.581   3.859  0.7857 -0.4091  0.3522
 1527SOL     OW16042   2.494   0.358   5.380  0.2408 -0.4226  0.0421
 1527SOL    HW116043   2.541   0.433   5.418  0.2703 -1.3238  1.7795
 1527SOL    HW216044   2.496   0.306   5.460 -0.4535 -0.9256 -0.2635
 1528SOL     OW16045   2.397   3.626  12.069  0.3175  0.1631  0.0954
 1528SOL    HW116046   2.302   3.628  12.061  0.3765  0.2717 -0.5201
 1528SOL    HW216047   2.410   3.572  12.147 -2.0146  0.9784  1.0492
 1529SOL     OW16048   3.604   1.292   9.091 -0.1030 -0.5780  0.0404
 1529SOL    HW116049   3.523   1.298   9.141 -0.0135 -2.2958  0.3888
 1529SOL    HW216050   3.582   1.234   9.018 -1.2313  0.8323 -0.7374
 1530SOL     OW16051   2.198   4.394   4.591 -0.3201 -0.8725 -0.6158
 1530SOL    HW116052   2.226   4.423   4.678  1.1509 -1.4782 -0.8931
 1530SOL    HW216053   2.145   4.472   4.575  0.2506  0.5441  4.2622
 1531SOL     OW16054   1.183   4.631  17.618  0.2867  0.1173 -0.9242
 1531SOL    HW116055   1.235   4.705  17.585  2.1513 -1.0658 -0.6712
 1531SOL    HW216056   1.257   4.570  17.619  0.8762  0.8263 -1.0821
 1532SOL     OW16057   4.638   3.324   9.167  0.5122  0.2664  0.2288
 1532SOL    HW116058   4.664   3.267   9.095 -1.3849 -0.6253  0.2401
 1532SOL    HW216059   4.622   3.255   9.232 -0.2387 -0.1262 -0.3685
 1533SOL     OW16060   0.169   4.697   3.664 -0.4747  0.0562 -0.5772
 1533SOL    HW116061   0.210   0.059   3.658  1.8166 -1.0128 -0.1078
 1533SOL    HW216062   0.123   4.710   3.747  0.9493 -0.8607  0.3449
 1534SOL     OW16063   4.559   0.596   9.714 -0.1186 -0.0894  0.2352
 1534SOL    HW116064   4.541   0.525   9.653 -2.2561  2.2224 -1.8157
 1534SOL    HW216065   4.628   0.637   9.664  0.8336 -3.0259 -0.8562
 1535SOL     OW16066   1.365   0.601  10.498 -0.8292 -0.3776 -0.1181
 1535SOL    HW116067   1.452   0.564  10.512  0.0197  1.3889 -0.7316
 1535SOL    HW216068   1.332   0.601  10.588 -2.0157  2.4741 -0.5336
 1536SOL     OW16069   2.216   3.275   6.360  0.1296  0.1813  0.1267
 1536SOL    HW116070   2.293   3.229   6.326  0.2307  0.9109 -0.6243
 1536SOL    HW216071   2.158   3.199   6.363  0.1801  0.2164  2.1976
 1537SOL     OW16072   2.348   2.861   8.977  0.0236  0.1713  0.0767
 1537SOL    HW116073   2.260   2.897   8.987  0.3942  1.0718  0.1657
 1537SOL    HW216074   2.349   2.815   9.061  0.2753  0.1015  0.0352
 1538SOL     OW16075   4.149   3.435   1.588 -0.4143  0.1583 -0.2413
 1538SOL    HW116076   4.212   3.451   1.659 -1.4970  0.4713  0.6456
 1538SOL    HW216077   4.169   3.344   1.565 -0.8000  0.4198 -1.5865
 1539SOL     OW16078   2.644   4.549   8.923 -0.0017 -0.0511 -0.0471
 1539SOL    HW116079   2.669   4.555   9.015  1.4938 -2.3154 -0.2892
 1539SOL    HW216080   2.554   4.580   8.924 -0.3678 -0.9684 -2.9424
 1540SOL     OW16081   0.867   3.635  17.475  0.3396 -0.0586 -0.0534
 1540SOL    HW116082   0.869   3.573  17.548 -0.5388  0.3076  0.2784
 1540SOL    HW216083   0.821   3.589  17.404  0.8573  0.5678 -0.8037
 1541SOL     OW16084   3.928   2.285   1.635 -0.0919 -0.6961 -0.5412
 1541SOL    HW116085   3.904   2.323   1.719 -1.6197 -0.1393 -1.2264
 1541SOL    HW216086   3.942   2.356   1.572 -0.1401  0.0409  0.2843
 1542SOL     OW16087   4.171   0.064   9.127  0.1776 -0.3134 -0.0181
 1542SOL    HW116088   4.226   0.087   9.202 -0.2151 -0.7071  0.3953
 1542SOL    HW216089   4.098   0.021   9.171  0.9721 -0.0648  1.5497
 1543SOL     OW16090   2.455   1.132   8.025 -0.0395 -0.0985  0.1003
 1543SOL    HW116091   2.410   1.094   8.101 -2.3638  1.4030 -0.5080
 1543SOL    HW216092   2.472   1.220   8.058  1.6390 -0.5945  0.5428
 1544SOL     OW16093   1.338   0.170   5.627 -0.1224  0.0591 -0.4660
 1544SOL    HW116094   1.243   0.160   5.622 -0.1671  0.1994  0.1948
 1544SOL    HW216095   1.346   0.239   5.692 -0.7428 -0.3147  0.0001
 1545SOL     OW16096   2.600   0.981   8.929  0.1037 -0.0920 -0.0338
 1545SOL    HW116097   2.542   0.906   8.936  0.1621 -0.0895  0.4692
 1545SOL    HW216098   2.561   1.045   8.868  0.4624 -0.1842 -0.3634
 1546SOL     OW16099   0.822   1.807   2.441 -0.2492  0.2393  0.0763
 1546SOL    HW116100   0.872   1.880   2.478  0.4875  0.0342 -0.5098
 1546SOL    HW216101   0.781   1.771   2.520  1.3818  0.1294  0.8836
 1547SOL     OW16102   3.012   3.030   6.639 -0.1474  0.2019 -0.1968
 1547SOL    HW116103   2.986   3.106   6.588 -2.3581 -0.1291  0.4099
 1547SOL    HW216104   3.007   2.955   6.579  0.3720 -0.4050  0.5201
 1548SOL     OW16105   4.114   3.429   3.737  0.3683 -0.6816 -0.1111
 1548SOL    HW116106   4.064   3.392   3.810  1.2889 -1.0905  0.3079
 1548SOL    HW216107   4.100   3.366   3.666 -1.2343  1.8576 -2.0685
 1549SOL     OW16108   1.001   2.201   0.983  0.6709 -0.2467  0.6189
 1549SOL    HW116109   0.940   2.270   0.960  1.8500  1.3652  2.3659
 1549SOL    HW216110   0.934   2.133   0.982  1.6160 -1.2464  3.5184
 1550SOL     OW16111   3.925   3.021   3.925 -0.1956  0.2428 -0.3604
 1550SOL    HW116112   3.834   2.994   3.932  0.1270 -1.0022 -0.8023
 1550SOL    HW216113   3.962   2.962   3.991 -2.2621 -0.6403  0.0005
 1551SOL     OW16114   2.613   3.296   6.762 -0.3260 -0.3192 -0.1073
 1551SOL    HW116115   2.593   3.371   6.818 -0.6969 -0.0749 -0.5622
 1551SOL    HW216116   2.536   3.278   6.709  1.4567 -1.5291 -2.2960
 1552SOL     OW16117   0.856   2.364   6.381  0.2960  0.7200  0.9807
 1552SOL    HW116118   0.841   2.455   6.405  0.1679  0.6602  1.1220
 1552SOL    HW216119   0.909   2.326   6.451  1.5725 -0.8400 -0.8208
 1553SOL     OW16120   0.400   1.975   4.299 -0.2831  0.7989 -0.6255
 1553SOL    HW116121   0.461   1.903   4.312 -1.3556  0.4864  2.7824
 1553SOL    HW216122   0.327   1.947   4.355  1.7620  1.1669  2.1981
 1554SOL     OW16123   0.386   0.313  15.347 -0.0878  0.2946 -0.3443
 1554SOL    HW116124   0.434   0.298  15.266  0.9224  0.6977  0.1838
 1554SOL    HW216125   0.298   0.281  15.329 -0.6401  1.5446  0.1366
 1555SOL     OW16126   0.168   3.998   0.658  0.4267 -0.0054 -0.0092
 1555SOL    HW116127   0.145   3.913   0.620 -0.5049 -0.9382  2.6315
 1555SOL    HW216128   0.237   3.961   0.712  1.3834  1.1930 -0.4150
 1556SOL     OW16129   0.184   3.682   7.389 -0.1976 -0.0136 -0.3731
 1556SOL    HW116130   0.139   3.761   7.418 -0.0026  0.5353 -1.5623
 1556SOL    HW216131   0.242   3.728   7.329 -2.4968 -0.8785 -3.2531
 1557SOL     OW16132   0.081   4.109   3.919 -0.4391 -0.1210 -0.5095
 1557SOL    HW116133   0.062   4.119   4.013 -0.2182 -0.7824 -0.4003
 1557SOL    HW216134   0.148   4.177   3.912  1.2947 -1.7177  0.8551
 1558SOL     OW16135   0.971   0.920   7.201  0.3920  0.2171 -0.0332
 1558SOL    HW116136   0.978   0.982   7.274 -0.2959 -0.9627  1.0382
 1558SOL    HW216137   1.029   0.854   7.239  0.8715  0.4144 -0.4278
 1559SOL     OW16138   2.133   0.250   4.245 -0.4783  0.2034 -0.0712
 1559SOL    HW116139   2.134   0.302   4.325 -1.4018  0.7266 -0.3950
 1559SOL    HW216140   2.225   0.225   4.240  0.4014  2.4417  4.7546
 1560SOL     OW16141   2.691   3.238   5.132 -0.0415 -0.0703  0.2971
 1560SOL    HW116142   2.758   3.219   5.067 -2.5432  1.8596 -2.8733
 1560SOL    HW216143   2.631   3.172   5.097  1.0518 -1.0576  0.2920
 1561SOL     OW16144   0.868   1.637  11.243  0.3809 -0.1714 -0.4788
 1561SOL    HW116145   0.843   1.696  11.314  1.1407  2.6255 -2.5211
 1561SOL    HW216146   0.858   1.701  11.172 -1.5900 -0.3183 -0.3258
 1562SOL     OW16147   2.057   2.851   7.051 -0.0286 -0.1292 -0.0668
 1562SOL    HW116148   2.057   2.778   7.113 -2.2158  1.4688  1.8064
 1562SOL    HW216149   1.964   2.866   7.034  0.0021 -0.9672 -0.9873
 1563SOL     OW16150   2.303   4.642  16.807 -0.0555 -0.4253 -0.0311
 1563SOL    HW116151   2.240   4.628  16.878  2.2905 -0.9235  1.9659
 1563SOL    HW216152   2.387   4.643  16.854 -1.0533  1.2561  1.7124
 1564SOL     OW16153   1.056   1.060  15.611 -0.2464  0.1561 -0.0601
 1564SOL    HW116154   0.995   1.060  15.537 -0.0138 -0.9397 -0.2581
 1564SOL    HW216155   1.016   0.992  15.665 -1.0995 -0.5130 -1.5354
 1565SOL     OW16156   3.943   2.215   5.457  0.0449 -0.3588  0.2204
 1565SOL    HW116157   3.914   2.260   5.377  0.1770 -0.4840  0.1003
 1565SOL    HW216158   3.940   2.124   5.427 -3.4725  0.8131 -2.9493
 1566SOL     OW16159   4.558   1.865   5.238 -0.0558 -0.1641  0.2267
 1566SOL    HW116160   4.616   1.791   5.216  0.0673 -0.7152  2.4286
 1566SOL    HW216161   4.514   1.879   5.154  3.4584 -1.1060 -1.7875
 1567SOL     OW16162   3.925   3.184   4.141  1.0614 -0.1967  0.0289
 1567SOL    HW116163   3.920   3.133   4.060  0.0819 -0.5505  0.3133
 1567SOL    HW216164   3.902   3.119   4.207  0.4535 -1.5126 -1.4760
 1568SOL     OW16165   4.162   0.543   3.832 -0.0265  0.3099 -0.4845
 1568SOL    HW116166   4.165   0.606   3.760 -0.0659 -1.1908 -1.7984
 1568SOL    HW216167   4.073   0.509   3.821 -0.7832  1.9548  0.5279
 1569SOL     OW16168   2.822   4.698   5.629  0.7226 -0.0526 -0.2336
 1569SOL    HW116169   2.849   0.009   5.543  1.3699  0.5873  0.2296
 1569SOL    HW216170   2.901   4.647   5.649  0.0790 -1.1804 -0.5567
 1570SOL     OW16171   0.835   2.882   2.306  0.3170 -0.3646  0.0075
 1570SOL    HW116172   0.919   2.899   2.263  0.6676 -0.5512  0.6250
 1570SOL    HW216173   0.859   2.799   2.347 -2.1974 -2.1884 -2.2207
 1571SOL     OW16174   3.829   0.516   6.470 -0.2533  0.0967  0.5825
 1571SOL    HW116175   3.907   0.462   6.458 -0.3644 -0.1339  0.8966
 1571SOL    HW216176   3.853   0.608   6.457  0.8370  0.1800  3.2382
 1572SOL     OW16177   2.197   1.862   3.671  0.2455  0.6660 -0.0555
 1572SOL    HW116178   2.259   1.855   3.598 -0.0354 -2.4827  0.0163
 1572SOL    HW216179   2.175   1.955   3.669 -2.0614  0.0735 -2.0689
 1573SOL     OW16180   0.438   0.548   5.373 -0.3507  0.5569 -0.2571
 1573SOL    HW116181   0.380   0.622   5.394 -0.7252 -0.1093  1.0997
 1573SOL    HW216182   0.397   0.469   5.407  0.7239 -0.2613 -0.8755
 1574SOL     OW16183   0.455   1.453   4.021 -0.3135 -0.4641  0.2305
 1574SOL    HW116184   0.466   1.515   3.948  2.8499 -1.1967  0.0403
 1574SOL    HW216185   0.363   1.433   4.005 -0.2410 -2.3079  2.1937
 1575SOL     OW16186   1.046   0.568  10.922 -0.0146  0.0106 -0.4152
 1575SOL    HW116187   0.972   0.627  10.933 -1.0440 -1.3860  0.1621
 1575SOL    HW216188   1.034   0.501  10.989 -1.1659 -0.4913 -1.1349
 1576SOL     OW16189   1.496   1.965   3.525 -0.6266  0.2634  0.6615
 1576SOL    HW116190   1.427   1.916   3.480  0.9646  0.2118 -1.7059
 1576SOL    HW216191   1.504   2.037   3.462  0.7036 -0.5701 -0.1179
 1577SOL     OW16192   0.563   1.384   6.055 -0.3915 -0.4658  0.5748
 1577SOL    HW116193   0.639   1.367   6.111 -0.9920 -0.7139  1.3160
 1577SOL    HW216194   0.554   1.479   6.061 -1.5498 -0.6502  1.8496
 1578SOL     OW16195   1.787   2.163   4.513  0.5302  0.0418  0.6853
 1578SOL    HW116196   1.696   2.133   4.512  0.1996  1.0145  2.9718
 1578SOL    HW216197   1.781   2.250   4.471 -0.3439 -0.6566 -0.6620
 1579SOL     OW16198   0.165   3.700   5.284 -0.3091  0.6573 -0.0917
 1579SOL    HW116199   0.192   3.618   5.326  1.5597  1.2303 -0.1960
 1579SOL    HW216200   0.243   3.721   5.234 -0.6294 -0.5472 -1.1058
 1580SOL     OW16201   4.342   2.334   8.757 -0.5527  0.1658  0.4772
 1580SOL    HW116202   4.266   2.287   8.793 -0.0034 -1.6665 -0.7182
 1580SOL    HW216203   4.336   2.292   8.671  1.5589  1.0121 -0.0694
 1581SOL     OW16204   3.087   3.701   5.635 -0.3137 -0.0898  0.4880
 1581SOL    HW116205   3.109   3.720   5.726  0.0882  1.4370  0.0712
 1581SOL    HW216206   3.001   3.743   5.627 -0.1419  0.2489  0.4666
 1582SOL     OW16207   1.346   3.057   5.213  0.3660 -0.1534  0.3336
 1582SOL    HW116208   1.330   3.116   5.140  0.6210  2.0941  2.0799
 1582SOL    HW216209   1.271   2.997   5.208  0.5346 -0.5871  2.8426
 1583SOL     OW16210   0.674   3.500   5.685  0.1837 -0.3988  0.1446
 1583SOL    HW116211   0.761   3.477   5.654 -0.5006  1.2809 -2.9686
 1583SOL    HW216212   0.660   3.444   5.762 -0.6718 -0.5594 -0.1217
 1584SOL     OW16213   4.242   0.646   7.607  1.0833 -0.4306 -0.4969
 1584SOL    HW116214   4.321   0.599   7.631  0.5421 -1.1851 -0.1799
 1584SOL    HW216215   4.276   0.698   7.534  1.3070  1.3274  0.8568
 1585SOL     OW16216   3.641   1.843   9.425 -0.7590  0.5317  0.6725
 1585SOL    HW116217   3.650   1.793   9.344  0.1682  2.8772 -0.6687
 1585SOL    HW216218   3.691   1.791   9.489 -2.1303 -2.5713 -0.7641
 1586SOL     OW16219   1.225   0.209  13.395 -0.1041  0.5725  0.6708
 1586SOL    HW116220   1.174   0.159  13.458 -1.3760 -0.8724 -1.5364
 1586SOL    HW216221   1.231   0.293  13.440 -0.6370  0.5068  0.8587
 1587SOL     OW16222   0.169   2.735  11.042 -0.1371 -0.0091 -0.1136
 1587SOL    HW116223   0.260   2.711  11.059 -0.3001 -0.2058  0.4846
 1587SOL    HW216224   0.168   2.765  10.951 -0.1027  1.8853  0.5193
 1588SOL     OW16225   2.652   4.273   2.924  0.0857 -0.1125 -0.4051
 1588SOL    HW116226   2.604   4.350   2.954  0.8511 -1.0963  3.2900
 1588SOL    HW216227   2.651   4.274   2.828  0.4282  0.0834 -0.4060
 1589SOL     OW16228   3.596   4.001   6.164 -0.6074 -0.2548 -0.4376
 1589SOL    HW116229   3.662   4.022   6.098 -0.9829  1.0623 -0.3981
 1589SOL    HW216230   3.557   4.086   6.186  1.4817  0.3301  1.0200
 1590SOL     OW16231   2.904   3.392  17.115 -0.2758  0.1352 -0.4110
 1590SOL    HW116232   2.921   3.359  17.204  0.6077  0.6093 -0.4096
 1590SOL    HW216233   2.808   3.388  17.115 -0.2846  0.2825 -2.1508
 1591SOL     OW16234   1.052   1.754   3.773  0.3496 -0.2639 -0.2089
 1591SOL    HW116235   1.137   1.735   3.812  1.4600 -1.0897 -3.0665
 1591SOL    HW216236   1.059   1.848   3.759 -0.7351  0.1493  2.0236
 1592SOL     OW16237   3.247   0.636   0.509  0.3204  0.3798  0.0287
 1592SOL    HW116238   3.153   0.620   0.504  0.7640 -1.4114 -2.4345
 1592SOL    HW216239   3.264   0.638   0.603  1.0070  1.1989 -0.1084
 1593SOL     OW16240   3.420   2.343   5.516  0.2584 -0.5198  0.5098
 1593SOL    HW116241   3.422   2.401   5.440 -0.0101 -1.0257  0.1171
 1593SOL    HW216242   3.513   2.336   5.538  0.4805  1.7013  0.2026
 1594SOL     OW16243   4.240   4.382   9.019  0.5716  0.3953 -0.4652
 1594SOL    HW116244   4.202   4.339   9.096  0.0348 -0.6073 -1.2928
 1594SOL    HW216245   4.166   4.376   8.959  0.7835 -2.2868 -0.4475
 1595SOL     OW16246   1.350   1.392   8.516 -0.2260 -0.0254  0.1738
 1595SOL    HW116247   1.414   1.326   8.545 -1.2917 -0.8479  0.6267
 1595SOL    HW216248   1.299   1.397   8.597  0.4993  0.7695  0.5867
 1596SOL     OW16249   3.884   2.650   0.763 -0.4678  0.9932  0.3343
 1596SOL    HW116250   3.959   2.620   0.713  1.6039  2.1049  2.7250
 1596SOL    HW216251   3.929   2.702   0.830  0.9204 -0.9252  0.8809
 1597SOL     OW16252   4.135   0.530   6.751  0.8142  0.0667 -0.1696
 1597SOL    HW116253   4.119   0.550   6.659  0.3801  1.4900  0.2139
 1597SOL    HW216254   4.224   0.497   6.740  0.6998 -0.4528  0.4689
 1598SOL     OW16255   1.065   4.037   6.064 -0.0688  0.0380 -0.5604
 1598SOL    HW116256   1.126   3.975   6.104 -0.3551  1.3253  1.8687
 1598SOL    HW216257   1.039   4.081   6.144  2.6939  1.3081 -0.3525
 1599SOL     OW16258   2.056   0.599   6.134  0.3376  0.2037 -0.2131
 1599SOL    HW116259   2.096   0.678   6.168 -1.8203  0.7946  0.9580
 1599SOL    HW216260   2.123   0.538   6.164  3.2902  3.6978  0.2309
 1600SOL     OW16261   0.478   3.716   9.762 -0.5114 -0.1674  0.3413
 1600SOL    HW116262   0.563   3.693   9.724 -1.2723 -0.4665 -1.1720
 1600SOL    HW216263   0.427   3.737   9.684 -1.2372  0.8170  1.0817
 1601SOL     OW16264   2.285   4.545   4.822  0.4355 -0.1251 -0.0013
 1601SOL    HW116265   2.360   4.567   4.766  2.2543 -0.3642  2.2987
 1601SOL    HW216266   2.302   4.623   4.876 -0.0112  1.6687 -2.4632
 1602SOL     OW16267   1.732   1.876   9.029  1.0633 -0.4076 -0.4155
 1602SOL    HW116268   1.677   1.846   8.956 -0.5694 -2.1806  1.5118
 1602SOL    HW216269   1.813   1.826   9.023  2.2380  1.0205  3.4230
 1603SOL     OW16270   1.220   4.510  14.526 -0.0180  0.5243  0.0731
 1603SOL    HW116271   1.308   4.522  14.563 -0.2274  1.4581  0.2776
 1603SOL    HW216272   1.232   4.438  14.464  1.0592  0.5693  0.2354
 1604SOL     OW16273   4.319   2.573   4.054  0.0466  0.5229 -0.2510
 1604SOL    HW116274   4.385   2.589   3.987  1.4028 -1.3536  0.6400
 1604SOL    HW216275   4.359   2.513   4.116  0.7415  0.3447 -0.8725
 1605SOL     OW16276   1.400   0.553   4.487 -0.3050 -0.2747 -0.5293
 1605SOL    HW116277   1.314   0.595   4.497 -0.1060  0.4898 -2.0558
 1605SOL    HW216278   1.442   0.607   4.421 -0.9694  3.5628  2.1701
 1606SOL     OW16279   2.173   0.383   1.689  0.7696 -0.0760 -0.2362
 1606SOL    HW116280   2.172   0.375   1.594  0.8189  0.8408 -0.3120
 1606SOL    HW216281   2.079   0.376   1.709  1.1602 -0.9747  1.2685
 1607SOL     OW16282   3.609   0.794  16.235 -0.2827  0.1998 -0.5037
 1607SOL    HW116283   3.574   0.819  16.150  2.9973 -2.1098 -2.5353
 1607SOL    HW216284   3.523   0.764  16.264 -0.8227  1.6650 -0.5873
 1608SOL     OW16285   3.743   0.949   4.865  0.2907 -0.1441 -0.3038
 1608SOL    HW116286   3.749   0.997   4.783  1.7400  0.6917  0.2768
 1608SOL    HW216287   3.774   1.015   4.927  0.0233 -0.9654  0.7072
 1609SOL     OW16288   3.226   0.857   9.814 -0.4805  0.2104  0.2630
 1609SOL    HW116289   3.230   0.938   9.865  1.7761  0.1679  0.1655
 1609SOL    HW216290   3.162   0.809   9.866  0.2877 -1.5463 -0.4244
 1610SOL     OW16291   0.804   2.663   9.682 -0.0994  0.1154 -0.0236
 1610SOL    HW116292   0.770   2.606   9.750  3.5618 -0.5714  1.2264
 1610SOL    HW216293   0.723   2.696   9.642 -1.8134 -3.1577  0.7824
 1611SOL     OW16294   1.988   1.728  10.682 -0.0029 -1.0831 -0.0710
 1611SOL    HW116295   1.929   1.653  10.692 -2.5133  0.9071  0.1166
 1611SOL    HW216296   1.978   1.759  10.772  1.9447  0.4745 -0.4129
 1612SOL     OW16297   1.918   2.111   6.252 -0.0319 -0.0432 -0.5840
 1612SOL    HW116298   2.007   2.075   6.259 -0.4270 -0.8923  0.0239
 1612SOL    HW216299   1.942   2.196   6.216  0.8566 -0.3133 -0.6316
 1613SOL     OW16300   3.799   1.875  13.717 -0.5928  0.2422 -0.5346
 1613SOL    HW116301   3.726   1.821  13.747  0.7874 -0.7221  1.1048
 1613SOL    HW216302   3.798   1.957  13.768  0.9110 -1.5884  2.4745
 1614SOL     OW16303   1.325   3.368   2.251 -0.3598  0.4976  0.1994
 1614SOL    HW116304   1.261   3.439   2.260 -1.4019 -0.2766 -1.0990
 1614SOL    HW216305   1.272   3.288   2.252  0.0558  0.2032 -1.1908
 1615SOL     OW16306   1.205   2.708   7.751 -0.5289 -0.4784  0.5934
 1615SOL    HW116307   1.265   2.773   7.788  0.4046  0.0174 -1.8325
 1615SOL    HW216308   1.177   2.675   7.837 -0.0000 -1.6718  0.3166
 1616SOL     OW16309   2.085   2.308   6.173 -0.8062  0.1403 -0.3492
 1616SOL    HW116310   2.127   2.391   6.197  0.4614 -0.8657  0.8659
 1616SOL    HW216311   2.108   2.315   6.080  0.3820 -2.8383 -0.2781
 1617SOL     OW16312   0.285   1.883   8.539  0.2122 -0.0348  0.2424
 1617SOL    HW116313   0.327   1.969   8.530  0.0858 -0.1339 -1.3061
 1617SOL    HW216314   0.361   1.827   8.549  0.9186  0.8996  0.1517
 1618SOL     OW16315   4.570   2.664   5.105 -0.0546  0.3861  0.2348
 1618SOL    HW116316   4.540   2.693   5.191 -2.5085  0.3739 -0.6405
 1618SOL    HW216317   4.633   2.597   5.133 -1.5133 -0.9105  0.3956
 1619SOL     OW16318   3.478   0.855  15.486 -0.2216 -0.3027 -0.3605
 1619SOL    HW116319   3.500   0.876  15.577 -0.0411  0.3513 -0.5567
 1619SOL    HW216320   3.446   0.765  15.498  0.7890 -0.3039  2.4057
 1620SOL     OW16321   3.384   0.126  11.580 -0.2076  0.5368  0.4715
 1620SOL    HW116322   3.423   0.039  11.575 -0.5649  0.4225 -0.2756
 1620SOL    HW216323   3.305   0.115  11.528 -0.7939  0.9789  1.2644
 1621SOL     OW16324   3.828   3.051   6.938 -0.1311  0.3930 -0.2072
 1621SOL    HW116325   3.831   3.146   6.928  2.1332  0.1404 -2.1281
 1621SOL    HW216326   3.806   3.024   6.849 -0.2504  0.5009 -0.2102
 1622SOL     OW16327   4.302   1.803   8.370 -0.4096  0.2087  0.3864
 1622SOL    HW116328   4.304   1.843   8.457 -2.5968 -0.5657  0.8081
 1622SOL    HW216329   4.218   1.758   8.362  0.8739 -2.2612  0.8380
 1623SOL     OW16330   0.129   4.343   7.891 -0.1643  0.0720  0.1672
 1623SOL    HW116331   0.079   4.424   7.906  1.2965  1.6645 -3.3959
 1623SOL    HW216332   0.057   4.282   7.905 -0.9168  1.0041  0.4146
 1624SOL     OW16333   0.290   2.160   1.117 -0.1489 -0.0140  0.0497
 1624SOL    HW116334   0.313   2.253   1.110 -2.1687  0.4208 -0.7549
 1624SOL    HW216335   0.195   2.154   1.108 -0.4548  3.5229  0.7664
 1625SOL     OW16336   0.471   0.816   3.391 -0.8277  0.4827 -0.5443
 1625SOL    HW116337   0.539   0.824   3.458 -1.3046 -4.2302  0.4467
 1625SOL    HW216338   0.500   0.885   3.330 -0.3704  0.2578 -0.5755
 1626SOL     OW16339   0.966   3.384   7.870  0.2989 -0.3225 -0.6974
 1626SOL    HW116340   1.000   3.464   7.910  0.3418 -1.3308  1.3070
 1626SOL    HW216341   0.973   3.316   7.937  2.9077  1.7123  1.0901
 1627SOL     OW16342   2.057   0.835  16.485 -0.0426  0.0075  0.1627
 1627SOL    HW116343   2.025   0.897  16.419  0.4387  0.2636  0.1712
 1627SOL    HW216344   2.032   0.750  16.447 -2.2667  0.4161  0.6785
 1628SOL     OW16345   3.464   3.642   4.856 -0.5272 -0.0416 -0.8855
 1628SOL    HW116346   3.545   3.686   4.879  0.9395 -1.9020 -2.4705
 1628SOL    HW216347   3.419   3.637   4.940  0.6629  2.8040 -0.0927
 1629SOL     OW16348   3.111   3.448   0.408  0.3009 -0.4231 -0.1838
 1629SOL    HW116349   3.125   3.522   0.348 -0.3659 -0.3903 -0.3038
 1629SOL    HW216350   3.198   3.426   0.440  1.0105  0.6292 -1.3698
 1630SOL     OW16351   3.110   0.363  11.267  0.6785  0.1861  0.3962
 1630SOL    HW116352   3.142   0.450  11.293 -1.8407  1.5423 -1.0943
 1630SOL    HW216353   3.147   0.302  11.330 -3.3015 -1.5762  0.9954
 1631SOL     OW16354   1.558   0.425   7.750 -0.2345  0.1882  1.2952
 1631SOL    HW116355   1.567   0.330   7.738 -0.2454  0.2768  0.5446
 1631SOL    HW216356   1.569   0.456   7.660  2.6237  0.9724  1.9281
 1632SOL     OW16357   0.454   4.030   2.284  0.1234  0.1569 -0.4163
 1632SOL    HW116358   0.371   3.993   2.313  1.1136 -2.1927 -0.6101
 1632SOL    HW216359   0.515   3.972   2.329 -0.2305  0.7754  0.8487
 1633SOL     OW16360   1.608   1.139   8.988  0.3338  0.0284 -0.8809
 1633SOL    HW116361   1.669   1.073   9.020  2.0064  2.2682  0.5846
 1633SOL    HW216362   1.523   1.097   8.993 -0.2615  1.6360  2.3204
 1634SOL     OW16363   1.445   1.243   6.819  0.0467 -0.3665 -0.0544
 1634SOL    HW116364   1.484   1.307   6.760 -1.2057 -1.3552 -1.9856
 1634SOL    HW216365   1.351   1.260   6.820  0.2442  0.6686  0.5426
 1635SOL     OW16366   3.297   1.891   3.277  0.5817 -0.1517 -0.2297
 1635SOL    HW116367   3.346   1.971   3.293 -2.0027  0.9248  2.3915
 1635SOL    HW216368   3.271   1.904   3.186  0.6317 -0.0299 -0.2262
 1636SOL     OW16369   3.989   1.682  14.428 -0.0160  0.5140  0.2424
 1636SOL    HW116370   4.069   1.726  14.399 -0.5890  0.4245 -1.4982
 1636SOL    HW216371   4.009   1.589  14.414  0.1830  0.5272  0.4301
 1637SOL     OW16372   4.341   1.294   8.664  0.1075  0.4515  0.1953
 1637SOL    HW116373   4.334   1.213   8.714  0.9565  0.8722  1.0035
 1637SOL    HW216374   4.410   1.348   8.703  2.6442 -1.6514 -1.3667
 1638SOL     OW16375   1.101   4.143  16.730 -0.4573 -0.1052  0.2977
 1638SOL    HW116376   1.165   4.072  16.739  1.5604  1.4858 -1.4311
 1638SOL    HW216377   1.153   4.219  16.706 -1.4860 -0.0671 -1.8312
 1639SOL     OW16378   1.184   4.629   8.786  0.0304  0.0838 -0.4592
 1639SOL    HW116379   1.142   4.563   8.730 -1.6772  0.2215  0.6695
 1639SOL    HW216380   1.108   4.679   8.814  0.7259  0.3590  0.9258
 1640SOL     OW16381   0.512   1.733   8.598  0.1138  0.0389  0.3103
 1640SOL    HW116382   0.470   1.670   8.656 -1.3988 -1.8513 -2.7891
 1640SOL    HW216383   0.541   1.804   8.655 -0.5999 -0.5687  1.4110
 1641SOL     OW16384   4.031   0.718   1.147  0.2445  0.4944 -0.1070
 1641SOL    HW116385   3.946   0.682   1.120  0.7692 -1.3363  0.6606
 1641SOL    HW216386   4.006   0.810   1.139 -0.2573  0.4172  0.4998
 1642SOL     OW16387   0.816   1.188   9.044  0.7455 -0.8261  0.3167
 1642SOL    HW116388   0.886   1.174   8.982  1.2718  0.3900  0.6313
 1642SOL    HW216389   0.761   1.110   9.034  0.1216  0.0489 -2.8936
 1643SOL     OW16390   4.009   1.791   1.090  0.5051  0.5878 -0.4596
 1643SOL    HW116391   4.022   1.702   1.059 -0.2588 -0.0753  1.1283
 1643SOL    HW216392   3.968   1.822   1.009 -0.2940  0.2851 -0.1699
 1644SOL     OW16393   0.516   2.766   2.531  0.0368  0.5097  0.0409
 1644SOL    HW116394   0.596   2.793   2.576  1.0673 -2.6348  0.0779
 1644SOL    HW216395   0.456   2.821   2.581 -0.9249  1.9467 -2.7101
 1645SOL     OW16396   4.444   2.936  17.141  0.1100 -0.1880 -0.1725
 1645SOL    HW116397   4.466   2.893  17.058  1.4022 -0.7193  0.4513
 1645SOL    HW216398   4.473   2.867  17.200 -0.9386  0.4716  1.1124
 1646SOL     OW16399   0.370   0.025  12.464 -0.3326  0.0699  0.4395
 1646SOL    HW116400   0.281   4.719  12.482  0.8636 -4.6148 -1.4937
 1646SOL    HW216401   0.403   0.005  12.551  1.2239  1.2469  0.1088
 1647SOL     OW16402   2.114   2.693  13.708 -0.2097  0.5247  0.1838
 1647SOL    HW116403   2.101   2.617  13.650  3.1475  1.8347 -2.2656
 1647SOL    HW216404   2.031   2.737  13.691  0.4887  1.1946 -1.4855
 1648SOL     OW16405   3.113   0.676   7.611 -0.1847 -0.1030 -0.4674
 1648SOL    HW116406   3.138   0.761   7.575 -0.5030 -0.4569 -1.5293
 1648SOL    HW216407   3.132   0.694   7.703  0.3895 -2.0533 -0.2215
 1649SOL     OW16408   1.165   1.259   7.368 -0.1274 -0.7723  0.0412
 1649SOL    HW116409   1.093   1.196   7.361 -0.1642 -0.8814  1.5346
 1649SOL    HW216410   1.240   1.212   7.331  0.5905  0.5771 -0.2114
 1650SOL     OW16411   0.722   2.387   3.706 -0.1488 -0.0890  0.5746
 1650SOL    HW116412   0.756   2.299   3.693  0.6960  0.5671 -1.7508
 1650SOL    HW216413   0.798   2.445   3.705 -0.4373  0.2835  0.2095
 1651SOL     OW16414   1.625   2.766   6.361  0.0006 -0.6447  0.2334
 1651SOL    HW116415   1.689   2.822   6.405  0.5082 -0.2997 -0.9514
 1651SOL    HW216416   1.656   2.767   6.271 -1.0585 -1.9083 -0.1432
 1652SOL     OW16417   1.558   2.053   7.596 -0.0956 -0.1814 -0.1155
 1652SOL    HW116418   1.505   2.024   7.670 -0.7591  1.5648  0.0946
 1652SOL    HW216419   1.642   2.035   7.639 -1.9785 -0.2282  3.5614
 1653SOL     OW16420   2.120   2.130  10.785  0.8150 -0.4625 -0.0453
 1653SOL    HW116421   2.163   2.199  10.837 -1.2780  0.1455  0.8817
 1653SOL    HW216422   2.083   2.182  10.714  0.0845  0.5548  1.0612
 1654SOL     OW16423   2.789   3.397   3.052 -0.0491  0.0089  0.1610
 1654SOL    HW116424   2.703   3.438   3.069 -0.4439 -0.7271 -0.0727
 1654SOL    HW216425   2.794   3.349   3.135 -0.1698  0.8096  0.6374
 1655SOL     OW16426   1.715   4.299   4.321  0.1610  0.3388  0.1051
 1655SOL    HW116427   1.692   4.245   4.396 -0.2988 -2.8720 -2.3384
 1655SOL    HW216428   1.798   4.333   4.355  0.3874 -0.4909  0.3672
 1656SOL     OW16429   2.737   0.853   2.569 -0.2852  0.1546  0.2481
 1656SOL    HW116430   2.675   0.926   2.562 -2.0382 -1.6673 -3.0747
 1656SOL    HW216431   2.688   0.784   2.525  0.3646  0.7288 -1.3984
 1657SOL     OW16432   3.116   3.165   0.296  0.7641  0.2262  0.2173
 1657SOL    HW116433   3.046   3.225   0.320 -0.5960 -0.4196 -2.0990
 1657SOL    HW216434   3.062   3.097   0.256  2.4339  0.0429 -1.7338
 1658SOL     OW16435   4.524   4.516  15.454 -0.5786 -0.2003  0.1542
 1658SOL    HW116436   4.563   4.550  15.373  2.0411  1.7202  2.2060
 1658SOL    HW216437   4.522   4.588  15.516 -1.8223  0.2259 -0.3890
 1659SOL     OW16438   4.626   0.865  11.118 -0.1186 -0.0269 -0.2609
 1659SOL    HW116439   4.565   0.929  11.082 -0.6655 -0.1417  0.4676
 1659SOL    HW216440   4.651   0.825  11.035 -0.4401 -0.3408 -0.2088
 1660SOL     OW16441   1.524   2.851   8.218  0.3862  0.2259 -0.0950
 1660SOL    HW116442   1.608   2.839   8.262  0.8991  1.0189 -0.8505
 1660SOL    HW216443   1.550   2.862   8.126 -1.4440 -0.1275 -0.6597
 1661SOL     OW16444   4.130   4.643   8.815 -0.9198 -0.5214 -0.3087
 1661SOL    HW116445   4.194   4.633   8.885 -2.0037  0.5626  0.8479
 1661SOL    HW216446   4.174   4.599   8.743 -0.8421 -2.2069  0.7726
 1662SOL     OW16447   4.641   1.996   5.464  0.1418  0.5567  0.4337
 1662SOL    HW116448   4.613   1.951   5.384 -0.7532  3.6366 -0.9847
 1662SOL    HW216449   4.596   1.939   5.526 -0.3464  1.5246  0.9622
 1663SOL     OW16450   2.346   3.973   3.729 -0.2062 -0.4857 -0.0035
 1663SOL    HW116451   2.284   4.017   3.671  0.6411  0.0043 -0.5327
 1663SOL    HW216452   2.423   3.964   3.673 -0.1522  0.0861 -0.0180
 1664SOL     OW16453   3.419   4.371   6.713 -0.4782  0.4062 -0.1413
 1664SOL    HW116454   3.330   4.371   6.678 -0.0770  1.2348 -1.1552
 1664SOL    HW216455   3.414   4.438   6.781  2.0771 -0.6388  1.1036
 1665SOL     OW16456   0.877   3.497   2.829 -0.2204 -0.1326 -0.2861
 1665SOL    HW116457   0.851   3.491   2.921  0.8382 -0.5257 -0.0149
 1665SOL    HW216458   0.963   3.539   2.822  0.5690 -1.2394  2.5793
 1666SOL     OW16459   0.870   1.784   8.582  0.1646  0.9200  0.0223
 1666SOL    HW116460   0.910   1.737   8.656  0.5164  0.5379 -0.4111
 1666SOL    HW216461   0.783   1.809   8.612  0.3135  1.0905  0.3186
 1667SOL     OW16462   2.033   1.483   9.199  0.3603 -0.3822  0.3104
 1667SOL    HW116463   2.049   1.424   9.273  0.0732  0.2063  0.8388
 1667SOL    HW216464   2.086   1.432   9.138  0.3368 -0.4756  0.3683
 1668SOL     OW16465   1.096   2.112   7.808 -0.0630 -0.1657 -0.3944
 1668SOL    HW116466   1.098   2.153   7.894 -0.3095 -0.0663 -0.4369
 1668SOL    HW216467   1.068   2.022   7.825 -0.1555 -0.0780 -0.0866
 1669SOL     OW16468   0.918   4.195   2.653  0.3673  0.3142 -0.1417
 1669SOL    HW116469   0.891   4.194   2.561  1.2032 -0.9581 -0.3744
 1669SOL    HW216470   0.870   4.268   2.691 -2.6563 -1.3656 -0.7416
 1670SOL     OW16471   2.353   1.598   2.626 -0.2053 -0.1086  0.4454
 1670SOL    HW116472   2.341   1.625   2.717  1.2620  0.0556  0.5935
 1670SOL    HW216473   2.408   1.668   2.591  0.1536 -0.5813  0.0664
 1671SOL     OW16474   4.436   2.044   6.617  0.3116  0.1187 -0.5536
 1671SOL    HW116475   4.419   2.011   6.705 -2.6922 -0.5835 -1.4102
 1671SOL    HW216476   4.375   1.999   6.559  1.6860 -0.6927 -1.3867
 1672SOL     OW16477   3.836   4.611   2.818  0.0243 -0.2633 -0.2905
 1672SOL    HW116478   3.793   4.694   2.840  0.6812 -0.4999  1.8116
 1672SOL    HW216479   3.775   4.562   2.873 -1.1051  1.7754  0.2921
 1673SOL     OW16480   1.434   2.070   7.148  0.2655 -0.3643  0.2171
 1673SOL    HW116481   1.498   2.104   7.210 -1.1287  0.1508  1.3844
 1673SOL    HW216482   1.484   2.029   7.078 -1.1979 -0.8602 -0.5567
 1674SOL     OW16483   0.756   0.859   4.208 -0.2055  0.7699 -0.4063
 1674SOL    HW116484   0.748   0.908   4.126 -0.0604 -0.0670 -0.9177
 1674SOL    HW216485   0.707   0.918   4.265 -0.5103 -1.2330  1.3880
 1675SOL     OW16486   1.245   4.102   9.780  0.0530  0.3393 -0.2306
 1675SOL    HW116487   1.331   4.122   9.815 -0.2864  1.5909 -0.1205
 1675SOL    HW216488   1.251   4.008   9.763 -0.7573 -0.1045  1.9272
 1676SOL     OW16489   1.947   2.017   8.266  0.0689  0.4649  0.2485
 1676SOL    HW116490   1.911   2.103   8.243 -2.9553 -0.2694  2.2002
 1676SOL    HW216491   1.872   1.985   8.315 -0.5457  1.3842 -0.0770
 1677SOL     OW16492   0.882   0.334   0.683 -0.3578 -0.3373  0.4370
 1677SOL    HW116493   0.846   0.321   0.595  0.4380  0.2753  0.0267
 1677SOL    HW216494   0.852   0.255   0.728  1.0495 -0.3560  1.3189
 1678SOL     OW16495   1.694   0.540   7.960 -0.7763  0.6764  0.1819
 1678SOL    HW116496   1.674   0.479   8.031  2.6032 -1.1838 -0.4719
 1678SOL    HW216497   1.655   0.494   7.886 -1.9989  1.1931  0.4995
 1679SOL     OW16498   3.747   1.567   9.811 -0.1623 -0.1953  0.6445
 1679SOL    HW116499   3.664   1.521   9.796 -0.8443  1.6924 -1.5416
 1679SOL    HW216500   3.711   1.639   9.864 -2.1512 -1.1022  0.5558
 1680SOL     OW16501   4.290   0.509  11.475  0.4298 -0.3824 -0.3091
 1680SOL    HW116502   4.340   0.440  11.432  0.4720 -0.0831 -0.7473
 1680SOL    HW216503   4.201   0.482  11.453  0.3594 -0.4627  0.0756
 1681SOL     OW16504   3.714   1.267   5.954  0.4219  0.4437 -0.4509
 1681SOL    HW116505   3.636   1.222   5.920  0.5441 -1.0573  1.2753
 1681SOL    HW216506   3.754   1.200   6.009 -0.3271 -1.1178 -1.8190
 1682SOL     OW16507   2.033   2.059  13.350 -0.1542 -0.7296  0.4565
 1682SOL    HW116508   1.981   2.130  13.312 -0.2314 -1.4172 -0.7226
 1682SOL    HW216509   2.030   2.003  13.272  1.8628  0.5236 -0.5311
 1683SOL     OW16510   3.847   0.447  12.579  0.1505 -0.4340  0.4558
 1683SOL    HW116511   3.793   0.477  12.652 -4.2623 -1.6661 -2.3410
 1683SOL    HW216512   3.849   0.520  12.518  2.9136 -0.2796  0.7107
 1684SOL     OW16513   4.397   3.831   9.618  0.0582 -0.5023 -0.4638
 1684SOL    HW116514   4.302   3.838   9.610  0.3029  2.0556 -0.9080
 1684SOL    HW216515   4.439   3.897   9.674 -0.0610 -1.4192  0.7191
 1685SOL     OW16516   4.015   3.463   2.009  0.3184  0.1327 -0.2065
 1685SOL    HW116517   4.098   3.419   2.030  0.0486 -0.4919 -0.4553
 1685SOL    HW216518   4.008   3.530   2.077  0.8583 -2.5004  2.4747
 1686SOL     OW16519   0.359   1.348   2.482  0.2555  0.4268 -0.0967
 1686SOL    HW116520   0.449   1.377   2.469  0.4748 -0.2953 -0.1581
 1686SOL    HW216521   0.348   1.298   2.401 -1.7687  1.1011 -0.2538
 1687SOL     OW16522   4.045   0.742   2.070  0.2265 -0.2078  0.2968
 1687SOL    HW116523   3.967   0.753   2.125 -0.4984 -0.4044 -0.6918
 1687SOL    HW216524   4.003   0.785   1.995 -0.9137  0.1679  1.1476
 1688SOL     OW16525   3.125   2.193  15.832  0.1550  0.1257  0.9116
 1688SOL    HW116526   3.198   2.254  15.843  0.0931 -0.1214  2.5878
 1688SOL    HW216527   3.166   2.152  15.756 -2.2669 -1.8588  0.6821
 1689SOL     OW16528   2.367   0.260  10.751  0.0516 -0.0352  0.1373
 1689SOL    HW116529   2.347   0.210  10.831 -0.7066  4.4866  2.7715
 1689SOL    HW216530   2.409   0.190  10.701  0.2477 -1.4553  2.2508
 1690SOL     OW16531   4.240   0.479   5.230 -0.2647  0.2229 -0.5228
 1690SOL    HW116532   4.181   0.480   5.305  0.7247  0.9489  0.2457
 1690SOL    HW216533   4.177   0.476   5.157 -1.3483 -0.9241  0.4653
 1691SOL     OW16534   2.797   1.975   3.250 -0.0921 -0.4916 -0.2314
 1691SOL    HW116535   2.791   1.977   3.154 -1.1893  2.3751 -0.0932
 1691SOL    HW216536   2.712   2.013   3.271  0.5571  1.1423 -0.5790
 1692SOL     OW16537   3.076   4.662   3.614  0.4135 -0.1404  0.0757
 1692SOL    HW116538   3.163   4.625   3.623  0.2312 -0.1093  1.9593
 1692SOL    HW216539   3.034   4.606   3.549  0.0108  0.6764 -0.3845
 1693SOL     OW16540   4.125   1.081  10.431 -0.2546  0.0793  0.2991
 1693SOL    HW116541   4.201   1.096  10.489  0.1363  3.6045 -1.1426
 1693SOL    HW216542   4.084   1.010  10.481  0.4524  0.2972  1.2056
 1694SOL     OW16543   3.159   4.034   7.400 -0.6177  0.0200  0.3218
 1694SOL    HW116544   3.101   4.110   7.396  0.6857  1.0440  0.7820
 1694SOL    HW216545   3.170   4.022   7.306  4.1140  1.2038  0.7199
 1695SOL     OW16546   3.218   4.114   1.940 -0.0345  0.5950 -0.5740
 1695SOL    HW116547   3.259   4.028   1.934  0.1729  0.7966 -1.9800
 1695SOL    HW216548   3.140   4.127   1.886  0.2864  2.3666 -0.6273
 1696SOL     OW16549   2.699   3.873   9.218  0.3715  0.0968 -0.0152
 1696SOL    HW116550   2.781   3.852   9.263  0.4148  0.6561  0.1659
 1696SOL    HW216551   2.702   3.809   9.146  0.3554 -0.5398  0.5566
 1697SOL     OW16552   2.026   0.494   6.529  0.2189  0.1383  0.2461
 1697SOL    HW116553   2.101   0.489   6.470  0.2195  0.5141  0.2168
 1697SOL    HW216554   2.067   0.489   6.615  1.1462 -0.2396 -0.2231
 1698SOL     OW16555   1.072   4.284   9.304  0.0021 -0.1588  0.2137
 1698SOL    HW116556   1.119   4.261   9.384  0.3107 -0.0123  0.0741
 1698SOL    HW216557   1.065   4.378   9.323  0.9392  0.5068 -2.8453
 1699SOL     OW16558   3.496   1.560   7.490 -0.1048  0.0119  0.1100
 1699SOL    HW116559   3.449   1.571   7.573 -0.8459 -1.6829 -0.0993
 1699SOL    HW216560   3.491   1.650   7.458  0.2509 -0.6754 -1.8338
 1700SOL     OW16561   2.231   2.090   7.500  0.0543  0.1756  0.0350
 1700SOL    HW116562   2.294   2.129   7.439 -0.9710 -0.4017 -1.3961
 1700SOL    HW216563   2.257   1.999   7.509 -1.4461 -0.2389  0.2359
 1701SOL     OW16564   3.302   2.590   5.352  0.0664 -0.1774  0.5365
 1701SOL    HW116565   3.242   2.662   5.334  1.0133 -0.0579 -2.1031
 1701SOL    HW216566   3.299   2.594   5.448 -2.9821  2.8055  0.2914
 1702SOL     OW16567   2.005   3.090   6.634  0.3393 -0.0164 -0.1324
 1702SOL    HW116568   1.971   3.166   6.681 -0.4071 -0.2488 -0.2916
 1702SOL    HW216569   1.964   3.016   6.680  0.5955  1.2025  2.0592
 1703SOL     OW16570   0.331   2.385   1.877  0.1233 -0.5618  0.3679
 1703SOL    HW116571   0.328   2.476   1.848 -0.8327 -0.7596 -0.1578
 1703SOL    HW216572   0.378   2.345   1.804  0.4121 -0.8438  0.7047
 1704SOL     OW16573   3.468   0.811   0.521  0.1205 -0.4520  0.2316
 1704SOL    HW116574   3.377   0.784   0.523  0.0731 -0.3703 -1.2603
 1704SOL    HW216575   3.460   0.900   0.557  1.9006  0.2760 -1.1718
 1705SOL     OW16576   2.419   3.006  15.109 -0.2307  0.3091 -0.6499
 1705SOL    HW116577   2.477   2.930  15.105  0.2776  0.5343  1.9475
 1705SOL    HW216578   2.453   3.042  15.191  0.6106  0.2181 -0.9593
 1706SOL     OW16579   2.434   4.323   8.529 -0.5925  0.2556 -0.5234
 1706SOL    HW116580   2.481   4.396   8.569 -0.1903  0.3285 -1.1291
 1706SOL    HW216581   2.353   4.335   8.580  0.2234  0.6728  0.6750
 1707SOL     OW16582   0.179   3.818   1.961  0.6016 -0.2122 -0.5707
 1707SOL    HW116583   0.225   3.902   1.967 -1.1831  0.5255  2.4424
 1707SOL    HW216584   0.112   3.850   1.900 -0.9889  0.5268  1.5958
 1708SOL     OW16585   4.150   4.625   3.799 -0.1063  0.5885 -0.1013
 1708SOL    HW116586   4.089   4.692   3.832 -0.2217  0.0353  0.8024
 1708SOL    HW216587   4.218   4.625   3.865  1.5712  1.1203 -1.8199
 1709SOL     OW16588   0.225   1.804   4.438  0.5081 -0.0531  0.4316
 1709SOL    HW116589   0.233   1.790   4.533  0.3982 -1.6990  0.1979
 1709SOL    HW216590   0.131   1.820   4.434  0.2648 -1.6539 -0.2181
 1710SOL     OW16591   1.840   2.004   2.808  0.2350  0.1220 -0.3347
 1710SOL    HW116592   1.927   1.997   2.768  0.4132 -0.1632  0.1080
 1710SOL    HW216593   1.782   1.985   2.734  0.5944 -0.7548 -0.3948
 1711SOL     OW16594   4.516   3.070  13.949 -0.1728  0.2004  0.0640
 1711SOL    HW116595   4.541   3.162  13.939 -0.7416  0.2438 -0.9906
 1711SOL    HW216596   4.420   3.079  13.947 -0.1767 -0.1413 -1.2761
 1712SOL     OW16597   3.543   3.958   7.592 -0.3119 -0.3305  0.1223
 1712SOL    HW116598   3.609   3.999   7.648  1.3102 -1.9144 -0.6291
 1712SOL    HW216599   3.462   3.994   7.627 -0.9645  0.1643 -1.9097
 1713SOL     OW16600   0.630   0.973  16.416 -0.1304 -0.0332 -0.0649
 1713SOL    HW116601   0.552   1.022  16.392  1.0420  1.2220 -1.2441
 1713SOL    HW216602   0.652   0.924  16.337  0.7100  0.2603 -0.0048
 1714SOL     OW16603   0.843   0.939   2.285  0.3333  0.6759 -0.0384
 1714SOL    HW116604   0.904   0.906   2.351 -1.1858  1.2178  1.6322
 1714SOL    HW216605   0.860   0.880   2.212 -2.9275  0.6364 -0.7316
 1715SOL     OW16606   1.715   2.576   7.610 -0.0436  0.0098  0.2090
 1715SOL    HW116607   1.762   2.498   7.582 -0.3638  0.2332 -0.9751
 1715SOL    HW216608   1.773   2.642   7.572 -0.1441 -0.3984 -0.6491
 1716SOL     OW16609   0.033   3.244  13.716 -0.5094 -0.3353 -0.0486
 1716SOL    HW116610   0.090   3.320  13.705 -1.7815  0.6478  0.1732
 1716SOL    HW216611   4.690   3.271  13.779 -0.8034 -0.8067 -0.1540
 1717SOL     OW16612   3.372   2.947  11.502  0.2618 -0.0102 -0.4192
 1717SOL    HW116613   3.467   2.957  11.504  0.5725 -3.0273 -0.1379
 1717SOL    HW216614   3.345   2.924  11.591 -0.8576 -2.0594 -1.2777
 1718SOL     OW16615   2.514   1.585   7.333  0.2599 -0.7903 -0.2167
 1718SOL    HW116616   2.431   1.543   7.309 -0.9619  1.9854 -0.9049
 1718SOL    HW216617   2.583   1.540   7.286 -1.2913 -3.5790  0.1840
 1719SOL     OW16618   3.052   4.581  14.177 -0.2188  0.3450 -0.4581
 1719SOL    HW116619   2.981   4.631  14.217 -1.3384  0.7628 -2.9751
 1719SOL    HW216620   3.026   4.492  14.203 -2.8017  1.0487 -0.6339
 1720SOL     OW16621   0.469   2.334   5.771  0.2896  0.1553 -0.1521
 1720SOL    HW116622   0.528   2.294   5.835  2.1875 -0.5597 -2.3430
 1720SOL    HW216623   0.400   2.268   5.769 -1.3316  1.8801 -1.0884
 1721SOL     OW16624   0.698   3.382   4.748 -0.3739 -0.1188 -0.0641
 1721SOL    HW116625   0.655   3.323   4.686 -1.0989  0.9210 -0.5465
 1721SOL    HW216626   0.627   3.406   4.808  0.0851  1.7092 -0.2640
 1722SOL     OW16627   0.145   1.183  11.111  0.4210  0.3080 -0.4948
 1722SOL    HW116628   0.176   1.270  11.133 -1.0615  0.0134  2.8171
 1722SOL    HW216629   0.220   1.150  11.062 -0.5925 -1.6036 -0.7789
 1723SOL     OW16630   3.780   3.585   1.670  0.1218  0.0399 -0.7803
 1723SOL    HW116631   3.767   3.679   1.683  0.0615 -0.2344  1.1812
 1723SOL    HW216632   3.701   3.561   1.622 -0.1707  0.1915 -0.3750
 1724SOL     OW16633   1.350   1.318  11.563  0.0923 -0.1222  0.8860
 1724SOL    HW116634   1.391   1.404  11.566  2.7789 -1.3802  0.2525
 1724SOL    HW216635   1.366   1.284  11.651 -1.4111  1.1939  1.6694
 1725SOL     OW16636   0.007   0.779   6.917  0.1147  0.1327  0.1914
 1725SOL    HW116637   0.073   0.779   6.987  0.0798  2.1940  0.2232
 1725SOL    HW216638   4.670   0.844   6.954 -0.9028 -0.3402 -0.6844
 1726SOL     OW16639   2.924   1.708   6.469  0.3128 -0.1440  0.2627
 1726SOL    HW116640   2.833   1.680   6.459  0.8044 -1.5624 -0.3434
 1726SOL    HW216641   2.957   1.711   6.379  2.4317  1.3042  1.0801
 1727SOL     OW16642   3.688   0.072  12.508  0.1608  0.5529  0.2049
 1727SOL    HW116643   3.733   0.120  12.438 -1.7648  0.0439 -1.3573
 1727SOL    HW216644   3.664   4.719  12.457 -1.3624  0.2254  1.4160
 1728SOL     OW16645   0.970   4.336  10.151 -0.0637 -0.3799  0.0389
 1728SOL    HW116646   0.947   4.256  10.104 -3.3900  0.3541  0.3876
 1728SOL    HW216647   1.063   4.318  10.160 -0.3591 -1.9821 -0.1362
 1729SOL     OW16648   4.091   4.457   2.205  0.3424 -0.6102 -0.0842
 1729SOL    HW116649   4.009   4.473   2.157  0.1763 -3.3063 -0.7018
 1729SOL    HW216650   4.146   4.413   2.140 -0.7355 -0.8548 -0.8479
 1730SOL     OW16651   2.344   4.117   8.326  0.4198 -0.3804  0.1706
 1730SOL    HW116652   2.347   4.060   8.403 -0.6119 -2.5514 -1.3949
 1730SOL    HW216653   2.375   4.195   8.373 -0.9278  1.7274 -2.4291
 1731SOL     OW16654   1.863   1.598   3.863  0.1732  0.0228 -0.0882
 1731SOL    HW116655   1.901   1.567   3.946  0.0553  1.6544  0.5665
 1731SOL    HW216656   1.915   1.678   3.853 -1.2260  1.0736  1.0697
 1732SOL     OW16657   2.513   3.681   9.801 -0.1152 -0.2773 -0.1263
 1732SOL    HW116658   2.504   3.647   9.890  0.1749  2.4795  0.9619
 1732SOL    HW216659   2.543   3.604   9.754  2.1861  1.6865 -1.8534
 1733SOL     OW16660   4.215   1.281   0.442 -0.2913 -0.0890  0.0979
 1733SOL    HW116661   4.234   1.188   0.429  2.6914  0.4256  0.8872
 1733SOL    HW216662   4.301   1.319   0.459 -1.4067  2.6344 -0.3033
 1734SOL     OW16663   3.909   3.578   9.063  0.1689 -0.0057  0.7762
 1734SOL    HW116664   3.973   3.638   9.024 -1.5889 -0.4126 -2.7791
 1734SOL    HW216665   3.826   3.621   9.043  0.3272  0.8990  2.0635
 1735SOL     OW16666   1.028   1.558  13.169  0.1082 -0.3415  0.2358
 1735SOL    HW116667   1.094   1.492  13.146 -1.7055 -2.2690  0.6401
 1735SOL    HW216668   1.079   1.593  13.242  1.2692  1.5940 -1.4970
 1736SOL     OW16669   1.488   4.423  16.830 -0.6706 -0.8514  0.0384
 1736SOL    HW116670   1.530   4.506  16.808 -2.9273  0.6365  1.3453
 1736SOL    HW216671   1.560   4.374  16.872  0.9872  2.0673  0.5887
 1737SOL     OW16672   2.189   1.118   3.074  0.2201 -0.4905  0.5700
 1737SOL    HW116673   2.274   1.122   3.030 -0.6488 -1.0716 -1.1775
 1737SOL    HW216674   2.129   1.145   3.004 -1.6230 -0.7113  2.0610
 1738SOL     OW16675   4.519   1.198   5.029 -0.0769  0.4131  0.2652
 1738SOL    HW116676   4.465   1.122   5.051  1.5354 -0.3841  1.5081
 1738SOL    HW216677   4.582   1.200   5.101 -2.0007 -0.7053  1.9528
 1739SOL     OW16678   3.825   0.395   3.167  0.0252 -0.5154  0.0815
 1739SOL    HW116679   3.813   0.487   3.143 -1.7732 -0.5607  0.8301
 1739SOL    HW216680   3.746   0.378   3.219  0.0070  1.0149  0.5707
 1740SOL     OW16681   1.294   4.231   7.056 -0.3261  0.5636 -0.1158
 1740SOL    HW116682   1.325   4.225   7.147 -3.3131  1.2703  0.9376
 1740SOL    HW216683   1.248   4.314   7.068 -2.2318 -0.0868 -2.9829
 1741SOL     OW16684   2.854   2.939   7.095  0.5313 -0.7722  0.1948
 1741SOL    HW116685   2.821   2.881   7.026 -1.7014  1.5054 -0.6644
 1741SOL    HW216686   2.893   3.008   7.041  1.5250 -0.3065  1.5304
 1742SOL     OW16687   3.829   0.679   8.178  0.7319  0.0588 -0.0140
 1742SOL    HW116688   3.796   0.744   8.116  0.9157  0.6450  0.5111
 1742SOL    HW216689   3.746   0.657   8.221  1.6538 -0.0705  1.6884
 1743SOL     OW16690   3.737   3.627  14.668  0.0462  0.4991  0.2773
 1743SOL    HW116691   3.687   3.545  14.667  0.2946  0.3709 -1.2073
 1743SOL    HW216692   3.770   3.639  14.579  2.5039 -4.5161  0.5266
 1744SOL     OW16693   1.163   3.999   1.546 -0.0077  0.1898 -0.0993
 1744SOL    HW116694   1.217   4.041   1.479 -0.5811 -0.0300 -0.7062
 1744SOL    HW216695   1.231   3.965   1.603 -0.4570  1.6978  1.3446
 1745SOL     OW16696   0.180   3.879   4.769 -0.1760 -0.5702 -0.0208
 1745SOL    HW116697   0.255   3.936   4.785  1.0774 -1.2567 -3.3583
 1745SOL    HW216698   0.116   3.901   4.837 -0.3299  2.4051 -1.1455
 1746SOL     OW16699   1.827   2.937   6.757 -0.0367 -0.3790  0.3122
 1746SOL    HW116700   1.751   2.906   6.707  0.0376  0.4659 -0.3384
 1746SOL    HW216701   1.775   2.981   6.824  0.8155  0.8667  0.1637
 1747SOL     OW16702   1.267   4.309   2.752 -0.1816  0.8286 -0.2224
 1747SOL    HW116703   1.262   4.290   2.846 -2.8005  1.0659 -0.3152
 1747SOL    HW216704   1.254   4.403   2.759  2.3083  1.1708 -0.4994
 1748SOL     OW16705   4.007   2.105   0.966  0.2932 -0.9494  0.2857
 1748SOL    HW116706   3.936   2.136   1.023  1.6016  1.4458  0.6327
 1748SOL    HW216707   3.969   2.022   0.937 -0.7705  0.0168 -1.0510
 1749SOL     OW16708   3.871   4.065  16.482 -0.2287  0.1594 -0.1146
 1749SOL    HW116709   3.854   3.980  16.443 -0.5205 -0.5687  1.6083
 1749SOL    HW216710   3.897   4.045  16.571 -1.3020 -0.4221  0.0697
 1750SOL     OW16711   4.550   1.250  17.203 -0.5572  0.2271 -0.8229
 1750SOL    HW116712   4.617   1.182  17.202 -0.9024 -0.1105 -1.2425
 1750SOL    HW216713   4.574   1.297  17.283 -0.7245  0.6639 -1.0292
 1751SOL     OW16714   3.251   0.425   2.094 -0.1828  0.3977  0.5420
 1751SOL    HW116715   3.198   0.443   2.172  2.0417  0.0715  2.1468
 1751SOL    HW216716   3.277   0.505   2.047  0.1237 -0.6949 -1.1532
 1752SOL     OW16717   0.528   3.108   9.191  0.1993  0.1838 -0.0162
 1752SOL    HW116718   0.541   3.150   9.276  1.4723 -2.3498  1.0674
 1752SOL    HW216719   0.511   3.017   9.214  0.2832  0.6514  1.8904
 1753SOL     OW16720   1.085   4.275   4.967  0.8360  0.0158  0.3523
 1753SOL    HW116721   1.094   4.232   5.052  0.5079 -1.2115 -0.2337
 1753SOL    HW216722   1.163   4.330   4.973  0.8578 -0.4151  4.0705
 1754SOL     OW16723   3.035   4.283   0.313  0.0260 -0.0544 -0.0161
 1754SOL    HW116724   3.010   4.344   0.383 -0.5137 -1.6474  1.1815
 1754SOL    HW216725   3.034   4.342   0.238  2.9771  0.1829  0.1288
 1755SOL     OW16726   3.710   1.371   3.978 -0.3808  0.1742 -0.6517
 1755SOL    HW116727   3.728   1.445   3.920  2.7314  0.1067  0.1886
 1755SOL    HW216728   3.710   1.300   3.914 -2.4734  0.3581 -0.8408
 1756SOL     OW16729   3.118   3.957  14.698  0.1400 -0.3577 -0.5508
 1756SOL    HW116730   3.044   4.017  14.685  1.7721  1.1598 -2.8065
 1756SOL    HW216731   3.171   3.993  14.769 -0.8852 -0.3602  0.2065
 1757SOL     OW16732   2.368   2.162   3.686 -0.3310 -0.4949 -0.4399
 1757SOL    HW116733   2.461   2.181   3.673 -0.4375 -0.2068 -0.7834
 1757SOL    HW216734   2.337   2.188   3.600 -3.6651 -0.0242  0.9307
 1758SOL     OW16735   0.350   2.047   2.957  0.2057 -0.2262  0.2264
 1758SOL    HW116736   0.421   1.983   2.961  1.3339  1.0782  1.2209
 1758SOL    HW216737   0.328   2.056   3.050 -1.5788  2.0443 -0.4181
 1759SOL     OW16738   0.639   0.565   8.236 -0.1566  0.4993 -0.1962
 1759SOL    HW116739   0.565   0.546   8.177  0.2497 -1.0729 -0.1930
 1759SOL    HW216740   0.681   0.480   8.242 -0.9038  0.1656  0.2989
 1760SOL     OW16741   1.326   1.053  15.609  0.1695  0.0489  0.3646
 1760SOL    HW116742   1.329   1.129  15.550  0.0419  0.1211  0.4522
 1760SOL    HW216743   1.232   1.045  15.623  0.1474 -0.6706 -0.2443
 1761SOL     OW16744   2.813   3.973   6.448 -0.2795  0.4608 -0.0161
 1761SOL    HW116745   2.788   3.954   6.538  2.9317 -0.7821  0.6151
 1761SOL    HW216746   2.734   3.936   6.408  0.8737 -1.3913 -0.5695
 1762SOL     OW16747   3.981   3.743   0.641  0.3007  0.4926  0.3901
 1762SOL    HW116748   3.894   3.755   0.680  0.7366  0.6439  1.3191
 1762SOL    HW216749   4.031   3.693   0.706 -1.8446  0.1914  1.8220
 1763SOL     OW16750   1.090   0.260   4.044 -0.1346  0.3041 -0.5555
 1763SOL    HW116751   1.149   0.244   3.971 -0.4019  0.6726 -0.8501
 1763SOL    HW216752   1.100   0.354   4.060 -0.8185  0.5029 -1.3043
 1764SOL     OW16753   0.229   1.829   6.432 -0.0013 -0.8074 -0.0205
 1764SOL    HW116754   0.176   1.767   6.382  1.8458 -1.9651 -0.5212
 1764SOL    HW216755   0.298   1.845   6.367 -1.8601  0.9774 -1.5625
 1765SOL     OW16756   4.105   3.011   2.333 -0.4381  0.1973 -0.4825
 1765SOL    HW116757   4.104   3.084   2.394  0.0591 -2.5124  2.7807
 1765SOL    HW216758   4.011   3.008   2.315 -0.6454  0.9107  0.5017
 1766SOL     OW16759   3.220   3.054   6.340 -0.0237  0.0662 -0.3216
 1766SOL    HW116760   3.275   3.125   6.308  0.8213  0.2121  1.4923
 1766SOL    HW216761   3.136   3.097   6.351 -0.8109 -1.2870 -1.0280
 1767SOL     OW16762   1.673   0.779  16.392 -0.1137 -0.1304  0.0808
 1767SOL    HW116763   1.756   0.793  16.437 -0.5105  0.6343  0.5890
 1767SOL    HW216764   1.706   0.709  16.336 -3.9449 -1.9448  0.0971
 1768SOL     OW16765   3.742   3.563   2.921  0.4324  0.2306  0.4435
 1768SOL    HW116766   3.792   3.542   2.842  0.1351  0.3398  0.2241
 1768SOL    HW216767   3.740   3.478   2.964 -0.9664 -0.8923 -1.8356
 1769SOL     OW16768   2.765   2.621  11.612  0.3405 -0.1940  0.0821
 1769SOL    HW116769   2.748   2.665  11.695  1.4593 -0.3795  0.4041
 1769SOL    HW216770   2.684   2.628  11.562 -0.8811 -0.6447  2.0003
 1770SOL     OW16771   0.463   3.560   4.571 -0.1658 -0.8263  0.2015
 1770SOL    HW116772   0.416   3.561   4.654  0.2580  0.4879  0.4225
 1770SOL    HW216773   0.406   3.495   4.530 -2.2562  0.8682  0.4143
 1771SOL     OW16774   3.411   3.266   3.566  0.2703 -0.2498 -0.0173
 1771SOL    HW116775   3.353   3.262   3.490  1.6781 -1.1022 -1.0496
 1771SOL    HW216776   3.494   3.234   3.529 -0.2796 -1.7681  0.0739
 1772SOL     OW16777   1.483   3.645  14.069 -0.4642  0.1237 -0.1767
 1772SOL    HW116778   1.483   3.551  14.087  1.6143 -0.1707 -1.7649
 1772SOL    HW216779   1.527   3.670  14.150 -0.9958  1.6130 -0.3505
 1773SOL     OW16780   0.162   0.455   6.977 -0.2252  0.1252 -0.1167
 1773SOL    HW116781   0.219   0.413   7.042  0.1186 -1.2823 -1.3205
 1773SOL    HW216782   0.206   0.538   6.957  0.6919 -0.4857 -0.6370
 1774SOL     OW16783   0.664   2.113  15.774  0.5620 -0.4462  0.4497
 1774SOL    HW116784   0.721   2.188  15.757  0.6631 -0.5908  0.1400
 1774SOL    HW216785   0.722   2.040  15.752  0.2017 -0.7179  0.3984
 1775SOL     OW16786   0.661   2.412   8.423  0.4405  0.0562 -0.4440
 1775SOL    HW116787   0.645   2.363   8.342 -0.4512 -3.0647  1.6035
 1775SOL    HW216788   0.696   2.492   8.384  1.9579 -0.3028  0.1558
 1776SOL     OW16789   0.690   0.322   4.429  0.7428 -0.2873  0.1767
 1776SOL    HW116790   0.613   0.285   4.386 -0.5099  0.3255  1.8667
 1776SOL    HW216791   0.712   0.396   4.372  0.6396  0.8783  1.6397
 1777SOL     OW16792   0.852   0.110   8.248 -0.0079  0.6865  0.2731
 1777SOL    HW116793   0.803   0.028   8.246  0.2182  0.5323  0.8627
 1777SOL    HW216794   0.810   0.147   8.326 -0.0144 -0.3766  0.7734
 1778SOL     OW16795   1.825   1.611  15.039 -0.1729 -0.4658 -0.3925
 1778SOL    HW116796   1.780   1.661  15.106  2.2014 -1.1244  1.6742
 1778SOL    HW216797   1.846   1.674  14.970  1.4068 -1.8181 -1.1534
 1779SOL     OW16798   3.309   0.941  10.921  0.5833  0.7153  0.8631
 1779SOL    HW116799   3.282   1.033  10.924 -2.7928 -0.2524  0.8909
 1779SOL    HW216800   3.356   0.933  10.838 -1.0472  0.2085 -0.0096
 1780SOL     OW16801   1.423   3.519   7.288 -0.1940 -0.3205 -0.0601
 1780SOL    HW116802   1.415   3.602   7.241 -0.2380 -0.7611 -0.8318
 1780SOL    HW216803   1.488   3.474   7.233 -0.5263  1.2470 -1.7058
 1781SOL     OW16804   1.345   4.096  15.931 -1.0308 -0.0666  0.7626
 1781SOL    HW116805   1.341   4.028  15.999  1.7979 -0.0638  0.9399
 1781SOL    HW216806   1.409   4.158  15.967  0.0121 -0.5006 -0.3260
 1782SOL     OW16807   3.448   3.377   9.325 -0.3152 -0.6670 -0.4607
 1782SOL    HW116808   3.388   3.409   9.391 -0.1124 -0.3538 -0.4288
 1782SOL    HW216809   3.402   3.305   9.281  0.0031 -0.3658 -1.2900
 1783SOL     OW16810   0.951   2.541  11.442  0.5657  0.1093  0.2298
 1783SOL    HW116811   0.891   2.541  11.367  1.5551 -0.2185 -0.5575
 1783SOL    HW216812   1.008   2.471  11.411  1.7751  0.2587  2.1027
 1784SOL     OW16813   1.425   4.226   7.307 -0.1202 -0.2914 -0.0897
 1784SOL    HW116814   1.507   4.202   7.265 -0.6316 -0.7343 -0.8263
 1784SOL    HW216815   1.454   4.232   7.398 -1.0835 -0.9064  0.2567
 1785SOL     OW16816   3.763   2.060  15.183 -0.2445  0.3188 -0.2894
 1785SOL    HW116817   3.847   2.102  15.203 -0.1928 -0.0413  0.2543
 1785SOL    HW216818   3.731   2.047  15.273  2.6342  2.1356  1.0076
 1786SOL     OW16819   1.601   1.049  17.624 -0.5041  0.0557  0.2022
 1786SOL    HW116820   1.534   1.026  17.560 -1.2909 -1.1577  1.4682
 1786SOL    HW216821   1.594   1.143  17.610 -0.5838  0.4029  2.5843
 1787SOL     OW16822   4.364   3.003   7.784 -0.4219 -0.6506 -0.0997
 1787SOL    HW116823   4.358   2.912   7.756 -2.5507 -0.1778 -1.1934
 1787SOL    HW216824   4.411   2.994   7.867  0.2328 -0.5386 -0.4578
 1788SOL     OW16825   0.351   0.861   7.474  0.3822  0.1362  0.1938
 1788SOL    HW116826   0.271   0.862   7.420  1.1438 -0.1581 -0.9391
 1788SOL    HW216827   0.368   0.952   7.498 -0.0302  0.0489  0.8093
 1789SOL     OW16828   3.185   3.051  17.415 -0.1092 -0.7391  0.2739
 1789SOL    HW116829   3.274   3.084  17.402 -0.1371 -0.6144  0.4046
 1789SOL    HW216830   3.187   3.064  17.510 -1.4622 -1.3456  0.3815
 1790SOL     OW16831   4.291   3.597   8.965  0.5862 -0.3520  0.0946
 1790SOL    HW116832   4.317   3.639   9.047  1.0205 -0.1691 -0.1390
 1790SOL    HW216833   4.377   3.560   8.945  0.6860  0.3881 -0.8242
 1791SOL     OW16834   1.056   4.255  10.922  0.1642 -0.4987  0.3783
 1791SOL    HW116835   0.978   4.208  10.892  0.0072  0.2645 -0.4193
 1791SOL    HW216836   1.098   4.271  10.837  0.6105  3.1152  1.2963
 1792SOL     OW16837   4.349   3.510   5.154  0.1754 -0.2814  0.4565
 1792SOL    HW116838   4.254   3.511   5.154  0.1896  0.9773  0.7107
 1792SOL    HW216839   4.362   3.569   5.228 -0.3123  0.5628 -0.1366
 1793SOL     OW16840   0.525   1.001   8.168  0.3142  0.2885  0.4752
 1793SOL    HW116841   0.514   0.987   8.074  0.5470  1.6871  0.2399
 1793SOL    HW216842   0.499   1.092   8.179  0.1732  0.0538  2.1427
 1794SOL     OW16843   3.254   3.035  15.568  0.2690 -0.1759 -0.1123
 1794SOL    HW116844   3.339   3.073  15.590  0.8535 -1.2013 -0.5692
 1794SOL    HW216845   3.282   2.972  15.501 -1.4165 -1.5444  0.4545
 1795SOL     OW16846   2.651   2.012   3.591 -0.2482 -0.1975  0.0121
 1795SOL    HW116847   2.712   2.052   3.528 -0.5669 -0.8196 -0.7000
 1795SOL    HW216848   2.658   2.086   3.651 -0.0852 -0.1717 -0.0382
 1796SOL     OW16849   0.113   2.688   9.416 -0.4680  0.2954  0.6342
 1796SOL    HW116850   0.101   2.596   9.394 -0.2423  0.2997  0.4956
 1796SOL    HW216851   0.042   2.696   9.480 -1.9498  0.2139 -0.9845
 1797SOL     OW16852   3.722   3.754   4.949 -0.0320  0.6845  0.4801
 1797SOL    HW116853   3.683   3.806   5.019 -2.7893  1.0300 -1.3277
 1797SOL    HW216854   3.801   3.801   4.924  0.7054  0.3026  2.0697
 1798SOL     OW16855   4.296   2.366   9.116  0.8480  0.8777 -0.0894
 1798SOL    HW116856   4.257   2.338   9.199 -1.1716  1.1577 -0.9406
 1798SOL    HW216857   4.239   2.326   9.050 -0.1766 -0.1875  1.4505
 1799SOL     OW16858   0.001   2.589  10.439  0.3899  0.5625 -0.6961
 1799SOL    HW116859   0.073   2.527  10.427 -1.2069 -1.5137  0.4348
 1799SOL    HW216860   4.714   2.601  10.533  3.2510  0.5372 -0.3448
 1800SOL     OW16861   3.170   0.695   3.700 -0.1806  0.2805 -0.1674
 1800SOL    HW116862   3.177   0.790   3.693  0.0939  0.1740 -1.3771
 1800SOL    HW216863   3.156   0.671   3.609 -1.9557 -0.0128  0.1773
 1801SOL     OW16864   3.436   1.405  14.153  0.0655 -0.3536  0.4665
 1801SOL    HW116865   3.438   1.356  14.071  0.8328  1.0277 -0.3341
 1801SOL    HW216866   3.493   1.479  14.135 -0.9071  0.1800 -0.3468
 1802SOL     OW16867   3.578   1.953   0.938 -0.4455 -1.3719  0.6393
 1802SOL    HW116868   3.502   1.898   0.917 -1.1540 -0.0218 -0.3506
 1802SOL    HW216869   3.603   1.935   1.028 -1.0923 -2.8143  0.5262
 1803SOL     OW16870   4.388   3.971  15.461 -0.2557 -0.4108 -0.3487
 1803SOL    HW116871   4.474   3.934  15.479 -0.4764 -1.2170 -0.9778
 1803SOL    HW216872   4.328   3.924  15.519  0.7268 -1.8395 -0.5169
 1804SOL     OW16873   3.020   4.374   2.539 -0.2162  0.2840  0.0372
 1804SOL    HW116874   3.086   4.435   2.504 -1.5720  1.7603  0.0522
 1804SOL    HW216875   2.983   4.432   2.605 -1.6098 -0.3477 -0.1970
 1805SOL     OW16876   0.575   2.297   6.393  0.4062 -0.7014  0.6379
 1805SOL    HW116877   0.643   2.363   6.376  0.4448 -1.0420 -0.5155
 1805SOL    HW216878   0.495   2.339   6.362 -0.6518 -1.3133  2.5608
 1806SOL     OW16879   0.469   2.306   0.800 -0.6979  0.4803 -0.4905
 1806SOL    HW116880   0.388   2.256   0.810  0.7086 -1.9947 -1.2778
 1806SOL    HW216881   0.456   2.391   0.843 -2.1061  0.0882 -0.1597
 1807SOL     OW16882   2.019   2.845   3.261  0.1267 -0.3307  0.0010
 1807SOL    HW116883   2.025   2.927   3.310  0.5846  0.0179 -0.6319
 1807SOL    HW216884   1.924   2.840   3.258  0.0502 -0.4892  3.4116
 1808SOL     OW16885   4.582   1.499   9.932  0.3362 -0.0856  0.4118
 1808SOL    HW116886   4.581   1.576   9.989  1.0649  0.1512  0.0908
 1808SOL    HW216887   4.551   1.441  10.002 -0.4691 -1.2618 -0.9069
 1809SOL     OW16888   3.831   3.497   5.773 -0.2996 -0.2029 -0.0749
 1809SOL    HW116889   3.737   3.489   5.790  0.0228 -2.5245  0.6115
 1809SOL    HW216890   3.842   3.419   5.719  0.0783 -0.8270  0.9081
 1810SOL     OW16891   0.858   0.125  10.156  0.1579 -0.1859  0.9637
 1810SOL    HW116892   0.927   0.190  10.141  1.3713 -0.7549  4.0483
 1810SOL    HW216893   0.897   0.038  10.143  0.5317  0.4789 -2.3590
 1811SOL     OW16894   1.239   4.335  17.550  0.0284  0.0904  0.4399
 1811SOL    HW116895   1.144   4.342  17.551  0.0537  0.6122 -0.1502
 1811SOL    HW216896   1.243   4.315  17.457 -0.4560  0.0039  0.4381
 1812SOL     OW16897   0.834   1.982   5.574 -0.1438  0.0786 -0.1338
 1812SOL    HW116898   0.817   1.940   5.658 -1.0197  1.0079  0.1560
 1812SOL    HW216899   0.917   2.027   5.584 -2.1512  3.4839  1.1873
 1813SOL     OW16900   3.237   0.585   8.562 -0.1315 -0.2824  0.2698
 1813SOL    HW116901   3.176   0.513   8.575  1.1078 -1.2347  0.8282
 1813SOL    HW216902   3.314   0.542   8.600  0.5374 -1.4932 -2.4636
 1814SOL     OW16903   3.507   4.324   7.423  0.2948  0.2113  0.0995
 1814SOL    HW116904   3.485   4.401   7.371  4.0195  1.3054  0.1535
 1814SOL    HW216905   3.427   4.312   7.474 -0.5762  0.5152 -1.2049
 1815SOL     OW16906   1.698   2.211   5.172  0.3235  0.1581  0.6314
 1815SOL    HW116907   1.753   2.143   5.210 -0.9266 -0.8041  0.7259
 1815SOL    HW216908   1.691   2.275   5.243  1.9665 -1.2295  2.0410
 1816SOL     OW16909   3.573   3.961   4.651  0.4372  0.1567 -0.1298
 1816SOL    HW116910   3.651   3.928   4.607  0.3471  1.6224 -1.3553
 1816SOL    HW216911   3.533   3.875   4.664  1.4197 -0.4407 -1.1062
 1817SOL     OW16912   0.705   4.067  13.656 -0.8501 -0.1610  0.1026
 1817SOL    HW116913   0.731   4.142  13.602 -1.1437  0.9835  1.5524
 1817SOL    HW216914   0.779   4.054  13.715 -0.8347 -2.6025 -0.4504
 1818SOL     OW16915   3.136   3.191   8.783 -0.2689  0.0096  0.0641
 1818SOL    HW116916   3.203   3.135   8.744  0.5060  2.6615 -2.3848
 1818SOL    HW216917   3.184   3.259   8.829 -0.0360 -0.7006  0.8674
 1819SOL     OW16918   3.681   0.537   1.359 -0.1180  0.3691 -0.1028
 1819SOL    HW116919   3.737   0.482   1.413 -1.1272  0.2181  0.8160
 1819SOL    HW216920   3.595   0.502   1.385 -0.3758  0.5204 -0.7420
 1820SOL     OW16921   0.372   4.229   6.120 -0.2579  0.0842 -0.5677
 1820SOL    HW116922   0.436   4.173   6.076  0.0751  1.2210 -1.5231
 1820SOL    HW216923   0.377   4.309   6.067  0.1828  0.4515  0.0216
 1821SOL     OW16924   3.953   3.357   2.283  0.5573  0.5805  0.5459
 1821SOL    HW116925   4.031   3.370   2.229  0.4180  0.0996  0.2257
 1821SOL    HW216926   3.905   3.296   2.227 -1.3346  1.5205  1.1369
 1822SOL     OW16927   4.312   1.209   2.943  0.2977 -0.2340 -0.0198
 1822SOL    HW116928   4.341   1.276   3.004  1.2553 -0.4567 -0.2333
 1822SOL    HW216929   4.399   1.175   2.922  0.1283 -1.9814  2.0956
 1823SOL     OW16930   3.054   1.963   8.825 -0.3813 -0.6210 -0.0799
 1823SOL    HW116931   2.993   1.954   8.899  0.8943 -3.2133  0.6692
 1823SOL    HW216932   3.111   1.891   8.851 -1.1577 -1.9747 -2.1312
 1824SOL     OW16933   2.105   0.160  17.680  0.5559 -0.3765  0.5041
 1824SOL    HW116934   2.102   0.173   0.077 -1.2910  4.3628 -0.2031
 1824SOL    HW216935   2.198   0.136  17.674  0.4749 -0.6620  0.3966
 1825SOL     OW16936   2.716   2.070   3.977 -0.3287  0.7689  0.4648
 1825SOL    HW116937   2.635   2.058   4.028  0.4586 -1.6380  1.1394
 1825SOL    HW216938   2.771   2.063   4.056 -1.0682 -0.2225  0.8949
 1826SOL     OW16939   1.913   0.107  10.095  0.1821 -0.4004  0.0145
 1826SOL    HW116940   1.995   0.120  10.142  1.1249 -0.0794 -1.6919
 1826SOL    HW216941   1.920   0.181  10.034  0.9026 -0.5591 -0.0927
 1827SOL     OW16942   3.008   0.703  14.020 -0.1257  0.1840  0.3454
 1827SOL    HW116943   2.941   0.714  13.952 -0.1791  2.3266  0.7433
 1827SOL    HW216944   3.026   0.610  14.011 -3.4802 -0.1544 -2.8137
 1828SOL     OW16945   3.641   1.739  10.681  0.6178  0.4349 -0.0069
 1828SOL    HW116946   3.696   1.722  10.605  0.7215 -0.4651  0.2709
 1828SOL    HW216947   3.626   1.648  10.708  0.8065  0.2811 -0.4224
 1829SOL     OW16948   3.421   4.274   7.137  0.4692 -0.0262 -1.0869
 1829SOL    HW116949   3.381   4.260   7.051  0.3345 -2.3933 -0.6515
 1829SOL    HW216950   3.489   4.334   7.107  0.9566 -0.4640 -0.8544
 1830SOL     OW16951   1.367   0.680   1.247 -0.2713  0.0420 -0.1602
 1830SOL    HW116952   1.287   0.717   1.284 -1.3555 -2.1381 -0.3801
 1830SOL    HW216953   1.365   0.711   1.156  0.8308 -0.9029 -0.5080
 1831SOL     OW16954   1.120   4.512  13.642  0.0096  0.0515  0.3419
 1831SOL    HW116955   1.135   4.530  13.735 -0.5630  0.3029  0.3828
 1831SOL    HW216956   1.099   4.601  13.614 -2.2143  0.3124  2.7988
 1832SOL     OW16957   2.670   3.793   0.923  0.0767  0.2310  0.0767
 1832SOL    HW116958   2.716   3.844   0.990 -0.3653 -1.1696  1.4600
 1832SOL    HW216959   2.741   3.732   0.903  0.9956  1.0965  0.6749
 1833SOL     OW16960   4.557   4.044   7.123 -0.0656  0.5597  0.1835
 1833SOL    HW116961   4.538   4.031   7.216 -0.6816  0.2747  0.0153
 1833SOL    HW216962   4.485   3.991   7.089  0.1702 -0.7650  1.7546
 1834SOL     OW16963   0.514   2.027  10.646  0.0800  0.2321  0.7405
 1834SOL    HW116964   0.547   1.938  10.629 -1.5948 -0.7396  2.4752
 1834SOL    HW216965   0.503   2.068  10.561  1.9854  1.2268  0.9827
 1835SOL     OW16966   1.076   0.947   4.796  0.4667  0.9245  0.4633
 1835SOL    HW116967   1.024   0.869   4.777  2.1354  0.5120 -2.3898
 1835SOL    HW216968   1.144   0.942   4.730  0.6725 -3.3823  0.9812
 1836SOL     OW16969   3.917   1.996   1.631 -0.3427  0.1892 -0.0395
 1836SOL    HW116970   3.896   2.089   1.632  2.3873  0.8023 -0.0116
 1836SOL    HW216971   3.889   1.969   1.543  1.2466 -0.3076 -0.3885
 1837SOL     OW16972   3.309   4.427   3.356  0.4805 -0.3100  0.5881
 1837SOL    HW116973   3.384   4.376   3.384  0.1932 -1.2535 -0.3493
 1837SOL    HW216974   3.337   4.456   3.269  0.4153  0.9706  0.9815
 1838SOL     OW16975   3.870   3.532   7.881 -0.0138  0.3597  0.0591
 1838SOL    HW116976   3.929   3.551   7.809  0.5208 -1.1649  0.0856
 1838SOL    HW216977   3.914   3.581   7.950 -2.0671  3.5683 -0.9088
 1839SOL     OW16978   0.670   2.062   3.112  0.5662 -0.4446  0.2100
 1839SOL    HW116979   0.665   2.074   3.017  0.8731  1.1697  0.3962
 1839SOL    HW216980   0.665   2.152   3.146  1.0156 -1.4834  2.9795
 1840SOL     OW16981   1.890   0.869   3.198 -0.6571 -0.1440 -0.1724
 1840SOL    HW116982   1.854   0.911   3.276 -0.1377  0.3528 -0.1976
 1840SOL    HW216983   1.849   0.919   3.127 -2.0205 -2.2481 -0.8567
 1841SOL     OW16984   0.431   3.674   2.948 -0.0973  0.4493 -0.2173
 1841SOL    HW116985   0.356   3.709   2.996  1.0656 -0.8312  2.5202
 1841SOL    HW216986   0.400   3.586   2.928  3.0589 -0.3988 -1.3798
 1842SOL     OW16987   2.062   2.237   0.474  0.3408  0.2883 -0.4160
 1842SOL    HW116988   1.972   2.269   0.481  0.2134  0.3389 -2.1870
 1842SOL    HW216989   2.114   2.308   0.435 -1.0624  1.8114  0.4773
 1843SOL     OW16990   1.338   3.144   6.714 -0.3236  0.6829 -0.1606
 1843SOL    HW116991   1.368   3.089   6.786  1.2708 -0.8698 -2.0038
 1843SOL    HW216992   1.273   3.193   6.765  0.4722  2.0975 -0.5095
 1844SOL     OW16993   1.977   2.810  16.728  0.0608  0.1938  0.2097
 1844SOL    HW116994   1.912   2.877  16.747  0.2394  0.3487  0.2713
 1844SOL    HW216995   1.979   2.816  16.632 -2.1117 -2.0001  0.0102
 1845SOL     OW16996   4.074   2.495   0.230 -0.5573  0.1467 -0.1938
 1845SOL    HW116997   4.154   2.546   0.245 -2.2185  2.8843 -0.7054
 1845SOL    HW216998   4.019   2.564   0.194  0.7144  0.9776 -0.5636
 1846SOL     OW16999   1.105   4.103   4.417  0.2960 -0.4432  0.3865
 1846SOL    HW117000   1.111   4.034   4.482  0.8969  1.2830  2.1495
 1846SOL    HW217001   1.017   4.106   4.380  0.1043  0.6354  0.9513
 1847SOL     OW17002   3.686   2.070   7.560 -0.1336  1.1863 -0.1844
 1847SOL    HW117003   3.674   2.158   7.524 -0.6253  1.2495  0.1348
 1847SOL    HW217004   3.665   2.095   7.650 -0.0852 -0.2991  0.2353
 1848SOL     OW17005   1.931   2.523   3.601 -0.2251  0.6117 -0.3081
 1848SOL    HW117006   1.969   2.601   3.560  1.0149 -0.0513 -0.4334
 1848SOL    HW217007   2.004   2.494   3.655 -2.2821 -0.0958  2.0622
 1849SOL     OW17008   4.020   2.220  17.244 -0.2189 -0.2270 -0.2266
 1849SOL    HW117009   3.928   2.248  17.247 -0.5088 -1.0487 -1.3369
 1849SOL    HW217010   4.026   2.236  17.150 -0.9061 -3.9027 -0.9186
 1850SOL     OW17011   0.702   3.467   4.401 -0.1995  0.1374  0.5795
 1850SOL    HW117012   0.654   3.420   4.333  0.9352 -0.3012  0.0786
 1850SOL    HW217013   0.647   3.487   4.477  0.2029  1.2779  0.5616
 1851SOL     OW17014   1.649   2.646   0.021 -0.0457 -0.6281 -0.3775
 1851SOL    HW117015   1.642   2.551   0.036  1.9369 -0.4353  1.9111
 1851SOL    HW217016   1.601   2.669   0.100 -0.3890  0.4519 -0.9084
 1852SOL     OW17017   0.934   0.669   2.447 -0.4523  0.2218  0.2607
 1852SOL    HW117018   0.999   0.662   2.378 -0.9639 -1.2833 -0.0674
 1852SOL    HW217019   0.995   0.666   2.521 -1.9084 -1.2110  1.3967
 1853SOL     OW17020   3.179   1.431  14.825  0.6570 -0.4542  0.3615
 1853SOL    HW117021   3.189   1.485  14.904 -2.7556  0.9058 -0.1564
 1853SOL    HW217022   3.160   1.349  14.869 -0.5558 -1.5671 -2.2524
 1854SOL     OW17023   3.010   0.853   4.048  0.1244 -0.3252  0.9507
 1854SOL    HW117024   2.988   0.902   4.127 -0.1490  0.2142  0.5429
 1854SOL    HW217025   2.954   0.906   3.991 -0.9943 -0.9287  1.4978
 1855SOL     OW17026   2.790   1.594  16.378 -0.2805 -0.4534  0.5029
 1855SOL    HW117027   2.724   1.634  16.322 -0.8713 -1.6963  0.3145
 1855SOL    HW217028   2.852   1.667  16.379  1.0860 -1.5885 -0.5263
 1856SOL     OW17029   0.512   2.600   3.189 -0.9009 -0.6134  0.0095
 1856SOL    HW117030   0.526   2.631   3.099 -2.9032 -5.0571 -1.8274
 1856SOL    HW217031   0.538   2.684   3.227  1.4074 -0.2680 -2.2881
 1857SOL     OW17032   1.653   0.619  13.953  0.3324 -0.3089 -0.1752
 1857SOL    HW117033   1.688   0.700  13.991  2.0530 -0.2105 -1.9473
 1857SOL    HW217034   1.564   0.631  13.986  0.0885 -0.9142 -0.6024
 1858SOL     OW17035   2.909   2.469   8.144  0.0778 -0.7030  0.3427
 1858SOL    HW117036   2.943   2.488   8.231  2.8008 -1.3359 -0.6013
 1858SOL    HW217037   2.819   2.452   8.171 -0.3199 -0.7723 -1.0316
 1859SOL     OW17038   0.659   4.534   6.952  0.1535 -0.0595  0.1852
 1859SOL    HW117039   0.564   4.522   6.957  0.0664 -0.3390 -1.9572
 1859SOL    HW217040   0.659   4.622   6.914 -0.4016 -0.3917 -0.6056
 1860SOL     OW17041   0.552   2.564  16.889 -0.2253 -0.2550 -0.4195
 1860SOL    HW117042   0.475   2.614  16.862 -0.9985 -1.3290 -0.1473
 1860SOL    HW217043   0.617   2.601  16.828  0.7429  1.6367  1.7750
 1861SOL     OW17044   0.983   3.572   3.857  0.0587  0.2941  0.3469
 1861SOL    HW117045   0.916   3.504   3.868 -0.4823  0.1641 -3.5697
 1861SOL    HW217046   0.948   3.636   3.794  0.1500 -0.0513 -0.0563
 1862SOL     OW17047   2.507   2.135   7.946  0.5852 -0.2188 -0.4592
 1862SOL    HW117048   2.588   2.085   7.960 -0.0465 -0.4291  2.4993
 1862SOL    HW217049   2.456   2.129   8.026 -2.0870  4.2499 -1.8259
 1863SOL     OW17050   0.333   1.842   5.470 -0.1565 -0.1097 -0.5258
 1863SOL    HW117051   0.295   1.907   5.529  1.2851 -2.2238  2.6865
 1863SOL    HW217052   0.342   1.897   5.392 -1.5248 -1.1104 -1.4002
 1864SOL     OW17053   0.377   4.003   8.151  0.2783 -0.2207  0.4015
 1864SOL    HW117054   0.312   3.987   8.084 -0.9095  0.4954  1.3815
 1864SOL    HW217055   0.376   3.917   8.192 -3.7414 -0.2329  0.2803
 1865SOL     OW17056   4.096   1.079  11.315  0.2788  0.3557  0.2971
 1865SOL    HW117057   4.069   1.165  11.283 -1.0628  0.4784  1.7774
 1865SOL    HW217058   4.114   1.100  11.407  0.7600  2.0038 -0.1635
 1866SOL     OW17059   0.788   4.617   2.535  0.0362 -0.0582 -0.1674
 1866SOL    HW117060   0.828   4.701   2.513  0.1077 -0.3315 -1.0639
 1866SOL    HW217061   0.697   4.635   2.512 -0.0205  0.2942  0.3273
 1867SOL     OW17062   2.911   0.350   7.898  0.5030  0.1756  0.0314
 1867SOL    HW117063   2.830   0.332   7.946  0.8817  1.7439  1.2688
 1867SOL    HW217064   2.923   0.269   7.848  2.2756  1.6207 -1.8893
 1868SOL     OW17065   0.055   4.048   3.488  0.1240 -0.1968 -0.1187
 1868SOL    HW117066   4.720   4.110   3.531  1.0610  1.9040 -1.8544
 1868SOL    HW217067   0.089   3.987   3.554 -0.5279  1.8690  2.1256
 1869SOL     OW17068   3.363   1.132   8.483  0.6378 -0.1228 -0.0386
 1869SOL    HW117069   3.285   1.181   8.508 -0.1810 -0.7124 -1.3791
 1869SOL    HW217070   3.342   1.041   8.507  0.7331  0.2022  1.2400
 1870SOL     OW17071   2.808   4.074   3.627  0.8304 -0.0990 -0.4089
 1870SOL    HW117072   2.783   4.166   3.622 -0.9019 -0.6078 -1.0638
 1870SOL    HW217073   2.719   4.042   3.612  1.0146 -0.1503 -1.3979
 1871SOL     OW17074   3.948   0.932   9.276  0.0952  0.3992 -0.1259
 1871SOL    HW117075   3.988   0.866   9.220  1.6375 -0.2093  1.6929
 1871SOL    HW217076   3.867   0.953   9.229  1.7463 -0.7189 -3.4365
 1872SOL     OW17077   2.589   3.475   2.665  0.0561 -0.0720 -0.3525
 1872SOL    HW117078   2.494   3.485   2.673 -0.4805 -4.4670 -1.0913
 1872SOL    HW217079   2.614   3.567   2.668 -1.5483  0.4061 -1.6547
 1873SOL     OW17080   0.233   3.010   6.433  0.6584 -0.3730  0.1379
 1873SOL    HW117081   0.245   2.915   6.425 -2.0827 -0.6148 -1.2759
 1873SOL    HW217082   0.259   3.019   6.524 -0.5005  3.3689  0.1117
 1874SOL     OW17083   4.414   3.163   8.830  0.5020  0.1732 -0.2808
 1874SOL    HW117084   4.426   3.068   8.834 -1.4359 -0.0238  1.1159
 1874SOL    HW217085   4.404   3.187   8.922 -1.0118 -0.6299 -0.2352
 1875SOL     OW17086   3.486   2.187   1.458  0.0014  0.0317 -0.3151
 1875SOL    HW117087   3.486   2.093   1.443 -0.6606  0.0401 -0.3663
 1875SOL    HW217088   3.509   2.193   1.550 -1.3489 -1.6962  0.1327
 1876SOL     OW17089   2.411   1.170   4.214  0.0111  0.1577  0.4299
 1876SOL    HW117090   2.436   1.183   4.306 -0.8136 -0.8927  0.7924
 1876SOL    HW217091   2.475   1.108   4.181  1.1003  0.9512  1.0223
 1877SOL     OW17092   0.232   2.098  14.410 -0.2513 -0.2955  0.0287
 1877SOL    HW117093   0.141   2.071  14.423  0.3036 -2.3592 -0.2631
 1877SOL    HW217094   0.233   2.129  14.320 -0.3895 -1.0980 -0.2540
 1878SOL     OW17095   1.880   4.120   4.944 -0.2334 -0.4616  0.5590
 1878SOL    HW117096   1.873   4.215   4.949 -0.1785 -0.4337  0.1260
 1878SOL    HW217097   1.791   4.093   4.924 -0.2370 -1.1076  1.4554
 1879SOL     OW17098   3.758   3.305   0.766 -0.1678 -0.3279 -0.2040
 1879SOL    HW117099   3.777   3.235   0.827 -1.4519 -0.5541 -0.0494
 1879SOL    HW217100   3.804   3.381   0.799  2.6376 -1.9582 -0.3814
 1880SOL     OW17101   0.140   0.265   5.625 -0.3899 -0.0893 -0.2669
 1880SOL    HW117102   0.086   0.290   5.550 -0.6859  0.1645  0.0361
 1880SOL    HW217103   0.126   0.171   5.614 -0.3279 -0.2472  1.0020
 1881SOL     OW17104   2.036   0.958   8.451  0.2676  0.4251 -0.2433
 1881SOL    HW117105   2.077   0.894   8.393 -1.1940  0.6747 -1.5396
 1881SOL    HW217106   1.961   0.972   8.393 -0.6377  1.1247  1.0809
 1882SOL     OW17107   3.529   2.720   3.867  0.1210  0.6836  0.3867
 1882SOL    HW117108   3.508   2.713   3.960 -1.9589 -0.0301 -0.1450
 1882SOL    HW217109   3.612   2.672   3.869 -1.3968 -2.0088 -0.0450
 1883SOL     OW17110   3.231   0.137   4.264 -0.6987 -0.2704 -0.0600
 1883SOL    HW117111   3.172   0.108   4.194  1.7711 -0.1119 -2.2370
 1883SOL    HW217112   3.280   0.059   4.290 -0.3968 -0.2216 -0.4815
 1884SOL     OW17113   3.870   2.328   1.996  0.1320 -0.0545 -0.3189
 1884SOL    HW117114   3.826   2.380   1.929  0.0144  0.8895  0.4877
 1884SOL    HW217115   3.804   2.304   2.061 -0.5860 -0.1343 -1.0814
 1885SOL     OW17116   1.049   0.405   3.713 -0.6210  0.0824 -0.5674
 1885SOL    HW117117   1.119   0.356   3.756  0.7622  2.0441 -0.5612
 1885SOL    HW217118   1.095   0.477   3.668  0.1113  0.6866  1.1590
 1886SOL     OW17119   3.171   4.492   9.016 -0.5866  0.7987  0.5454
 1886SOL    HW117120   3.162   4.424   9.083 -1.9788 -0.2595 -0.7176
 1886SOL    HW217121   3.100   4.467   8.956 -1.6514 -0.3809  2.2753
 1887SOL     OW17122   4.548   2.801   5.342  0.5402 -0.1364  0.3528
 1887SOL    HW117123   4.527   2.890   5.371 -0.6287 -0.9831  2.0904
 1887SOL    HW217124   4.555   2.756   5.427 -1.8125 -1.6561 -0.2470
 1888SOL     OW17125   3.087   1.554   3.556 -0.0465 -1.1295  0.4788
 1888SOL    HW117126   2.993   1.547   3.540 -0.0946  1.5797 -0.5185
 1888SOL    HW217127   3.104   1.648   3.555 -0.6699 -1.0289 -0.6730
 1889SOL     OW17128   0.611   1.815  14.290  0.1358  0.1868 -0.5018
 1889SOL    HW117129   0.592   1.876  14.361 -1.0930 -1.1529  0.3154
 1889SOL    HW217130   0.539   1.837  14.232  0.1470 -0.6283 -0.8256
 1890SOL     OW17131   2.726   2.270   8.782 -0.5785 -0.1022  0.0090
 1890SOL    HW117132   2.657   2.209   8.808  0.0096 -0.6016  0.3833
 1890SOL    HW217133   2.735   2.332   8.854  0.2801  1.1313 -1.1657
 1891SOL     OW17134   3.119   0.347   0.157  0.8103 -0.4298  0.0541
 1891SOL    HW117135   3.139   0.281   0.091 -3.1268 -1.2057 -0.3653
 1891SOL    HW217136   3.184   0.327   0.224  2.6286  1.5114 -1.1250
 1892SOL     OW17137   1.101   1.657   7.393  0.1382  0.7466  0.0496
 1892SOL    HW117138   1.033   1.606   7.437  2.5697 -2.1869  0.3691
 1892SOL    HW217139   1.057   1.743   7.388 -0.4192  0.5205  1.0534
 1893SOL     OW17140   0.417   3.779   3.603  0.4154 -0.3524 -0.0257
 1893SOL    HW117141   0.456   3.693   3.588  1.4204 -0.3044  2.2679
 1893SOL    HW217142   0.489   3.843   3.601  1.1855 -1.2179  0.1839
 1894SOL     OW17143   4.644   0.208  13.404 -0.3985  0.0853  0.0636
 1894SOL    HW117144   4.667   0.231  13.314  0.3381 -3.2858 -0.6118
 1894SOL    HW217145   4.668   0.284  13.457 -0.4545 -0.1758  0.4563
 1895SOL     OW17146   1.311   2.666   8.227 -0.2494 -0.2151  0.6877
 1895SOL    HW117147   1.346   2.580   8.206  2.9613  0.8149  1.8660
 1895SOL    HW217148   1.387   2.721   8.207 -1.3504  2.0640  2.7104
 1896SOL     OW17149   0.505   2.628   4.573  0.2487 -0.0455 -0.7969
 1896SOL    HW117150   0.543   2.542   4.559  1.9354  0.6635 -0.6226
 1896SOL    HW217151   0.433   2.606   4.631 -0.0731  1.2362 -0.6963
 1897SOL     OW17152   1.521   0.115   2.744  0.7262 -0.3398 -0.1607
 1897SOL    HW117153   1.584   0.047   2.766  0.0217 -0.8765  0.2376
 1897SOL    HW217154   1.558   0.148   2.662  0.1747  0.2052 -0.1931
 1898SOL     OW17155   4.435   2.185   0.710 -0.1604  0.3220  0.4156
 1898SOL    HW117156   4.384   2.151   0.783 -1.3363 -0.0111 -0.5630
 1898SOL    HW217157   4.509   2.216   0.763 -0.2580  0.0171  0.7304
 1899SOL     OW17158   4.456   4.050   7.411  0.4813  0.2004  0.0302
 1899SOL    HW117159   4.361   4.044   7.408  0.4559  0.3117  0.7061
 1899SOL    HW217160   4.471   4.128   7.465  0.3582 -0.8833  1.6315
 1900SOL     OW17161   4.638   1.891   3.006 -0.1233  0.6341  0.3261
 1900SOL    HW117162   4.705   1.913   2.941 -0.6914  0.0884 -0.4459
 1900SOL    HW217163   4.548   1.891   2.973 -0.3663  0.3092  0.9948
 1901SOL     OW17164   3.304   2.143   3.828 -0.4316 -0.0909  0.1259
 1901SOL    HW117165   3.346   2.183   3.903 -3.0453 -0.5056  1.8270
 1901SOL    HW217166   3.255   2.069   3.863 -1.1205 -0.7421 -2.1622
 1902SOL     OW17167   2.027   0.126  10.868 -0.5324 -0.4275  0.1029
 1902SOL    HW117168   1.990   0.215  10.873 -1.9682 -1.0089 -0.1346
 1902SOL    HW217169   1.964   0.096  10.803 -0.4134 -1.1912  0.3464
 1903SOL     OW17170   1.815   0.090   4.525 -0.2658  0.0799  0.1766
 1903SOL    HW117171   1.826   0.174   4.481  0.5189 -0.2886 -0.3410
 1903SOL    HW217172   1.789   0.110   4.615 -0.3650  0.0924  0.1454
 1904SOL     OW17173   0.029   3.841   9.084 -0.2082  0.2479  0.8330
 1904SOL    HW117174   0.057   3.886   9.004  0.6832  0.4156  1.2440
 1904SOL    HW217175   0.108   3.813   9.129  0.2740  1.7652  0.9280
 1905SOL     OW17176   4.231   2.675   8.388 -0.2299 -0.0447 -0.2823
 1905SOL    HW117177   4.266   2.590   8.415 -0.7554 -0.6610 -1.5111
 1905SOL    HW217178   4.300   2.715   8.334 -0.1783  0.2839  0.0243
 1906SOL     OW17179   1.599   4.339  14.194 -0.2938  0.0533  0.3526
 1906SOL    HW117180   1.682   4.298  14.219 -1.2684 -1.8996  0.3444
 1906SOL    HW217181   1.615   4.426  14.230  0.4125 -0.2948  0.8692
 1907SOL     OW17182   1.419   0.970   7.961  0.2198  0.4135  0.1176
 1907SOL    HW117183   1.493   1.016   8.002  0.6760 -0.4367  0.2527
 1907SOL    HW217184   1.384   1.052   7.928 -0.0862 -1.2849 -3.8011
 1908SOL     OW17185   0.594   2.175   2.817 -0.2866 -0.5533 -0.2272
 1908SOL    HW117186   0.645   2.225   2.752 -0.0625 -0.1205  0.2760
 1908SOL    HW217187   0.531   2.133   2.759  1.4627  1.3180 -3.5265
 1909SOL     OW17188   2.647   2.409   4.279  0.0697  0.7132  0.4459
 1909SOL    HW117189   2.573   2.367   4.236  0.2373 -0.3412  1.1924
 1909SOL    HW217190   2.609   2.496   4.296  0.0645  0.4440  1.8755
 1910SOL     OW17191   1.710   2.615   9.373 -0.6093 -0.0893 -0.3472
 1910SOL    HW117192   1.711   2.519   9.367 -1.9284 -0.4236  4.4658
 1910SOL    HW217193   1.619   2.641   9.354 -1.1601 -0.6620  1.5163
 1911SOL     OW17194   1.468   4.361   4.544 -0.3173 -0.4276 -0.7682
 1911SOL    HW117195   1.549   4.310   4.539  0.6614  1.4601 -3.9851
 1911SOL    HW217196   1.496   4.447   4.514 -0.7983 -0.3350 -0.9393
 1912SOL     OW17197   0.055   2.318   7.062 -0.0515  0.7662 -0.6425
 1912SOL    HW117198   0.060   2.259   7.138 -1.2094 -0.2748 -1.3775
 1912SOL    HW217199   0.051   2.256   6.989  0.9974 -1.3847  1.0762
 1913SOL     OW17200   2.084   0.803   7.506  0.0642 -0.5028 -0.0974
 1913SOL    HW117201   2.081   0.710   7.530  0.2977 -0.2750  0.8255
 1913SOL    HW217202   2.168   0.801   7.461  0.1609 -0.8727  0.0951
 1914SOL     OW17203   1.847   0.344   2.519 -0.1583 -0.0801  0.2402
 1914SOL    HW117204   1.848   0.403   2.594  1.8881  0.5498 -0.2744
 1914SOL    HW217205   1.863   0.414   2.455 -0.0821 -0.2949  0.0224
 1915SOL     OW17206   2.795   2.840   1.030  0.4771  0.1950 -0.0008
 1915SOL    HW117207   2.741   2.900   1.081  0.4274  0.2070 -0.0678
 1915SOL    HW217208   2.830   2.788   1.103 -1.1444  0.1279  0.7213
 1916SOL     OW17209   0.216   1.575   4.817 -0.2354  0.3357 -0.0167
 1916SOL    HW117210   0.239   1.496   4.866 -1.2297 -0.7291 -1.2487
 1916SOL    HW217211   0.155   1.527   4.761  0.7054 -0.8017 -0.0481
 1917SOL     OW17212   2.029   4.004   2.421 -0.0446 -0.1338  0.3466
 1917SOL    HW117213   2.046   4.018   2.514 -1.5154  0.0549  0.5912
 1917SOL    HW217214   2.044   3.910   2.415  0.5615  0.0729 -1.4524
 1918SOL     OW17215   2.068   4.154   4.732  0.2329 -0.1312  0.6915
 1918SOL    HW117216   1.997   4.140   4.669  0.7879 -0.6108  0.1685
 1918SOL    HW217217   2.018   4.145   4.813  1.0593 -1.0382  1.0916
 1919SOL     OW17218   2.589   3.722   8.329  0.2778 -0.8624  0.0102
 1919SOL    HW117219   2.639   3.721   8.411  1.6202  0.2739 -0.7918
 1919SOL    HW217220   2.576   3.815   8.313 -0.5450 -0.9972 -0.1079
 1920SOL     OW17221   4.581   1.284   7.364  0.2696  0.5187  0.1638
 1920SOL    HW117222   4.561   1.268   7.456 -0.7465 -0.4252 -0.2201
 1920SOL    HW217223   4.490   1.287   7.332  0.3522 -0.6253 -0.1927
 1921SOL     OW17224   2.612   2.557   8.962  0.2742 -0.0590 -0.0471
 1921SOL    HW117225   2.703   2.529   8.952  0.4150  0.5873 -0.6473
 1921SOL    HW217226   2.622   2.640   9.009  0.5177  0.5305 -1.1342
 1922SOL     OW17227   0.267   3.428   4.455 -0.3414 -0.7123  0.0340
 1922SOL    HW117228   0.206   3.355   4.458 -1.5677  0.2641 -1.0473
 1922SOL    HW217229   0.276   3.453   4.363 -1.9420  0.8166  0.2857
 1923SOL     OW17230   0.084   3.900  16.003  0.0625  0.3001  0.6258
 1923SOL    HW117231   0.040   3.856  15.931 -0.0745  3.1269 -1.0085
 1923SOL    HW217232   0.012   3.955  16.033  0.5152  0.4312  1.4617
 1924SOL     OW17233   3.562   0.978   7.776  0.1618  0.1123  0.0913
 1924SOL    HW117234   3.525   0.964   7.864  0.6894  2.0749  0.6173
 1924SOL    HW217235   3.480   1.004   7.735 -1.1425 -1.2382  1.8325
 1925SOL     OW17236   3.474   2.688   0.106 -0.3510  0.0928 -0.6001
 1925SOL    HW117237   3.467   2.699   0.201 -0.2863  0.4421 -0.6381
 1925SOL    HW217238   3.530   2.610   0.099  0.8082  0.7229  1.7403
 1926SOL     OW17239   3.333   4.147  10.402  0.0562  0.0965 -0.1765
 1926SOL    HW117240   3.314   4.067  10.451 -0.4561  0.2303 -0.1556
 1926SOL    HW217241   3.355   4.112  10.316 -0.8775  0.5015 -0.5752
 1927SOL     OW17242   0.914   3.312   3.600 -0.0156  0.4620  0.3055
 1927SOL    HW117243   0.857   3.376   3.643 -1.7991 -1.5224  0.8873
 1927SOL    HW217244   0.859   3.234   3.593 -0.3951  0.4949  2.8452
 1928SOL     OW17245   0.928   2.849   0.794 -0.1680  0.5059 -0.2141
 1928SOL    HW117246   0.985   2.859   0.718  0.7512  0.5219  0.4824
 1928SOL    HW217247   0.933   2.929   0.846  0.0924  0.5731 -0.3449
 1929SOL     OW17248   3.342   3.042   2.136 -0.5270  0.5547  0.3189
 1929SOL    HW117249   3.428   3.077   2.156  1.0045 -2.6451 -0.6498
 1929SOL    HW217250   3.298   3.121   2.102  0.5073  0.9252 -0.1607
 1930SOL     OW17251   4.098   4.582   7.953 -0.0463  0.1040 -0.3879
 1930SOL    HW117252   4.105   4.537   8.037 -1.5058  0.3998 -0.0998
 1930SOL    HW217253   4.049   4.512   7.908 -1.0658  0.1888  0.5777
 1931SOL     OW17254   2.324   1.331   5.125  0.4622 -0.6817  0.4065
 1931SOL    HW117255   2.277   1.380   5.058 -0.0331  0.7400  1.7800
 1931SOL    HW217256   2.414   1.362   5.113  0.1418 -0.1765 -0.7139
 1932SOL     OW17257   1.331   0.010   4.457  0.2633 -0.3606  0.1377
 1932SOL    HW117258   1.253   4.697   4.499  0.0063 -1.7430 -1.5352
 1932SOL    HW217259   1.318   0.102   4.479  0.2398 -0.9852  2.8017
 1933SOL     OW17260   3.800   3.759   1.357  0.7226  0.6068 -0.3553
 1933SOL    HW117261   3.858   3.686   1.375 -1.4642 -1.1833 -0.5025
 1933SOL    HW217262   3.787   3.799   1.443  1.8871  1.6092 -0.6424
 1934SOL     OW17263   0.943   2.078   6.714 -0.3786  0.0289 -0.3028
 1934SOL    HW117264   0.854   2.100   6.740 -0.2034  0.9501 -0.5049
 1934SOL    HW217265   0.953   1.998   6.766  3.3840 -0.5867 -1.9847
 1935SOL     OW17266   3.619   0.427   3.789 -0.3622 -0.0797 -0.1250
 1935SOL    HW117267   3.636   0.517   3.762  0.0944 -1.0552 -3.1322
 1935SOL    HW217268   3.536   0.408   3.746 -0.1182  1.5428 -1.3255
 1936SOL     OW17269   0.721   4.180  16.714 -0.0468  0.3158  0.0242
 1936SOL    HW117270   0.650   4.121  16.740 -1.3870  2.6970  1.8339
 1936SOL    HW217271   0.735   4.170  16.620  0.1713  1.3367 -0.0526
 1937SOL     OW17272   2.457   1.505  11.018  0.0066  0.1245  0.0387
 1937SOL    HW117273   2.376   1.519  11.067  0.3020  0.4275  0.4468
 1937SOL    HW217274   2.507   1.586  11.033  1.2355 -0.3611 -1.4147
 1938SOL     OW17275   0.630   3.013   3.023 -0.0773 -0.1347 -0.2936
 1938SOL    HW117276   0.717   3.007   2.984 -0.1988  0.7093 -0.6740
 1938SOL    HW217277   0.589   3.086   2.977 -0.9297 -0.8448 -0.6641
 1939SOL     OW17278   4.603   1.786   7.964 -0.2078  0.1215  0.6545
 1939SOL    HW117279   4.657   1.715   7.931 -0.5348  0.2682 -0.1998
 1939SOL    HW217280   4.513   1.758   7.948 -0.0672 -0.5328  1.0289
 1940SOL     OW17281   3.621   0.536   0.838 -0.0721  0.4449 -0.0737
 1940SOL    HW117282   3.576   0.531   0.923 -0.7780 -0.2702 -0.4891
 1940SOL    HW217283   3.656   0.447   0.829 -0.2018  0.5004 -1.0987
 1941SOL     OW17284   2.625   1.769  17.689  0.6516  0.0674 -0.4866
 1941SOL    HW117285   2.595   1.736   0.075 -0.3833  2.0782 -0.0783
 1941SOL    HW217286   2.623   1.863   0.011  1.1164 -0.2551  1.0913
 1942SOL     OW17287   3.861   0.024  12.726  0.7061  0.2203  0.4284
 1942SOL    HW117288   3.800   0.050  12.657 -1.6238 -0.1346  2.3486
 1942SOL    HW217289   3.924   4.717  12.662 -1.4317 -2.9664 -0.1327
 1943SOL     OW17290   1.015   2.113   7.110  0.7256 -0.4333  0.2096
 1943SOL    HW117291   1.066   2.150   7.182  1.4531  0.3552 -0.7110
 1943SOL    HW217292   1.087   2.093   7.052  0.0455 -1.3974 -0.2926
 1944SOL     OW17293   3.757   1.160   7.012  0.2382 -0.0511 -0.2023
 1944SOL    HW117294   3.711   1.077   6.995  2.6255 -1.4747  0.2456
 1944SOL    HW217295   3.742   1.172   7.105  0.2658 -1.0368 -0.0695
 1945SOL     OW17296   4.264   2.571  12.757 -0.8535  0.3905 -0.3230
 1945SOL    HW117297   4.248   2.656  12.716 -4.0455  0.2435  0.5420
 1945SOL    HW217298   4.359   2.563  12.755 -0.7887  0.8984  0.8726
 1946SOL     OW17299   0.956   2.505   5.797 -0.5931  0.2555  0.4220
 1946SOL    HW117300   0.900   2.493   5.721  0.0659  1.8570 -0.3141
 1946SOL    HW217301   1.035   2.534   5.751 -0.8659 -0.5956 -0.6051
 1947SOL     OW17302   0.274   2.691   7.825 -0.3461 -0.6134 -0.3841
 1947SOL    HW117303   0.207   2.630   7.795  1.4667 -3.4051  1.2218
 1947SOL    HW217304   0.235   2.771   7.789 -1.1456 -1.2986 -1.0323
 1948SOL     OW17305   4.075   0.133   1.498  0.0904 -0.3770  0.3650
 1948SOL    HW117306   4.024   0.092   1.568 -1.2956  0.7337 -0.0000
 1948SOL    HW217307   4.168   0.137   1.520 -0.2819  1.6921  1.5122
 1949SOL     OW17308   4.713   0.253   7.601 -0.2991  0.1709 -0.1088
 1949SOL    HW117309   4.638   0.245   7.542 -0.6263  1.8935  0.0688
 1949SOL    HW217310   4.672   0.262   7.687  1.7783 -0.1247  0.8966
 1950SOL     OW17311   1.975   3.677   6.088 -0.3183  0.2353  0.2014
 1950SOL    HW117312   1.986   3.614   6.159  0.4794  1.0125  0.7626
 1950SOL    HW217313   1.973   3.610   6.021 -1.6779 -2.0453  2.5119
 1951SOL     OW17314   1.538   0.437   5.218  0.6844  0.7629 -0.1962
 1951SOL    HW117315   1.464   0.405   5.271  0.4059  0.1281 -0.9574
 1951SOL    HW217316   1.610   0.383   5.250 -0.5646 -0.9119 -0.1763
 1952SOL     OW17317   3.876   4.273   8.250 -0.1880 -0.0409  0.2936
 1952SOL    HW117318   3.878   4.272   8.154  0.6513 -0.6997  0.3104
 1952SOL    HW217319   3.789   4.235   8.259 -0.2772  0.7945  2.9184
 1953SOL     OW17320   4.486   3.651  10.111  0.5211  0.1635  0.2509
 1953SOL    HW117321   4.579   3.657  10.133  0.9846 -2.2778 -1.0069
 1953SOL    HW217322   4.465   3.586  10.178  1.1173  0.2760  0.5509
 1954SOL     OW17323   1.886   0.840  14.503  0.3340  0.4626  0.4151
 1954SOL    HW117324   1.890   0.936  14.503  2.4049  0.3765  0.3452
 1954SOL    HW217325   1.850   0.823  14.590  1.1308 -1.2889  0.4008
 1955SOL     OW17326   1.343   1.477   6.554  0.4624 -0.0926  0.0921
 1955SOL    HW117327   1.427   1.450   6.592 -1.5720 -2.5755  2.7910
 1955SOL    HW217328   1.360   1.472   6.460  2.6762  2.5187  0.3137
 1956SOL     OW17329   0.326   2.395   7.629  0.1302 -0.0918 -0.1559
 1956SOL    HW117330   0.238   2.424   7.604  0.2579  0.7355  0.3438
 1956SOL    HW217331   0.371   2.417   7.547  1.3195 -0.0870  0.5044
 1957SOL     OW17332   2.525   1.239   4.436  0.5193  0.0999  0.1476
 1957SOL    HW117333   2.602   1.295   4.427 -1.0818  2.4530  1.0019
 1957SOL    HW217334   2.477   1.267   4.514  0.1562 -1.4887  0.4923
 1958SOL     OW17335   2.655   2.900   4.103 -0.0389  0.3289  0.0918
 1958SOL    HW117336   2.618   2.840   4.038  2.6060  0.2136 -1.3061
 1958SOL    HW217337   2.708   2.841   4.156  0.5487  1.7722  1.1253
 1959SOL     OW17338   4.186   2.341   6.594 -0.0960 -0.9053  0.6478
 1959SOL    HW117339   4.160   2.319   6.683 -0.7417 -2.1694  0.1415
 1959SOL    HW217340   4.142   2.280   6.535  0.1951 -1.0332  0.5632
 1960SOL     OW17341   3.131   1.110  15.277  0.8550  0.0468  0.9078
 1960SOL    HW117342   3.105   1.095  15.368 -1.7564  0.2884  0.1951
 1960SOL    HW217343   3.068   1.181  15.270 -1.3138 -1.8250  1.6384
 1961SOL     OW17344   3.878   2.268   4.767  0.4589  0.5230 -0.1396
 1961SOL    HW117345   3.802   2.274   4.826  1.3759  0.8559  1.0221
 1961SOL    HW217346   3.872   2.177   4.740 -2.5250  1.2975 -2.1208
 1962SOL     OW17347   0.191   4.637   4.899 -0.6028  0.3275 -0.1203
 1962SOL    HW117348   0.274   4.632   4.946 -1.1612  4.2378  1.2471
 1962SOL    HW217349   0.209   4.620   4.806 -0.2772 -0.1231  0.0257
 1963SOL     OW17350   2.191   1.279   1.701  0.0824 -0.5124  0.2634
 1963SOL    HW117351   2.218   1.198   1.743 -0.7136 -0.9046  0.0113
 1963SOL    HW217352   2.119   1.310   1.757  1.3530  3.0521 -0.0517
 1964SOL     OW17353   1.625   2.088   7.344 -0.6001  0.2021  0.3063
 1964SOL    HW117354   1.640   1.996   7.323  0.8879  0.4954  0.1148
 1964SOL    HW217355   1.614   2.077   7.439  2.1374  0.5398  0.6720
 1965SOL     OW17356   2.631   0.510   6.703  0.3248  0.7204 -0.0732
 1965SOL    HW117357   2.707   0.566   6.684  1.9104 -0.5869  2.3548
 1965SOL    HW217358   2.676   0.426   6.694  3.3581  2.2654  0.4522
 1966SOL     OW17359   3.692   4.110  12.204 -0.2870 -0.0571 -0.3675
 1966SOL    HW117360   3.723   4.050  12.136  0.5341  0.5546 -0.5234
 1966SOL    HW217361   3.746   4.092  12.280 -0.4365  0.4610 -0.1433
 1967SOL     OW17362   0.898   1.973  12.566  0.5200  0.4214 -0.2365
 1967SOL    HW117363   0.886   1.934  12.479 -0.8341 -0.1588  0.1951
 1967SOL    HW217364   0.907   1.889  12.611 -0.4542 -0.0195 -0.8358
 1968SOL     OW17365   0.989   0.315  10.035  0.1327  0.3946  0.0039
 1968SOL    HW117366   0.942   0.398  10.048  0.2676  0.4985 -0.1689
 1968SOL    HW217367   1.081   0.329  10.056 -0.2404 -0.1368  2.0056
 1969SOL     OW17368   1.797   2.394  12.441 -0.7156 -0.3942  0.3641
 1969SOL    HW117369   1.862   2.399  12.512  0.8749 -3.1976 -0.9005
 1969SOL    HW217370   1.852   2.353  12.374 -0.4962 -1.2051  1.0260
 1970SOL     OW17371   1.564   2.570  17.437 -0.7851  0.1556 -0.5226
 1970SOL    HW117372   1.578   2.602  17.526  0.8409  2.3261 -1.5616
 1970SOL    HW217373   1.643   2.599  17.392 -0.5837 -2.0995 -1.6229
 1971SOL     OW17374   3.366   1.283   9.228  0.7838 -0.5291  0.0216
 1971SOL    HW117375   3.298   1.222   9.256  0.3251 -0.3838 -0.7718
 1971SOL    HW217376   3.393   1.314   9.315 -1.7173  0.2910  0.5049
 1972SOL     OW17377   1.547   2.826   3.055  0.3148 -0.1417 -0.2050
 1972SOL    HW117378   1.453   2.809   3.060  0.0450  1.3208 -0.3770
 1972SOL    HW217379   1.579   2.825   2.965  1.2930  0.3847  0.1329
 1973SOL     OW17380   0.071   2.189   7.309 -0.3641  0.3467 -0.1160
 1973SOL    HW117381   0.039   2.113   7.261  2.0374  0.3570 -1.7134
 1973SOL    HW217382   0.161   2.157   7.312  0.3360  2.2004 -1.8120
 1974SOL     OW17383   3.521   4.528   3.171 -0.1144  0.0075 -0.5398
 1974SOL    HW117384   3.495   4.615   3.141 -0.1819  0.6861  1.4401
 1974SOL    HW217385   3.615   4.539   3.185 -0.3771  2.5159 -0.7951
 1975SOL     OW17386   3.871   4.634  11.549 -0.8323 -0.2880 -0.2109
 1975SOL    HW117387   3.850   4.547  11.516  2.2349 -1.1853  0.2311
 1975SOL    HW217388   3.964   4.619  11.561 -0.9268 -0.2243  0.5998
 1976SOL     OW17389   0.116   0.893  17.131 -0.5386  0.3042  0.2137
 1976SOL    HW117390   0.088   0.969  17.080  0.4538  0.7579  0.3332
 1976SOL    HW217391   0.090   0.930  17.215 -1.6021  1.1864 -0.5095
 1977SOL     OW17392   3.667   1.183   6.671  0.3649  0.0339  0.6175
 1977SOL    HW117393   3.603   1.127   6.628 -1.6453  0.9574  2.3687
 1977SOL    HW217394   3.617   1.208   6.749  2.0482  2.8795  0.8130
 1978SOL     OW17395   2.963   1.084   7.561  0.2152 -0.2211 -0.0088
 1978SOL    HW117396   3.029   1.015   7.559  0.2108 -0.2199 -0.2245
 1978SOL    HW217397   2.903   1.029   7.611 -0.7836  0.5928 -0.3166
 1979SOL     OW17398   1.664   0.466  14.206 -0.4322 -0.2269  0.4552
 1979SOL    HW117399   1.685   0.501  14.119 -1.1446  0.6663  0.6475
 1979SOL    HW217400   1.690   0.375  14.187 -0.7299 -0.0213 -0.9597
 1980SOL     OW17401   2.337   3.520   3.762  0.1552  0.0718 -0.2609
 1980SOL    HW117402   2.250   3.520   3.722  0.0632  0.1086 -0.0586
 1980SOL    HW217403   2.358   3.427   3.768  1.6763  0.3802 -0.6948
 1981SOL     OW17404   0.029   1.743   1.974 -0.0086 -0.4337 -0.0975
 1981SOL    HW117405   0.105   1.788   1.938  1.1774 -2.0670  0.3710
 1981SOL    HW217406   4.685   1.781   1.918 -1.6979 -0.0582  2.2223
 1982SOL     OW17407   3.404   0.596  14.801  0.6863  0.3244  0.3743
 1982SOL    HW117408   3.345   0.669  14.816  1.4097  0.9126  0.3577
 1982SOL    HW217409   3.349   0.524  14.771  1.7340 -0.2529 -0.1696
 1983SOL     OW17410   1.203   0.638   2.892 -0.0550 -0.4042  0.8992
 1983SOL    HW117411   1.215   0.564   2.953 -0.9395 -1.4190 -0.1673
 1983SOL    HW217412   1.109   0.646   2.904 -0.1815 -0.2399 -0.2541
 1984SOL     OW17413   1.274   0.308   5.266 -0.5314  0.5351  0.3337
 1984SOL    HW117414   1.237   0.265   5.189  0.2032 -1.2851  0.9918
 1984SOL    HW217415   1.236   0.259   5.339 -0.2337  0.6714  0.5786
 1985SOL     OW17416   0.561   3.612   2.213  0.8490  0.3817 -0.2020
 1985SOL    HW117417   0.613   3.542   2.174  1.0416  0.1517  0.4774
 1985SOL    HW217418   0.609   3.691   2.187  1.9833 -0.7579 -1.5548
 1986SOL     OW17419   3.047   1.476   4.159  0.2653  0.0683 -0.4286
 1986SOL    HW117420   3.024   1.502   4.070 -1.9486  1.3033  0.4975
 1986SOL    HW217421   3.143   1.471   4.162  0.2124 -0.8286 -0.2606
 1987SOL     OW17422   0.753   0.882   9.175  0.1580 -0.1976  0.4972
 1987SOL    HW117423   0.846   0.871   9.154 -0.8297 -1.1022 -3.4045
 1987SOL    HW217424   0.712   0.875   9.089 -1.4412 -1.3036  1.3555
 1988SOL     OW17425   3.761   1.191  12.390 -0.3473 -0.3697  0.1543
 1988SOL    HW117426   3.731   1.110  12.432  0.5079 -1.4014 -1.2187
 1988SOL    HW217427   3.795   1.235  12.468 -1.3585 -0.4200  0.6223
 1989SOL     OW17428   2.184   0.086  16.623  0.6724 -0.1627  0.5909
 1989SOL    HW117429   2.270   0.108  16.587 -0.1636  1.2859 -0.5047
 1989SOL    HW217430   2.207   0.017  16.685  0.6395 -1.2645 -0.6261
 1990SOL     OW17431   4.243   3.459   6.691  0.3228  0.5509 -0.5884
 1990SOL    HW117432   4.296   3.493   6.619  1.6775 -1.3553 -0.4703
 1990SOL    HW217433   4.292   3.380   6.711  1.3884  1.2464 -0.4355
 1991SOL     OW17434   0.142   3.477  13.700  0.4337 -0.2106 -0.0674
 1991SOL    HW117435   0.108   3.550  13.649 -1.0678 -2.5806 -2.4419
 1991SOL    HW217436   0.220   3.513  13.743 -0.6789  0.6886  1.2003
 1992SOL     OW17437   4.152   1.009  11.615  0.4069 -0.4634 -0.0032
 1992SOL    HW117438   4.159   0.926  11.566  1.0832  0.7697 -1.9843
 1992SOL    HW217439   4.246   1.026  11.623  0.4215 -0.5647  0.0510
 1993SOL     OW17440   0.959   1.866   2.707 -0.4745 -0.1163 -0.6124
 1993SOL    HW117441   0.873   1.825   2.718 -0.6396  0.4525  0.1802
 1993SOL    HW217442   1.020   1.800   2.741  0.7302  0.6309 -1.3184
 1994SOL     OW17443   1.975   2.712   2.797 -0.0948  0.2327  0.5143
 1994SOL    HW117444   2.002   2.796   2.833 -1.0558  1.5600 -1.8629
 1994SOL    HW217445   1.963   2.661   2.877  0.3796 -2.0715 -0.8725
 1995SOL     OW17446   4.471   2.757  16.884  0.1355  0.4047 -0.2009
 1995SOL    HW117447   4.531   2.741  16.811  0.6331 -0.6442  0.4286
 1995SOL    HW217448   4.407   2.793  16.823 -0.9898 -1.1047  0.0762
 1996SOL     OW17449   3.229   1.403   7.981  0.4071 -0.1037  0.0545
 1996SOL    HW117450   3.323   1.423   7.982  0.5502 -0.8218  1.5595
 1996SOL    HW217451   3.218   1.372   8.071  3.5190  2.6273  1.3838
 1997SOL     OW17452   3.624   3.329  13.014 -0.3671 -0.0944  0.3563
 1997SOL    HW117453   3.640   3.325  12.920  0.9857 -0.3187  0.5923
 1997SOL    HW217454   3.707   3.299  13.051  0.7080  2.7162  0.2380
 1998SOL     OW17455   2.811   0.126  13.739 -0.1716  0.3255  0.0742
 1998SOL    HW117456   2.822   0.145  13.832  1.9032  0.8913 -0.2969
 1998SOL    HW217457   2.830   0.207  13.693  0.1092  0.8005  1.0256
 1999SOL     OW17458   3.635   1.786   3.512 -0.0242 -0.2293  0.2399
 1999SOL    HW117459   3.685   1.867   3.522  0.6785 -0.8222  1.6713
 1999SOL    HW217460   3.656   1.754   3.425 -0.1667  1.1794 -0.3004
 2000SOL     OW17461   4.328   2.993   1.340 -0.1606  0.3117 -0.0292
 2000SOL    HW117462   4.376   2.911   1.346 -0.3720  0.2050  0.2058
 2000SOL    HW217463   4.396   3.051   1.306  0.0050  0.0321 -0.1723
 2001SOL     OW17464   4.405   2.220   6.958  0.5867 -0.0041 -0.1045
 2001SOL    HW117465   4.411   2.260   6.871 -0.9346 -1.4150 -0.8574
 2001SOL    HW217466   4.336   2.266   7.005 -0.9696 -1.2843 -1.1450
 2002SOL     OW17467   3.522   0.963   4.369 -0.1999 -0.0785 -0.0069
 2002SOL    HW117468   3.604   0.966   4.320  0.2186 -3.1287  0.5255
 2002SOL    HW217469   3.458   0.994   4.305  0.3772  2.1371  0.4825
 2003SOL     OW17470   3.801   3.256  14.265 -0.3728  0.7612  0.0087
 2003SOL    HW117471   3.778   3.203  14.341  0.2356  0.2409 -0.1745
 2003SOL    HW217472   3.743   3.332  14.259 -0.1534  0.9465  0.2119
 2004SOL     OW17473   1.609   2.363   9.349  0.2564 -0.2761 -0.0080
 2004SOL    HW117474   1.522   2.331   9.327  0.2273  0.0998 -0.4415
 2004SOL    HW217475   1.611   2.347   9.443 -5.0597  1.1262  0.3449
 2005SOL     OW17476   3.266   0.523   8.267  0.0600  0.5333 -0.2446
 2005SOL    HW117477   3.266   0.577   8.346  0.1493 -1.2072  0.9476
 2005SOL    HW217478   3.180   0.480   8.264  0.0051  0.6513 -0.3688
 2006SOL     OW17479   2.419   1.729   6.457 -0.0863  0.5451 -0.3041
 2006SOL    HW117480   2.401   1.823   6.454 -3.9437 -0.1023  2.8567
 2006SOL    HW217481   2.374   1.691   6.382  1.2491 -1.6213 -0.0086
 2007SOL     OW17482   1.879   2.751   4.375  0.1791 -0.0957 -0.0778
 2007SOL    HW117483   1.823   2.728   4.450 -1.7648  1.4022 -1.0922
 2007SOL    HW217484   1.823   2.813   4.329 -0.3072  0.8639  1.8021
 2008SOL     OW17485   1.227   3.072  10.978  0.6573 -0.1929  0.2515
 2008SOL    HW117486   1.176   3.136  11.029  0.9777 -0.9443  1.5199
 2008SOL    HW217487   1.232   3.119  10.894 -0.4060 -1.2608 -0.3912
 2009SOL     OW17488   0.695   3.559   6.891 -0.2611  0.2123  0.7871
 2009SOL    HW117489   0.747   3.480   6.886 -0.2054  0.3151 -0.2338
 2009SOL    HW217490   0.635   3.534   6.961  0.7261 -1.5108  0.9897
 2010SOL     OW17491   1.129   0.289   9.647  0.7163  0.4037 -0.1203
 2010SOL    HW117492   1.036   0.311   9.656  0.6381  0.2405 -0.5576
 2010SOL    HW217493   1.176   0.360   9.691 -1.2577  1.0975  0.8638
 2011SOL     OW17494   2.161   1.208   6.549 -0.0034 -0.1164  0.0009
 2011SOL    HW117495   2.156   1.274   6.480 -0.9874 -1.2248 -0.9949
 2011SOL    HW217496   2.206   1.256   6.619 -0.2961  1.4831 -0.8928
 2012SOL     OW17497   2.514   2.786   8.309 -0.0434  0.0949 -0.6991
 2012SOL    HW117498   2.500   2.821   8.396 -2.8071 -0.5561 -0.8742
 2012SOL    HW217499   2.512   2.866   8.257 -3.0357  1.5762  1.6660
 2013SOL     OW17500   3.038   0.427  14.001 -0.1824 -0.0548 -0.4698
 2013SOL    HW117501   3.113   0.405  13.945 -0.3304  2.1334 -1.5239
 2013SOL    HW217502   3.064   0.409  14.091  0.2155  1.2995 -0.3146
 2014SOL     OW17503   0.517   2.232   7.132  0.0634 -0.8230  0.3417
 2014SOL    HW117504   0.535   2.170   7.062 -1.5465  0.2956 -1.0472
 2014SOL    HW217505   0.427   2.211   7.159 -0.4221 -0.7197 -1.2017
 2015SOL     OW17506   1.424   4.346   7.808 -0.7889 -0.4486  0.1336
 2015SOL    HW117507   1.375   4.412   7.857 -3.1384 -1.1026 -1.3403
 2015SOL    HW217508   1.511   4.357   7.846 -0.2579 -0.1593 -1.1704
 2016SOL     OW17509   3.512   0.277   7.432 -0.2461  0.1835  0.1251
 2016SOL    HW117510   3.498   0.333   7.509 -2.7227 -0.3556  0.0723
 2016SOL    HW217511   3.605   0.256   7.442 -0.0619  0.6160 -0.6810
 2017SOL     OW17512   3.857   4.105   9.212  0.3205 -0.0558 -0.4159
 2017SOL    HW117513   3.763   4.123   9.207  0.4070  0.8273  1.3667
 2017SOL    HW217514   3.845   4.018   9.249  0.7760 -0.3980 -1.0629
 2018SOL     OW17515   3.416   4.363  10.564 -0.1281  0.0665 -0.5840
 2018SOL    HW117516   3.386   4.276  10.535 -0.8554 -0.2586  1.1741
 2018SOL    HW217517   3.417   4.415  10.483  1.6315  0.7919 -0.0835
 2019SOL     OW17518   1.935   1.327   8.917 -0.4059  0.0988  0.3603
 2019SOL    HW117519   1.931   1.248   8.863 -2.1210  1.5294 -1.6122
 2019SOL    HW217520   1.907   1.298   9.004 -0.7092  0.4255  0.3730
 2020SOL     OW17521   0.394   3.734   0.057 -0.0391 -0.2388  1.1162
 2020SOL    HW117522   0.479   3.731   0.013  0.0592  4.1746  0.9216
 2020SOL    HW217523   0.393   3.829   0.074 -1.6225  0.2920 -2.0999
 2021SOL     OW17524   4.264   4.273   4.285 -0.3218  0.0356  0.3174
 2021SOL    HW117525   4.285   4.182   4.263  1.0394  0.4970 -0.2724
 2021SOL    HW217526   4.175   4.257   4.317 -0.0400  2.6121  2.3338
 2022SOL     OW17527   4.358   3.793   6.257  0.1693  0.1367  0.3624
 2022SOL    HW117528   4.345   3.706   6.295 -0.3136 -0.2942 -0.7998
 2022SOL    HW217529   4.266   3.817   6.244  0.8280  2.0329 -0.7100
 2023SOL     OW17530   3.631   3.403   6.657 -0.2581 -0.5064  0.1795
 2023SOL    HW117531   3.706   3.446   6.698  0.7711 -0.3711 -1.8743
 2023SOL    HW217532   3.655   3.407   6.565 -0.3643 -2.1998  0.0719
 2024SOL     OW17533   1.699   3.332   8.504  0.3135  0.3716 -0.0325
 2024SOL    HW117534   1.690   3.420   8.541 -0.7405  0.9807 -1.7435
 2024SOL    HW217535   1.708   3.270   8.577  0.5205 -1.2533 -1.4333
 2025SOL     OW17536   2.818   2.842   9.481  0.3553 -0.1867 -0.3245
 2025SOL    HW117537   2.914   2.841   9.476  0.4526 -0.8654  1.8916
 2025SOL    HW217538   2.805   2.756   9.521  0.9630  0.0811  0.4370
 2026SOL     OW17539   1.709   1.958   4.768 -0.6134 -0.2958  0.4198
 2026SOL    HW117540   1.692   2.039   4.816  2.8032  2.8468 -3.7579
 2026SOL    HW217541   1.624   1.942   4.727 -0.1265  0.0217 -0.6942
 2027SOL     OW17542   1.307   0.004   3.146  0.3436 -0.3413  0.4428
 2027SOL    HW117543   1.304   0.037   3.236  1.2149  3.4045 -0.9184
 2027SOL    HW217544   1.362   0.070   3.104 -2.5068 -0.0381 -2.8219
 2028SOL     OW17545   1.221   0.942  16.962  0.0852  0.0944  0.3211
 2028SOL    HW117546   1.312   0.956  16.938  0.0972 -0.7114 -0.1182
 2028SOL    HW217547   1.219   0.846  16.955 -1.4530  0.0258  1.6092
 2029SOL     OW17548   4.367   2.250   1.768 -0.1228  0.1467 -0.0812
 2029SOL    HW117549   4.401   2.160   1.771  0.2083  0.2936  0.7232
 2029SOL    HW217550   4.445   2.297   1.736  0.4697 -0.2458  0.7660
 2030SOL     OW17551   2.304   4.526   5.912  0.2833  0.0987 -0.0056
 2030SOL    HW117552   2.312   4.438   5.949 -1.1891  0.4204  1.1067
 2030SOL    HW217553   2.273   4.504   5.824  1.7908 -3.4565  0.3472
 2031SOL     OW17554   4.226   1.666  10.051  0.3424 -0.1774 -0.6960
 2031SOL    HW117555   4.289   1.734  10.074 -0.8279 -0.4159  3.1404
 2031SOL    HW217556   4.154   1.717  10.015  1.9060  1.5137 -1.4242
 2032SOL     OW17557   1.008   2.174   8.513  0.5081 -0.6785 -0.5900
 2032SOL    HW117558   0.967   2.139   8.435  1.0506 -1.0995 -0.6815
 2032SOL    HW217559   1.091   2.129   8.525  0.6362 -0.4270 -0.5270
 2033SOL     OW17560   1.277   2.839   7.462 -0.1429 -0.3322  0.1902
 2033SOL    HW117561   1.183   2.835   7.449 -0.1006  0.1514 -0.2732
 2033SOL    HW217562   1.300   2.764   7.517 -0.3325  2.2659  3.8166
 2034SOL     OW17563   0.695   1.219   1.920 -0.4454  0.2765 -0.3939
 2034SOL    HW117564   0.769   1.216   1.859  0.7139  2.6778  0.9016
 2034SOL    HW217565   0.722   1.288   1.980 -0.6859  0.8356 -0.9279
 2035SOL     OW17566   1.866   2.498  17.093  0.1739 -0.4137  0.1122
 2035SOL    HW117567   1.782   2.519  17.054 -1.4913 -1.7458  2.9476
 2035SOL    HW217568   1.932   2.550  17.048  1.0123  0.4298  2.3103
 2036SOL     OW17569   2.931   3.687   2.929 -0.2821  0.0506  0.4033
 2036SOL    HW117570   2.892   3.604   2.958 -2.0955  0.8224  0.1561
 2036SOL    HW217571   3.019   3.657   2.907 -0.6157 -0.5691 -0.0866
 2037SOL     OW17572   0.928   2.687   4.758  0.6139 -0.1508 -0.2208
 2037SOL    HW117573   0.943   2.782   4.756  0.6593 -0.1412  0.5206
 2037SOL    HW217574   0.914   2.663   4.666 -2.9291 -0.8437  0.5011
 2038SOL     OW17575   4.500   2.506   7.921 -0.4964  0.4252 -0.5517
 2038SOL    HW117576   4.507   2.497   8.016  0.0270  1.3358 -0.5019
 2038SOL    HW217577   4.589   2.491   7.889 -0.3748  0.7744 -0.3796
 2039SOL     OW17578   1.610   2.750   2.801  0.1693 -0.2292  0.1272
 2039SOL    HW117579   1.550   2.770   2.730  1.0268  2.1038  0.0456
 2039SOL    HW217580   1.696   2.760   2.760 -0.2432  0.6780 -0.5198
 2040SOL     OW17581   2.165   4.192  14.232 -0.3126 -0.6768  0.1588
 2040SOL    HW117582   2.258   4.172  14.234 -0.3994 -1.3907 -2.1498
 2040SOL    HW217583   2.149   4.234  14.147 -0.4109  0.6528  0.8375
 2041SOL     OW17584   4.486   0.043   1.030  0.2837 -0.3981  0.1653
 2041SOL    HW117585   4.414   0.065   0.971 -0.9532 -1.8818  1.1079
 2041SOL    HW217586   4.559   0.081   0.982  1.6773 -3.0671  0.2012
 2042SOL     OW17587   3.648   2.290   8.741 -0.5308 -0.7363 -0.2045
 2042SOL    HW117588   3.731   2.250   8.715 -0.1610  0.9332 -1.5571
 2042SOL    HW217589   3.662   2.375   8.700  1.4334 -0.6735  0.6396
 2043SOL     OW17590   2.737   0.854  16.994 -0.4636 -0.0951 -0.5097
 2043SOL    HW117591   2.660   0.879  17.044  0.7669  0.2599  1.2091
 2043SOL    HW217592   2.805   0.910  17.033 -0.0754 -2.1428  1.7797
 2044SOL     OW17593   1.921   2.178   8.945  0.1464  0.3723 -0.0945
 2044SOL    HW117594   1.961   2.213   9.024  0.8139 -0.8149  0.0963
 2044SOL    HW217595   1.832   2.212   8.952  0.0546  0.4745 -1.6123
 2045SOL     OW17596   1.926   0.511   9.654  0.2043 -0.3671  0.0257
 2045SOL    HW117597   1.845   0.562   9.652  0.4233 -0.0917 -1.6127
 2045SOL    HW217598   1.892   0.421   9.650 -1.9393  0.3937  1.4306
 2046SOL     OW17599   0.472   3.141   2.095 -0.2280 -0.1569  0.2088
 2046SOL    HW117600   0.567   3.151   2.095 -0.3722  1.3168  0.0112
 2046SOL    HW217601   0.451   3.169   2.005 -2.1387  0.1714  0.7658
 2047SOL     OW17602   1.155   3.020  11.785 -0.0107  0.3146 -0.9016
 2047SOL    HW117603   1.114   3.072  11.716 -1.0728  0.7247  0.0396
 2047SOL    HW217604   1.196   3.084  11.843 -1.9741  0.4363  0.3667
 2048SOL     OW17605   4.406   3.712   5.761  0.0233  0.3855  0.0465
 2048SOL    HW117606   4.453   3.629   5.759  0.1716  0.4412  1.7272
 2048SOL    HW217607   4.425   3.745   5.848 -1.4526 -2.9697  1.6337
 2049SOL     OW17608   1.403   3.915   6.460  0.1173 -0.6272  0.1217
 2049SOL    HW117609   1.408   3.989   6.399 -2.2931 -0.2194  0.3960
 2049SOL    HW217610   1.328   3.936   6.517  0.2889  1.2186 -0.3347
 2050SOL     OW17611   1.162   4.596  13.934  0.0560 -0.4675  0.7316
 2050SOL    HW117612   1.241   4.647  13.950 -1.4382  1.1355  2.9213
 2050SOL    HW217613   1.213   4.520  13.963 -2.8831 -3.0937 -1.0136
 2051SOL     OW17614   0.459   3.241  14.084  0.1774  0.4489  0.4994
 2051SOL    HW117615   0.413   3.222  14.002 -2.5109  0.7283  1.9383
 2051SOL    HW217616   0.515   3.312  14.054 -0.4073  0.6683 -0.0714
 2052SOL     OW17617   2.946   4.312  17.431  0.7593 -0.0608  0.3388
 2052SOL    HW117618   2.952   4.238  17.370  2.0046  0.4856 -0.2009
 2052SOL    HW217619   2.990   4.384  17.387 -0.2345 -0.9311 -2.0922
 2053SOL     OW17620   2.764   4.658   8.525 -0.6388  0.0559  0.0967
 2053SOL    HW117621   2.753   4.574   8.569  0.5398  0.0308  0.3448
 2053SOL    HW217622   2.758   4.642   8.431 -0.0329 -1.2529  0.2897
 2054SOL     OW17623   4.406   0.979   2.508  0.2285  0.4026  0.0098
 2054SOL    HW117624   4.443   1.060   2.473  0.9975  0.5729  1.2256
 2054SOL    HW217625   4.323   1.006   2.548 -0.6345  0.0532 -1.5691
 2055SOL     OW17626   3.216   2.427   4.337  0.4269  0.0367 -0.1102
 2055SOL    HW117627   3.238   2.460   4.424 -0.5838 -0.9954  0.5388
 2055SOL    HW217628   3.223   2.332   4.348  4.3300  0.4700  0.8818
 2056SOL     OW17629   3.252   2.558  16.250 -0.0352 -0.2846  0.0580
 2056SOL    HW117630   3.289   2.616  16.183 -2.1694 -0.0298 -0.9152
 2056SOL    HW217631   3.162   2.549  16.219  0.1875 -2.1250 -0.0132
 2057SOL     OW17632   2.693   2.739   6.087 -0.3564 -0.6434 -0.2607
 2057SOL    HW117633   2.614   2.755   6.138 -0.2313  0.1902 -0.3239
 2057SOL    HW217634   2.684   2.647   6.062  1.0432 -1.0444  0.7229
 2058SOL     OW17635   0.219   0.088   8.228 -0.5002  0.5359 -0.2289
 2058SOL    HW117636   0.246   0.007   8.271  0.0445  0.9633  0.2466
 2058SOL    HW217637   0.144   0.109   8.284  0.3484  1.2649  0.6422
 2059SOL     OW17638   0.787   2.215   4.978  0.2431 -0.2849  0.2364
 2059SOL    HW117639   0.873   2.257   4.968  0.1561  0.6144  3.2105
 2059SOL    HW217640   0.784   2.185   4.888  1.2743  1.1419 -0.2766
 2060SOL     OW17641   3.015   3.919   0.900  0.0875 -0.2213  0.4017
 2060SOL    HW117642   2.977   3.874   0.975 -0.6331  0.9564  0.7478
 2060SOL    HW217643   3.026   3.841   0.845 -0.9352  1.2437 -1.8998
 2061SOL     OW17644   2.467   0.126   9.453 -0.1946  0.1651 -0.1816
 2061SOL    HW117645   2.513   0.042   9.453  0.7115  0.6680  1.3766
 2061SOL    HW217646   2.378   0.094   9.440 -0.5391  0.9398  0.3236
 2062SOL     OW17647   2.190   3.708  15.868  0.2234  0.7450  0.3022
 2062SOL    HW117648   2.173   3.631  15.814  1.0768  0.5031  0.3726
 2062SOL    HW217649   2.279   3.679  15.890  0.9534  2.1197 -0.7740
 2063SOL     OW17650   1.601   1.019  14.916 -0.0289 -0.1560 -0.4900
 2063SOL    HW117651   1.653   0.944  14.885  2.5486  1.9563 -1.2339
 2063SOL    HW217652   1.636   1.096  14.872 -0.6607 -0.8786 -2.2363
 2064SOL     OW17653   1.044   0.583   8.012 -0.2757  0.2238  0.1481
 2064SOL    HW117654   0.973   0.645   7.998  0.6016  1.0241 -0.7857
 2064SOL    HW217655   1.115   0.630   8.058  0.3982  0.8610 -1.5398
 2065SOL     OW17656   1.260   3.734   9.061  0.2492 -0.4080 -0.4465
 2065SOL    HW117657   1.260   3.642   9.035 -0.8359 -0.9891  1.6430
 2065SOL    HW217658   1.310   3.735   9.143  3.0426  0.1580 -2.1616
 2066SOL     OW17659   4.196   2.678  14.516  0.0566 -0.0294 -0.2213
 2066SOL    HW117660   4.149   2.594  14.513 -0.6215  0.2739  1.7933
 2066SOL    HW217661   4.175   2.699  14.608 -1.5620  2.8555 -1.2487
 2067SOL     OW17662   4.361   4.250   5.200 -0.0077 -0.0359  0.6870
 2067SOL    HW117663   4.457   4.244   5.197  0.1954  4.5542 -1.5765
 2067SOL    HW217664   4.338   4.224   5.110 -1.2174  0.7536  0.7757
 2068SOL     OW17665   1.819   4.699   7.583 -0.4431 -0.4820 -0.2101
 2068SOL    HW117666   1.846   0.018   7.502  0.2513  3.2927  2.0325
 2068SOL    HW217667   1.892   4.689   7.645  1.1188  2.2859 -1.6064
 2069SOL     OW17668   0.885   4.604   3.169  0.2533 -0.3397 -0.1880
 2069SOL    HW117669   0.892   4.521   3.124 -0.8553 -1.7414  2.2216
 2069SOL    HW217670   0.839   4.569   3.245  2.2968 -0.2593  1.0918
 2070SOL     OW17671   0.306   4.208   6.367 -0.1336 -0.4991 -0.5924
 2070SOL    HW117672   0.312   4.220   6.272 -2.7017 -0.5392 -0.7620
 2070SOL    HW217673   0.276   4.296   6.386  0.7672 -0.7764  2.1360
 2071SOL     OW17674   2.941   3.878   2.719  0.2052  0.0272 -0.3941
 2071SOL    HW117675   2.966   3.830   2.641 -1.6817 -2.8049  0.7563
 2071SOL    HW217676   2.929   3.822   2.796 -1.4372 -1.6163 -1.8563
 2072SOL     OW17677   0.710   1.052   2.726  0.3245  0.2708  0.3263
 2072SOL    HW117678   0.759   1.094   2.655 -0.2567  1.0414  0.3789
 2072SOL    HW217679   0.711   0.962   2.692 -0.7361 -0.4812  2.2932
 2073SOL     OW17680   2.347   0.509  17.333  0.1423  0.3346 -0.5470
 2073SOL    HW117681   2.385   0.595  17.314  2.5741 -0.8706 -1.1999
 2073SOL    HW217682   2.424   0.481  17.382  0.7006  0.9138 -1.0738
 2074SOL     OW17683   3.503   1.198   3.260 -0.4827  0.1243  0.5148
 2074SOL    HW117684   3.477   1.287   3.284  0.8257  0.8078 -0.5820
 2074SOL    HW217685   3.576   1.227   3.205  0.1104  0.0389  1.2428
 2075SOL     OW17686   3.513   3.419   9.825  0.0263  0.1390  0.7045
 2075SOL    HW117687   3.528   3.506   9.862 -0.2256  1.0992 -1.4704
 2075SOL    HW217688   3.418   3.411   9.830 -0.1181  1.1684 -0.4264
 2076SOL     OW17689   0.465   2.839  16.430 -0.0666  0.4009  0.2953
 2076SOL    HW117690   0.554   2.871  16.415  0.1550  0.4939  1.8306
 2076SOL    HW217691   0.405   2.908  16.401  1.8913  1.8292 -0.3341
 2077SOL     OW17692   2.941   1.141   9.280  0.2261  0.1288 -0.3916
 2077SOL    HW117693   2.927   1.057   9.237 -0.5776  0.8532 -1.5791
 2077SOL    HW217694   2.878   1.197   9.233 -0.1860 -0.6558 -0.7703
 2078SOL     OW17695   1.717   2.846  17.059  0.6435 -0.1270 -0.1293
 2078SOL    HW117696   1.733   2.940  17.053 -0.5467  0.2168  2.0368
 2078SOL    HW217697   1.733   2.823  16.968 -2.1440 -2.3582 -0.0952
 2079SOL     OW17698   0.168   1.073  16.005 -0.4296  0.5115 -0.2691
 2079SOL    HW117699   0.120   0.996  15.975 -1.7089  1.1294  0.1945
 2079SOL    HW217700   0.193   1.113  15.921  0.8722 -0.2054 -0.2235
 2080SOL     OW17701   0.892   3.834   8.573 -0.4750  0.1426 -1.3291
 2080SOL    HW117702   0.872   3.753   8.620 -1.5265 -0.7037 -3.2379
 2080SOL    HW217703   0.803   3.869   8.565 -0.8354 -0.4203  0.1825
 2081SOL     OW17704   3.445   3.632   9.500 -0.0217  0.2094 -0.1742
 2081SOL    HW117705   3.410   3.600   9.583  0.5237  2.0058  0.7487
 2081SOL    HW217706   3.528   3.672   9.526 -0.6811  0.3173  1.7341
 2082SOL     OW17707   2.497   4.444   4.444  0.2616  0.3531 -0.5969
 2082SOL    HW117708   2.483   4.513   4.379  0.9690 -0.7719 -1.9556
 2082SOL    HW217709   2.410   4.404   4.448  0.6364 -0.5452 -1.4339
 2083SOL     OW17710   0.479   1.739   4.350  0.3311  0.0677  0.0888
 2083SOL    HW117711   0.513   1.657   4.386  1.9551  0.6003 -0.2420
 2083SOL    HW217712   0.403   1.767   4.401 -0.3792 -2.9181  0.6950
 2084SOL     OW17713   2.768   3.644   6.791  0.2173  0.0774 -0.2076
 2084SOL    HW117714   2.673   3.632   6.789  0.3020 -0.6102 -0.2181
 2084SOL    HW217715   2.797   3.559   6.759 -2.2965 -1.3685  1.3800
 2085SOL     OW17716   3.483   2.452  10.668 -0.5325 -0.5378 -0.0589
 2085SOL    HW117717   3.543   2.467  10.595  0.3035  0.6828  0.8787
 2085SOL    HW217718   3.482   2.356  10.667  1.6602 -0.5426 -1.8408
 2086SOL     OW17719   2.331   1.585   6.252  0.5778 -0.5123  0.2942
 2086SOL    HW117720   2.376   1.593   6.167  0.7975  1.8557  0.6310
 2086SOL    HW217721   2.258   1.527   6.230  0.3115 -1.4592  3.7241
 2087SOL     OW17722   2.244   1.384   7.908 -0.0378  0.3963  0.0951
 2087SOL    HW117723   2.148   1.381   7.910 -0.0496  1.2743  1.1914
 2087SOL    HW217724   2.258   1.460   7.851  2.1818  0.6019  0.9219
 2088SOL     OW17725   4.328   0.775  10.693  0.0286 -0.1025 -0.6565
 2088SOL    HW117726   4.335   0.862  10.734 -0.9152  1.0661 -2.9927
 2088SOL    HW217727   4.263   0.784  10.623  0.1018 -1.0725 -0.8516
 2089SOL     OW17728   2.409   0.886   4.915  0.1983 -0.4454 -0.2894
 2089SOL    HW117729   2.392   0.980   4.909  0.9105 -0.2659  0.4294
 2089SOL    HW217730   2.460   0.867   4.837  2.4107  0.4870  0.9148
 2090SOL     OW17731   4.382   3.856   1.757 -0.0655 -0.5083 -0.2451
 2090SOL    HW117732   4.360   3.890   1.670 -0.5095 -1.5954 -0.5452
 2090SOL    HW217733   4.293   3.857   1.791 -0.2786  0.3646 -0.8129
 2091SOL     OW17734   3.169   3.436   5.317  0.3076  0.5083  0.2841
 2091SOL    HW117735   3.078   3.463   5.312 -0.2230 -1.3216  0.0790
 2091SOL    HW217736   3.158   3.351   5.359  1.0466  1.1369  1.7509
 2092SOL     OW17737   1.288   2.703   7.016  0.5662 -0.3723 -0.5774
 2092SOL    HW117738   1.201   2.696   6.978  0.1217 -0.9934  0.5671
 2092SOL    HW217739   1.334   2.633   6.969 -2.5890 -1.7666 -1.5577
 2093SOL     OW17740   4.343   0.957  11.262  0.2799 -0.0905  0.3522
 2093SOL    HW117741   4.250   0.976  11.269  0.2398 -0.0863 -0.1696
 2093SOL    HW217742   4.372   1.014  11.190 -0.8220  0.6257  0.4799
 2094SOL     OW17743   0.389   3.699  11.595 -0.1225  0.0210  0.1410
 2094SOL    HW117744   0.465   3.681  11.650 -0.8041  3.1548  2.1347
 2094SOL    HW217745   0.399   3.788  11.560 -1.5139  0.6408  1.3302
 2095SOL     OW17746   1.118   0.492   7.460 -0.6243  0.4912 -0.1972
 2095SOL    HW117747   1.113   0.505   7.554  0.3672  1.7080 -0.2995
 2095SOL    HW217748   1.208   0.461   7.450 -1.2914 -1.2802 -0.5974
 2096SOL     OW17749   0.752   2.930  14.888 -0.3329  0.1063 -0.4381
 2096SOL    HW117750   0.791   2.982  14.818  0.8051 -0.6027 -0.3360
 2096SOL    HW217751   0.659   2.951  14.893 -0.3303  0.2177 -0.8216
 2097SOL     OW17752   0.999   0.925   0.087 -0.3311 -0.0772  0.2013
 2097SOL    HW117753   0.989   0.856   0.021 -3.1609 -0.0277  0.5927
 2097SOL    HW217754   1.037   0.866   0.152 -3.5526 -2.2345  0.0894
 2098SOL     OW17755   0.852   2.365  16.580 -0.0515 -0.3154  0.2946
 2098SOL    HW117756   0.865   2.380  16.486 -0.4353  1.6105  0.5579
 2098SOL    HW217757   0.929   2.408  16.615 -1.5970 -0.0310  3.2948
 2099SOL     OW17758   3.650   1.604   4.711 -0.6752  0.4243  0.0856
 2099SOL    HW117759   3.662   1.623   4.804 -0.0477 -1.9834  0.4951
 2099SOL    HW217760   3.644   1.690   4.669  2.0696  0.0763 -0.9831
 2100SOL     OW17761   4.497   3.720   7.383  0.2515 -0.1808  0.0731
 2100SOL    HW117762   4.507   3.726   7.288 -1.0370  2.0016  0.0608
 2100SOL    HW217763   4.585   3.733   7.417  0.0388  0.1574  0.4936
 2101SOL     OW17764   0.522   1.171   5.599 -0.1502  0.3253  0.6460
 2101SOL    HW117765   0.532   1.264   5.580 -0.2479  0.1765 -0.1106
 2101SOL    HW217766   0.512   1.169   5.694 -2.0397 -2.6514  0.3729
 2102SOL     OW17767   0.116   1.861   3.446 -0.0293 -0.5334  0.0557
 2102SOL    HW117768   0.053   1.875   3.517  1.7687  0.7164  1.3848
 2102SOL    HW217769   0.064   1.801   3.392  0.6516  0.0218 -1.2221
 2103SOL     OW17770   2.276   0.133   8.959 -0.2550  0.1480  0.2044
 2103SOL    HW117771   2.273   0.183   8.877 -0.1040  0.0921  0.1643
 2103SOL    HW217772   2.306   0.199   9.021  1.0992  0.8069 -1.1523
 2104SOL     OW17773   3.958   2.274   3.797  0.6604  0.1154  0.0081
 2104SOL    HW117774   3.896   2.347   3.788  1.7600  1.1441  0.7087
 2104SOL    HW217775   3.994   2.274   3.708 -0.9076  1.5157 -0.6340
 2105SOL     OW17776   2.187   0.082   5.232  0.1656  0.5265  0.1054
 2105SOL    HW117777   2.272   0.105   5.196  0.9836 -0.8833  1.1620
 2105SOL    HW217778   2.123   0.141   5.192 -0.3686 -0.5829 -0.6926
 2106SOL     OW17779   1.967   4.396  11.039 -0.4706  0.0053  0.0718
 2106SOL    HW117780   1.878   4.399  11.004 -0.9058 -1.7051  1.0039
 2106SOL    HW217781   1.987   4.488  11.053 -0.5158  0.0510 -0.1708
 2107SOL     OW17782   2.884   0.831  15.036 -0.4224 -0.3180 -0.6740
 2107SOL    HW117783   2.889   0.869  15.124  0.8403  2.5670 -2.0175
 2107SOL    HW217784   2.972   0.855  15.008 -1.0616 -0.3207 -2.6961
 2108SOL     OW17785   2.291   2.528   7.617 -0.7396 -0.5452 -0.3856
 2108SOL    HW117786   2.269   2.457   7.677  0.7168 -1.0372 -0.4400
 2108SOL    HW217787   2.337   2.592   7.672  0.7195 -0.5629 -1.6142
 2109SOL     OW17788   2.516   3.241   3.196 -0.5321  0.0142 -0.3313
 2109SOL    HW117789   2.456   3.234   3.270 -0.4846  0.3009 -0.2651
 2109SOL    HW217790   2.590   3.181   3.205 -0.6198 -0.2672 -1.4348
 2110SOL     OW17791   0.986   3.863   1.391  0.1217  0.6358  0.0121
 2110SOL    HW117792   0.997   3.938   1.449  0.1034 -0.2123  1.1075
 2110SOL    HW217793   1.078   3.846   1.368  1.1485  1.8984  3.2159
 2111SOL     OW17794   0.878   0.685   4.778  0.1473 -0.1554 -0.2392
 2111SOL    HW117795   0.846   0.636   4.854 -2.3915  1.4188 -0.3061
 2111SOL    HW217796   0.800   0.693   4.724  0.8463 -0.3092 -1.2649
 2112SOL     OW17797   0.186   2.778   1.290  0.7865  0.0242  0.0620
 2112SOL    HW117798   0.175   2.870   1.265 -0.2755 -0.7140 -2.1337
 2112SOL    HW217799   0.166   2.736   1.206 -1.7235 -0.0471  0.7287
 2113SOL     OW17800   2.049   4.642   7.708 -0.6750  0.8097 -0.0664
 2113SOL    HW117801   2.138   4.676   7.702 -0.3173  0.3144  2.4627
 2113SOL    HW217802   2.062   4.548   7.718 -1.3851  0.6163 -0.9275
 2114SOL     OW17803   1.920   4.067   8.782  0.0045 -0.0196  0.3203
 2114SOL    HW117804   1.914   3.998   8.848 -3.3842  0.1993  0.2180
 2114SOL    HW217805   1.945   4.019   8.703 -0.7545  1.2261 -0.6729
 2115SOL     OW17806   1.390   0.527  11.492  0.0268 -0.2122 -0.3781
 2115SOL    HW117807   1.421   0.542  11.403 -0.2274 -0.7342 -0.5536
 2115SOL    HW217808   1.303   0.568  11.490 -1.9131 -4.3171  0.5877
 2116SOL     OW17809   3.328   0.868   6.245  0.0801  0.3637 -0.3451
 2116SOL    HW117810   3.353   0.886   6.155  2.5099 -0.5163  0.1349
 2116SOL    HW217811   3.338   0.773   6.255 -1.4854  0.2381 -0.0186
 2117SOL     OW17812   3.012   0.513   3.876  0.0867 -0.0982  0.0113
 2117SOL    HW117813   3.046   0.593   3.837  2.3716 -0.0014  2.2133
 2117SOL    HW217814   2.933   0.486   3.828 -0.3085 -1.2861  1.3163
 2118SOL     OW17815   0.328   1.311   4.947 -0.2238 -0.2129  0.3514
 2118SOL    HW117816   0.352   1.222   4.920  0.5965 -0.1036  0.7210
 2118SOL    HW217817   0.399   1.314   5.011 -1.9510  0.5394  2.2224
 2119SOL     OW17818   3.505   2.458   5.226  0.1972 -0.7540 -0.2306
 2119SOL    HW117819   3.496   2.497   5.139  3.5830 -1.2611 -0.7715
 2119SOL    HW217820   3.432   2.504   5.270  0.9797  0.0635  0.2110
 2120SOL     OW17821   0.837   0.328   9.224 -0.1270 -0.2882 -0.8148
 2120SOL    HW117822   0.776   0.306   9.294  3.6731 -2.5189  1.8110
 2120SOL    HW217823   0.914   0.278   9.252 -2.1946 -2.5049  0.9521
 2121SOL     OW17824   4.162   2.637   3.305  0.2626 -0.2297 -0.0713
 2121SOL    HW117825   4.257   2.625   3.316  0.6670  0.5540 -2.7191
 2121SOL    HW217826   4.144   2.548   3.275  1.1741 -0.9931  1.6324
 2122SOL     OW17827   1.928   1.556   8.775  0.0428 -0.4740 -0.2242
 2122SOL    HW117828   1.973   1.517   8.700  0.6318  0.9680 -0.6378
 2122SOL    HW217829   1.933   1.482   8.835  3.4473 -0.4314 -0.4411
 2123SOL     OW17830   3.337   4.041   9.408 -0.6148  0.1354  0.1234
 2123SOL    HW117831   3.380   3.975   9.464  1.3805  1.2428 -0.1042
 2123SOL    HW217832   3.249   4.028   9.444 -1.1707  0.4400 -1.1261
 2124SOL     OW17833   2.925   0.604  16.108  0.3390 -0.0913  0.2242
 2124SOL    HW117834   2.871   0.578  16.033 -1.0391 -1.4792  1.6938
 2124SOL    HW217835   2.971   0.520  16.119 -0.1328 -0.1814  1.4987
 2125SOL     OW17836   3.398   1.252  15.622  0.1056  0.0598  0.0411
 2125SOL    HW117837   3.385   1.346  15.615 -0.5219  0.1788  2.8241
 2125SOL    HW217838   3.362   1.228  15.707  0.8068  1.0221  0.6049
 2126SOL     OW17839   0.601   2.278  13.933 -0.1593  0.0675  0.0983
 2126SOL    HW117840   0.588   2.185  13.916 -1.8582 -0.1203  2.3496
 2126SOL    HW217841   0.607   2.282  14.029 -1.5274  3.3644  0.0457
 2127SOL     OW17842   2.913   3.113   8.618  0.0041 -0.5279 -0.0932
 2127SOL    HW117843   2.997   3.124   8.664 -0.0860 -3.7824  0.8417
 2127SOL    HW217844   2.938   3.057   8.545  0.2593 -2.4822  1.4896
 2128SOL     OW17845   3.565   0.789   3.624  0.1409 -0.1294 -1.0242
 2128SOL    HW117846   3.623   0.858   3.656  0.5578 -0.2271 -1.5778
 2128SOL    HW217847   3.476   0.820   3.639  0.0227  0.3133 -2.6436
 2129SOL     OW17848   0.742   3.591  13.563 -0.0384  0.2833  0.0473
 2129SOL    HW117849   0.715   3.678  13.535  0.1240 -0.4468 -2.3644
 2129SOL    HW217850   0.763   3.551  13.478  0.3735  0.0524  0.2609
 2130SOL     OW17851   4.002   0.359   9.221 -0.0003 -0.1184 -1.0601
 2130SOL    HW117852   4.096   0.355   9.209  0.1366 -1.1599  0.3930
 2130SOL    HW217853   3.972   0.278   9.179 -1.1770  0.8065 -2.0159
 2131SOL     OW17854   2.493   3.471   3.048  0.0388  0.0686 -0.3422
 2131SOL    HW117855   2.461   3.440   2.964 -0.3269 -0.5165  0.0109
 2131SOL    HW217856   2.510   3.386   3.087 -0.0187  0.0785 -0.2951
 2132SOL     OW17857   3.761   2.466   3.832  0.5587 -0.7304  0.8237
 2132SOL    HW117858   3.770   2.540   3.892 -2.2326 -0.5453  1.0013
 2132SOL    HW217859   3.795   2.500   3.749  0.9081  0.2228  1.3677
 2133SOL     OW17860   3.709   0.703   0.608 -0.2850  0.6087 -0.2932
 2133SOL    HW117861   3.694   0.654   0.689  1.1543  1.8339  0.7031
 2133SOL    HW217862   3.623   0.730   0.575  0.0609  0.3503 -1.3940
 2134SOL     OW17863   2.428   1.975   0.144 -1.2043 -0.2988 -0.2270
 2134SOL    HW117864   2.460   1.996   0.057  1.4171 -1.2696  0.4923
 2134SOL    HW217865   2.408   2.064   0.172 -0.8999  0.0471 -1.1192
 2135SOL     OW17866   4.380   0.449   4.972 -0.4047 -0.1870  0.2415
 2135SOL    HW117867   4.291   0.431   4.942  0.2973  0.3570 -2.1091
 2135SOL    HW217868   4.386   0.388   5.047 -1.1917 -0.5407  0.0181
 2136SOL     OW17869   3.293   0.203   4.628 -0.2469 -0.1914 -0.4058
 2136SOL    HW117870   3.348   0.153   4.568 -1.6477 -1.8864 -0.2851
 2136SOL    HW217871   3.277   0.282   4.576 -0.4134 -0.6383 -1.0406
 2137SOL     OW17872   1.567   2.094   8.626  0.0296  0.8527 -0.4059
 2137SOL    HW117873   1.638   2.031   8.629 -0.6176  0.1896  0.9109
 2137SOL    HW217874   1.504   2.039   8.579  0.2293  0.9154 -0.7484
 2138SOL     OW17875   2.838   4.239   8.145 -0.2636  0.0233 -0.0624
 2138SOL    HW117876   2.799   4.283   8.221 -4.7169 -1.0500 -1.7072
 2138SOL    HW217877   2.769   4.179   8.118  0.9391 -0.3868 -2.2519
 2139SOL     OW17878   0.359   3.756   1.446 -0.1313  0.4442 -0.1617
 2139SOL    HW117879   0.373   3.680   1.503  2.3486 -0.1965 -1.6096
 2139SOL    HW217880   0.399   3.722   1.366  1.1571 -0.1335  0.7167
 2140SOL     OW17881   4.059   0.762   3.287  0.5050 -0.9349 -0.7025
 2140SOL    HW117882   4.116   0.692   3.254  2.7492  0.0304  1.1275
 2140SOL    HW217883   4.067   0.742   3.380 -1.3416  0.0155 -0.3448
 2141SOL     OW17884   0.309   1.918   3.808  0.6031 -0.2554 -0.1465
 2141SOL    HW117885   0.284   1.986   3.746  1.4559  1.0071  0.8959
 2141SOL    HW217886   0.339   1.966   3.885  0.8723 -1.4341  0.4789
 2142SOL     OW17887   3.561   3.335   7.253 -0.0035 -0.0416 -0.3972
 2142SOL    HW117888   3.535   3.322   7.344 -0.3843 -0.1413 -0.5209
 2142SOL    HW217889   3.495   3.283   7.208  1.4846 -0.6965 -1.8146
 2143SOL     OW17890   3.993   4.236   4.363 -0.0692 -0.3753  0.0581
 2143SOL    HW117891   3.914   4.187   4.383 -1.1455  0.9981 -0.8479
 2143SOL    HW217892   3.971   4.326   4.387  1.8421 -0.3603  1.7796
 2144SOL     OW17893   4.136   1.463   3.507 -0.1227 -0.2533 -0.5322
 2144SOL    HW117894   4.119   1.545   3.461  2.1394  0.4574 -0.0615
 2144SOL    HW217895   4.139   1.396   3.438  0.3394  0.4497 -1.1939
 2145SOL     OW17896   4.425   2.564   3.148 -0.4657 -0.3560 -0.2870
 2145SOL    HW117897   4.480   2.493   3.182  1.0279  0.6340 -0.6091
 2145SOL    HW217898   4.385   2.521   3.073  2.2600 -1.5639 -1.0679
 2146SOL     OW17899   0.689   2.099  15.462 -0.9493  0.7511  0.1897
 2146SOL    HW117900   0.735   2.161  15.520 -0.3275  1.9744 -1.6231
 2146SOL    HW217901   0.748   2.024  15.471 -1.0551  0.7231  0.6577
 2147SOL     OW17902   2.402   1.142  12.892 -0.2206 -0.1323  0.4220
 2147SOL    HW117903   2.480   1.197  12.902 -1.9440  2.0026  2.2069
 2147SOL    HW217904   2.440   1.066  12.848  0.2795 -0.4691  1.4473
 2148SOL     OW17905   4.536   2.622  15.890  0.3149  0.4752 -0.3358
 2148SOL    HW117906   4.591   2.698  15.908 -0.8785  1.9460 -2.9924
 2148SOL    HW217907   4.601   2.562  15.853 -0.2206  0.8129 -1.8242
 2149SOL     OW17908   4.332   4.337  10.611  0.1544 -0.3804 -0.0135
 2149SOL    HW117909   4.349   4.362  10.520  1.8064 -0.3901  0.2871
 2149SOL    HW217910   4.359   4.414  10.661 -1.5943 -0.0062  0.3335
 2150SOL     OW17911   3.656   3.779   5.458  0.2010 -0.0184  0.0351
 2150SOL    HW117912   3.717   3.794   5.530  2.5854 -2.6396 -1.4472
 2150SOL    HW217913   3.657   3.858   5.403  1.6166 -1.1653 -1.5538
 2151SOL     OW17914   3.901   2.017   5.021  0.6040 -0.4325 -0.3282
 2151SOL    HW117915   3.857   2.003   4.937 -0.9758  0.7228  0.3215
 2151SOL    HW217916   3.827   2.007   5.081 -0.0566  0.9472 -0.9072
 2152SOL     OW17917   0.702   2.745   3.465  0.0357  0.2009 -0.1751
 2152SOL    HW117918   0.661   2.800   3.398 -0.0964 -2.5061 -2.3276
 2152SOL    HW217919   0.734   2.674   3.409  0.2812  1.3511 -1.4994
 2153SOL     OW17920   3.059   4.099   0.524  0.0567 -0.1487  0.0819
 2153SOL    HW117921   2.973   4.058   0.529 -1.1256  2.2663 -0.7899
 2153SOL    HW217922   3.053   4.172   0.463  1.2797  2.2474  2.8138
 2154SOL     OW17923   1.835   0.292   6.426  0.4405  0.8044 -0.1291
 2154SOL    HW117924   1.923   0.314   6.458  0.1353  1.6439  0.1489
 2154SOL    HW217925   1.796   0.380   6.428 -2.5840 -0.5492  0.6368
 2155SOL     OW17926   0.603   1.974   0.346 -0.0336  0.3236  0.0957
 2155SOL    HW117927   0.658   2.033   0.295 -0.4118  1.6282  1.1834
 2155SOL    HW217928   0.593   1.893   0.297 -0.6468  1.6448 -1.9635
 2156SOL     OW17929   4.068   3.356   8.579 -0.1581 -0.4024 -0.9529
 2156SOL    HW117930   4.091   3.440   8.619  0.2323 -1.3786  0.8670
 2156SOL    HW217931   4.154   3.327   8.550 -0.0476  0.6245 -1.6734
 2157SOL     OW17932   3.416   1.507   5.602  0.0873  0.1515  0.0553
 2157SOL    HW117933   3.485   1.557   5.559 -2.2693  1.5757 -1.9918
 2157SOL    HW217934   3.424   1.424   5.555  0.6291 -0.2113  0.7834
 2158SOL     OW17935   3.002   3.881   8.605  0.2089  0.3018 -0.4197
 2158SOL    HW117936   3.076   3.888   8.544  3.1059  1.5096  3.2490
 2158SOL    HW217937   2.960   3.808   8.558 -1.6966 -0.0876  1.8969
 2159SOL     OW17938   4.215   4.066   9.365  0.3760 -0.1441  0.5400
 2159SOL    HW117939   4.174   4.152   9.353 -0.4084 -0.3614  1.6843
 2159SOL    HW217940   4.215   4.067   9.461  1.6153  0.2974  0.5371
 2160SOL     OW17941   3.366   1.279  17.554  0.5362  0.5039  0.2461
 2160SOL    HW117942   3.426   1.353  17.563 -0.2056  1.0388  0.7843
 2160SOL    HW217943   3.411   1.229  17.486 -1.4697 -1.1084  0.0973
 2161SOL     OW17944   3.452   1.015   5.643  0.0299  0.0062  0.1579
 2161SOL    HW117945   3.529   0.960   5.630  1.2476  1.8384 -0.3315
 2161SOL    HW217946   3.393   0.956   5.690  0.0405  0.6976  1.0246
 2162SOL     OW17947   4.379   3.800  13.203 -0.5191  0.3366  0.0507
 2162SOL    HW117948   4.411   3.842  13.283  3.7827 -0.3743 -1.3303
 2162SOL    HW217949   4.293   3.841  13.193  0.2202  1.7374 -0.4615
 2163SOL     OW17950   3.224   3.108  17.675 -0.4036 -0.7081  0.1675
 2163SOL    HW117951   3.224   3.030   0.033 -2.6880 -1.1193 -0.4119
 2163SOL    HW217952   3.304   3.152   0.004  1.3266 -2.1634 -2.6275
 2164SOL     OW17953   1.498   3.111   2.820  0.0016 -0.4391 -0.5526
 2164SOL    HW117954   1.510   3.161   2.740 -1.4454  0.3157 -0.2998
 2164SOL    HW217955   1.468   3.031   2.778 -1.9496  1.2217 -2.3212
 2165SOL     OW17956   4.099   2.044   4.778 -0.3604 -0.1221  0.5564
 2165SOL    HW117957   4.047   1.984   4.724 -1.4329  0.4167  0.9795
 2165SOL    HW217958   4.053   2.034   4.861 -0.3052 -1.4815  0.4336
 2166SOL     OW17959   0.576   0.015   3.784 -0.2533  0.0796  0.0503
 2166SOL    HW117960   0.570   0.081   3.714  0.5470  0.6130  0.4868
 2166SOL    HW217961   0.541   4.671   3.727 -2.6535  1.2552  0.1304
 2167SOL     OW17962   0.803   2.004  16.483 -1.0158 -0.1731  0.8945
 2167SOL    HW117963   0.722   1.954  16.497 -0.7787 -0.1128  2.4726
 2167SOL    HW217964   0.823   2.046  16.567 -3.2321  2.8882 -0.1349
 2168SOL     OW17965   2.042   1.605   9.810 -0.0392 -0.4282  0.0410
 2168SOL    HW117966   2.113   1.629   9.869 -0.3221 -1.9104  0.9722
 2168SOL    HW217967   1.989   1.552   9.870  1.9206 -1.3845  0.9313
 2169SOL     OW17968   0.887   1.752  12.729  0.0795 -0.0501 -0.1977
 2169SOL    HW117969   0.940   1.692  12.675  0.4240 -0.0399  0.1322
 2169SOL    HW217970   0.880   1.702  12.810  0.2613 -0.3160 -0.3456
 2170SOL     OW17971   1.260   2.098   4.384  0.0629 -0.3740  0.9103
 2170SOL    HW117972   1.261   2.015   4.336  2.1621  0.4353 -0.4369
 2170SOL    HW217973   1.345   2.079   4.424  0.4151  0.2269  0.4414
 2171SOL     OW17974   2.090   4.131   6.982 -0.4344  0.1012  0.1508
 2171SOL    HW117975   2.077   4.080   6.902  2.4165  0.2299 -0.3963
 2171SOL    HW217976   2.037   4.211   6.974  1.2539  1.3639  1.5358
 2172SOL     OW17977   1.229   3.998   2.998 -0.1410 -0.1447  0.6596
 2172SOL    HW117978   1.239   3.990   3.093 -0.2232  0.3162  0.7075
 2172SOL    HW217979   1.191   4.086   2.991  0.5568  0.1809  0.9707
 2173SOL     OW17980   1.184   4.161   3.807  0.1335 -0.4094  0.5770
 2173SOL    HW117981   1.151   4.250   3.793  0.0388 -0.6208 -0.5874
 2173SOL    HW217982   1.272   4.167   3.770 -0.1410 -1.0536 -0.1715
 2174SOL     OW17983   1.647   1.328   2.776 -0.0502  0.0920 -0.6601
 2174SOL    HW117984   1.734   1.350   2.743  0.4219  0.1371  0.6158
 2174SOL    HW217985   1.603   1.412   2.789 -0.5597 -0.4944  1.4061
 2175SOL     OW17986   1.055   3.888   4.599  0.1952  0.2203 -0.0086
 2175SOL    HW117987   0.961   3.891   4.617 -0.1133  1.3134 -1.7990
 2175SOL    HW217988   1.070   3.800   4.634 -0.1321  0.5467  0.9619
 2176SOL     OW17989   0.189   0.944   4.440 -0.0889  0.3763  0.2190
 2176SOL    HW117990   0.138   1.015   4.402 -0.6209  0.0121  0.2512
 2176SOL    HW217991   0.277   0.964   4.408  0.2560  0.2946  1.1232
 2177SOL     OW17992   2.585   0.054  13.482  0.4608 -0.1078 -0.6411
 2177SOL    HW117993   2.559   4.705  13.538  0.9589 -1.1894 -1.8191
 2177SOL    HW217994   2.557   0.123  13.541  1.8745  1.1330 -1.4179
 2178SOL     OW17995   1.303   3.898   3.641  0.1289  0.4815 -0.2123
 2178SOL    HW117996   1.316   3.882   3.735 -0.9084  2.2796  0.2284
 2178SOL    HW217997   1.322   3.809   3.612 -1.6587  0.1896 -0.4434
 2179SOL     OW17998   4.570   2.421   3.686 -0.1645  0.2792  0.2047
 2179SOL    HW117999   4.618   2.345   3.720 -0.9737 -0.0514  0.6327
 2179SOL    HW218000   4.641   2.483   3.671  0.6424 -0.8724 -0.6894
 2180SOL     OW18001   4.212   3.392   8.002  0.4147 -0.4622 -0.2577
 2180SOL    HW118002   4.306   3.382   8.017  0.3212  0.0297  0.6416
 2180SOL    HW218003   4.193   3.482   8.028 -0.7422 -0.4418 -1.1364
 2181SOL     OW18004   0.806   3.181   1.297 -0.1349  0.0258 -0.9795
 2181SOL    HW118005   0.804   3.113   1.230  0.4056  0.4430 -1.4141
 2181SOL    HW218006   0.797   3.251   1.232 -0.4982 -2.0380 -3.1284
 2182SOL     OW18007   0.608   0.012  12.321 -0.2832  0.4342 -0.3027
 2182SOL    HW118008   0.663   4.679  12.375 -0.5406  0.3145 -0.1714
 2182SOL    HW218009   0.553   0.049  12.390  0.9733 -0.0267  0.9440
 2183SOL     OW18010   3.633   0.601   9.107  0.0854  0.2028  0.1026
 2183SOL    HW118011   3.717   0.583   9.149  0.2073 -0.0998 -0.2764
 2183SOL    HW218012   3.665   0.660   9.039  1.0204 -0.9759 -0.4654
 2184SOL     OW18013   0.575   3.107   0.674  0.2328 -0.5461  0.8430
 2184SOL    HW118014   0.556   3.014   0.687  0.0869 -0.3829  1.8195
 2184SOL    HW218015   0.506   3.135   0.615  0.3269 -3.2638 -0.5815
 2185SOL     OW18016   3.348   2.768   8.261  0.3623 -0.0674 -0.0841
 2185SOL    HW118017   3.393   2.749   8.178 -0.2669  0.4427 -0.5490
 2185SOL    HW218018   3.417   2.802   8.318 -0.1085 -0.1937  0.5583
 2186SOL     OW18019   4.290   4.001   8.032  0.0219 -0.3030 -1.0960
 2186SOL    HW118020   4.250   4.061   8.095  0.9360 -2.4194  1.5327
 2186SOL    HW218021   4.320   3.931   8.090  0.7405  0.1471 -0.9227
 2187SOL     OW18022   4.675   2.407   5.197  0.0691 -0.2905  0.4667
 2187SOL    HW118023   0.024   2.348   5.179 -0.3504 -0.7954  0.4190
 2187SOL    HW218024   4.720   2.473   5.250  0.3540 -0.4581  0.4346
 2188SOL     OW18025   0.828   3.498   3.073 -0.7418  0.1202 -0.4029
 2188SOL    HW118026   0.750   3.465   3.118 -0.0462 -1.8402 -0.6506
 2188SOL    HW218027   0.823   3.587   3.109  1.8700  0.6211 -1.2434
 2189SOL     OW18028   3.853   0.972   3.178 -0.1774  0.0058 -0.1341
 2189SOL    HW118029   3.890   0.889   3.206  1.0759  0.1652 -1.3198
 2189SOL    HW218030   3.920   0.992   3.112  1.0302 -1.9144  0.5132
 2190SOL     OW18031   4.343   4.413   1.628  0.1230 -0.0807 -0.0526
 2190SOL    HW118032   4.383   4.440   1.546 -0.3014 -0.3463 -0.3461
 2190SOL    HW218033   4.334   4.498   1.670 -1.7908 -0.1463 -0.3062
 2191SOL     OW18034   0.196   3.435  10.178 -0.0485  0.0688 -0.3339
 2191SOL    HW118035   0.234   3.506  10.230  0.8555 -1.6934  1.3758
 2191SOL    HW218036   0.268   3.427  10.116 -1.1767 -1.4300 -1.4328
 2192SOL     OW18037   4.702   0.812   7.978 -0.4982  0.0983 -0.0408
 2192SOL    HW118038   0.008   0.898   8.006  1.0176 -0.6841  0.7470
 2192SOL    HW218039   0.058   0.763   7.960  0.2282  2.0705 -2.0917
 2193SOL     OW18040   1.055   0.605   8.662  0.0136  1.0032  0.6199
 2193SOL    HW118041   1.031   0.513   8.674 -1.6451  1.0950 -2.0884
 2193SOL    HW218042   1.015   0.646   8.740  0.3010  1.4291  0.5431
 2194SOL     OW18043   1.758   0.955   7.657  0.7384  0.3463  0.2330
 2194SOL    HW118044   1.729   0.868   7.683 -0.8965  0.9779  0.5456
 2194SOL    HW218045   1.772   0.946   7.563  0.9380  1.5349  0.1452
 2195SOL     OW18046   1.725   2.255  13.770 -0.3593 -0.8785  0.0574
 2195SOL    HW118047   1.717   2.251  13.675 -1.4363  0.1584  0.1062
 2195SOL    HW218048   1.795   2.321  13.769 -0.7509 -0.4591  0.2553
 2196SOL     OW18049   1.046   2.339  14.013  0.0865 -0.5821  0.0543
 2196SOL    HW118050   0.987   2.304  13.947 -1.4745  2.2090  0.0056
 2196SOL    HW218051   1.131   2.315  13.977  0.8904 -0.3082  1.7590
 2197SOL     OW18052   0.353   3.651   4.812 -0.4348  0.3008 -0.1114
 2197SOL    HW118053   0.409   3.719   4.848  0.8718  0.3438 -2.1782
 2197SOL    HW218054   0.278   3.708   4.797 -0.7982  0.2607  1.5593
 2198SOL     OW18055   3.781   0.101   6.432  0.1104 -0.6324 -0.4265
 2198SOL    HW118056   3.833   0.159   6.488 -1.4492  0.0304  0.3233
 2198SOL    HW218057   3.799   0.149   6.351 -1.5812 -0.1384 -0.5204
 2199SOL     OW18058   4.004   2.701   6.457 -0.9643 -0.3795  0.7349
 2199SOL    HW118059   4.032   2.768   6.519 -0.5557 -0.2393  0.3950
 2199SOL    HW218060   3.978   2.636   6.522  1.2520 -0.7228  1.2605
 2200SOL     OW18061   1.675   0.952   5.509 -0.1784  0.8007  0.1007
 2200SOL    HW118062   1.728   0.995   5.576  0.9438  0.4744 -0.5620
 2200SOL    HW218063   1.712   0.864   5.515 -0.2903  0.6769 -0.9111
 2201SOL     OW18064   2.465   4.065   3.015  0.2657  0.5685 -0.6096
 2201SOL    HW118065   2.511   4.135   2.969  1.6607  0.5129  0.7206
 2201SOL    HW218066   2.521   3.987   3.012 -1.7641 -0.9859  1.4510
 2202SOL     OW18067   1.763   0.605   5.727  0.3335 -0.0117  0.2223
 2202SOL    HW118068   1.845   0.627   5.772 -0.2850  1.7153  0.5283
 2202SOL    HW218069   1.761   0.510   5.725 -0.4155  0.0427 -1.4256
 2203SOL     OW18070   1.529   0.424   3.080 -0.3609  0.0199 -0.0694
 2203SOL    HW118071   1.446   0.391   3.044  0.6937 -0.4458 -2.0417
 2203SOL    HW218072   1.569   0.340   3.105  1.1447  0.7114 -0.1704
 2204SOL     OW18073   3.741   4.685   9.586  0.5475 -0.1192 -0.5295
 2204SOL    HW118074   3.651   4.704   9.612  1.4865  1.3823  1.6748
 2204SOL    HW218075   3.794   0.020   9.641  1.4831 -1.9954  0.6069
 2205SOL     OW18076   1.439   1.887   1.611 -0.1916 -0.7621 -0.4295
 2205SOL    HW118077   1.391   1.806   1.630 -1.2410  0.1718  0.9005
 2205SOL    HW218078   1.364   1.945   1.595  0.8282  0.8776  0.6999
 2206SOL     OW18079   0.634   2.743  10.981  0.1570  0.2607  0.1508
 2206SOL    HW118080   0.643   2.837  10.965  1.4721 -0.0358 -0.7874
 2206SOL    HW218081   0.600   2.698  10.904  1.1332 -0.4890  0.1647
 2207SOL     OW18082   2.436   0.661   5.059 -0.6579  0.0473 -0.2690
 2207SOL    HW118083   2.405   0.605   4.988  1.1044  1.8508 -2.4559
 2207SOL    HW218084   2.429   0.748   5.019 -0.2324  1.3705  2.4813
 2208SOL     OW18085   4.042   3.000   1.621 -0.0608  0.2585 -0.3145
 2208SOL    HW118086   3.969   3.040   1.668 -2.9073 -3.6003 -1.4368
 2208SOL    HW218087   4.117   3.060   1.627 -0.9445  1.3408 -0.1067
 2209SOL     OW18088   0.777   0.789   5.343  0.3867 -0.4017 -0.5596
 2209SOL    HW118089   0.718   0.862   5.360 -0.6920 -1.6670  1.1664
 2209SOL    HW218090   0.794   0.802   5.249 -1.3073 -2.7007 -1.1873
 2210SOL     OW18091   0.441   2.648  11.143  0.2185 -0.4365  0.2037
 2210SOL    HW118092   0.518   2.686  11.102  0.2507 -1.2298 -0.4745
 2210SOL    HW218093   0.471   2.639  11.233  2.0176  1.1335 -0.2429
 2211SOL     OW18094   3.297   3.708  10.130  0.1315 -0.7670  0.0643
 2211SOL    HW118095   3.279   3.664  10.213 -0.5684  0.2333  0.4386
 2211SOL    HW218096   3.224   3.685  10.072 -0.6362  0.0053  0.7248
 2212SOL     OW18097   4.513   4.506   6.276  0.3425 -0.7612 -0.4230
 2212SOL    HW118098   4.420   4.522   6.263  0.4361  0.2677  0.1154
 2212SOL    HW218099   4.539   4.521   6.185 -1.3506  0.5147 -0.6973
 2213SOL     OW18100   1.625   2.616   5.954  0.0608  0.3318 -0.5072
 2213SOL    HW118101   1.600   2.705   5.927  0.5970 -0.0528 -2.2349
 2213SOL    HW218102   1.604   2.619   6.048  0.5622  0.4552 -0.4004
 2214SOL     OW18103   2.377   0.385   9.399  0.5041  0.1600 -0.1222
 2214SOL    HW118104   2.470   0.388   9.420  0.7197  1.4380 -1.2613
 2214SOL    HW218105   2.374   0.291   9.377 -1.1948 -0.4737  2.9038
 2215SOL     OW18106   2.542   1.198   8.744 -0.3778  0.5212  0.1986
 2215SOL    HW118107   2.609   1.245   8.695  1.0779 -2.6584 -0.9052
 2215SOL    HW218108   2.490   1.163   8.672  0.5200 -0.4698  0.0233
 2216SOL     OW18109   3.292   0.511   5.105  0.4884  0.1590  0.2759
 2216SOL    HW118110   3.256   0.487   5.190 -0.5035 -1.4400 -0.6125
 2216SOL    HW218111   3.327   0.424   5.088 -0.8496  0.5867 -4.7479
 2217SOL     OW18112   1.661   2.405  13.994 -0.1634 -0.1376 -0.0375
 2217SOL    HW118113   1.721   2.337  14.027 -0.7802 -1.5005 -1.6936
 2217SOL    HW218114   1.594   2.347  13.958  0.8915 -1.5308  0.2458
 2218SOL     OW18115   3.269   4.273  11.921  0.2275  0.9597 -0.3182
 2218SOL    HW118116   3.330   4.254  11.849 -0.6367  0.9401 -1.0357
 2218SOL    HW218117   3.340   4.289  11.984  0.8027  1.5920 -1.1167
 2219SOL     OW18118   0.222   0.607   5.597  0.8729 -0.9319 -0.2952
 2219SOL    HW118119   0.234   0.701   5.613 -1.0823 -0.5311 -1.2489
 2219SOL    HW218120   0.165   0.603   5.521 -1.3870 -2.5220  1.4751
 2220SOL     OW18121   2.686   3.186   7.705 -0.3444 -0.1459 -0.3115
 2220SOL    HW118122   2.675   3.099   7.742  0.5605  0.4649  1.4537
 2220SOL    HW218123   2.758   3.227   7.755 -0.8228  0.2917  0.0206
 2221SOL     OW18124   4.170   4.109   7.447  0.6330  0.2407 -0.5219
 2221SOL    HW118125   4.137   4.180   7.502  0.5488 -0.0235 -0.2336
 2221SOL    HW218126   4.098   4.047   7.453  0.7074  0.3560  1.4788
 2222SOL     OW18127   2.873   0.563   8.868  0.1770  0.0426 -0.4954
 2222SOL    HW118128   2.793   0.569   8.816  0.0398  2.7861  0.0467
 2222SOL    HW218129   2.920   0.638   8.830 -0.1114  1.1971  1.4558
 2223SOL     OW18130   4.094   1.440  15.842 -0.0223  0.8766  0.6191
 2223SOL    HW118131   4.023   1.429  15.779 -0.2128  0.4058  0.9148
 2223SOL    HW218132   4.123   1.529  15.824 -2.1007  1.1911 -1.0791
 2224SOL     OW18133   4.118   1.296   5.404 -0.1890 -0.3003  0.3168
 2224SOL    HW118134   4.209   1.297   5.434  0.0341 -0.1761 -0.3747
 2224SOL    HW218135   4.097   1.388   5.425 -0.3417  0.0923 -1.5891
 2225SOL     OW18136   4.450   1.601   3.939  0.4361  0.0454 -0.1290
 2225SOL    HW118137   4.429   1.542   4.011 -0.7864 -0.5596 -0.9714
 2225SOL    HW218138   4.388   1.568   3.874 -0.6679 -0.7145  1.3137
 2226SOL     OW18139   3.928   1.573   0.980 -0.1187 -0.0192 -0.7870
 2226SOL    HW118140   3.896   1.507   1.041  0.6862  0.8229  0.5367
 2226SOL    HW218141   3.843   1.601   0.946 -0.9877 -2.3375 -0.5518
 2227SOL     OW18142   3.490   2.805   4.869  0.0436 -0.1881 -0.0250
 2227SOL    HW118143   3.420   2.847   4.819  0.0087  2.1922  1.9967
 2227SOL    HW218144   3.572   2.833   4.827 -0.5131 -1.5670 -2.0060
 2228SOL     OW18145   2.234   3.476   5.475  0.3537  0.2193  0.2674
 2228SOL    HW118146   2.204   3.534   5.546 -1.1261 -0.2478  0.0365
 2228SOL    HW218147   2.163   3.412   5.479  0.2004  0.3595 -0.2740
 2229SOL     OW18148   1.496   3.094  12.811 -0.1610 -0.5241  0.4905
 2229SOL    HW118149   1.499   2.998  12.810  1.7797 -0.4608 -1.4143
 2229SOL    HW218150   1.503   3.106  12.716 -0.9972  0.6680  0.5786
 2230SOL     OW18151   2.546   4.619   7.823  0.0957 -0.1430  0.4522
 2230SOL    HW118152   2.577   4.534   7.793 -0.1323 -1.1284  3.0041
 2230SOL    HW218153   2.615   4.663   7.872  1.9268 -0.9004 -1.4165
 2231SOL     OW18154   1.297   2.219   5.517 -0.0286 -0.3003  0.1782
 2231SOL    HW118155   1.297   2.131   5.479  0.0620 -0.4988  0.6342
 2231SOL    HW218156   1.212   2.210   5.559  0.8717 -0.8306  1.9022
 2232SOL     OW18157   2.714   0.912   6.641  0.8514  0.1663  0.0893
 2232SOL    HW118158   2.790   0.946   6.593 -0.5146  1.4304 -1.2001
 2232SOL    HW218159   2.732   0.819   6.656  0.0265 -0.3392 -2.0741
 2233SOL     OW18160   4.063   0.160   4.982  0.3327  0.1659 -0.1964
 2233SOL    HW118161   3.974   0.151   5.019  1.2976  0.5213  2.2380
 2233SOL    HW218162   4.047   0.103   4.907  1.5698  1.6460 -1.5601
 2234SOL     OW18163   2.999   3.828   9.017  0.3840  0.2260 -0.5219
 2234SOL    HW118164   3.003   3.915   9.056  1.2868 -0.4476  0.8491
 2234SOL    HW218165   2.937   3.840   8.945 -0.8321 -1.0777  0.3067
 2235SOL     OW18166   0.918   2.235   4.723 -0.2005 -0.0543 -0.6756
 2235SOL    HW118167   0.977   2.308   4.708 -0.3341  0.4884  1.4315
 2235SOL    HW218168   0.929   2.191   4.639  0.9218  1.4619 -1.3039
 2236SOL     OW18169   4.143   3.587   8.739  0.0633  0.2653 -0.4789
 2236SOL    HW118170   4.216   3.574   8.800  0.8374  2.4349 -0.9601
 2236SOL    HW218171   4.094   3.662   8.773 -1.5592 -0.9466 -0.1304
 2237SOL     OW18172   0.976   4.271  11.452 -0.1599 -0.0821 -0.3709
 2237SOL    HW118173   1.048   4.326  11.484 -1.8483  0.7124  2.0616
 2237SOL    HW218174   0.999   4.268  11.359  0.1322  1.4776 -0.3468
 2238SOL     OW18175   1.852   3.274   3.146  0.0539 -1.0031  0.4279
 2238SOL    HW118176   1.792   3.250   3.217 -0.3276 -1.7427 -0.1452
 2238SOL    HW218177   1.800   3.250   3.070  2.4816 -2.1652 -0.8899
 2239SOL     OW18178   0.684   1.168   2.281 -0.2409 -0.0870 -0.1374
 2239SOL    HW118179   0.728   1.085   2.294 -2.2386 -1.2629 -0.8805
 2239SOL    HW218180   0.605   1.144   2.232  0.5291 -0.6036 -1.1351
 2240SOL     OW18181   3.868   1.364   5.328 -0.8278 -0.1501 -0.2402
 2240SOL    HW118182   3.875   1.387   5.235 -0.7635 -0.3138 -0.2759
 2240SOL    HW218183   3.951   1.320   5.347 -0.3376  1.3802  1.1835
 2241SOL     OW18184   0.313   3.545  14.577  0.3519  0.2254  0.1298
 2241SOL    HW118185   0.305   3.640  14.566  1.0547  0.3926  0.9978
 2241SOL    HW218186   0.268   3.516  14.498  1.1080 -1.1005  0.1846
 2242SOL     OW18187   0.906   3.894   6.877  0.1829  0.5045  0.4468
 2242SOL    HW118188   0.882   3.823   6.817  0.0827  0.0818  0.9817
 2242SOL    HW218189   0.932   3.949   6.804  0.6101 -0.7961 -0.3791
 2243SOL     OW18190   0.366   1.346   0.431 -0.5329 -0.0849  0.3324
 2243SOL    HW118191   0.399   1.292   0.503 -0.9480  0.2458  0.7732
 2243SOL    HW218192   0.450   1.357   0.388 -0.3503  1.7529  1.1522
 2244SOL     OW18193   4.412   2.848   1.972  0.5046  0.1843 -0.4643
 2244SOL    HW118194   4.375   2.925   2.017 -1.7094 -2.6929  2.6573
 2244SOL    HW218195   4.365   2.833   1.890 -2.3817 -1.5517  1.5267
 2245SOL     OW18196   1.449   4.111   3.983  0.0284 -0.3530  0.1840
 2245SOL    HW118197   1.460   4.200   3.950 -0.9114 -0.4956 -0.5314
 2245SOL    HW218198   1.390   4.107   4.058 -0.0255  0.2962  0.1801
 2246SOL     OW18199   3.384   0.748   7.449 -0.1166 -0.1291 -0.0228
 2246SOL    HW118200   3.375   0.659   7.417  4.0946 -0.3881 -0.4691
 2246SOL    HW218201   3.454   0.791   7.401  0.8194 -0.6161  0.9139
 2247SOL     OW18202   4.627   3.597   1.819  0.3657  0.4744  0.4666
 2247SOL    HW118203   4.540   3.604   1.858  0.5211  2.1913  0.5365
 2247SOL    HW218204   4.677   3.600   1.900 -0.6727 -2.3456  1.2002
 2248SOL     OW18205   3.535   1.629  10.329  0.6923  0.2005 -0.0592
 2248SOL    HW118206   3.488   1.566  10.275 -1.9501  1.6412  0.5410
 2248SOL    HW218207   3.472   1.700  10.340 -0.9648 -1.4173  0.9457
 2249SOL     OW18208   1.150   1.208   6.267 -0.7532 -0.5616  0.0557
 2249SOL    HW118209   1.073   1.179   6.316 -0.4106 -0.2217  0.7893
 2249SOL    HW218210   1.130   1.301   6.254 -0.4723 -0.4679  0.3059
 2250SOL     OW18211   1.759   2.787   3.216 -0.1048  0.0835 -0.8912
 2250SOL    HW118212   1.702   2.776   3.292  0.3659  1.8458 -0.2786
 2250SOL    HW218213   1.687   2.807   3.156 -1.3550 -0.8374  0.3358
 2251SOL     OW18214   1.110   1.464   2.402 -0.1535  0.1572  0.0264
 2251SOL    HW118215   1.158   1.408   2.464  0.9322 -0.5851 -1.4859
 2251SOL    HW218216   1.077   1.400   2.339 -3.0168  0.0079  1.6711
 2252SOL     OW18217   0.719   1.955   4.250 -0.0375 -0.1776  0.3289
 2252SOL    HW118218   0.813   1.955   4.232  0.4384 -1.5620  2.7784
 2252SOL    HW218219   0.697   1.865   4.225 -1.0203 -0.6956  3.0540
 2253SOL     OW18220   2.946   0.212   5.753  0.6400 -0.8709  0.2576
 2253SOL    HW118221   2.930   0.221   5.659 -1.7707  0.2075  0.7818
 2253SOL    HW218222   2.903   0.127   5.762 -0.4320 -0.3115  0.3325
 2254SOL     OW18223   2.356   0.225  11.719  0.4724  0.6652  0.8706
 2254SOL    HW118224   2.436   0.262  11.756  1.7163  0.0818 -1.2251
 2254SOL    HW218225   2.352   0.136  11.754 -3.1212 -0.0422 -1.2117
 2255SOL     OW18226   3.232   4.331  15.447  0.5260  0.5903 -0.2595
 2255SOL    HW118227   3.287   4.254  15.431  1.5558  1.6685 -1.9200
 2255SOL    HW218228   3.143   4.317  15.414  1.1325 -2.6427 -0.4976
 2256SOL     OW18229   4.402   2.423   5.296  0.1502 -0.5137 -0.4446
 2256SOL    HW118230   4.474   2.421   5.233 -0.1704  1.5247 -0.8748
 2256SOL    HW218231   4.337   2.462   5.237  0.3801 -0.1293 -0.4442
 2257SOL     OW18232   0.339   2.084   4.052 -0.1185  0.5921 -0.1107
 2257SOL    HW118233   0.260   2.136   4.066 -0.5380  0.1376 -0.8413
 2257SOL    HW218234   0.324   2.024   4.125 -0.6244  0.7185 -0.1127
 2258SOL     OW18235   2.346   4.030  13.374 -0.1869 -0.3495 -0.5135
 2258SOL    HW118236   2.393   4.104  13.335 -1.5497 -0.2701 -1.9988
 2258SOL    HW218237   2.406   3.956  13.365  0.5702  0.2845 -0.5886
 2259SOL     OW18238   3.374   2.867  15.393  0.2574  0.5126 -0.1143
 2259SOL    HW118239   3.341   2.902  15.311  0.3674 -0.1508 -0.4409
 2259SOL    HW218240   3.312   2.794  15.396  0.0057  0.8219  2.4064
 2260SOL     OW18241   0.298   1.547   6.603  0.4067  0.1815 -0.2470
 2260SOL    HW118242   0.209   1.515   6.591  0.4522  0.2051 -0.6494
 2260SOL    HW218243   0.338   1.534   6.517 -0.2982  0.7414 -0.6562
 2261SOL     OW18244   1.605   0.013   4.053 -0.1767 -0.4588 -0.8676
 2261SOL    HW118245   1.624   4.644   4.055  2.8361  0.1460 -0.3408
 2261SOL    HW218246   1.532   0.025   4.113  0.2919 -0.8339 -0.2158
 2262SOL     OW18247   2.465   3.285  15.754  0.3437  0.3198  0.1169
 2262SOL    HW118248   2.482   3.194  15.777 -0.6182 -0.3644 -1.9122
 2262SOL    HW218249   2.428   3.273  15.667 -0.8786 -0.6727  0.7883
 2263SOL     OW18250   1.340   3.099   8.189  0.1465 -0.0466  0.0344
 2263SOL    HW118251   1.383   3.014   8.193  0.3993  0.1039  0.5128
 2263SOL    HW218252   1.259   3.077   8.144  0.8792 -2.2239 -0.2444
 2264SOL     OW18253   0.628   1.719   3.119  0.1899  0.6348  0.2037
 2264SOL    HW118254   0.585   1.763   3.046  0.6954  0.9793  0.1132
 2264SOL    HW218255   0.704   1.674   3.081  0.1268  1.7900 -1.3099
 2265SOL     OW18256   3.227   1.517   0.804  0.4131  0.3893  0.0027
 2265SOL    HW118257   3.226   1.487   0.713 -0.6804 -0.2674  0.2435
 2265SOL    HW218258   3.134   1.537   0.810  0.3683  1.4174 -3.9370
 2266SOL     OW18259   3.129   1.934   3.863 -0.7824 -0.4499  0.1102
 2266SOL    HW118260   3.041   1.953   3.829 -0.2604  1.7940  0.0350
 2266SOL    HW218261   3.113   1.854   3.913 -1.6961 -0.6281 -0.4613
 2267SOL     OW18262   3.565   3.920   1.728  0.1402 -0.2921  0.1136
 2267SOL    HW118263   3.492   3.974   1.700 -1.0387 -2.6140 -1.3074
 2267SOL    HW218264   3.555   3.913   1.823  0.0464 -1.3685  0.0316
 2268SOL     OW18265   2.871   4.563   6.544  0.2913  0.5279  0.1727
 2268SOL    HW118266   2.783   4.574   6.579 -0.2045  0.0229 -0.9234
 2268SOL    HW218267   2.926   4.570   6.622  2.4840 -0.5891 -1.2884
 2269SOL     OW18268   0.414   0.778   7.752  0.1563  0.4835  0.1076
 2269SOL    HW118269   0.406   0.798   7.659  1.2240  2.5329  0.4621
 2269SOL    HW218270   0.322   0.773   7.779  0.3284 -1.4647  0.3370
 2270SOL     OW18271   0.379   3.981   0.139  0.4948  0.2465 -0.5096
 2270SOL    HW118272   0.359   4.036   0.215  0.8726  1.5773 -1.3759
 2270SOL    HW218273   0.381   4.049   0.071 -0.1458  0.2680 -0.4998
 2271SOL     OW18274   3.146   1.256   8.537  0.1478 -0.4713 -0.2179
 2271SOL    HW118275   3.120   1.345   8.513 -1.3759 -1.0628 -0.8028
 2271SOL    HW218276   3.066   1.216   8.504 -0.5518  1.1105 -0.4462
 2272SOL     OW18277   4.094   1.595   2.830  0.7902 -0.2285 -0.1954
 2272SOL    HW118278   4.071   1.687   2.817  1.6750  0.3341  2.0963
 2272SOL    HW218279   4.142   1.604   2.913 -1.5296  1.8811  0.9247
 2273SOL     OW18280   3.363   0.974   3.700  0.5274  0.1530  0.3391
 2273SOL    HW118281   3.382   1.031   3.626 -1.7142 -1.3214 -1.3625
 2273SOL    HW218282   3.269   0.990   3.708  0.2889 -2.0411  2.1113
 2274SOL     OW18283   3.472   3.600  17.320 -0.4151 -0.6470 -0.0967
 2274SOL    HW118284   3.381   3.604  17.348 -1.0223  1.1225 -2.3502
 2274SOL    HW218285   3.472   3.557  17.234  2.1069 -2.2988  0.7012
 2275SOL     OW18286   3.466   0.776   5.507 -0.2967 -0.2947 -0.0130
 2275SOL    HW118287   3.395   0.837   5.526  0.2203  0.5629 -0.8304
 2275SOL    HW218288   3.429   0.714   5.445  2.5123 -1.9498 -0.0564
 2276SOL     OW18289   1.280   3.838   9.737 -0.3136  0.1130  0.1357
 2276SOL    HW118290   1.347   3.794   9.684 -0.4041 -0.3262  0.3827
 2276SOL    HW218291   1.205   3.783   9.715  0.3296 -0.5591 -0.3810
 2277SOL     OW18292   4.305   4.223  13.248 -0.1494 -0.5337  0.7498
 2277SOL    HW118293   4.255   4.290  13.295  1.6669  2.3876 -1.5346
 2277SOL    HW218294   4.323   4.262  13.163 -0.3092 -1.0322  0.4861
 2278SOL     OW18295   1.925   3.316  11.486 -0.1040  0.3130 -0.1620
 2278SOL    HW118296   1.981   3.260  11.540 -0.0915 -1.0967 -1.6404
 2278SOL    HW218297   1.907   3.260  11.411 -1.1468  0.4548 -0.0132
 2279SOL     OW18298   3.132   2.210   6.174  0.0205 -0.1380 -0.4797
 2279SOL    HW118299   3.131   2.140   6.108  0.4285 -1.7470  1.2067
 2279SOL    HW218300   3.211   2.180   6.219  0.1625  1.2619  0.1822
 2280SOL     OW18301   3.148   1.311  13.303  0.5231  0.5626 -0.3363
 2280SOL    HW118302   3.097   1.310  13.222  0.4951 -1.4208 -0.3083
 2280SOL    HW218303   3.143   1.216  13.316  0.4776  0.4705 -1.0012
 2281SOL     OW18304   1.007   2.306   2.751 -0.7057 -0.3011 -0.3187
 2281SOL    HW118305   0.913   2.318   2.764 -0.7644 -1.6937  0.4573
 2281SOL    HW218306   1.021   2.225   2.799 -0.7419  1.1901  2.2421
 2282SOL     OW18307   1.958   2.036   8.723 -0.4558  0.2271 -0.0031
 2282SOL    HW118308   1.936   2.089   8.800  0.8748 -0.6591  0.9966
 2282SOL    HW218309   1.869   2.006   8.705 -0.4653 -0.5881  1.3645
 2283SOL     OW18310   4.099   0.224   7.985  0.3070 -0.3140  0.0500
 2283SOL    HW118311   4.080   0.296   8.045  0.8965  0.5744 -0.8407
 2283SOL    HW218312   4.193   0.231   7.969  0.3397  0.6667  0.6699
 2284SOL     OW18313   1.692   0.677   7.282 -0.1377  0.1128 -0.2512
 2284SOL    HW118314   1.603   0.712   7.279 -0.4212 -0.6004 -0.2016
 2284SOL    HW218315   1.731   0.726   7.211 -0.0241 -0.6465 -0.7099
 2285SOL     OW18316   3.816   3.373  12.238  0.0140  0.0441  0.2679
 2285SOL    HW118317   3.851   3.297  12.285 -0.4075  0.0310  0.5585
 2285SOL    HW218318   3.889   3.429  12.211 -0.9405  0.5963 -1.1825
 2286SOL     OW18319   4.362   2.052  16.199  0.4491  0.4141 -0.1572
 2286SOL    HW118320   4.331   1.984  16.140  1.7986  0.1023 -0.5147
 2286SOL    HW218321   4.389   2.119  16.136  2.9863 -0.7588 -0.3318
 2287SOL     OW18322   2.264   4.615   6.172 -0.3781  0.2262 -0.0523
 2287SOL    HW118323   2.347   4.608   6.219  0.5004 -2.7728 -2.0658
 2287SOL    HW218324   2.285   4.580   6.085 -0.5662 -1.9919  0.7966
 2288SOL     OW18325   3.326   3.434   7.895  0.4406  0.1345  0.0430
 2288SOL    HW118326   3.280   3.350   7.891 -0.7607  0.8567 -1.1828
 2288SOL    HW218327   3.409   3.415   7.853  0.1910  0.0642 -0.4178
 2289SOL     OW18328   2.247   1.751  15.854  0.0183  0.0390 -0.2562
 2289SOL    HW118329   2.321   1.734  15.796  0.5960  2.1757 -0.1363
 2289SOL    HW218330   2.222   1.842  15.838 -0.6086 -0.0611  0.1424
 2290SOL     OW18331   3.270   2.625   2.308 -0.2680 -0.2319  0.0177
 2290SOL    HW118332   3.227   2.615   2.223  1.3903  2.0707 -1.0796
 2290SOL    HW218333   3.364   2.610   2.297 -0.3771 -0.7227 -0.2564
 2291SOL     OW18334   3.602   2.273   6.148  0.1472 -0.1085 -0.4743
 2291SOL    HW118335   3.639   2.206   6.090 -0.6354  0.8553 -2.1059
 2291SOL    HW218336   3.527   2.228   6.185  2.0085 -2.1181  0.8949
 2292SOL     OW18337   0.152   3.175   4.350 -0.0618  0.8277  0.5005
 2292SOL    HW118338   0.130   3.088   4.383  1.6795 -0.8965 -2.8991
 2292SOL    HW218339   0.247   3.172   4.350 -0.0538  0.9058 -0.4387
 2293SOL     OW18340   0.042   0.595   5.400 -0.1422 -0.5110 -0.4998
 2293SOL    HW118341   0.029   0.689   5.409 -1.2163 -0.4998 -2.1359
 2293SOL    HW218342   4.678   0.577   5.368 -0.7525  3.0858 -0.8193
 2294SOL     OW18343   0.610   3.687  15.793 -0.1237  0.4734 -0.3472
 2294SOL    HW118344   0.550   3.624  15.834  1.1825 -0.4461  0.1503
 2294SOL    HW218345   0.590   3.772  15.831  0.2009  1.0638 -1.5033
 2295SOL     OW18346   1.459   4.381   5.804 -0.2287 -0.5729  0.0909
 2295SOL    HW118347   1.524   4.436   5.848 -1.9360 -0.3965  2.3475
 2295SOL    HW218348   1.403   4.440   5.753 -0.6941  0.0257  1.3011
 2296SOL     OW18349   1.357   2.813  15.049 -0.3169  0.2244 -0.3466
 2296SOL    HW118350   1.370   2.907  15.057 -0.5576  0.1857  0.4914
 2296SOL    HW218351   1.439   2.793  15.003 -0.7863 -1.5714 -0.4004
 2297SOL     OW18352   1.243   2.102   7.589  0.0610  0.8432 -0.0147
 2297SOL    HW118353   1.177   2.108   7.658  0.2163  1.7721  0.0587
 2297SOL    HW218354   1.290   2.184   7.604 -3.1777  2.7430 -0.3096
 2298SOL     OW18355   2.634   3.456  15.598  0.0062 -0.6613  0.1513
 2298SOL    HW118356   2.565   3.435  15.661 -0.6878 -0.3366 -0.4977
 2298SOL    HW218357   2.644   3.373  15.551 -1.4944  0.7152 -2.5725
 2299SOL     OW18358   1.473   4.432   2.440 -0.3860  0.1730 -0.7451
 2299SOL    HW118359   1.379   4.439   2.419 -0.9700  2.1056  2.5947
 2299SOL    HW218360   1.492   4.522   2.412  3.1268 -0.1994  0.5653
 2300SOL     OW18361   3.690   1.614   6.571 -0.1300 -0.7264 -0.3452
 2300SOL    HW118362   3.751   1.542   6.590  0.2085  0.2709  2.3405
 2300SOL    HW218363   3.606   1.588   6.609  0.8942 -1.6265  1.3365
 2301SOL     OW18364   3.244   0.677   4.066 -0.5258 -0.2155 -0.5236
 2301SOL    HW118365   3.159   0.707   4.035 -0.5757  0.6077  0.4260
 2301SOL    HW218366   3.257   0.713   4.153 -0.2553 -2.3432  0.3142
 2302SOL     OW18367   0.915   4.031  11.567  0.4986 -0.0979 -0.5014
 2302SOL    HW118368   0.948   4.120  11.554 -0.7903  0.3915 -0.3815
 2302SOL    HW218369   0.968   3.971  11.514  2.6701  0.1275  1.4236
 2303SOL     OW18370   1.695   0.661   9.341  0.0870 -0.0438  0.0499
 2303SOL    HW118371   1.647   0.694   9.417  1.6786 -1.6626  1.7544
 2303SOL    HW218372   1.749   0.737   9.321  1.4572 -0.1223  3.5017
 2304SOL     OW18373   0.666   0.070  12.880 -0.0551 -0.6811 -0.5167
 2304SOL    HW118374   0.615   0.140  12.919 -0.7137 -0.2057 -2.2133
 2304SOL    HW218375   0.668   0.015  12.958 -1.8804 -0.8348 -0.5897
 2305SOL     OW18376   1.541   2.235   9.572 -0.4950 -0.3527 -0.5026
 2305SOL    HW118377   1.449   2.206   9.569  0.2178 -2.5904 -1.0577
 2305SOL    HW218378   1.543   2.266   9.662  1.4522 -0.4685 -0.5044
 2306SOL     OW18379   3.402   1.540   4.780  0.2391 -0.2589 -0.0315
 2306SOL    HW118380   3.367   1.627   4.765 -0.1746 -0.5621 -0.7986
 2306SOL    HW218381   3.493   1.554   4.755  0.7445 -1.5021  1.0679
 2307SOL     OW18382   0.343   4.620   5.427  0.0457 -0.2257 -0.1275
 2307SOL    HW118383   0.301   4.586   5.506 -0.3306  2.7760  0.9914
 2307SOL    HW218384   0.396   4.547   5.396 -0.5641  0.0519 -1.8643
 2308SOL     OW18385   1.329   1.847   9.401 -0.2645 -0.3616  0.1032
 2308SOL    HW118386   1.270   1.890   9.463 -0.6100  0.0034 -0.4788
 2308SOL    HW218387   1.411   1.880   9.437 -0.8673 -0.3170  1.4431
 2309SOL     OW18388   3.922   3.631  10.541 -0.3508 -0.2610 -0.0083
 2309SOL    HW118389   3.965   3.557  10.498 -3.5568 -2.1981  0.1391
 2309SOL    HW218390   3.967   3.633  10.626 -1.0305  0.5629  0.3234
 2310SOL     OW18391   4.296   3.625   1.008  0.3029  0.7471 -0.0967
 2310SOL    HW118392   4.224   3.683   0.986 -1.3328 -0.0583  3.0934
 2310SOL    HW218393   4.361   3.648   0.942  1.8700  1.6243  1.7435
 2311SOL     OW18394   2.542   3.775   2.133 -0.1822 -0.4264 -0.6607
 2311SOL    HW118395   2.579   3.805   2.050 -0.5103  1.5771 -0.0887
 2311SOL    HW218396   2.458   3.737   2.106  1.6451 -3.6447 -1.7317
 2312SOL     OW18397   1.805   2.543  16.678 -0.0839  0.3582 -0.1660
 2312SOL    HW118398   1.814   2.597  16.600 -0.8565 -1.5888 -1.5940
 2312SOL    HW218399   1.898   2.524  16.685 -0.2111 -0.5577 -1.0354
 2313SOL     OW18400   3.024   0.231   7.393  0.0694  0.2664 -0.2291
 2313SOL    HW118401   3.059   0.307   7.439 -2.0355  0.2451  1.4266
 2313SOL    HW218402   2.990   0.185   7.470  2.0758  1.5554  1.4296
 2314SOL     OW18403   4.518   2.952   7.231  0.3835 -0.4308  0.0677
 2314SOL    HW118404   4.608   2.919   7.228 -0.1714 -1.8430 -0.8204
 2314SOL    HW218405   4.487   2.954   7.321  2.2783 -2.1901  0.7791
 2315SOL     OW18406   0.155   0.527  14.260  0.0118 -0.4607 -0.4462
 2315SOL    HW118407   0.145   0.500  14.169 -1.9361 -1.8142  0.1534
 2315SOL    HW218408   0.221   0.597  14.260 -0.4190 -0.0563 -0.3247
 2316SOL     OW18409   3.652   0.468  13.474 -0.3889 -0.2783 -0.0601
 2316SOL    HW118410   3.745   0.491  13.464 -1.1027  2.0473 -1.5811
 2316SOL    HW218411   3.619   0.548  13.432 -0.6881  0.2159  1.1266
 2317SOL     OW18412   3.817   4.469   2.082  0.2673 -0.3421 -0.7249
 2317SOL    HW118413   3.787   4.490   1.994  3.7438 -1.0047 -2.0568
 2317SOL    HW218414   3.732   4.468   2.126  1.5343 -0.1774  1.7274
 2318SOL     OW18415   0.731   0.020   6.156 -0.2823  0.2820  0.2633
 2318SOL    HW118416   0.678   0.024   6.236 -1.3855  0.8142 -0.5090
 2318SOL    HW218417   0.726   4.651   6.134  0.1099  0.5523 -0.9636
 2319SOL     OW18418   0.520   3.628   1.263 -0.1135  0.2402 -0.2596
 2319SOL    HW118419   0.592   3.584   1.308  0.5197 -1.8321 -3.2598
 2319SOL    HW218420   0.578   3.685   1.214 -1.0879  2.2097  0.8984
 2320SOL     OW18421   1.209   4.509   2.375  0.3534  0.1509 -0.1294
 2320SOL    HW118422   1.184   4.560   2.298  1.4480  0.7873 -0.0533
 2320SOL    HW218423   1.140   4.442   2.373  0.5112  0.0319 -1.5966
 2321SOL     OW18424   4.182   3.136   9.989  0.3542  0.0503 -0.0991
 2321SOL    HW118425   4.240   3.209  10.011  0.5444  0.0316 -0.5485
 2321SOL    HW218426   4.121   3.179   9.928  0.9788 -0.5175 -1.1200
 2322SOL     OW18427   1.251   0.267   3.797  0.2879  0.8350 -0.5447
 2322SOL    HW118428   1.338   0.301   3.819  0.7784  0.1210 -1.3569
 2322SOL    HW218429   1.266   0.176   3.773 -1.0051  0.0765  1.4926
 2323SOL     OW18430   3.200   0.133   3.233 -0.2881 -0.0042 -0.1331
 2323SOL    HW118431   3.175   0.198   3.298 -2.2692 -0.7988 -0.0832
 2323SOL    HW218432   3.292   0.153   3.217 -0.1386  0.3862  1.2026
 2324SOL     OW18433   2.347   4.464  15.685  0.1192 -0.4000 -0.1048
 2324SOL    HW118434   2.277   4.404  15.709 -0.0332 -0.6355 -1.1169
 2324SOL    HW218435   2.334   4.529  15.754  4.5977 -1.5084  1.7826
 2325SOL     OW18436   1.871   3.318   6.732 -0.5011  0.4400  0.1946
 2325SOL    HW118437   1.801   3.357   6.679 -0.8258 -0.1240  0.2014
 2325SOL    HW218438   1.907   3.396   6.773 -0.6449  0.1827  0.8212
 2326SOL     OW18439   2.327   2.215   0.183  0.1283  0.6939 -0.1843
 2326SOL    HW118440   2.280   2.251   0.258  0.4191 -1.1506  0.8609
 2326SOL    HW218441   2.402   2.274   0.189  0.1816  0.6908 -0.8278
 2327SOL     OW18442   3.629   2.524   7.651  0.0527 -0.0772 -0.0594
 2327SOL    HW118443   3.697   2.575   7.695 -1.2606  2.1181 -0.5488
 2327SOL    HW218444   3.585   2.485   7.726 -1.6194 -1.0277 -1.5248
 2328SOL     OW18445   0.224   1.579   7.719 -0.3226 -0.4306 -1.1231
 2328SOL    HW118446   0.158   1.510   7.708  0.4866 -1.5841  1.3604
 2328SOL    HW218447   0.245   1.565   7.811 -1.2676  0.0473 -0.8297
 2329SOL     OW18448   1.329   4.234   4.205 -0.3420  0.2791 -0.1964
 2329SOL    HW118449   1.289   4.225   4.292 -0.4643  1.2259 -0.1572
 2329SOL    HW218450   1.373   4.317   4.218 -1.3329  0.8178 -0.2748
 2330SOL     OW18451   1.588   2.431  16.162  0.0171 -0.2858  0.1285
 2330SOL    HW118452   1.649   2.410  16.233  1.0107  1.9063 -0.0727
 2330SOL    HW218453   1.635   2.407  16.082 -0.2522  2.3167 -0.8248
 2331SOL     OW18454   3.805   2.787   1.570 -0.1785 -0.4432  0.0807
 2331SOL    HW118455   3.874   2.852   1.557 -0.1612 -0.0886  1.9866
 2331SOL    HW218456   3.726   2.838   1.584 -0.5152 -0.7609 -0.6250
 2332SOL     OW18457   0.162   0.191   2.034 -0.0269 -0.0567  0.0882
 2332SOL    HW118458   0.110   0.111   2.025  0.0829 -0.1973  0.7067
 2332SOL    HW218459   0.172   0.214   1.942  1.0611  0.2685  0.2874
 2333SOL     OW18460   2.533   4.425   3.222  0.0316  0.0745  0.4032
 2333SOL    HW118461   2.545   4.472   3.140  0.6723  2.0338  1.6333
 2333SOL    HW218462   2.608   4.366   3.231  0.7629  1.0738  0.9247
 2334SOL     OW18463   3.093   2.848   9.469  0.3692  0.4035  0.1824
 2334SOL    HW118464   3.170   2.794   9.487 -2.0420 -2.7302  1.0314
 2334SOL    HW218465   3.094   2.862   9.374 -1.9239  0.5898  0.1842
 2335SOL     OW18466   2.925   0.179   9.407 -0.5126 -0.1284 -0.5653
 2335SOL    HW118467   3.011   0.210   9.376  1.2531 -3.2194  1.2919
 2335SOL    HW218468   2.925   0.213   9.497 -1.7038  1.9294 -1.3358
 2336SOL     OW18469   4.327   1.772   5.453 -0.7069 -0.1180 -0.4112
 2336SOL    HW118470   4.408   1.797   5.498 -1.0333 -0.7708  0.5448
 2336SOL    HW218471   4.338   1.678   5.439  0.2957 -0.0648  0.0315
 2337SOL     OW18472   1.712   4.004   6.983 -0.6145 -0.5346 -0.1309
 2337SOL    HW118473   1.619   3.991   6.966 -0.7733 -2.0485  1.8170
 2337SOL    HW218474   1.719   4.051   7.066 -3.1296 -1.2665  0.4875
 2338SOL     OW18475   0.984   2.421  11.145  0.2899  0.2673  0.3430
 2338SOL    HW118476   1.075   2.436  11.121 -0.1806  0.3560 -1.4115
 2338SOL    HW218477   1.003   2.355  11.210  0.7636  0.6311  0.5732
 2339SOL     OW18478   2.204   0.452   9.707  0.5645  0.3013  0.0898
 2339SOL    HW118479   2.162   0.421   9.627  1.2662  0.3851 -0.3010
 2339SOL    HW218480   2.131   0.444   9.769  2.4149  0.5261  2.3194
 2340SOL     OW18481   4.409   4.492   2.087  0.2992 -0.3519  0.1044
 2340SOL    HW118482   4.434   4.459   2.173  0.7687 -0.4596 -0.0733
 2340SOL    HW218483   4.489   4.495   2.035  0.8794 -1.7407  0.9034
 2341SOL     OW18484   1.070   2.347   6.852  0.6338  0.1997 -0.5488
 2341SOL    HW118485   0.982   2.321   6.879  1.3537 -0.6018  1.0606
 2341SOL    HW218486   1.129   2.325   6.925  1.8617 -3.9774 -2.7615
 2342SOL     OW18487   2.046   3.287   5.494 -0.4161 -0.1450  0.4095
 2342SOL    HW118488   1.959   3.324   5.507 -0.5061 -0.0813 -0.3309
 2342SOL    HW218489   2.045   3.225   5.566 -0.6022  0.9233  1.3200
 2343SOL     OW18490   1.178   4.486   7.147 -0.1883 -0.3863  0.3337
 2343SOL    HW118491   1.245   4.520   7.087  0.6665 -0.3204  1.3348
 2343SOL    HW218492   1.099   4.473   7.094  1.1886 -1.5379 -1.4378
 2344SOL     OW18493   4.159   1.715   5.681  0.1996 -0.3264 -0.0180
 2344SOL    HW118494   4.141   1.780   5.749 -1.7439 -0.4796 -0.3857
 2344SOL    HW218495   4.179   1.769   5.605 -2.0838  0.8927  0.2398
 2345SOL     OW18496   3.877   1.899   0.883 -0.1864 -0.4597 -0.0927
 2345SOL    HW118497   3.889   1.860   0.797 -1.6415 -0.8971 -0.1022
 2345SOL    HW218498   3.783   1.889   0.895 -0.4587 -1.3061 -3.0051
 2346SOL     OW18499   3.626   3.674   9.723  0.2573  0.0088 -0.0048
 2346SOL    HW118500   3.708   3.722   9.718 -0.5027  1.4729  1.7322
 2346SOL    HW218501   3.619   3.650   9.815 -2.2504  1.3073  0.1364
 2347SOL     OW18502   0.977   3.623   9.380 -0.4670 -0.2644 -0.0708
 2347SOL    HW118503   0.882   3.611   9.384 -0.5980  1.1906  0.7722
 2347SOL    HW218504   0.979   3.682   9.305  1.6070 -1.3296 -0.8620
 2348SOL     OW18505   1.397   3.864   3.899 -0.2538 -0.4276  0.1626
 2348SOL    HW118506   1.412   3.957   3.914 -0.4788 -0.5616  1.2464
 2348SOL    HW218507   1.368   3.834   3.985  1.2187  1.6753  1.3854
 2349SOL     OW18508   2.757   4.221  11.848 -0.1307 -0.0777  0.1531
 2349SOL    HW118509   2.746   4.132  11.881  0.2705  0.6167  2.1821
 2349SOL    HW218510   2.852   4.230  11.836 -0.0326  0.5659  1.3669
 2350SOL     OW18511   1.776   4.322   8.597 -0.0325  0.3078 -0.1807
 2350SOL    HW118512   1.736   4.284   8.519  0.8053 -0.3333 -0.3043
 2350SOL    HW218513   1.863   4.344   8.564 -0.1284 -1.9501 -1.9356
 2351SOL     OW18514   0.431   3.200   1.842 -0.0230  0.0165  0.1596
 2351SOL    HW118515   0.337   3.190   1.830  0.4052 -2.3769 -1.3212
 2351SOL    HW218516   0.459   3.128   1.786 -0.9272  0.8583 -1.3795
 2352SOL     OW18517   1.341   0.971  14.992 -0.1105  0.1029  0.3949
 2352SOL    HW118518   1.427   0.991  14.953 -0.3087 -0.5650 -0.3872
 2352SOL    HW218519   1.353   0.900  15.054  2.0820 -0.9506 -1.2114
 2353SOL     OW18520   1.221   2.593  15.069  0.3362  0.0752 -0.4319
 2353SOL    HW118521   1.174   2.648  15.006  0.6289  0.2250 -0.5212
 2353SOL    HW218522   1.296   2.651  15.083 -0.6585  0.8554  1.5767
 2354SOL     OW18523   0.197   2.274  15.893 -0.1085  0.3217  0.3898
 2354SOL    HW118524   0.129   2.226  15.940 -0.2330 -1.0078 -1.1654
 2354SOL    HW218525   0.251   2.201  15.864 -0.0855  1.2804 -1.9824
 2355SOL     OW18526   4.422   3.688   4.267 -0.6034 -0.1631  0.0105
 2355SOL    HW118527   4.497   3.712   4.213 -0.8057  0.6288  0.0801
 2355SOL    HW218528   4.348   3.716   4.212 -1.2881 -0.0797  0.9693
 2356SOL     OW18529   4.567   1.628  11.818  0.5434  0.4066  0.8474
 2356SOL    HW118530   4.629   1.563  11.851  3.0782  2.7765  0.7660
 2356SOL    HW218531   4.592   1.694  11.882  2.6761  0.2552  0.1520
 2357SOL     OW18532   3.410   3.464   6.809 -0.2123  0.1079 -0.0311
 2357SOL    HW118533   3.491   3.433   6.768  0.1788  1.0781  0.0128
 2357SOL    HW218534   3.445   3.479   6.896 -2.2858  2.5250  0.3806
 2358SOL     OW18535   1.210   3.153   1.711 -0.0468  0.0924 -0.1851
 2358SOL    HW118536   1.139   3.091   1.695  1.2846 -0.7859 -2.6109
 2358SOL    HW218537   1.268   3.108   1.772 -0.6991  0.6053  0.8139
 2359SOL     OW18538   0.712   4.107  11.054 -0.1654 -0.3838 -0.0303
 2359SOL    HW118539   0.779   4.060  11.005  2.4468  2.9526  0.3124
 2359SOL    HW218540   0.743   4.196  11.037  3.5857 -1.6365  0.1680
 2360SOL     OW18541   0.080   3.695  12.933 -0.6835 -0.4188 -0.5522
 2360SOL    HW118542   0.010   3.691  12.868 -0.2316  3.3781 -1.2360
 2360SOL    HW218543   0.160   3.671  12.886  1.1030  2.0312  1.2592
 2361SOL     OW18544   3.722   4.446   5.891 -0.7391 -0.9838  0.2191
 2361SOL    HW118545   3.806   4.455   5.935  1.3317 -1.3319 -3.6576
 2361SOL    HW218546   3.719   4.352   5.877 -0.3501 -1.1454  1.2395
 2362SOL     OW18547   2.192   3.687   2.866  1.0964 -0.2166  0.2820
 2362SOL    HW118548   2.230   3.634   2.796  2.3452  1.0774 -0.0252
 2362SOL    HW218549   2.261   3.678   2.932 -0.1575 -0.7001  1.5240
 2363SOL     OW18550   3.773   1.878  15.685  0.3390  0.5002 -0.4853
 2363SOL    HW118551   3.832   1.912  15.753 -0.9069  0.3879  0.6538
 2363SOL    HW218552   3.741   1.800  15.732  0.0557  0.1579 -1.2479
 2364SOL     OW18553   0.021   1.697   5.176  0.8224 -0.3040 -0.4290
 2364SOL    HW118554   0.097   1.650   5.211  2.1238  1.6009 -0.6887
 2364SOL    HW218555   0.075   1.763   5.132 -0.4310  0.8769 -0.1891
 2365SOL     OW18556   3.467   0.956   5.057  0.3847 -0.1205  0.2663
 2365SOL    HW118557   3.418   0.966   4.976  1.1500 -2.6779 -0.5338
 2365SOL    HW218558   3.540   1.018   5.054 -0.0887  0.4500  0.5913
 2366SOL     OW18559   3.203   2.672  13.540  0.3699  0.1252  0.7481
 2366SOL    HW118560   3.269   2.622  13.493 -1.1904  1.0215 -2.4246
 2366SOL    HW218561   3.263   2.735  13.580  0.2636  1.4122 -1.1155
 2367SOL     OW18562   4.713   4.625   8.583 -0.0817  0.4744 -0.1121
 2367SOL    HW118563   4.667   4.607   8.665  1.2929  2.0239  1.0001
 2367SOL    HW218564   4.654   4.581   8.522  0.0406 -0.6935  0.6023
 2368SOL     OW18565   3.794   0.596   1.083  0.0833  0.7304 -0.1691
 2368SOL    HW118566   3.755   0.555   1.160 -1.0185  0.2035 -1.0121
 2368SOL    HW218567   3.812   0.515   1.035 -2.0975  0.0619  0.1759
 2369SOL     OW18568   1.683   4.616  14.284  0.0115 -0.2248 -0.3285
 2369SOL    HW118569   1.644   4.695  14.320 -3.7260 -1.2111 -2.2366
 2369SOL    HW218570   1.690   4.630  14.189  2.3278 -3.5592 -0.6855
 2370SOL     OW18571   3.593   1.626  14.133 -1.1170  0.3311 -0.0858
 2370SOL    HW118572   3.602   1.625  14.228  3.5431  2.1010 -0.5463
 2370SOL    HW218573   3.588   1.721  14.122 -1.5869  0.7944  4.2872
 2371SOL     OW18574   2.832   2.782   2.202 -0.4526  0.0796 -0.0041
 2371SOL    HW118575   2.883   2.855   2.237  1.1431 -0.1923 -1.7286
 2371SOL    HW218576   2.744   2.814   2.219 -0.5434  0.2948 -0.9254
 2372SOL     OW18577   2.554   1.762   4.149  1.1092  0.3609 -0.0390
 2372SOL    HW118578   2.628   1.747   4.208  1.2996 -2.2404 -0.9313
 2372SOL    HW218579   2.548   1.857   4.139  3.3747  0.4694 -0.5700
 2373SOL     OW18580   3.600   0.491   5.065 -0.5170  0.5053 -0.0095
 2373SOL    HW118581   3.554   0.565   5.026 -1.3688  0.5855  1.1280
 2373SOL    HW218582   3.690   0.514   5.041 -0.4620 -0.8798 -1.1268
 2374SOL     OW18583   0.152   3.994   7.982 -0.2620 -0.0998 -0.0993
 2374SOL    HW118584   0.127   3.932   7.913  0.8829 -0.6186 -0.0323
 2374SOL    HW218585   0.092   4.067   7.963 -1.8365 -1.1365  0.9237
 2375SOL     OW18586   2.892   0.048  12.421 -0.3219 -0.2486 -0.3746
 2375SOL    HW118587   2.868   4.680  12.410  0.3409 -0.5359  0.6115
 2375SOL    HW218588   2.810   0.091  12.397  0.6214  0.2458 -2.7228
 2376SOL     OW18589   2.913   0.153   4.453 -0.5433  0.1668  0.2388
 2376SOL    HW118590   2.886   0.077   4.401 -0.8165  1.3430 -1.3398
 2376SOL    HW218591   3.008   0.152   4.456 -0.6052 -3.6926  0.4967
 2377SOL     OW18592   4.069   2.444   7.713  0.3223 -0.2524 -0.0124
 2377SOL    HW118593   4.056   2.530   7.752 -0.4096 -0.5044  0.2832
 2377SOL    HW218594   4.153   2.422   7.753 -0.3312 -2.4955  0.0801
 2378SOL     OW18595   1.523   2.397   6.495 -0.7313  0.2237  0.4500
 2378SOL    HW118596   1.599   2.454   6.508 -2.0440  2.3050 -0.9893
 2378SOL    HW218597   1.565   2.311   6.499  0.8383  0.9093 -1.3751
 2379SOL     OW18598   0.437   0.938   9.093 -0.1360 -0.2600 -0.0194
 2379SOL    HW118599   0.460   0.925   9.185 -1.1764  1.5647  0.5103
 2379SOL    HW218600   0.378   0.863   9.082 -2.4300  1.3828  0.9400
 2380SOL     OW18601   0.197   2.497   3.456 -0.0896  0.6931 -0.0016
 2380SOL    HW118602   0.231   2.549   3.384 -1.0738  4.9046  2.5552
 2380SOL    HW218603   0.255   2.528   3.526  2.5746  0.2691 -2.0528
 2381SOL     OW18604   1.171   0.890   1.029  0.2192 -0.2176  0.1216
 2381SOL    HW118605   1.261   0.872   1.001  0.3614  0.6126  0.0425
 2381SOL    HW218606   1.188   0.932   1.113  0.5122 -1.1522  0.5257
 2382SOL     OW18607   0.992   1.973   9.152  0.3091  0.0168 -0.1945
 2382SOL    HW118608   0.996   1.941   9.061 -1.4103 -0.3106 -0.1598
 2382SOL    HW218609   1.084   1.994   9.167  0.8493 -2.0577 -0.6572
 2383SOL     OW18610   4.675   1.686  10.125 -0.0245 -0.2073 -0.0450
 2383SOL    HW118611   4.626   1.768  10.123  1.1090  0.4116 -2.0625
 2383SOL    HW218612   0.026   1.706  10.069 -1.4959  1.0624 -1.5461
 2384SOL     OW18613   4.618   1.800  14.237 -0.1787 -0.3160 -0.2537
 2384SOL    HW118614   4.583   1.744  14.306  1.1638 -0.8474  0.0012
 2384SOL    HW218615   4.609   1.742  14.162  2.3880 -0.0753 -0.7709
 2385SOL     OW18616   2.639   1.219   2.278 -0.5496  0.1176  0.1118
 2385SOL    HW118617   2.588   1.293   2.311 -0.8681  0.1708 -0.5100
 2385SOL    HW218618   2.614   1.214   2.186 -0.9972 -1.2762  0.3022
 2386SOL     OW18619   2.273   3.700   7.448 -0.4291  0.1585  0.4364
 2386SOL    HW118620   2.297   3.648   7.372 -1.5592  1.2607 -0.6953
 2386SOL    HW218621   2.312   3.645   7.516  1.3603 -0.7576 -1.3590
 2387SOL     OW18622   4.268   0.530   8.868 -0.1572  0.2796 -0.2717
 2387SOL    HW118623   4.233   0.619   8.856 -1.4062 -0.0730  0.8842
 2387SOL    HW218624   4.205   0.481   8.815 -2.4543  0.1115  2.6236
 2388SOL     OW18625   0.319   2.673   4.790  0.0320 -1.1283 -0.1625
 2388SOL    HW118626   0.270   2.731   4.730 -0.0789  0.8695  1.8601
 2388SOL    HW218627   0.326   2.727   4.869  1.8742  0.6568 -1.5358
 2389SOL     OW18628   2.397   1.462  16.798  0.1338  0.1331  0.7332
 2389SOL    HW118629   2.317   1.410  16.788  0.4347 -0.3346  0.7616
 2389SOL    HW218630   2.361   1.535  16.849 -1.8573 -0.9045  0.8199
 2390SOL     OW18631   0.830   3.011  11.691 -0.7814  0.1565  0.1083
 2390SOL    HW118632   0.878   2.991  11.771  0.9040 -1.5308 -1.3277
 2390SOL    HW218633   0.886   3.081  11.659 -2.4020  1.3819 -0.0736
 2391SOL     OW18634   4.378   3.329   4.290 -0.6727 -0.1004  0.3135
 2391SOL    HW118635   4.463   3.295   4.262 -0.0652  0.0212  2.0163
 2391SOL    HW218636   4.357   3.383   4.214 -0.8392 -2.5922 -1.4150
 2392SOL     OW18637   2.114   2.598   1.124  0.1383  0.7001 -0.3093
 2392SOL    HW118638   2.061   2.588   1.044 -1.5098  0.3729  0.8309
 2392SOL    HW218639   2.180   2.659   1.089  2.8220 -1.5571  0.8009
 2393SOL     OW18640   3.277   3.771   9.255  0.2781  0.0170 -0.1339
 2393SOL    HW118641   3.279   3.866   9.262 -1.2513  0.0672 -0.2627
 2393SOL    HW218642   3.321   3.739   9.334  1.7837  1.6106 -0.3344
 2394SOL     OW18643   3.522   4.369   0.843 -0.5364  0.0973 -0.3765
 2394SOL    HW118644   3.492   4.296   0.789 -0.7537 -0.2330  0.1837
 2394SOL    HW218645   3.441   4.382   0.892 -0.0577  1.5368  0.0311
 2395SOL     OW18646   3.186   0.802  15.334  0.1705 -0.1568  0.2377
 2395SOL    HW118647   3.260   0.749  15.364 -0.9590 -1.5864  0.4809
 2395SOL    HW218648   3.133   0.819  15.412 -1.8668 -1.4862 -0.8505
 2396SOL     OW18649   0.864   1.467   5.498  0.1116 -0.1647 -0.1009
 2396SOL    HW118650   0.885   1.387   5.451  0.3414  0.2661 -0.7335
 2396SOL    HW218651   0.825   1.441   5.582  0.2207  0.0111  0.0050
 2397SOL     OW18652   1.043   4.397   8.725  0.0305 -0.2390  0.6164
 2397SOL    HW118653   1.043   4.356   8.811  2.9231 -2.4761 -0.4734
 2397SOL    HW218654   1.022   4.323   8.668  2.9758 -0.6210  0.0700
 2398SOL     OW18655   2.187   2.037  14.929  0.3124 -0.0822  0.5144
 2398SOL    HW118656   2.157   1.987  15.005  3.0927  0.7669  2.1568
 2398SOL    HW218657   2.183   1.975  14.855 -1.2318  0.8687 -0.1990
 2399SOL     OW18658   1.001   0.285   2.864  0.1259 -0.1372  0.2152
 2399SOL    HW118659   1.017   0.256   2.955  0.3747 -1.1337 -0.1428
 2399SOL    HW218660   1.049   0.212   2.826  2.4232  2.3214 -1.5913
 2400SOL     OW18661   0.252   3.760   3.350  0.0320  0.4281 -0.1840
 2400SOL    HW118662   0.320   3.817   3.384  0.3998  0.5293 -1.0688
 2400SOL    HW218663   0.190   3.749   3.422  0.9078  0.0093  0.5049
 2401SOL     OW18664   1.167   2.451   9.073  0.1284 -0.2923 -0.0113
 2401SOL    HW118665   1.100   2.469   9.007  1.4923  1.0708 -1.0233
 2401SOL    HW218666   1.205   2.367   9.047 -0.6037 -1.4502  2.6454
 2402SOL     OW18667   3.325   2.158  13.368  0.5142 -0.0653 -0.0487
 2402SOL    HW118668   3.338   2.126  13.457 -0.4492 -0.8019 -0.1681
 2402SOL    HW218669   3.414   2.161  13.334  1.5665  0.3015  2.7359
 2403SOL     OW18670   0.970   4.380  13.921  0.3987 -0.3428 -0.0684
 2403SOL    HW118671   0.939   4.415  14.005 -0.5375 -0.6731 -0.2744
 2403SOL    HW218672   1.016   4.460  13.895  0.5662 -0.2160  0.6029
 2404SOL     OW18673   2.654   3.351   4.085  0.3692 -0.4380 -0.0870
 2404SOL    HW118674   2.593   3.423   4.070  1.3132  0.3621 -0.1293
 2404SOL    HW218675   2.607   3.272   4.061  0.5320 -0.1286 -1.4201
 2405SOL     OW18676   1.056   0.759  13.295 -0.3486 -0.6036 -0.5297
 2405SOL    HW118677   1.070   0.783  13.203 -0.4244  2.4151  0.2498
 2405SOL    HW218678   1.141   0.791  13.325  0.4288 -0.5906 -2.7029
 2406SOL     OW18679   2.461   1.545   6.014 -0.2197  0.4443 -0.2653
 2406SOL    HW118680   2.410   1.468   5.988  0.8644 -0.6891  0.9830
 2406SOL    HW218681   2.512   1.560   5.934  1.4944  0.2909  0.8031
 2407SOL     OW18682   0.447   0.189   7.048 -0.6171 -0.1131  0.0313
 2407SOL    HW118683   0.401   0.195   6.964  2.5096 -3.1061 -1.8718
 2407SOL    HW218684   0.411   0.260   7.102 -0.5687 -1.4897  1.8491
 2408SOL     OW18685   4.322   4.496   7.602  0.5196  0.3449 -0.4380
 2408SOL    HW118686   4.324   4.558   7.675  1.2094  0.3412 -0.4495
 2408SOL    HW218687   4.395   4.524   7.548 -0.3802  1.1348 -1.2337
 2409SOL     OW18688   3.702   4.371   9.110 -0.1924  0.1183  0.3712
 2409SOL    HW118689   3.657   4.298   9.152 -1.0348  0.9446  0.8894
 2409SOL    HW218690   3.737   4.415   9.188  1.5329 -0.1849 -0.2374
 2410SOL     OW18691   2.517   0.764   7.939 -0.3981 -0.0589 -0.1630
 2410SOL    HW118692   2.608   0.740   7.954 -0.5668  0.3781  1.5205
 2410SOL    HW218693   2.482   0.743   8.026  1.5115 -0.8497  0.4103
 2411SOL     OW18694   4.298   2.601   2.258 -0.6299 -0.3577 -0.2802
 2411SOL    HW118695   4.356   2.526   2.274  1.6776  1.1249 -1.8602
 2411SOL    HW218696   4.278   2.589   2.166 -0.3477  1.5221 -0.5794
 2412SOL     OW18697   3.953   0.789   3.801  0.2194 -0.3055  0.0975
 2412SOL    HW118698   4.043   0.791   3.836 -0.3104 -0.4029  1.4854
 2412SOL    HW218699   3.901   0.745   3.868  0.5100  0.8479  1.0821
 2413SOL     OW18700   3.222   2.928  15.185 -0.2318  0.5731  0.0412
 2413SOL    HW118701   3.163   2.857  15.209  1.1798 -1.3246 -2.0775
 2413SOL    HW218702   3.244   2.901  15.096 -0.9258  1.2103 -0.3230
 2414SOL     OW18703   1.557   2.131   0.085  0.3218  0.3133 -0.5282
 2414SOL    HW118704   1.596   2.162   0.166 -0.3601 -0.7036  0.2032
 2414SOL    HW218705   1.610   2.054   0.062  0.4639  0.1111  0.4872
 2415SOL     OW18706   0.047   3.287  13.135  0.1956  0.5298  0.2341
 2415SOL    HW118707   0.003   3.260  13.216  2.3172  0.2182  1.2980
 2415SOL    HW218708   0.033   3.382  13.140 -2.7501  0.1505 -1.2200
 2416SOL     OW18709   1.462   0.934   5.696 -0.1461  0.1444  0.4632
 2416SOL    HW118710   1.503   0.954   5.612  1.0511 -3.8221  0.1009
 2416SOL    HW218711   1.436   0.844   5.677  0.7147 -0.2967  1.3827
 2417SOL     OW18712   3.166   0.585   8.894 -0.1424 -0.5429 -0.2327
 2417SOL    HW118713   3.082   0.547   8.917  0.5765 -1.3420  1.0964
 2417SOL    HW218714   3.144   0.628   8.812 -0.5318  0.7185  0.5328
 2418SOL     OW18715   3.262   3.100   1.457 -0.3816 -0.2783  0.3682
 2418SOL    HW118716   3.212   3.098   1.375  0.2937  0.1671 -0.0563
 2418SOL    HW218717   3.200   3.099   1.530  0.7829 -0.5206  1.3452
 2419SOL     OW18718   0.179   1.409  16.584  0.3242  0.1394  0.0833
 2419SOL    HW118719   0.105   1.382  16.530 -0.6930 -2.1481  2.6250
 2419SOL    HW218720   0.200   1.494  16.544  1.3149 -0.3979 -0.5352
 2420SOL     OW18721   1.618   1.993   6.919 -0.1140  0.2607  0.2388
 2420SOL    HW118722   1.556   2.026   6.855 -1.1690 -1.9920  0.0791
 2420SOL    HW218723   1.688   2.058   6.921  1.5062 -1.5091  1.2551
 2421SOL     OW18724   0.272   0.766  14.294  0.3809  0.2744 -0.1826
 2421SOL    HW118725   0.346   0.814  14.259  4.4115 -5.4830  0.5684
 2421SOL    HW218726   0.210   0.836  14.316 -1.2170 -1.0666 -0.4082
 2422SOL     OW18727   1.784   2.962   4.780 -0.3837 -0.1321 -0.0107
 2422SOL    HW118728   1.797   2.873   4.747 -1.1947  0.0263 -0.7362
 2422SOL    HW218729   1.728   3.002   4.714 -0.3387  0.3940  0.2679
 2423SOL     OW18730   2.206   4.417   8.656 -0.1735  0.3591 -1.0877
 2423SOL    HW118731   2.141   4.386   8.718  1.5124 -2.6935 -0.8408
 2423SOL    HW218732   2.216   4.509   8.681 -1.0973  0.1651 -0.0407
 2424SOL     OW18733   2.321   3.987   8.574  0.4293  0.0588  0.0167
 2424SOL    HW118734   2.228   3.977   8.593  0.2971  0.5335 -0.3683
 2424SOL    HW218735   2.358   4.045   8.641  0.4873  0.1708 -0.1111
 2425SOL     OW18736   0.374   0.783   6.232  0.5556 -0.4024 -0.2154
 2425SOL    HW118737   0.441   0.736   6.282  0.9504 -0.1537 -0.5110
 2425SOL    HW218738   0.374   0.727   6.154  0.9378 -2.2582  1.1197
 2426SOL     OW18739   0.300   0.053   4.336 -0.2105 -0.0142  0.7050
 2426SOL    HW118740   0.262   0.122   4.282 -0.6432  0.7273  1.9683
 2426SOL    HW218741   0.233   0.039   4.404  0.2972 -1.2930  0.9458
 2427SOL     OW18742   0.618   0.810   8.373  0.0966 -0.3185  0.1602
 2427SOL    HW118743   0.578   0.869   8.310  1.1001  0.5690  0.3646
 2427SOL    HW218744   0.612   0.725   8.328  1.4257 -1.2097  1.6407
 2428SOL     OW18745   3.817   4.263  10.362  0.5093  0.1198 -0.0950
 2428SOL    HW118746   3.812   4.185  10.417  0.0352 -0.2327 -0.6321
 2428SOL    HW218747   3.910   4.285  10.366  0.7252 -1.0053  1.0898
 2429SOL     OW18748   1.642   1.587  10.122 -0.1928 -0.1336  0.4181
 2429SOL    HW118749   1.627   1.679  10.145  0.4629  0.5845 -2.0077
 2429SOL    HW218750   1.556   1.548  10.136 -0.7048  0.1955 -1.7994
 2430SOL     OW18751   4.557   4.494  14.926  0.0525  0.1455 -0.6986
 2430SOL    HW118752   4.649   4.478  14.904  0.0128  0.1483 -0.8682
 2430SOL    HW218753   4.516   4.408  14.940 -0.5183  0.4948 -0.2402
 2431SOL     OW18754   4.412   4.310   4.504  0.2924  0.5772  0.1199
 2431SOL    HW118755   4.331   4.324   4.555  0.2143 -1.5738  0.5768
 2431SOL    HW218756   4.361   4.294   4.425  1.5126  0.7695 -0.7104
 2432SOL     OW18757   2.110   0.404  16.043 -0.7546 -0.1754 -0.6129
 2432SOL    HW118758   2.071   0.477  15.996  0.1800 -0.2677 -1.5228
 2432SOL    HW218759   2.033   0.353  16.070 -2.2114  1.6604 -1.3669
 2433SOL     OW18760   2.420   3.223   3.777  0.1377 -0.4799  0.2094
 2433SOL    HW118761   2.421   3.209   3.872 -1.1225 -1.3948  0.0964
 2433SOL    HW218762   2.484   3.157   3.750  1.2973  0.1753  1.3797
 2434SOL     OW18763   1.168   1.174   6.769 -0.2401  0.4618 -0.1459
 2434SOL    HW118764   1.194   1.131   6.688 -0.5627 -0.8203  0.4258
 2434SOL    HW218765   1.097   1.114   6.792 -0.1909 -0.2247 -1.8420
 2435SOL     OW18766   4.304   0.750   5.091 -0.4847 -0.2065 -0.2917
 2435SOL    HW118767   4.231   0.734   5.031  0.1081 -0.6924 -0.8794
 2435SOL    HW218768   4.278   0.697   5.166  1.2874  2.2771  2.1071
 2436SOL     OW18769   1.822   0.443   8.442 -0.2871 -0.7717 -0.0603
 2436SOL    HW118770   1.843   0.454   8.534  2.1706 -0.3768 -0.6517
 2436SOL    HW218771   1.774   0.361   8.454 -0.5223 -0.4296  1.2823
 2437SOL     OW18772   2.104   0.410   3.566 -0.0640  0.1601  0.6954
 2437SOL    HW118773   2.082   0.502   3.557 -0.4750  0.2712  2.8399
 2437SOL    HW218774   2.176   0.405   3.504 -1.5973 -0.9176 -0.9916
 2438SOL     OW18775   3.002   4.019   3.818  0.3403  0.6131  0.9825
 2438SOL    HW118776   2.950   4.067   3.754  2.7965  0.7689 -0.8882
 2438SOL    HW218777   2.951   4.054   3.891  0.0615  1.2680  0.4791
 2439SOL     OW18778   2.700   2.344   9.657  0.4711  0.0388  0.2978
 2439SOL    HW118779   2.631   2.286   9.621  1.5412 -1.4968  0.7212
 2439SOL    HW218780   2.678   2.342   9.750  2.4221 -1.1472  0.7281
 2440SOL     OW18781   2.504   2.079   3.312  0.8259  0.1032  0.0273
 2440SOL    HW118782   2.459   2.154   3.274 -1.6063 -1.0371  0.6138
 2440SOL    HW218783   2.477   2.011   3.249 -1.8494  0.3832  0.8949
 2441SOL     OW18784   4.658   2.498  11.669  0.3149  0.2309 -0.3832
 2441SOL    HW118785   4.660   2.572  11.607 -1.0790 -1.7013 -2.7377
 2441SOL    HW218786   0.029   2.492  11.676  0.4216  1.6281 -0.5247
 2442SOL     OW18787   2.322   3.954   2.776  0.1573  0.8308  0.2611
 2442SOL    HW118788   2.331   3.859   2.770 -0.7078  0.6619  1.6653
 2442SOL    HW218789   2.332   3.974   2.869  0.7950 -0.4396  0.4635
 2443SOL     OW18790   1.549   1.652  11.322 -0.0786  0.5237 -0.3994
 2443SOL    HW118791   1.626   1.704  11.345  0.5525 -0.3012 -0.6271
 2443SOL    HW218792   1.518   1.693  11.242  2.0016 -0.3159 -1.6413
 2444SOL     OW18793   2.197   3.804   4.716 -0.2175  0.2709  0.2950
 2444SOL    HW118794   2.133   3.742   4.752  0.9751 -0.3791  1.3034
 2444SOL    HW218795   2.151   3.839   4.640 -0.8796  0.2462  0.6790
 2445SOL     OW18796   4.342   3.173   7.048  0.3670 -0.5368 -0.3550
 2445SOL    HW118797   4.259   3.127   7.060  0.9037 -1.8197 -1.6272
 2445SOL    HW218798   4.396   3.130   7.114 -3.1152 -0.2404  2.6577
 2446SOL     OW18799   3.944   3.781  15.504  0.3828 -0.2744  0.7347
 2446SOL    HW118800   3.993   3.805  15.426  0.0767  0.8786  0.8890
 2446SOL    HW218801   3.871   3.737  15.462  0.8191 -1.2806  1.0203
 2447SOL     OW18802   0.894   0.030  15.307 -0.4584 -0.2991  0.0102
 2447SOL    HW118803   0.862   4.706  15.231  0.4312 -1.3144  0.2858
 2447SOL    HW218804   0.892   0.120  15.273 -1.9911 -0.6583 -0.8323
 2448SOL     OW18805   0.915   1.308   1.815 -0.3533  0.0017 -0.3629
 2448SOL    HW118806   0.955   1.357   1.887 -0.7397 -0.0163 -0.1408
 2448SOL    HW218807   0.886   1.376   1.755 -2.2376  1.0626  1.7536
 2449SOL     OW18808   3.638   0.319   9.189  0.2003  0.5529  0.0573
 2449SOL    HW118809   3.622   0.276   9.104 -0.7678  0.0478  0.4872
 2449SOL    HW218810   3.548   0.331   9.219 -0.4607  1.0608 -2.1157
 2450SOL     OW18811   2.044   3.049   6.364  0.6069 -0.0913  0.0802
 2450SOL    HW118812   1.998   3.043   6.447 -0.4094  1.3669 -0.3864
 2450SOL    HW218813   2.045   2.957   6.336 -1.5619 -0.2410  0.5161
 2451SOL     OW18814   3.055   1.491   7.323 -0.1164  0.3066  0.2641
 2451SOL    HW118815   3.055   1.540   7.405  0.7869  2.7555 -1.1932
 2451SOL    HW218816   3.084   1.403   7.347  1.1967  0.2068 -1.6829
 2452SOL     OW18817   3.456   1.142   6.067  0.0806 -0.1290 -0.2570
 2452SOL    HW118818   3.537   1.122   6.116 -0.2198 -1.5091 -0.3192
 2452SOL    HW218819   3.416   1.194   6.136 -1.9100 -1.3301 -0.5209
 2453SOL     OW18820   0.975   4.273   8.024  0.2587 -0.7026  0.4028
 2453SOL    HW118821   0.957   4.360   7.987  0.1412 -0.4781  0.9863
 2453SOL    HW218822   0.895   4.225   8.005 -1.4603  1.5415  1.9314
 2454SOL     OW18823   1.855   2.267  13.247  0.3327  0.0620  0.2142
 2454SOL    HW118824   1.880   2.277  13.155 -1.3983 -2.1420 -0.4838
 2454SOL    HW218825   1.866   2.358  13.275  2.0914 -0.2248  0.4645
 2455SOL     OW18826   0.698   0.010  11.379 -0.1641 -0.2281 -0.0009
 2455SOL    HW118827   0.627   4.672  11.364  0.2002 -0.6111 -0.1203
 2455SOL    HW218828   0.762   4.679  11.424  0.8400 -0.3079 -1.5411
 2456SOL     OW18829   4.192   0.376   2.789 -0.0524 -0.6297 -0.1627
 2456SOL    HW118830   4.221   0.381   2.698  0.7283  2.1505  0.2231
 2456SOL    HW218831   4.098   0.388   2.778  0.1516  0.0351 -1.1362
 2457SOL     OW18832   2.587   3.727   3.415 -0.0592 -0.1318  0.8427
 2457SOL    HW118833   2.516   3.670   3.387 -0.1151  0.6807 -0.7292
 2457SOL    HW218834   2.635   3.745   3.334 -0.4675 -2.1473  0.1640
 2458SOL     OW18835   0.969   2.738  11.202 -0.1683 -0.2636 -0.1279
 2458SOL    HW118836   0.909   2.798  11.247 -0.8835 -0.4522 -0.8288
 2458SOL    HW218837   1.047   2.770  11.246 -1.0481  2.2170 -0.3769
 2459SOL     OW18838   0.954   0.853  15.770 -0.2794 -0.2590  0.2815
 2459SOL    HW118839   1.023   0.839  15.835  1.9093  1.2290 -1.7444
 2459SOL    HW218840   0.921   0.764  15.757 -1.6997  0.1270  1.2754
 2460SOL     OW18841   4.133   2.794   1.792  0.2129 -0.4346  0.1198
 2460SOL    HW118842   4.075   2.719   1.778  1.1150 -1.4637  1.7415
 2460SOL    HW218843   4.070   2.854   1.832  1.5030  0.6499  0.5401
 2461SOL     OW18844   2.948   2.277   3.766 -0.3215  0.4246  0.4376
 2461SOL    HW118845   2.989   2.260   3.682  1.5887  0.9867  1.2659
 2461SOL    HW218846   3.017   2.279   3.832 -0.9969  1.7894  1.1023
 2462SOL     OW18847   2.101   4.386   6.679 -0.1801 -0.4084 -0.0046
 2462SOL    HW118848   2.037   4.457   6.690  0.6054  0.4703 -1.0968
 2462SOL    HW218849   2.167   4.408   6.744  0.3372 -1.9657 -0.0079
 2463SOL     OW18850   0.941   0.386  15.474 -0.0426  0.3772 -0.4867
 2463SOL    HW118851   1.012   0.325  15.452  1.4435  2.3315 -1.1427
 2463SOL    HW218852   0.925   0.435  15.394  0.5495  1.1166 -0.1576
 2464SOL     OW18853   0.706   0.326   2.765  0.6602  0.3021  0.0443
 2464SOL    HW118854   0.752   0.352   2.686  0.0611  0.5603 -0.2233
 2464SOL    HW218855   0.758   0.252   2.794  2.7131  0.8756 -2.1896
 2465SOL     OW18856   4.238   2.108   4.534 -0.5615  0.4236 -0.4661
 2465SOL    HW118857   4.179   2.070   4.599  0.1275  1.7182  0.9071
 2465SOL    HW218858   4.323   2.096   4.575 -0.5134 -3.0787 -1.6232
 2466SOL     OW18859   1.581   1.559  17.036 -0.4953  0.1360  0.3247
 2466SOL    HW118860   1.636   1.598  16.968 -0.4273 -0.8761 -0.1986
 2466SOL    HW218861   1.496   1.554  16.993 -1.1592  1.0708  1.5388
 2467SOL     OW18862   2.695   2.614   0.199  0.5278 -0.4471  0.4554
 2467SOL    HW118863   2.776   2.628   0.249  0.9622  2.0882 -0.9314
 2467SOL    HW218864   2.650   2.699   0.207  1.6995  0.3134 -1.2061
 2468SOL     OW18865   3.899   3.436   2.711  0.6633  0.0983 -0.2477
 2468SOL    HW118866   3.844   3.447   2.633  1.4033  0.7953 -0.6655
 2468SOL    HW218867   3.875   3.345   2.728  1.1193 -0.4588 -2.6294
 2469SOL     OW18868   2.694   2.227   3.756 -0.4450 -0.1104 -0.0837
 2469SOL    HW118869   2.771   2.282   3.758  0.0561 -0.7451 -1.7363
 2469SOL    HW218870   2.712   2.178   3.836 -2.1313 -1.1416 -0.3074
 2470SOL     OW18871   2.052   0.023   2.879  0.1863 -0.3769  0.1102
 2470SOL    HW118872   2.085   4.664   2.913 -0.5837  0.5895  3.2538
 2470SOL    HW218873   2.134   0.063   2.850  0.3882 -0.7995  0.1060
 2471SOL     OW18874   4.113   2.897   6.685 -0.0230  0.0352  0.0707
 2471SOL    HW118875   4.145   2.971   6.633 -2.1056  1.1066  0.3115
 2471SOL    HW218876   4.182   2.832   6.694 -1.7410 -1.6403  1.2632
 2472SOL     OW18877   0.792   3.016   5.728 -0.1111 -0.2979  0.5726
 2472SOL    HW118878   0.713   2.986   5.684  0.5391 -0.0430 -0.7918
 2472SOL    HW218879   0.824   3.078   5.662 -0.5298  0.9065  1.5084
 2473SOL     OW18880   2.340   1.639   9.723  0.0132 -0.5503 -0.0032
 2473SOL    HW118881   2.332   1.663   9.815 -0.4561 -0.7011 -0.0065
 2473SOL    HW218882   2.298   1.553   9.734 -0.7987 -0.1555 -0.0131
 2474SOL     OW18883   1.488   1.814   2.921  0.2606 -0.0465 -0.2183
 2474SOL    HW118884   1.490   1.888   2.860  1.3597  0.0667 -0.0492
 2474SOL    HW218885   1.450   1.872   2.986 -0.1297 -1.7948  1.1319
 2475SOL     OW18886   2.715   1.531   5.170  0.1737  0.0060 -0.6086
 2475SOL    HW118887   2.666   1.503   5.092  0.4049 -0.9210 -0.4224
 2475SOL    HW218888   2.644   1.565   5.224 -0.0760 -0.4635 -0.6396
 2476SOL     OW18889   1.221   0.806   5.286 -0.0447 -0.1933  0.5088
 2476SOL    HW118890   1.305   0.771   5.315  0.0099  0.8414  1.5999
 2476SOL    HW218891   1.197   0.731   5.232  1.6164 -0.9294  0.8003
 2477SOL     OW18892   2.165   4.364   6.420  0.3682  0.0532  0.7047
 2477SOL    HW118893   2.201   4.450   6.442 -1.7522  1.2748 -0.5612
 2477SOL    HW218894   2.123   4.350   6.505  0.1054  1.1888  0.7657
 2478SOL     OW18895   0.312   1.074   6.756 -0.0893 -0.5771 -0.3426
 2478SOL    HW118896   0.260   1.054   6.679 -2.5097  0.5328  0.9925
 2478SOL    HW218897   0.291   1.167   6.769 -0.1581 -0.6022 -0.2720
 2479SOL     OW18898   2.088   3.728   2.404  0.3625  0.0705  0.1750
 2479SOL    HW118899   2.016   3.669   2.382  2.0634 -2.2190  0.7096
 2479SOL    HW218900   2.156   3.660   2.408 -1.7289 -2.2673 -3.3948
 2480SOL     OW18901   1.218   4.246  11.827 -0.7822 -0.4817  0.5312
 2480SOL    HW118902   1.236   4.237  11.920  1.1369  1.0236  0.3076
 2480SOL    HW218903   1.233   4.159  11.790  0.0861  0.4968 -1.4597
 2481SOL     OW18904   0.031   2.513  16.238 -0.9625 -0.3913  0.1795
 2481SOL    HW118905   0.008   2.566  16.315 -0.3870  0.1299 -0.0035
 2481SOL    HW218906   4.678   2.466  16.207 -2.4274  2.3138 -0.2930
 2482SOL     OW18907   3.387   2.827   1.734  0.6547  0.0537 -0.0942
 2482SOL    HW118908   3.412   2.839   1.825 -1.3399  1.6857  0.2217
 2482SOL    HW218909   3.349   2.740   1.736 -0.2283  0.5051  1.8213
 2483SOL     OW18910   1.131   0.484   6.675  0.0772 -0.5647 -0.6284
 2483SOL    HW118911   1.215   0.445   6.699 -0.0692  1.3084  2.9029
 2483SOL    HW218912   1.166   0.573   6.668 -0.5298 -0.3310 -0.8009
 2484SOL     OW18913   3.336   0.260   9.416 -0.4846 -0.0969  0.6315
 2484SOL    HW118914   3.343   0.300   9.503  1.5282 -1.9207  1.3006
 2484SOL    HW218915   3.390   0.326   9.372 -2.3452  1.0981  0.1056
 2485SOL     OW18916   3.696   0.668   7.422  0.0135 -0.3515  0.2331
 2485SOL    HW118917   3.727   0.581   7.448 -0.3541 -0.6625 -0.3690
 2485SOL    HW218918   3.732   0.663   7.333 -0.5256  0.0529 -0.0106
 2486SOL     OW18919   4.411   1.670   2.849 -0.1514 -0.1225  0.4896
 2486SOL    HW118920   4.494   1.623   2.853 -0.4856 -0.6360  1.6074
 2486SOL    HW218921   4.415   1.686   2.755  3.5238 -0.8555  0.5146
 2487SOL     OW18922   3.929   4.219   5.883 -0.5458  0.0935 -0.8759
 2487SOL    HW118923   3.982   4.294   5.912 -0.2258 -0.7071  0.6159
 2487SOL    HW218924   3.944   4.210   5.789  0.7406  0.0301 -0.6713
 2488SOL     OW18925   1.788   4.146  14.218 -0.5174 -0.3382  0.1459
 2488SOL    HW118926   1.865   4.123  14.271  0.0048 -3.1217 -1.8647
 2488SOL    HW218927   1.742   4.063  14.228 -1.2375 -0.1684 -1.6509
 2489SOL     OW18928   2.878   2.832  15.335 -0.1844  0.3817  0.0075
 2489SOL    HW118929   2.948   2.815  15.272  1.5343  2.8429  1.2505
 2489SOL    HW218930   2.912   2.793  15.416 -2.6439  0.9459  1.3264
 2490SOL     OW18931   1.692   4.345   8.848 -0.3302 -1.0120 -0.0936
 2490SOL    HW118932   1.733   4.318   8.765 -1.9698 -1.1794 -0.8628
 2490SOL    HW218933   1.706   4.266   8.900 -2.1413 -1.5343 -0.3842
 2491SOL     OW18934   3.668   0.350   6.030 -0.1080  0.6632 -0.4316
 2491SOL    HW118935   3.591   0.326   5.979 -0.0970  0.7443 -0.4867
 2491SOL    HW218936   3.619   0.379   6.107  2.2954  1.6345  0.7213
 2492SOL     OW18937   3.182   4.466   8.609 -0.1456  0.3109 -0.3248
 2492SOL    HW118938   3.263   4.506   8.641  0.9916 -2.2008  0.0028
 2492SOL    HW218939   3.127   4.535   8.572  0.3089 -0.0853 -1.7600
 2493SOL     OW18940   3.407   0.657   4.668 -0.2587  0.3147 -0.0601
 2493SOL    HW118941   3.379   0.716   4.598 -2.0414  1.3890  1.5791
 2493SOL    HW218942   3.325   0.618   4.696  0.6409 -2.6526 -1.5249
 2494SOL     OW18943   1.836   3.928   7.336  0.1814  0.6406 -0.0926
 2494SOL    HW118944   1.893   3.867   7.288  0.1525 -0.3105  1.0718
 2494SOL    HW218945   1.767   3.863   7.349  0.7126  0.2523  0.8060
 2495SOL     OW18946   4.168   0.433   2.529 -0.7210  0.9660 -0.1130
 2495SOL    HW118947   4.214   0.413   2.448 -1.5961  1.1926 -0.6635
 2495SOL    HW218948   4.094   0.477   2.489 -1.4718  1.1535  1.4741
 2496SOL     OW18949   3.563   0.124   2.080 -0.2748 -0.5143  0.0361
 2496SOL    HW118950   3.568   0.048   2.022 -0.9917 -1.6587  1.4813
 2496SOL    HW218951   3.648   0.131   2.122 -1.4250  3.0166  1.8020
 2497SOL     OW18952   0.105   4.001   2.747 -0.5684  0.4654 -0.0623
 2497SOL    HW118953   0.141   3.915   2.730  1.5856  1.4243 -0.3634
 2497SOL    HW218954   0.087   3.991   2.841  3.2397  2.8951  0.9003
 2498SOL     OW18955   2.295   2.558   4.695  0.0777 -0.2028  0.1733
 2498SOL    HW118956   2.274   2.470   4.662 -0.0669 -0.5002  1.0497
 2498SOL    HW218957   2.366   2.583   4.636  0.3758  0.7638  0.9567
 2499SOL     OW18958   1.180   0.890   7.489 -0.1885 -0.0228 -0.5374
 2499SOL    HW118959   1.270   0.909   7.514 -0.4231  1.7028 -1.0002
 2499SOL    HW218960   1.128   0.917   7.564  0.0082 -3.2359  0.7233
 2500SOL     OW18961   4.634   4.133   4.879 -0.0587 -0.4287  0.4546
 2500SOL    HW118962   4.646   4.185   4.800 -1.5171  0.2752  0.6792
 2500SOL    HW218963   4.579   4.062   4.848  0.2197  0.4401 -2.0391
 2501SOL     OW18964   4.558   0.646   1.976 -0.3080 -0.2594  0.0329
 2501SOL    HW118965   4.628   0.684   1.923 -1.4527  2.3632  0.3720
 2501SOL    HW218966   4.474   0.677   1.941  0.7840  0.7599 -1.6403
 2502SOL     OW18967   3.173   2.769   2.662  0.0834  0.2384  0.3475
 2502SOL    HW118968   3.202   2.834   2.597  1.0301 -3.7120 -3.1612
 2502SOL    HW218969   3.254   2.753   2.710  0.0562  1.4184  0.7986
 2503SOL     OW18970   2.271   0.728   5.908  0.4770  0.1491  0.4400
 2503SOL    HW118971   2.284   0.823   5.905  0.1036  0.2447  1.7738
 2503SOL    HW218972   2.229   0.720   5.823 -0.1098 -1.3669  0.8760
 2504SOL     OW18973   4.381   1.411   5.348  0.2112  0.0677 -0.5695
 2504SOL    HW118974   4.437   1.345   5.309 -1.2213 -0.7994 -1.1715
 2504SOL    HW218975   4.449   1.463   5.390 -0.4214  0.6848 -0.2944
 2505SOL     OW18976   0.260   0.278   2.735 -0.7015  0.5277  0.0008
 2505SOL    HW118977   0.216   0.203   2.695  1.2401 -0.4418 -0.3094
 2505SOL    HW218978   0.182   0.314   2.779  0.7454  1.4288  1.8336
 2506SOL     OW18979   4.136   0.689   4.637  0.3553 -0.1559 -0.2987
 2506SOL    HW118980   4.153   0.619   4.574  0.3905  1.3002 -1.9066
 2506SOL    HW218981   4.043   0.708   4.622  0.5037  1.2061  0.5751
 2507SOL     OW18982   0.134   0.291  14.399 -0.1960 -0.1567 -0.1231
 2507SOL    HW118983   0.117   0.328  14.485 -0.3885 -1.5015  0.4169
 2507SOL    HW218984   0.185   0.360  14.356 -1.1465 -0.2046 -1.3615
 2508SOL     OW18985   4.624   2.818  11.118  0.2122  0.5788 -0.0502
 2508SOL    HW118986   4.715   2.797  11.098  0.4795  0.5025  1.2254
 2508SOL    HW218987   4.596   2.844  11.030  0.8810  0.3269 -0.3386
 2509SOL     OW18988   3.900   3.560   7.024  0.2167 -0.2582  0.0619
 2509SOL    HW118989   3.970   3.613   7.062  1.8521 -3.2810  1.2636
 2509SOL    HW218990   3.864   3.522   7.105  1.6311 -3.8293 -0.9718
 2510SOL     OW18991   0.497   1.486   2.155 -0.0329 -0.2605 -0.2454
 2510SOL    HW118992   0.444   1.412   2.126  0.4437 -1.2450  1.4002
 2510SOL    HW218993   0.442   1.554   2.116  0.3046  1.0171  1.5067
 2511SOL     OW18994   3.452   0.322   4.004 -0.3359 -0.3296 -0.0900
 2511SOL    HW118995   3.473   0.238   3.962  0.7847 -0.0694 -0.0426
 2511SOL    HW218996   3.502   0.382   3.949 -2.7152  2.5543  0.8987
 2512SOL     OW18997   3.498   0.735   4.107 -0.3057  0.1499  0.0771
 2512SOL    HW118998   3.511   0.810   4.050 -3.0470  0.5824  0.0247
 2512SOL    HW218999   3.408   0.709   4.090  0.1418 -1.3875 -0.0093
 2513SOL     OW19000   2.590   3.039   5.488  0.0725  0.4088  0.1790
 2513SOL    HW119001   2.566   2.987   5.412 -0.6122 -2.5781  2.4672
 2513SOL    HW219002   2.507   3.078   5.515  0.5629  0.9424  0.9489
 2514SOL     OW19003   4.028   1.690   4.017 -0.3311  0.0227  0.0678
 2514SOL    HW119004   4.086   1.766   4.028 -1.4577  1.1364 -1.6104
 2514SOL    HW219005   4.044   1.635   4.094  1.0262  0.1794 -0.0961
 2515SOL     OW19006   1.792   4.574  10.515 -0.5016  0.1810  0.4228
 2515SOL    HW119007   1.781   4.517  10.592  2.1041 -0.2595  0.4698
 2515SOL    HW219008   1.793   4.516  10.439 -1.5549 -0.7675  1.1202
 2516SOL     OW19009   0.296   3.489   6.006 -0.2593  0.4203 -0.5371
 2516SOL    HW119010   0.216   3.445   5.978 -0.6208  1.5483 -1.2652
 2516SOL    HW219011   0.309   3.549   5.933 -1.4936  0.3307 -0.8310
 2517SOL     OW19012   0.869   2.246  12.725 -0.0420 -0.0359 -0.0392
 2517SOL    HW119013   0.954   2.288  12.708 -0.6163  0.4758 -1.7451
 2517SOL    HW219014   0.877   2.170  12.667 -0.0464  1.2299 -1.7291
 2518SOL     OW19015   0.887   4.130   2.902  0.2853  0.5637  0.3360
 2518SOL    HW119016   0.933   4.164   2.825 -0.0717  2.5755  1.0117
 2518SOL    HW219017   0.814   4.083   2.862 -0.7966  4.0115 -1.6591
 2519SOL     OW19018   2.536   3.676   5.417  0.5767 -0.3153  0.2039
 2519SOL    HW119019   2.510   3.588   5.387 -1.2502  0.2005  0.2679
 2519SOL    HW219020   2.457   3.714   5.456 -0.5602 -1.6490 -0.7952
 2520SOL     OW19021   3.112   1.074   3.720 -0.3588  0.6134  0.1053
 2520SOL    HW119022   3.086   1.143   3.658  0.8682  0.8073 -0.2044
 2520SOL    HW219023   3.053   1.001   3.706 -1.6336  1.6880 -0.1415
 2521SOL     OW19024   0.119   4.087   7.471  0.4877  0.0306 -0.3802
 2521SOL    HW119025   0.045   4.147   7.460 -0.3181 -0.7805  0.7051
 2521SOL    HW219026   0.195   4.143   7.462  0.7832 -0.2885  0.1512
 2522SOL     OW19027   3.159   2.797   8.907  0.0279  0.4109 -0.4412
 2522SOL    HW119028   3.253   2.801   8.923  0.0838 -1.4455 -0.3665
 2522SOL    HW219029   3.128   2.737   8.975  0.7693 -1.1135 -1.4466
 2523SOL     OW19030   3.202   4.526  16.780 -0.1460  0.4878 -0.2103
 2523SOL    HW119031   3.158   4.478  16.850 -0.4269  0.9298 -0.0795
 2523SOL    HW219032   3.217   4.466  16.708 -4.0126 -0.1351 -0.4883
 2524SOL     OW19033   3.595   2.854  17.603  0.1504  0.2659 -0.5464
 2524SOL    HW119034   3.665   2.803  17.562 -1.4705 -0.7463 -2.0943
 2524SOL    HW219035   3.548   2.786  17.650  0.3608 -0.4779 -1.4175
 2525SOL     OW19036   3.092   1.872   5.587  0.1529 -0.8520  0.1614
 2525SOL    HW119037   3.073   1.943   5.648  0.2220 -0.4373 -0.2967
 2525SOL    HW219038   3.023   1.882   5.521  0.9256  0.3880 -0.4691
 2526SOL     OW19039   4.158   1.670  14.803 -0.6740  0.7999  0.3949
 2526SOL    HW119040   4.190   1.588  14.842  0.2135  0.4868 -0.9674
 2526SOL    HW219041   4.221   1.681  14.731  0.8360 -1.7738  1.3257
 2527SOL     OW19042   3.936   0.975   7.276  0.2988 -0.1696  0.0070
 2527SOL    HW119043   3.844   1.001   7.277 -0.7177 -3.7320  0.2826
 2527SOL    HW219044   3.967   1.033   7.346 -0.6160  1.0070 -0.5686
 2528SOL     OW19045   3.767   2.210   5.797 -0.0610  0.5409 -0.2915
 2528SOL    HW119046   3.816   2.266   5.857 -0.1238 -0.5964  0.8179
 2528SOL    HW219047   3.736   2.275   5.735 -0.1355  0.2385 -0.5740
 2529SOL     OW19048   4.289   3.580  13.136  0.7215  0.4829  0.4846
 2529SOL    HW119049   4.356   3.648  13.140  2.6025 -1.3709  0.3715
 2529SOL    HW219050   4.221   3.644  13.157  1.2049  0.9803  0.5300
 2530SOL     OW19051   3.345   1.842   4.344 -0.3186  0.0661  0.0825
 2530SOL    HW119052   3.305   1.876   4.424 -2.0488  1.2714 -1.2832
 2530SOL    HW219053   3.424   1.895   4.340 -0.1980 -0.0965  0.3498
 2531SOL     OW19054   0.680   2.226   7.911 -0.2980 -0.1892 -0.2568
 2531SOL    HW119055   0.600   2.274   7.891  0.6208  1.6981  0.5775
 2531SOL    HW219056   0.673   2.162   7.840 -0.0189 -2.0503  1.3852
 2532SOL     OW19057   2.382   3.311   2.299 -0.2441  0.0616 -0.1195
 2532SOL    HW119058   2.404   3.309   2.206 -0.2243  2.1552 -0.1654
 2532SOL    HW219059   2.432   3.235   2.329 -1.1845 -0.3367  0.4737
 2533SOL     OW19060   2.673   0.563   7.077 -0.6766  0.3216 -0.3585
 2533SOL    HW119061   2.757   0.541   7.118 -0.8869  2.1742  1.0608
 2533SOL    HW219062   2.672   0.479   7.031  1.2903 -0.0535  0.2650
 2534SOL     OW19063   1.271   2.075   8.453 -0.5025 -0.0235  0.0618
 2534SOL    HW119064   1.268   2.045   8.362  0.8866  3.0896 -0.9949
 2534SOL    HW219065   1.307   1.997   8.495 -1.4409 -0.6303 -0.2616
 2535SOL     OW19066   3.255   1.261   8.803 -0.1103  0.1418 -0.4007
 2535SOL    HW119067   3.237   1.268   8.710  1.8381  2.0197 -0.6311
 2535SOL    HW219068   3.162   1.260   8.824 -0.1457  2.2081 -0.4707
 2536SOL     OW19069   4.063   2.144   2.410 -0.1396  0.7091 -0.2564
 2536SOL    HW119070   3.987   2.200   2.424  0.1752  1.3564 -1.1179
 2536SOL    HW219071   4.097   2.171   2.324 -0.2469  0.8445 -0.2562
 2537SOL     OW19072   4.709   2.799   7.785  0.5897 -0.2086  0.9099
 2537SOL    HW119073   0.048   2.871   7.780 -0.6146  0.7162 -1.2013
 2537SOL    HW219074   4.678   2.798   7.875 -0.0979 -1.0059  0.6616
 2538SOL     OW19075   0.744   3.783   1.279  0.0404 -0.5476  0.2359
 2538SOL    HW119076   0.826   3.815   1.315 -0.2648  1.6458 -0.9853
 2538SOL    HW219077   0.701   3.865   1.255 -0.4815 -1.2225 -1.1053
 2539SOL     OW19078   0.673   3.282   8.399  0.3746 -0.2651 -0.0554
 2539SOL    HW119079   0.736   3.336   8.447 -0.0161  0.8565 -0.8030
 2539SOL    HW219080   0.641   3.223   8.467  2.4890 -1.1719  0.1498
 2540SOL     OW19081   2.312   1.348   8.812 -0.0973 -0.0113 -0.3912
 2540SOL    HW119082   2.348   1.434   8.790 -0.1003 -0.5924 -2.6220
 2540SOL    HW219083   2.391   1.294   8.812  0.1184  0.3034 -0.2048
 2541SOL     OW19084   3.836   1.421  16.757 -0.2050  0.0833 -0.4740
 2541SOL    HW119085   3.869   1.508  16.780 -0.4145 -0.5457  2.1902
 2541SOL    HW219086   3.810   1.434  16.665 -2.4025  3.1367  0.5944
 2542SOL     OW19087   3.290   2.912   0.134  0.0384  0.3232  0.0830
 2542SOL    HW119088   3.310   2.954   0.217 -0.2041 -1.5243  1.0708
 2542SOL    HW219089   3.352   2.839   0.132  0.2745  0.5123  0.6548
 2543SOL     OW19090   3.213   4.665  13.960  0.4765  0.2735  0.0222
 2543SOL    HW119091   3.159   0.009  13.919 -1.0386  0.0834  1.6860
 2543SOL    HW219092   3.160   4.641  14.036  0.7079 -0.2900  0.0110
 2544SOL     OW19093   3.274   3.583   3.192  0.3845 -0.3956  0.4320
 2544SOL    HW119094   3.355   3.630   3.213  0.3590 -0.6646  1.1250
 2544SOL    HW219095   3.210   3.619   3.254  0.3444  0.6669 -0.2185
 2545SOL     OW19096   1.477   4.472   3.167  0.2678  0.3487  0.2521
 2545SOL    HW119097   1.437   4.394   3.206  0.5798 -0.1297 -0.3792
 2545SOL    HW219098   1.437   4.546   3.212 -1.2822  0.7063 -1.6704
 2546SOL     OW19099   3.950   2.399   7.222 -0.8055 -0.0761 -0.0683
 2546SOL    HW119100   3.943   2.444   7.138  0.7757  0.3749  0.0452
 2546SOL    HW219101   3.979   2.466   7.284 -0.4374 -0.6658  0.3980
 2547SOL     OW19102   3.677   1.896   9.129  0.0508 -0.1189 -0.6639
 2547SOL    HW119103   3.702   1.816   9.083  0.2304 -0.2904 -0.2705
 2547SOL    HW219104   3.760   1.917   9.171 -0.9386  1.1839  0.6531
 2548SOL     OW19105   2.870   3.735   7.506  0.2351 -0.4930 -0.3176
 2548SOL    HW119106   2.824   3.815   7.482  0.0951 -0.9072 -1.4131
 2548SOL    HW219107   2.794   3.692   7.546  0.1898  0.6322  0.7974
 2549SOL     OW19108   3.415   1.589  11.768 -0.3724 -0.2841 -0.5593
 2549SOL    HW119109   3.401   1.504  11.727  0.2368 -0.8603  0.4276
 2549SOL    HW219110   3.495   1.570  11.818  0.2086  1.1042 -0.9636
 2550SOL     OW19111   4.699   3.927  16.871  0.0457 -0.2301  0.0974
 2550SOL    HW119112   4.717   4.014  16.906  1.1998 -0.4058 -0.0459
 2550SOL    HW219113   4.608   3.941  16.847 -0.0924  0.5678  1.0582
 2551SOL     OW19114   2.905   0.086   3.791  0.2583  0.0151  0.1118
 2551SOL    HW119115   2.943   0.173   3.785  1.7812 -0.6067  0.5548
 2551SOL    HW219116   2.973   0.041   3.741 -0.9538 -2.1220  0.3559
 2552SOL     OW19117   4.319   4.614   5.015  0.2339  0.5778 -0.5190
 2552SOL    HW119118   4.309   4.556   4.940 -1.6525 -0.6735  0.6813
 2552SOL    HW219119   4.349   4.697   4.978  0.5031  0.1662 -1.2171
 2553SOL     OW19120   2.750   2.114   8.257  0.1479 -0.4229  0.1328
 2553SOL    HW119121   2.758   2.099   8.351 -2.1589  1.9498  0.7158
 2553SOL    HW219122   2.815   2.183   8.242 -0.9117  0.5099 -0.1437
 2554SOL     OW19123   4.584   1.543   8.609 -0.3939 -0.6912  0.2724
 2554SOL    HW119124   4.578   1.482   8.683 -3.0001 -2.6197 -1.5287
 2554SOL    HW219125   4.499   1.536   8.566  1.8637 -1.2911 -4.1328
 2555SOL     OW19126   1.485   1.008   7.011 -0.0338 -0.3038  0.1574
 2555SOL    HW119127   1.461   0.939   6.950 -0.1106 -1.2654  1.2549
 2555SOL    HW219128   1.459   1.083   6.959  0.3957  0.4588  1.0381
 2556SOL     OW19129   2.854   1.496   2.725 -0.3643  0.2426  0.1166
 2556SOL    HW119130   2.911   1.448   2.785  2.2959  0.8625 -1.9252
 2556SOL    HW219131   2.910   1.495   2.648  0.7082  2.6922  0.8508
 2557SOL     OW19132   0.006   4.489   9.917 -0.5016  0.2261 -0.5466
 2557SOL    HW119133   0.016   4.539   9.836  0.0998 -0.3029 -0.8058
 2557SOL    HW219134   0.096   4.456   9.921 -0.9084 -0.3835  3.2361
 2558SOL     OW19135   3.751   2.194   6.811 -0.3253 -0.2079 -0.4628
 2558SOL    HW119136   3.657   2.181   6.821 -0.0969 -1.5285  0.0411
 2558SOL    HW219137   3.757   2.244   6.730  1.7534  0.6152  0.2004
 2559SOL     OW19138   2.313   0.904   0.445 -0.1073 -0.0033 -0.2393
 2559SOL    HW119139   2.252   0.880   0.515 -0.8394 -2.3168 -1.6734
 2559SOL    HW219140   2.303   0.999   0.450  1.9277  0.1836  0.5326
 2560SOL     OW19141   3.007   0.968   5.283  1.3099 -0.3025  0.0047
 2560SOL    HW119142   3.084   1.023   5.268 -0.6089  1.4466 -3.2526
 2560SOL    HW219143   2.937   1.029   5.305  0.4743 -1.0993 -0.4349
 2561SOL     OW19144   3.242   4.498   9.599 -0.0353 -0.3350 -0.5152
 2561SOL    HW119145   3.298   4.425   9.576  1.6277  0.0435  2.3529
 2561SOL    HW219146   3.275   4.563   9.537 -2.6941 -1.2119 -2.8263
 2562SOL     OW19147   3.223   4.615   8.347  0.2545  0.3696  0.0196
 2562SOL    HW119148   3.310   4.646   8.322 -0.5114  1.3209 -1.4896
 2562SOL    HW219149   3.207   4.646   8.436  1.5983 -0.2305  0.4774
 2563SOL     OW19150   3.222   3.991   5.357  0.1786 -0.1864 -0.2790
 2563SOL    HW119151   3.250   3.947   5.437  0.7825  1.7660  0.5751
 2563SOL    HW219152   3.251   4.079   5.378  0.3999 -0.3183 -0.0224
 2564SOL     OW19153   4.469   0.513   9.944 -0.0469  0.4915  0.1076
 2564SOL    HW119154   4.503   0.547   9.862  0.8620  0.5668  0.5194
 2564SOL    HW219155   4.396   0.458   9.917  0.2824  0.3579 -0.4969
 2565SOL     OW19156   2.512   4.214   5.538  0.6833  0.1009 -1.0123
 2565SOL    HW119157   2.488   4.293   5.586 -1.7666 -1.1682 -0.1921
 2565SOL    HW219158   2.438   4.226   5.479 -0.2425 -4.1684 -0.7524
 2566SOL     OW19159   0.637   0.338   9.388  0.0841 -0.9215 -0.8164
 2566SOL    HW119160   0.583   0.348   9.467  0.0024  1.0775 -1.1117
 2566SOL    HW219161   0.630   0.428   9.356  1.3112 -0.4751  0.1538
 2567SOL     OW19162   3.530   0.086   4.501  0.1613 -0.3359  0.0435
 2567SOL    HW119163   3.564   0.003   4.468  0.8271  0.1082 -0.3930
 2567SOL    HW219164   3.600   0.151   4.508  0.2214 -0.4606  0.6375
 2568SOL     OW19165   0.863   0.726  11.932 -0.0624 -0.2049 -0.0334
 2568SOL    HW119166   0.829   0.660  11.992  0.7497 -0.7314 -0.1561
 2568SOL    HW219167   0.815   0.803  11.962 -0.5032 -0.4965  0.0228
 2569SOL     OW19168   1.352   2.782   5.577 -0.2326 -0.5231  0.3347
 2569SOL    HW119169   1.419   2.749   5.636 -0.2332 -1.0753  0.0271
 2569SOL    HW219170   1.288   2.817   5.639 -1.3042 -0.1887 -0.9428
 2570SOL     OW19171   4.714   3.465   1.082  1.0092 -0.0566 -0.6025
 2570SOL    HW119172   4.690   3.479   1.173 -1.2047  1.5245 -1.4456
 2570SOL    HW219173   4.721   3.550   1.040 -3.2429  0.9376  0.7041
 2571SOL     OW19174   0.443   0.356   3.770 -0.1473  0.5619 -0.2804
 2571SOL    HW119175   0.471   0.298   3.841 -1.8965  2.1716  1.7163
 2571SOL    HW219176   0.487   0.315   3.696 -0.6848 -0.2701 -0.1332
 2572SOL     OW19177   1.845   2.856   7.990  0.2244  0.3676  0.1393
 2572SOL    HW119178   1.862   2.943   7.955 -0.6830  1.0156  1.3173
 2572SOL    HW219179   1.755   2.850   7.957 -0.8022 -0.6870  3.1731
 2573SOL     OW19180   2.049   2.729   8.746  0.1634 -0.0352  0.7215
 2573SOL    HW119181   2.100   2.759   8.671  0.5931  0.5971  1.2678
 2573SOL    HW219182   1.957   2.742   8.722 -0.5217 -0.4883  3.0938
 2574SOL     OW19183   3.518   0.262   1.135  0.3625 -0.1821 -0.1506
 2574SOL    HW119184   3.596   0.209   1.152 -0.4195 -1.5131 -0.7091
 2574SOL    HW219185   3.453   0.218   1.190  1.8250 -1.8877  0.1845
 2575SOL     OW19186   2.365   1.454  10.744 -0.1657  0.1359 -0.4168
 2575SOL    HW119187   2.414   1.535  10.727  2.8279 -1.3669  0.9106
 2575SOL    HW219188   2.403   1.444  10.832 -0.8787 -2.1668 -0.3694
 2576SOL     OW19189   3.721   2.024  16.274 -0.0697 -0.3005  0.3978
 2576SOL    HW119190   3.648   2.037  16.334 -2.3283 -2.7648 -1.7986
 2576SOL    HW219191   3.710   2.108  16.229  1.6303 -0.0920  0.3917
 2577SOL     OW19192   1.715   4.599   3.093 -0.3686  0.1010  0.1980
 2577SOL    HW119193   1.646   4.541   3.125  0.9819 -2.0335 -0.7225
 2577SOL    HW219194   1.712   4.576   3.000  0.1853  0.9194 -0.0181
 2578SOL     OW19195   2.517   1.622   9.501 -0.0985 -0.0364 -0.2103
 2578SOL    HW119196   2.509   1.528   9.483 -0.8331 -0.0222  0.0384
 2578SOL    HW219197   2.465   1.635   9.581 -0.0530 -0.3220 -0.1321
 2579SOL     OW19198   2.710   2.526   6.947  0.2370 -0.3570  0.4221
 2579SOL    HW119199   2.615   2.537   6.951  0.3220  0.8524 -0.8663
 2579SOL    HW219200   2.731   2.515   7.040 -3.3521 -2.5009  0.9652
 2580SOL     OW19201   2.406   0.380   1.825  0.7638 -0.4175 -0.7642
 2580SOL    HW119202   2.316   0.369   1.796  0.6999 -1.6196 -0.1207
 2580SOL    HW219203   2.454   0.372   1.743 -1.0873  0.1747 -1.9026
 2581SOL     OW19204   3.063   0.897  10.658 -0.4335 -0.0719  0.2594
 2581SOL    HW119205   3.092   0.827  10.600 -0.0763 -0.1163  0.4933
 2581SOL    HW219206   3.026   0.959  10.594 -1.7647  0.0314  1.1405
 2582SOL     OW19207   4.007   2.564  13.534  0.2443  0.2405 -0.3007
 2582SOL    HW119208   3.957   2.579  13.454  0.2941 -0.3984 -0.4581
 2582SOL    HW219209   3.966   2.624  13.595  1.4557  1.2410 -0.4722
 2583SOL     OW19210   2.649   0.290   8.852  0.4574 -0.3377 -0.4422
 2583SOL    HW119211   2.642   0.365   8.793  0.6805  0.3436  0.3936
 2583SOL    HW219212   2.697   0.231   8.794 -1.0968  0.1695 -2.2483
 2584SOL     OW19213   2.421   0.302   9.674 -0.6785  0.2285 -0.3671
 2584SOL    HW119214   2.361   0.376   9.683 -1.1014 -0.1451 -0.1379
 2584SOL    HW219215   2.414   0.280   9.581  2.4320 -0.4139 -0.4229
 2585SOL     OW19216   2.076   2.710   7.974 -0.0097 -0.5398 -0.4359
 2585SOL    HW119217   2.118   2.770   7.912 -2.1582 -0.8957 -2.2346
 2585SOL    HW219218   1.990   2.751   7.984 -0.1349 -1.0264  0.4371
 2586SOL     OW19219   1.312   0.768  13.631 -0.3306  0.5432  0.2795
 2586SOL    HW119220   1.279   0.797  13.546 -1.3863  2.2463  1.2775
 2586SOL    HW219221   1.342   0.855  13.659 -1.2243  1.7394 -2.5097
 2587SOL     OW19222   4.631   2.392   0.291 -0.5161  0.3703  0.7661
 2587SOL    HW119223   4.659   2.331   0.223 -2.5685  0.1971  0.0767
 2587SOL    HW219224   4.716   2.416   0.328  0.5293 -0.5626 -1.0521
 2588SOL     OW19225   4.469   1.301   3.851 -0.3639 -0.0640 -0.0174
 2588SOL    HW119226   4.466   1.337   3.940  0.2238 -2.0554  0.8164
 2588SOL    HW219227   4.543   1.352   3.818  0.5973 -0.5760  1.3240
 2589SOL     OW19228   0.210   0.490   7.930 -0.0790 -0.6300  0.5337
 2589SOL    HW119229   0.140   0.434   7.963  0.5837 -1.0429  1.2408
 2589SOL    HW219230   0.164   0.557   7.879  2.6890  0.5306 -0.4869
 2590SOL     OW19231   2.927   4.348   4.971 -0.0188  0.2937 -0.2428
 2590SOL    HW119232   2.917   4.357   4.877 -0.4017 -1.4191 -0.3743
 2590SOL    HW219233   3.018   4.319   4.972 -0.5094 -1.2625  1.2527
 2591SOL     OW19234   4.576   0.324  14.330 -0.9524 -0.0862  0.5200
 2591SOL    HW119235   4.662   0.282  14.334 -1.6420 -1.5101  0.4321
 2591SOL    HW219236   4.521   0.253  14.296  0.0690 -0.8036  0.3749
 2592SOL     OW19237   1.389   2.888   2.683 -0.4728  0.2453 -0.4512
 2592SOL    HW119238   1.337   2.943   2.625 -1.4099  1.5344  1.5911
 2592SOL    HW219239   1.325   2.826   2.720 -1.4673  1.2324 -0.5226
 2593SOL     OW19240   1.402   3.721  15.835 -0.7072 -0.1322 -0.1782
 2593SOL    HW119241   1.420   3.630  15.856 -1.4956 -0.3475 -0.4369
 2593SOL    HW219242   1.308   3.725  15.855 -0.7472 -1.7876 -0.1054
 2594SOL     OW19243   4.635   0.021   6.925 -0.6991  0.3929 -0.5072
 2594SOL    HW119244   4.634   0.102   6.976 -1.6320 -0.8406  1.3909
 2594SOL    HW219245   4.624   0.057   6.836  1.8051 -3.1010 -2.2218
 2595SOL     OW19246   0.379   2.391   2.227  0.5683 -0.3467 -0.0300
 2595SOL    HW119247   0.367   2.485   2.211 -0.0573 -0.2593  1.0022
 2595SOL    HW219248   0.464   2.393   2.183  0.5270  1.3285 -0.0356
 2596SOL     OW19249   2.991   1.033  11.778  0.0192 -0.0372  0.5418
 2596SOL    HW119250   2.941   1.000  11.853  0.9513 -2.8932 -0.0580
 2596SOL    HW219251   3.082   1.019  11.804  0.7572 -0.6246 -2.3628
 2597SOL     OW19252   4.373   4.623   8.975  0.0180  0.1871  0.1962
 2597SOL    HW119253   4.317   4.673   9.034 -2.0787 -0.9380 -0.8372
 2597SOL    HW219254   4.357   4.533   9.003  2.0621 -0.3275 -0.2130
 2598SOL     OW19255   3.524   4.166   5.752 -0.3995 -0.4595  0.2563
 2598SOL    HW119256   3.439   4.174   5.795  0.1478  0.3270  1.1815
 2598SOL    HW219257   3.527   4.238   5.689 -0.1120 -0.4268  0.3093
 2599SOL     OW19258   4.665   3.247   6.869 -0.0267  0.1773 -0.4111
 2599SOL    HW119259   4.678   3.161   6.909 -0.0187  0.9576  1.2549
 2599SOL    HW219260   0.020   3.252   6.816 -0.5173  1.5028 -1.0103
 2600SOL     OW19261   1.508   0.743   4.755 -0.2070 -0.4065  0.3732
 2600SOL    HW119262   1.531   0.749   4.663 -0.2693  0.6844  0.4334
 2600SOL    HW219263   1.585   0.702   4.793  1.5787  0.4814 -2.3452
 2601SOL     OW19264   3.587   0.062  13.514  0.0083 -0.2021  0.0377
 2601SOL    HW119265   3.505   0.076  13.561  0.4140 -0.3733  0.8001
 2601SOL    HW219266   3.602   0.136  13.455 -0.6997  0.8457  1.1553
 2602SOL     OW19267   1.224   1.613  16.554  0.2245  1.0594  0.2256
 2602SOL    HW119268   1.203   1.535  16.502  0.8643  0.6956  0.5122
 2602SOL    HW219269   1.138   1.637  16.588  0.8391 -0.4579  2.8433
 2603SOL     OW19270   2.085   4.556  17.621 -0.8832  0.1364  0.2339
 2603SOL    HW119271   2.062   4.639  17.662  0.9248  0.6594  0.1520
 2603SOL    HW219272   2.051   4.487  17.679  2.1809  0.1943  2.1275
 2604SOL     OW19273   0.289   2.117  10.864 -0.3482 -0.3522 -0.1802
 2604SOL    HW119274   0.236   2.089  10.938  0.7472 -3.9562 -0.7682
 2604SOL    HW219275   0.229   2.179  10.823 -1.6460 -1.1972  0.4196
 2605SOL     OW19276   2.086   3.338   4.520 -0.1621 -0.0567  0.6280
 2605SOL    HW119277   2.007   3.295   4.552 -0.0644 -0.8788 -0.2448
 2605SOL    HW219278   2.150   3.325   4.590  2.1252 -0.6588 -1.5863
 2606SOL     OW19279   1.919   4.388  14.045  0.3102 -0.0247 -0.0812
 2606SOL    HW119280   1.878   4.408  13.960 -0.2049  2.8645  0.8296
 2606SOL    HW219281   1.880   4.303  14.065 -0.8023  1.0584  2.3410
 2607SOL     OW19282   3.169   1.478   2.637  0.4206 -0.2978  0.2078
 2607SOL    HW119283   3.260   1.449   2.633  0.8249  1.2423 -1.3690
 2607SOL    HW219284   3.142   1.470   2.546  0.7318  0.7303  0.0332
 2608SOL     OW19285   0.468   1.913  13.849  0.0320  0.1735  0.7168
 2608SOL    HW119286   0.428   1.981  13.796 -1.2036 -0.3921  0.9292
 2608SOL    HW219287   0.428   1.833  13.814  0.2767  1.3934 -2.3207
 2609SOL     OW19288   0.215   2.034   7.586 -0.0749 -0.5578 -0.0390
 2609SOL    HW119289   0.170   2.090   7.649 -0.2276 -0.1753 -0.4878
 2609SOL    HW219290   0.285   1.999   7.642  1.3806  0.2602 -1.3698
 2610SOL     OW19291   3.067   3.617   4.736  0.4843 -0.0013  0.2718
 2610SOL    HW119292   3.097   3.603   4.827 -1.3349  0.7198  0.9723
 2610SOL    HW219293   3.024   3.702   4.742 -1.5992 -1.0166 -0.5038
 2611SOL     OW19294   0.373   2.686   3.538 -0.0437 -0.2983 -0.5346
 2611SOL    HW119295   0.449   2.722   3.493 -1.6595 -0.2925 -3.2515
 2611SOL    HW219296   0.386   2.694   3.633  2.3443  0.0640 -0.8806
 2612SOL     OW19297   3.292   0.653  17.018  0.5903 -0.1026 -0.2468
 2612SOL    HW119298   3.339   0.611  16.945 -1.4021 -0.5150 -1.2985
 2612SOL    HW219299   3.236   0.707  16.963 -0.6996 -1.2133 -0.0166
 2613SOL     OW19300   2.375   0.178   0.108  0.0496 -0.5546 -0.1245
 2613SOL    HW119301   2.386   0.085   0.124 -0.5967 -0.3700  1.4432
 2613SOL    HW219302   2.359   0.212   0.196 -1.9375  1.9700 -1.4677
 2614SOL     OW19303   0.197   2.492   8.889 -0.1316  0.2669 -0.4825
 2614SOL    HW119304   0.128   2.472   8.825  0.2065  0.1666 -0.8175
 2614SOL    HW219305   0.281   2.481   8.844 -1.4183  3.1294 -3.6840
 2615SOL     OW19306   3.302   4.514   5.426 -0.0917  0.3811 -0.2806
 2615SOL    HW119307   3.374   4.529   5.364  2.6485 -2.7084  2.1267
 2615SOL    HW219308   3.228   4.547   5.376  0.9944  0.5084 -1.8195
 2616SOL     OW19309   1.737   3.980  14.694  0.2735 -0.2865  0.4119
 2616SOL    HW119310   1.783   3.950  14.615  0.7903 -0.6047  0.8314
 2616SOL    HW219311   1.817   4.008  14.740  0.1673  0.4159  0.1633
 2617SOL     OW19312   2.582   4.586   0.732  0.0596 -0.1302 -0.5749
 2617SOL    HW119313   2.544   4.532   0.801 -3.2814  0.1748 -2.1754
 2617SOL    HW219314   2.582   4.672   0.775  1.3029 -0.7133  0.6068
 2618SOL     OW19315   1.877   3.131   7.859  0.5487  0.1459 -0.2058
 2618SOL    HW119316   1.881   3.127   7.763 -0.2682  3.0839 -0.3660
 2618SOL    HW219317   1.782   3.120   7.870  0.5032  1.9736  1.1721
 2619SOL     OW19318   3.012   2.798   5.029  0.1374 -0.3336  0.0169
 2619SOL    HW119319   3.096   2.844   5.019 -0.6071  0.9988 -0.1234
 2619SOL    HW219320   2.957   2.855   5.083 -1.7352  1.2734 -3.5902
 2620SOL     OW19321   4.267   0.566   2.987  0.3223  0.0989 -0.1719
 2620SOL    HW119322   4.244   0.509   2.913 -0.2583 -0.1584  0.2083
 2620SOL    HW219323   4.258   0.650   2.944  1.4682 -0.1049 -0.7983
 2621SOL     OW19324   4.260   1.964   2.329 -0.6199  0.0889 -0.1837
 2621SOL    HW119325   4.235   2.016   2.253 -0.9649 -0.1652 -0.2454
 2621SOL    HW219326   4.190   1.997   2.386  0.1135  1.3450 -0.0042
 2622SOL     OW19327   0.724   1.882   3.307 -0.1073  0.6041 -0.3599
 2622SOL    HW119328   0.676   1.815   3.259  0.1406 -0.0466  0.3070
 2622SOL    HW219329   0.705   1.955   3.248 -1.3894  0.5016 -0.0711
 2623SOL     OW19330   1.184   3.292  13.061  0.2303 -0.0054  0.2094
 2623SOL    HW119331   1.167   3.332  12.975  2.0397  0.8840  0.2802
 2623SOL    HW219332   1.243   3.220  13.039 -0.1629  0.2217 -1.6473
 2624SOL     OW19333   0.823   1.833   7.519 -0.5846 -0.0385 -0.5969
 2624SOL    HW119334   0.871   1.770   7.572  0.0475  0.4007 -0.6440
 2624SOL    HW219335   0.870   1.842   7.436  0.2172 -0.4899 -0.1954
 2625SOL     OW19336   1.576   2.812   3.425  0.2389  1.3583  0.2710
 2625SOL    HW119337   1.507   2.784   3.485  1.7426  1.0611  1.8830
 2625SOL    HW219338   1.531   2.881   3.377 -1.1294  1.2136  1.3478
 2626SOL     OW19339   1.936   0.086   2.604 -0.4296  0.9237 -0.2819
 2626SOL    HW119340   1.940   0.179   2.622  1.5202  0.5340  1.3107
 2626SOL    HW219341   1.950   0.059   2.695 -2.3867  2.7815  0.5740
 2627SOL     OW19342   2.056   4.550   8.261 -0.4839  0.1253  0.6573
 2627SOL    HW119343   2.061   4.584   8.171 -0.1855 -1.0404  0.2409
 2627SOL    HW219344   2.074   4.632   8.308 -0.9354  1.2454 -1.0986
 2628SOL     OW19345   2.770   0.285   4.684  0.2653  0.1767  0.6416
 2628SOL    HW119346   2.834   0.258   4.618 -2.6629  0.3042 -2.2549
 2628SOL    HW219347   2.759   0.375   4.654  0.9179  0.5468  1.5151
 2629SOL     OW19348   2.688   4.629   2.574  0.2018 -0.6041 -0.4379
 2629SOL    HW119349   2.660   4.650   2.485 -1.8262 -0.5016  0.2227
 2629SOL    HW219350   2.760   4.693   2.575 -0.9625  0.7276 -1.1471
 2630SOL     OW19351   4.696   3.333  13.425  0.5249 -0.5896  0.1486
 2630SOL    HW119352   4.639   3.410  13.432  1.6950  0.1488  1.7044
 2630SOL    HW219353   4.665   3.283  13.501 -1.9867  0.6035 -0.0862
 2631SOL     OW19354   3.355   0.541   6.809  0.4178  0.4072 -0.3540
 2631SOL    HW119355   3.338   0.546   6.903  0.4788  0.1566 -0.3306
 2631SOL    HW219356   3.450   0.547   6.817  0.3875  0.7378 -0.2520
 2632SOL     OW19357   3.739   0.406   8.080 -0.0755 -0.3663  0.5215
 2632SOL    HW119358   3.699   0.488   8.110 -0.0768  0.1174 -0.8142
 2632SOL    HW219359   3.807   0.441   8.023  0.0343  0.6195  1.2525
 2633SOL     OW19360   0.390   1.988   9.767  0.8664  0.0989 -0.1893
 2633SOL    HW119361   0.467   2.021   9.721  0.7663 -1.4242 -1.4692
 2633SOL    HW219362   0.317   2.024   9.717 -0.1628 -0.3707  0.9851
 2634SOL     OW19363   1.089   2.318   3.880  0.7256  0.0896 -0.4748
 2634SOL    HW119364   1.094   2.224   3.863 -0.8255 -0.2229  0.8847
 2634SOL    HW219365   1.182   2.340   3.893  1.1597 -1.2671 -1.3155
 2635SOL     OW19366   4.235   2.468   3.599  0.1215 -0.2431 -0.3449
 2635SOL    HW119367   4.282   2.547   3.574 -2.0614  0.1559 -3.2457
 2635SOL    HW219368   4.308   2.414   3.629  0.2082  0.7166  1.1758
 2636SOL     OW19369   2.189   2.827   8.510 -0.0470  0.3403  0.4749
 2636SOL    HW119370   2.268   2.856   8.556  0.6668 -1.0475  0.1110
 2636SOL    HW219371   2.199   2.868   8.424  3.3249 -1.2365  0.1056
 2637SOL     OW19372   2.469   3.219   6.273 -0.0077 -0.2615  0.3329
 2637SOL    HW119373   2.442   3.241   6.184  0.1937 -1.7760 -0.1156
 2637SOL    HW219374   2.563   3.233   6.261 -0.2006  0.2375 -0.5676
 2638SOL     OW19375   2.889   3.148  14.004 -0.6098  0.5574 -0.0810
 2638SOL    HW119376   2.800   3.180  13.994 -0.3293  1.1764 -0.5911
 2638SOL    HW219377   2.880   3.099  14.086  2.5015 -1.5991 -1.0278
 2639SOL     OW19378   3.643   4.171   8.335 -0.5670 -0.7540 -0.4145
 2639SOL    HW119379   3.713   4.106   8.329  1.1372  0.9286  1.4115
 2639SOL    HW219380   3.604   4.158   8.422 -0.5687 -0.3863 -0.3617
 2640SOL     OW19381   0.869   4.677  16.811 -0.4644 -0.4840 -0.1546
 2640SOL    HW119382   0.934   4.607  16.806 -0.8468 -0.8203 -0.4531
 2640SOL    HW219383   0.794   4.620  16.825 -2.4900  2.0975 -0.5494
 2641SOL     OW19384   1.339   2.486   6.197  0.1786  0.1925  0.5477
 2641SOL    HW119385   1.328   2.569   6.244  1.3348  1.4810 -1.4745
 2641SOL    HW219386   1.354   2.428   6.272 -1.7334 -2.3907 -1.0774
 2642SOL     OW19387   0.654   0.615   5.005  0.9945 -0.5164  0.4625
 2642SOL    HW119388   0.666   0.526   4.971 -1.7751  0.0489 -1.9619
 2642SOL    HW219389   0.572   0.600   5.053  1.1459 -1.2390  0.4957
 2643SOL     OW19390   2.562   4.693  10.218 -0.0943 -0.3003 -0.0969
 2643SOL    HW119391   2.492   0.018  10.176  1.9642  2.5963 -0.1656
 2643SOL    HW219392   2.549   4.603  10.186 -1.1464  0.0178 -0.5654
 2644SOL     OW19393   0.539   3.777   4.934 -0.4347 -0.2928 -0.0660
 2644SOL    HW119394   0.615   3.719   4.930 -0.7127 -0.7530  1.4441
 2644SOL    HW219395   0.514   3.773   5.026  1.9419  1.5725  0.6908
 2645SOL     OW19396   1.908   4.483  12.123 -0.4052 -0.0837 -0.0358
 2645SOL    HW119397   1.962   4.519  12.194 -1.9758  1.2212  0.5120
 2645SOL    HW219398   1.951   4.400  12.103 -0.1576  0.7244 -2.8570
 2646SOL     OW19399   3.195   4.493   8.084 -0.4847  0.4503  0.0262
 2646SOL    HW119400   3.225   4.525   8.169  1.2161 -1.7895  0.2614
 2646SOL    HW219401   3.208   4.567   8.025  1.2120  1.2677  1.4388
 2647SOL     OW19402   2.876   3.773   3.669  0.2738 -0.4292  0.0774
 2647SOL    HW119403   2.865   3.863   3.637  0.2402 -1.3049 -2.4000
 2647SOL    HW219404   2.786   3.746   3.687  0.2263  0.4856  1.2295
 2648SOL     OW19405   3.083   4.408  12.260 -0.1178 -0.2419  0.1319
 2648SOL    HW119406   2.997   4.404  12.302 -0.4112  0.8654 -0.3752
 2648SOL    HW219407   3.081   4.335  12.198  0.2514 -0.7273  0.6871
 2649SOL     OW19408   2.220   3.216  15.044 -0.3075 -0.1307  0.0977
 2649SOL    HW119409   2.257   3.265  14.971 -2.7479 -1.2905 -1.9085
 2649SOL    HW219410   2.278   3.141  15.057  2.9913  2.5034  0.6383
 2650SOL     OW19411   2.625   1.574   2.851 -0.2346 -0.2130 -0.0126
 2650SOL    HW119412   2.704   1.561   2.798 -0.0448  1.3448 -0.1090
 2650SOL    HW219413   2.614   1.667   2.832 -0.5210  0.2119  2.3038
 2651SOL     OW19414   4.428   4.716   2.514  0.1923  0.2643 -0.3182
 2651SOL    HW119415   4.495   4.697   2.448  1.8906  4.0042  0.3549
 2651SOL    HW219416   4.450   0.083   2.531  0.3656  0.0700  0.4717
 2652SOL     OW19417   2.813   1.966   2.960  0.0790  0.6680  0.2406
 2652SOL    HW119418   2.888   1.956   2.902  0.7700 -1.3687  1.5175
 2652SOL    HW219419   2.733   1.948   2.910 -0.0788  1.1108  0.3314
 2653SOL     OW19420   1.635   3.191   5.926 -0.1055 -0.1388 -0.6108
 2653SOL    HW119421   1.616   3.159   5.838 -0.4624 -4.2183  0.9578
 2653SOL    HW219422   1.548   3.203   5.963  0.6716  1.5104  0.6938
 2654SOL     OW19423   4.324   0.448   2.306 -0.8363  0.4052  0.4104
 2654SOL    HW119424   4.362   0.523   2.352  1.5030 -0.2085 -0.4927
 2654SOL    HW219425   4.384   0.431   2.233  0.2776 -0.5490  1.5385
 2655SOL     OW19426   2.776   0.046   3.466 -0.4928 -0.5572 -0.2234
 2655SOL    HW119427   2.859   0.089   3.483 -0.8798  0.2905 -0.5203
 2655SOL    HW219428   2.784   0.010   3.378 -0.9292  1.0704 -0.9219
 2656SOL     OW19429   3.990   1.546   8.030 -0.0628  0.0440  0.1594
 2656SOL    HW119430   3.999   1.511   8.118 -1.9847 -4.3561 -1.4118
 2656SOL    HW219431   4.058   1.614   8.033 -0.0771  0.1773 -2.5590
 2657SOL     OW19432   2.940   2.208   9.059 -0.5812 -0.3684 -0.3995
 2657SOL    HW119433   2.976   2.121   9.041 -0.6873 -1.0317  2.5920
 2657SOL    HW219434   3.013   2.238   9.113 -0.5542 -0.0238 -0.6293
 2658SOL     OW19435   3.011   1.724   9.569 -1.0665 -0.5019 -0.2674
 2658SOL    HW119436   2.975   1.773   9.496 -1.4605  0.8190  0.8234
 2658SOL    HW219437   3.000   1.633   9.541  2.5423 -1.6543  1.9955
 2659SOL     OW19438   1.018   2.437   7.507 -0.3507 -0.5947  0.3981
 2659SOL    HW119439   1.064   2.431   7.591 -1.5128  0.9702  1.1380
 2659SOL    HW219440   0.924   2.428   7.522 -0.5804  1.6391  0.2039
 2660SOL     OW19441   0.249   4.157   1.334  0.6246 -0.2664  0.6198
 2660SOL    HW119442   0.266   4.251   1.345 -0.8527  0.0745 -0.1408
 2660SOL    HW219443   0.270   4.133   1.424 -3.0209  1.0701  1.8280
 2661SOL     OW19444   2.064   1.599  12.562  0.1493  0.2808  0.3180
 2661SOL    HW119445   2.111   1.666  12.611  0.1642  1.2674 -1.0283
 2661SOL    HW219446   2.053   1.638  12.475 -1.2493 -0.9525 -0.0611
 2662SOL     OW19447   3.587   1.499  13.195  0.7983 -0.2260  0.3693
 2662SOL    HW119448   3.620   1.539  13.114  3.0823 -0.0321  1.3988
 2662SOL    HW219449   3.612   1.411  13.170 -2.0335 -0.6195 -1.1460
 2663SOL     OW19450   0.809   2.777   8.936  0.5919  0.1731 -0.3802
 2663SOL    HW119451   0.839   2.858   8.978  0.5768 -0.6764  1.2748
 2663SOL    HW219452   0.870   2.708   8.964  1.7851  2.3499  2.3619
 2664SOL     OW19453   4.135   1.405   4.274  0.1838  0.4037 -0.3297
 2664SOL    HW119454   4.149   1.363   4.189  1.1609 -0.5538  0.3154
 2664SOL    HW219455   4.106   1.493   4.250 -0.1392 -0.0222 -1.5094
 2665SOL     OW19456   2.998   0.618   6.399  0.3794 -0.6653  0.7274
 2665SOL    HW119457   3.072   0.558   6.406  0.2451 -0.6341  2.3400
 2665SOL    HW219458   2.962   0.609   6.311 -2.5158 -0.7585  1.8921
 2666SOL     OW19459   3.284   3.202   6.609 -0.1147  0.1793  0.6109
 2666SOL    HW119460   3.259   3.183   6.518 -0.1285  1.6061  0.3022
 2666SOL    HW219461   3.257   3.294   6.605 -0.8318 -0.1053 -1.1381
 2667SOL     OW19462   0.431   2.412   9.760  0.5068 -0.1120  0.3549
 2667SOL    HW119463   0.347   2.431   9.803  0.8985 -1.6989  1.8415
 2667SOL    HW219464   0.411   2.427   9.668  0.0279  3.9325  1.0993
 2668SOL     OW19465   2.187   1.957   6.165 -0.2866 -0.4404  0.0102
 2668SOL    HW119466   2.146   1.904   6.096 -0.1698 -0.8967  0.2961
 2668SOL    HW219467   2.223   2.024   6.107  0.0704  0.8601  1.7646
 2669SOL     OW19468   3.250   2.970   5.457  0.6630 -0.8925 -0.4155
 2669SOL    HW119469   3.235   2.881   5.490 -3.5181  0.5540  1.6064
 2669SOL    HW219470   3.312   2.956   5.385  1.1204 -1.4132  0.0893
 2670SOL     OW19471   2.642   0.594   2.500  0.4927  0.1033 -0.2541
 2670SOL    HW119472   2.554   0.631   2.490  0.1198 -0.4225  1.0339
 2670SOL    HW219473   2.682   0.604   2.414 -0.9726  1.9697 -0.7343
 2671SOL     OW19474   0.611   2.805   4.872 -0.0914  0.2090  0.1720
 2671SOL    HW119475   0.638   2.858   4.798 -0.6099 -1.8776 -1.4900
 2671SOL    HW219476   0.674   2.735   4.859 -0.3014  0.1865 -0.7162
 2672SOL     OW19477   3.280   1.990  13.590  0.5323  0.3844  0.2440
 2672SOL    HW119478   3.198   1.973  13.637  0.2953  0.0762 -0.2815
 2672SOL    HW219479   3.343   2.015  13.657  1.1900  0.0946 -0.2630
 2673SOL     OW19480   0.650   4.265   1.412  0.5475  0.1770 -0.0898
 2673SOL    HW119481   0.737   4.270   1.452  0.3118 -0.2216  0.4834
 2673SOL    HW219482   0.627   4.352   1.381  2.0672  0.4875 -0.3660
 2674SOL     OW19483   0.125   3.454   9.272  0.0787  0.0634 -0.5442
 2674SOL    HW119484   0.037   3.442   9.236 -0.2471  2.1374 -0.4555
 2674SOL    HW219485   0.146   3.370   9.313 -1.0712 -0.4526 -1.0132
 2675SOL     OW19486   3.949   2.041   8.976 -0.2743  0.1411  0.2688
 2675SOL    HW119487   3.911   1.965   8.931  0.2572  0.1043 -0.1214
 2675SOL    HW219488   3.998   2.010   9.052  0.4622  0.5207 -0.0545
 2676SOL     OW19489   3.585   1.360  12.941 -0.8413 -0.1912 -0.3339
 2676SOL    HW119490   3.519   1.292  12.950 -0.3126 -0.3637  2.2916
 2676SOL    HW219491   3.538   1.426  12.890  2.4411  1.8969 -0.7025
 2677SOL     OW19492   0.366   2.882   2.732 -0.6934 -0.1637 -0.3603
 2677SOL    HW119493   0.343   2.865   2.823  0.2919 -1.4409 -0.3518
 2677SOL    HW219494   0.283   2.877   2.686 -0.6409  1.7616 -0.6523
 2678SOL     OW19495   2.807   0.521   4.109  0.4798  0.3770  0.0628
 2678SOL    HW119496   2.777   0.431   4.100  1.0538  0.0834  1.0260
 2678SOL    HW219497   2.897   0.513   4.078  0.1569  2.0776 -1.3041
 2679SOL     OW19498   3.594   3.892   5.125  0.2821  0.5846 -0.2863
 2679SOL    HW119499   3.569   3.984   5.114  2.3462  1.4233  2.1503
 2679SOL    HW219500   3.505   3.859   5.137  0.8943 -1.1840 -0.5934
 2680SOL     OW19501   3.294   3.214   6.114  0.6787  0.5573 -0.7313
 2680SOL    HW119502   3.355   3.217   6.041  0.1854  0.4535 -1.1498
 2680SOL    HW219503   3.210   3.228   6.071  0.3024  1.6865  0.3892
 2681SOL     OW19504   2.788   3.161  12.170 -0.2671  0.0002 -0.4494
 2681SOL    HW119505   2.751   3.248  12.156 -3.9781 -1.4037  0.6957
 2681SOL    HW219506   2.875   3.187  12.199  0.1417 -3.5518  1.4765
 2682SOL     OW19507   3.827   4.681   5.160 -0.1149  0.3023  0.3135
 2682SOL    HW119508   3.887   4.607   5.153 -1.2906 -0.6228 -0.0344
 2682SOL    HW219509   3.769   4.678   5.084 -0.5765 -0.2494  0.6847
 2683SOL     OW19510   4.028   3.683   8.366  0.5310 -0.4731  0.2397
 2683SOL    HW119511   3.987   3.703   8.451  1.4882  1.4499  0.2557
 2683SOL    HW219512   3.957   3.639   8.321 -0.1750  0.0150  0.8597
 2684SOL     OW19513   4.061   3.620  14.009  0.1715  0.5751 -0.4019
 2684SOL    HW119514   4.086   3.647  13.920  1.9191  2.3106  0.6202
 2684SOL    HW219515   3.980   3.577  13.983  1.1650 -2.0560  0.8859
 2685SOL     OW19516   0.451   3.801  16.383  0.1939 -0.3157 -0.8808
 2685SOL    HW119517   0.510   3.796  16.459  0.0155 -1.6482 -0.8417
 2685SOL    HW219518   0.404   3.881  16.408 -0.2196 -1.1615  1.0818
 2686SOL     OW19519   0.587   2.343   3.168  0.4112  0.4115  0.1775
 2686SOL    HW119520   0.546   2.422   3.135 -0.3623 -0.6495 -1.4614
 2686SOL    HW219521   0.572   2.350   3.262 -0.0466  1.6225  0.0026
 2687SOL     OW19522   1.197   4.502  14.209  0.2316 -0.3131 -0.3492
 2687SOL    HW119523   1.151   4.425  14.240  2.0444 -0.9020  0.8231
 2687SOL    HW219524   1.118   4.550  14.184  0.3452 -0.9697 -1.9916
 2688SOL     OW19525   2.797   4.222   8.801  0.2762  0.6333 -0.0612
 2688SOL    HW119526   2.811   4.134   8.835  1.0689  0.8524  0.1721
 2688SOL    HW219527   2.890   4.246   8.798 -0.0622  2.1284  1.3977
 2689SOL     OW19528   4.487   0.661   9.165  0.2492 -0.0803 -0.0363
 2689SOL    HW119529   4.506   0.723   9.235  0.9095 -0.1867 -0.1221
 2689SOL    HW219530   4.536   0.714   9.103  1.0901 -1.8121 -0.8548
 2690SOL     OW19531   0.551   3.249  12.608 -0.4221 -0.6005 -0.0515
 2690SOL    HW119532   0.481   3.227  12.670 -1.2658 -1.7797 -1.4298
 2690SOL    HW219533   0.629   3.223  12.658  0.2571  0.6170 -0.4988
 2691SOL     OW19534   0.403   1.710  12.044 -0.0706 -0.1604  0.1431
 2691SOL    HW119535   0.392   1.616  12.060 -0.2621 -0.2070 -0.2652
 2691SOL    HW219536   0.470   1.709  11.976 -1.4341 -1.1321 -1.1853
 2692SOL     OW19537   2.244   4.247   9.009  0.2899  0.0988  0.3538
 2692SOL    HW119538   2.247   4.290   9.095 -0.1880  1.5445 -0.3525
 2692SOL    HW219539   2.241   4.154   9.034  1.1753  0.0553  0.2782
 2693SOL     OW19540   4.504   3.003   9.600  0.2684  0.2139  0.0951
 2693SOL    HW119541   4.429   3.022   9.543 -1.6371 -1.0384  2.1800
 2693SOL    HW219542   4.570   3.061   9.562  0.2805  0.3250  0.2871
 2694SOL     OW19543   0.859   4.494   2.275  0.3060  0.1623  0.0352
 2694SOL    HW119544   0.845   4.497   2.370  0.2346 -1.0318  0.0582
 2694SOL    HW219545   0.854   4.589   2.263 -1.3699  0.0902  0.1658
 2695SOL     OW19546   2.351   3.314  15.513  0.2755  0.1451 -0.8425
 2695SOL    HW119547   2.256   3.309  15.501 -0.1028  0.0451  2.1391
 2695SOL    HW219548   2.381   3.337  15.425  2.1826  2.8970  0.4975
 2696SOL     OW19549   3.395   3.447   1.031 -0.0713  0.2725 -0.3699
 2696SOL    HW119550   3.363   3.448   0.941 -1.2039  2.1017  0.0628
 2696SOL    HW219551   3.321   3.427   1.089 -0.6731  1.0832 -0.8618
 2697SOL     OW19552   0.020   0.669   0.396  0.1829 -0.1667  0.1347
 2697SOL    HW119553   0.030   0.579   0.367 -1.4636 -0.4701  0.4870
 2697SOL    HW219554   0.077   0.716   0.335 -1.5850  1.0487 -0.6056
 2698SOL     OW19555   0.894   3.216   5.581  0.2542  0.2266  0.2182
 2698SOL    HW119556   0.895   3.292   5.640  0.3698 -0.2871  0.8834
 2698SOL    HW219557   0.952   3.244   5.510 -1.3392  0.5102 -0.9716
 2699SOL     OW19558   3.968   3.994   3.227 -0.4127  0.4979  0.3392
 2699SOL    HW119559   3.943   4.044   3.149 -0.6925 -0.3022 -0.0836
 2699SOL    HW219560   3.921   3.912   3.212  0.7536 -0.3988  1.5482
 2700SOL     OW19561   1.775   3.935  12.566  0.1909 -0.0833 -0.2839
 2700SOL    HW119562   1.794   4.024  12.536  2.7316 -0.9502 -1.2127
 2700SOL    HW219563   1.691   3.921  12.522 -0.1403  1.4263 -0.1512
 2701SOL     OW19564   3.463   0.072   3.165 -0.2542 -0.2485  0.1063
 2701SOL    HW119565   3.464   0.166   3.179 -1.9903 -0.3164  0.5960
 2701SOL    HW219566   3.523   0.057   3.238  0.2326  0.7084 -0.1031
 2702SOL     OW19567   1.764   4.071   7.702 -0.3804 -0.2385 -0.3842
 2702SOL    HW119568   1.719   3.996   7.739 -1.0897 -0.0852 -0.9435
 2702SOL    HW219569   1.752   4.138   7.769  0.4699  1.0586 -1.5222
 2703SOL     OW19570   3.121   3.137   3.297  0.2880  0.1181 -0.1116
 2703SOL    HW119571   3.090   3.206   3.355 -2.7377 -0.9852 -0.4321
 2703SOL    HW219572   3.163   3.082   3.364  0.8877  0.3403 -0.3068
 2704SOL     OW19573   4.723   2.161   3.371 -0.2918 -0.2492  0.4430
 2704SOL    HW119574   4.698   2.245   3.409 -1.4454 -0.0367 -0.7917
 2704SOL    HW219575   0.082   2.185   3.329 -2.5246  0.4512 -3.5560
 2705SOL     OW19576   1.954   4.412  11.394  0.2609  0.4626  0.0124
 2705SOL    HW119577   1.896   4.336  11.384 -0.3732  1.0523 -0.7014
 2705SOL    HW219578   2.042   4.376  11.388  0.2493  0.4240  0.0650
 2706SOL     OW19579   3.729   0.453   5.332 -0.2435 -0.3547  0.4452
 2706SOL    HW119580   3.676   0.460   5.253  2.1167  1.0164 -1.0094
 2706SOL    HW219581   3.739   0.358   5.345  0.6037 -0.0189  2.2885
 2707SOL     OW19582   2.822   0.914   9.503  0.0745 -0.9713 -0.1602
 2707SOL    HW119583   2.912   0.897   9.532 -0.7851 -2.6455  1.5084
 2707SOL    HW219584   2.780   0.829   9.515 -1.1088 -0.3961 -0.2005
 2708SOL     OW19585   3.041   4.259   4.662 -0.2357 -0.2789 -0.1537
 2708SOL    HW119586   2.949   4.262   4.687 -0.1499 -2.4787  0.4258
 2708SOL    HW219587   3.036   4.176   4.615  0.9162 -0.7335  0.5372
 2709SOL     OW19588   1.504   4.398   3.890 -0.1783  0.0646 -0.3016
 2709SOL    HW119589   1.566   4.419   3.960 -1.0609 -0.1658  0.5552
 2709SOL    HW219590   1.426   4.434   3.933 -1.6084 -2.1165 -1.0933
 2710SOL     OW19591   1.721   0.458  10.299 -0.0410  0.7165  0.3193
 2710SOL    HW119592   1.750   0.411  10.377  1.1426  3.4171  1.5129
 2710SOL    HW219593   1.666   0.518  10.350 -0.3085  1.1737 -0.4995
 2711SOL     OW19594   4.254   0.934  14.113 -0.3139  0.0531  0.6062
 2711SOL    HW119595   4.260   1.028  14.130  2.6737 -0.2225  1.0182
 2711SOL    HW219596   4.340   0.912  14.078 -0.2155 -2.3158  2.3033
 2712SOL     OW19597   2.962   0.891  11.544 -0.5450 -0.3050  0.9207
 2712SOL    HW119598   2.869   0.884  11.565 -1.1725 -1.7409 -2.3438
 2712SOL    HW219599   2.980   0.942  11.624  0.6457 -2.0947  1.7985
 2713SOL     OW19600   3.468   3.446  13.199 -0.2758 -0.1475  0.1759
 2713SOL    HW119601   3.482   3.541  13.192 -0.6560 -0.1472 -0.7103
 2713SOL    HW219602   3.524   3.412  13.130 -0.4020  2.0533 -1.0360
 2714SOL     OW19603   4.242   2.021   0.821  0.7155  0.2690  0.1145
 2714SOL    HW119604   4.243   1.927   0.837 -1.1227 -0.1527 -2.2447
 2714SOL    HW219605   4.153   2.043   0.850  0.9829 -0.1364  1.2565
 2715SOL     OW19606   3.731   2.761   2.386 -0.7259  0.4065 -0.0049
 2715SOL    HW119607   3.759   2.685   2.335  3.5240  4.3929 -3.6877
 2715SOL    HW219608   3.781   2.740   2.464 -1.0318 -1.6565 -0.3841
 2716SOL     OW19609   0.555   1.009   6.008 -0.2033  0.6093 -0.4527
 2716SOL    HW119610   0.563   0.932   5.952  0.0433 -0.9362  1.6912
 2716SOL    HW219611   0.625   0.992   6.072 -0.0086 -0.0794 -0.8391
 2717SOL     OW19612   3.135   1.139   2.337 -0.2523 -0.0775  0.6947
 2717SOL    HW119613   3.094   1.082   2.402 -0.5971 -1.6434 -0.8933
 2717SOL    HW219614   3.112   1.094   2.256  3.0241  2.1034 -1.4469
 2718SOL     OW19615   0.211   2.566  11.629 -0.0766  0.0367  0.1464
 2718SOL    HW119616   0.162   2.537  11.552 -1.7253  1.8165  0.5156
 2718SOL    HW219617   0.295   2.596  11.593  0.1481 -2.9909 -1.8678
 2719SOL     OW19618   0.770   0.563   9.090 -0.0639 -0.0170 -0.1906
 2719SOL    HW119619   0.819   0.494   9.134  0.4768  0.2876 -0.3184
 2719SOL    HW219620   0.695   0.572   9.149 -0.5053  0.4967 -0.8343
 2720SOL     OW19621   0.118   3.293   7.646 -0.1701  0.0490 -0.3006
 2720SOL    HW119622   0.138   3.339   7.565 -0.4196 -0.6021 -0.7279
 2720SOL    HW219623   0.109   3.206   7.607  0.2494  0.1688 -0.6608
 2721SOL     OW19624   1.964   3.773   7.168 -0.0212 -0.3454  0.4623
 2721SOL    HW119625   1.942   3.758   7.076 -1.7859 -1.8588  1.1386
 2721SOL    HW219626   1.948   3.685   7.204 -1.5071 -0.6711 -0.9791
 2722SOL     OW19627   3.738   0.604   2.538 -0.9264  0.4801  0.6843
 2722SOL    HW119628   3.793   0.556   2.477 -1.6544  0.0302  0.3947
 2722SOL    HW219629   3.680   0.533   2.565  2.6458 -3.1162 -1.2181
 2723SOL     OW19630   2.437   0.255  10.357 -0.0454 -0.4825 -0.0886
 2723SOL    HW119631   2.447   0.335  10.305  3.6707 -0.2966  0.8945
 2723SOL    HW219632   2.463   0.187  10.295  0.6613  0.0939 -0.4388
 2724SOL     OW19633   1.860   0.863   5.037  0.3079 -0.4860  0.3502
 2724SOL    HW119634   1.940   0.830   5.078  2.0645  1.0145 -1.8689
 2724SOL    HW219635   1.807   0.886   5.113 -0.6546 -0.9979 -0.1552
 2725SOL     OW19636   2.445   4.257  15.530 -0.4545  0.0522  0.9272
 2725SOL    HW119637   2.408   4.337  15.567 -1.8270  0.3749 -1.2025
 2725SOL    HW219638   2.468   4.302  15.449  0.1354 -2.5408 -0.3322
 2726SOL     OW19639   3.055   3.062   8.166 -0.4151  0.4057  0.9865
 2726SOL    HW119640   3.024   3.018   8.245  0.3502 -0.0017  1.0547
 2726SOL    HW219641   3.133   3.108   8.197  0.1118 -0.3084  0.7054
 2727SOL     OW19642   0.268   4.061   5.338  0.3840 -0.3490  0.2715
 2727SOL    HW119643   0.212   4.013   5.399  0.4659 -0.2582  0.4212
 2727SOL    HW219644   0.211   4.138   5.335  1.1894  0.1829 -1.1629
 2728SOL     OW19645   4.368   0.890   5.651  0.1406  0.2271  0.1086
 2728SOL    HW119646   4.276   0.907   5.670  0.1769 -0.4438  0.9009
 2728SOL    HW219647   4.357   0.817   5.590 -0.6513 -0.8680  1.5522
 2729SOL     OW19648   2.171   3.600   3.238 -0.5931 -0.2075 -0.4662
 2729SOL    HW119649   2.108   3.670   3.221 -0.6140  0.2738  1.5710
 2729SOL    HW219650   2.159   3.539   3.165 -1.8585  1.2130 -1.4333
 2730SOL     OW19651   1.398   1.489  10.428  0.3230 -0.1987 -0.5388
 2730SOL    HW119652   1.461   1.545  10.473 -1.9770  1.4034  0.6346
 2730SOL    HW219653   1.419   1.405  10.468  3.5637  1.3370  1.0160
 2731SOL     OW19654   0.141   1.742  11.890 -0.2679 -0.0500 -0.3728
 2731SOL    HW119655   0.225   1.780  11.916  0.6402 -0.1850 -3.1249
 2731SOL    HW219656   0.097   1.753  11.974  0.3595 -2.6959  0.3101
 2732SOL     OW19657   4.519   3.139   2.079  0.0366  0.0701  0.4824
 2732SOL    HW119658   4.425   3.137   2.092  0.2000  0.3374  1.6830
 2732SOL    HW219659   4.549   3.121   2.168 -0.6785 -1.1893  0.4739
 2733SOL     OW19660   4.401   2.742   1.421  0.0548 -0.1267  0.2176
 2733SOL    HW119661   4.346   2.669   1.395 -0.0098  0.0166 -0.0370
 2733SOL    HW219662   4.482   2.697   1.396 -0.9815 -2.8137  1.6586
 2734SOL     OW19663   2.553   0.018   9.131 -0.2309  0.7120  0.2738
 2734SOL    HW119664   2.579   0.028   9.039  1.7939  0.2717  0.7959
 2734SOL    HW219665   2.594   0.097   9.167 -0.8184  1.6743 -1.1538
 2735SOL     OW19666   3.369   1.607   1.085  0.3223 -0.3078  0.1362
 2735SOL    HW119667   3.273   1.603   1.093  0.0056  3.3701 -1.9277
 2735SOL    HW219668   3.378   1.683   1.027 -1.8452 -0.9094 -1.0036
 2736SOL     OW19669   1.210   2.562   5.759 -0.2508  0.0013 -0.2879
 2736SOL    HW119670   1.234   2.494   5.823  1.5211  2.6622  1.8979
 2736SOL    HW219671   1.260   2.538   5.681  0.3713  0.3070  0.0230
 2737SOL     OW19672   2.309   3.157  13.852  0.3955  0.5707 -0.1374
 2737SOL    HW119673   2.362   3.227  13.889 -0.7351  1.2668  0.1597
 2737SOL    HW219674   2.318   3.094  13.924 -1.6270 -0.7428 -1.0591
 2738SOL     OW19675   0.432   2.729   6.404 -0.2656  0.3711 -0.2677
 2738SOL    HW119676   0.358   2.672   6.425 -0.9086  0.6535 -1.7681
 2738SOL    HW219677   0.399   2.758   6.319  1.0785  0.7884 -0.6503
 2739SOL     OW19678   2.950   1.041   6.518  0.5684  0.2295 -0.1937
 2739SOL    HW119679   2.949   1.128   6.557 -0.2012  0.7832 -1.4739
 2739SOL    HW219680   3.043   1.018   6.516  0.3553 -0.6007 -0.6083
 2740SOL     OW19681   0.882   0.750   4.430 -0.3471 -0.0104  0.3306
 2740SOL    HW119682   0.834   0.796   4.361 -0.1623  1.3368  1.0993
 2740SOL    HW219683   0.812   0.766   4.493  0.9639 -1.6731  2.2187
 2741SOL     OW19684   3.568   1.532   5.949  0.1397 -0.1264 -0.2993
 2741SOL    HW119685   3.646   1.578   5.980  0.6019 -2.0965  1.4586
 2741SOL    HW219686   3.601   1.444   5.968 -0.7601 -0.3423  0.2490
 2742SOL     OW19687   0.921   1.645   5.134  0.1659  0.1243 -0.1625
 2742SOL    HW119688   0.853   1.687   5.081  0.4538  0.6176 -0.1448
 2742SOL    HW219689   0.920   1.699   5.213  1.1413  1.5612 -1.1254
 2743SOL     OW19690   2.125   4.695   8.015  0.0466 -0.0364  0.1826
 2743SOL    HW119691   2.127   4.721   7.923  0.2515  1.3299  0.5786
 2743SOL    HW219692   2.180   0.032   8.064 -1.2235  1.6450 -0.4776
 2744SOL     OW19693   3.340   4.175   1.300 -0.2322 -0.1498  0.8809
 2744SOL    HW119694   3.318   4.140   1.213 -1.3360  0.0393  1.0733
 2744SOL    HW219695   3.316   4.268   1.292  1.5849  0.3403  1.1488
 2745SOL     OW19696   2.622   2.619   7.932 -0.0433  0.9780  0.7257
 2745SOL    HW119697   2.604   2.585   8.020  1.6373 -0.0889  0.6523
 2745SOL    HW219698   2.609   2.546   7.872 -2.8354  1.7246  0.4135
 2746SOL     OW19699   0.697   0.496   7.563 -0.1700 -0.2290 -0.5090
 2746SOL    HW119700   0.684   0.530   7.652  3.5011  3.4602 -1.3753
 2746SOL    HW219701   0.649   0.414   7.572  0.7810 -0.5273  1.7459
 2747SOL     OW19702   2.067   2.455   8.789 -0.1944  0.0764 -0.5058
 2747SOL    HW119703   2.090   2.547   8.785  1.4984 -0.3660 -0.9791
 2747SOL    HW219704   2.075   2.433   8.882 -2.1239  1.1950 -0.0651
 2748SOL     OW19705   4.496   1.393   4.841 -0.2917 -0.0270 -0.1126
 2748SOL    HW119706   4.445   1.461   4.884 -0.1020  0.2777 -0.3739
 2748SOL    HW219707   4.490   1.325   4.908 -1.6037  0.6090  0.4182
 2749SOL     OW19708   0.551   4.576   8.896  0.2923  0.2723  0.1489
 2749SOL    HW119709   0.517   4.572   8.807  0.5347  2.8896 -0.0743
 2749SOL    HW219710   0.640   4.546   8.876 -0.2607  0.3138 -2.3716
 2750SOL     OW19711   2.995   4.561   9.641  0.7108 -0.0085 -0.1331
 2750SOL    HW119712   3.088   4.540   9.631  1.1056  1.5634  0.2321
 2750SOL    HW219713   3.000   4.634   9.703  4.2099 -0.2126 -0.1450
 2751SOL     OW19714   3.360   3.587   5.204  0.1368 -0.1026 -0.1896
 2751SOL    HW119715   3.281   3.542   5.235  0.1594  0.1989  0.2961
 2751SOL    HW219716   3.340   3.679   5.219 -1.8326 -0.2779 -1.5888
 2752SOL     OW19717   4.500   2.746   8.906  0.3353 -0.4640 -0.4025
 2752SOL    HW119718   4.408   2.718   8.907  0.0862  0.3590  0.3589
 2752SOL    HW219719   4.530   2.711   8.990  3.3215  3.0949  0.0178
 2753SOL     OW19720   4.124   3.874   7.042 -0.9134  0.0855  0.0876
 2753SOL    HW119721   4.030   3.862   7.026 -1.5004  3.8119  0.9127
 2753SOL    HW219722   4.152   3.900   6.954  0.8499 -5.9245 -1.1691
 2754SOL     OW19723   0.648   2.541   6.682 -0.1618  0.2293  0.3199
 2754SOL    HW119724   0.699   2.507   6.756  1.5953 -1.2208 -1.5609
 2754SOL    HW219725   0.558   2.510   6.690  0.0451 -0.0482  1.5783
 2755SOL     OW19726   0.059   3.626   4.634  0.5344  0.0229  0.2885
 2755SOL    HW119727   4.702   3.575   4.630 -0.5828  1.8757 -0.6029
 2755SOL    HW219728   0.112   3.578   4.570  1.5985  2.4912 -0.6929
 2756SOL     OW19729   0.095   2.419   5.845  0.4898  0.1579 -0.3476
 2756SOL    HW119730   0.118   2.511   5.829  0.3649  0.3158  0.3883
 2756SOL    HW219731   0.012   2.418   5.798  0.5415  1.5138 -0.4856
 2757SOL     OW19732   4.153   4.134   7.147 -0.0095 -0.6761  0.1448
 2757SOL    HW119733   4.096   4.064   7.115 -1.2328  1.3251 -2.0924
 2757SOL    HW219734   4.171   4.112   7.239  0.6175 -2.0516 -0.3102
 2758SOL     OW19735   3.412   3.643  16.520 -0.2961 -0.1466  0.2953
 2758SOL    HW119736   3.362   3.562  16.531  0.6461 -0.6263  0.9975
 2758SOL    HW219737   3.387   3.674  16.433 -0.3785  3.1111  1.4970
 2759SOL     OW19738   0.018   2.075   7.804  0.2378 -0.1844  0.0101
 2759SOL    HW119739   4.690   2.025   7.866  1.3384  0.7122  1.6510
 2759SOL    HW219740   4.672   2.109   7.748 -0.6664 -3.5489 -0.9143
 2760SOL     OW19741   1.898   3.681   1.007 -0.4715 -0.3413  0.0744
 2760SOL    HW119742   1.967   3.621   1.034 -0.4022  0.3413  1.3834
 2760SOL    HW219743   1.853   3.710   1.086  1.3130  1.5727  0.4024
 2761SOL     OW19744   1.149   3.456  11.101 -0.5213 -0.5470 -0.2854
 2761SOL    HW119745   1.109   3.369  11.104  0.8498 -1.1924 -0.6472
 2761SOL    HW219746   1.194   3.454  11.017 -0.9904  2.0921 -0.5853
 2762SOL     OW19747   4.657   4.438  10.487  0.0959  0.1924 -0.7892
 2762SOL    HW119748   4.655   4.530  10.512  3.4892 -0.5148  2.0142
 2762SOL    HW219749   4.575   4.429  10.439 -1.9716  2.9187  2.3026
 2763SOL     OW19750   2.019   1.328  16.692  0.8252 -0.4543  0.1976
 2763SOL    HW119751   1.972   1.412  16.687  1.3629  0.0567  3.6712
 2763SOL    HW219752   2.056   1.338  16.780  0.5256 -3.0838  0.6041
 2764SOL     OW19753   2.800   1.895   6.665 -0.3742 -0.1418  0.4033
 2764SOL    HW119754   2.863   1.843   6.615  1.6289  0.3375  2.4061
 2764SOL    HW219755   2.765   1.958   6.602 -0.6038 -2.4006 -1.7312
 2765SOL     OW19756   0.365   0.945   5.286 -0.0349  0.1367 -0.0951
 2765SOL    HW119757   0.340   1.020   5.232  0.8242 -1.0384 -2.1456
 2765SOL    HW219758   0.357   0.874   5.222  1.2703  1.3515 -1.6205
 2766SOL     OW19759   3.300   4.390   1.022  0.2676  0.2006 -0.1406
 2766SOL    HW119760   3.325   4.438   1.100  0.5487  1.2863 -0.8890
 2766SOL    HW219761   3.233   4.450   0.989 -1.3499 -0.0801  2.6219
 2767SOL     OW19762   0.460   3.820   7.135 -0.0063 -0.4144  0.6507
 2767SOL    HW119763   0.528   3.812   7.202  1.8158  1.2939 -0.9871
 2767SOL    HW219764   0.388   3.861   7.184  0.3631  0.2892  0.5991
 2768SOL     OW19765   0.591   2.854   3.246  0.1527  0.2960  0.3172
 2768SOL    HW119766   0.632   2.899   3.173  0.5627  0.4323  0.6320
 2768SOL    HW219767   0.513   2.906   3.263 -1.1813 -0.6739 -2.9060
 2769SOL     OW19768   3.212   1.975   7.977  0.1450 -0.9225 -0.1150
 2769SOL    HW119769   3.304   1.956   7.960  1.1318  3.2587  0.5008
 2769SOL    HW219770   3.174   1.894   8.012  2.0430 -1.5414  0.5067
 2770SOL     OW19771   0.155   1.228   7.626 -0.3189  0.0250 -0.2661
 2770SOL    HW119772   0.100   1.157   7.659  1.4182 -1.3580 -0.3452
 2770SOL    HW219773   0.109   1.302   7.666  0.8260  0.0431  1.0214
 2771SOL     OW19774   4.461   2.822  13.181 -0.4539 -0.1450 -0.0330
 2771SOL    HW119775   4.518   2.890  13.145 -2.6512  1.5007 -0.4070
 2771SOL    HW219776   4.375   2.828  13.141 -0.5059  3.1814  0.5807
 2772SOL     OW19777   1.972   2.061   7.422 -0.5037 -0.0293 -0.1178
 2772SOL    HW119778   1.973   1.965   7.420 -0.7286 -0.0105 -1.3421
 2772SOL    HW219779   2.060   2.085   7.452 -1.7092  0.6481  2.7958
 2773SOL     OW19780   3.044   2.804   8.632 -0.4082 -0.2913  0.0286
 2773SOL    HW119781   2.954   2.785   8.659 -1.5197 -0.6256 -3.7684
 2773SOL    HW219782   3.077   2.826   8.718  1.3832  2.6236 -1.4133
 2774SOL     OW19783   0.202   4.596   3.186 -0.0298 -0.2368  0.1092
 2774SOL    HW119784   0.167   4.508   3.174 -1.0746 -0.0720  1.8015
 2774SOL    HW219785   0.153   4.643   3.118  0.8574 -1.2033 -1.1877
 2775SOL     OW19786   4.400   0.462  14.498 -0.1012 -0.3164 -0.4537
 2775SOL    HW119787   4.453   0.536  14.468 -0.7675 -0.3777 -1.7874
 2775SOL    HW219788   4.443   0.396  14.444  1.1850 -0.7857  1.1878
 2776SOL     OW19789   1.292   3.436   7.984 -0.0317 -0.2650 -0.2567
 2776SOL    HW119790   1.313   3.419   8.075  0.3880 -3.7888 -0.9832
 2776SOL    HW219791   1.209   3.483   7.979  0.4437  0.6530  0.5825
 2777SOL     OW19792   0.177   0.478   9.254 -0.5483 -0.1410  0.0915
 2777SOL    HW119793   0.111   0.522   9.307  0.0152  1.9377 -0.9262
 2777SOL    HW219794   0.232   0.435   9.319 -1.1377  0.9455  1.2964
 2778SOL     OW19795   3.832   3.990   2.085  0.3581 -0.3229  0.1069
 2778SOL    HW119796   3.826   4.026   2.173  0.2113  1.7819 -0.7573
 2778SOL    HW219797   3.771   4.047   2.038  0.0422 -0.3903  0.4337
 2779SOL     OW19798   3.366   1.272  13.073 -0.4793  0.1428  0.1555
 2779SOL    HW119799   3.383   1.236  13.161  1.5513  1.4985  0.2977
 2779SOL    HW219800   3.411   1.356  13.076  0.1808 -0.1795 -0.9673
 2780SOL     OW19801   4.351   3.485   4.056  0.2279  0.0209  0.3681
 2780SOL    HW119802   4.268   3.447   4.028 -0.1542  1.4927 -0.4532
 2780SOL    HW219803   4.330   3.578   4.065 -1.2545 -0.2372 -0.4648
 2781SOL     OW19804   0.979   0.418   8.388 -0.4939 -0.2448 -0.3472
 2781SOL    HW119805   1.029   0.499   8.382  0.4538 -0.8796 -1.0210
 2781SOL    HW219806   0.918   0.439   8.459 -1.1255 -0.7119 -0.7510
 2782SOL     OW19807   0.420   2.697  11.498 -0.8330  0.0012 -0.1273
 2782SOL    HW119808   0.510   2.721  11.477 -0.8845  0.2187 -0.0996
 2782SOL    HW219809   0.361   2.723  11.427  0.6447  1.1051 -0.9407
 2783SOL     OW19810   3.991   3.774  15.236  0.5989  0.0226  0.5625
 2783SOL    HW119811   3.925   3.826  15.189  2.1834 -0.5177 -2.2622
 2783SOL    HW219812   3.995   3.698  15.178  2.9737  0.3657  0.2715
 2784SOL     OW19813   3.836   2.962   3.378 -0.6458  0.0421  0.3325
 2784SOL    HW119814   3.820   2.921   3.463  0.6434  0.4723  0.7668
 2784SOL    HW219815   3.860   2.883   3.329 -1.2322 -0.2441  0.4999
 2785SOL     OW19816   2.308   2.766   3.980 -0.4265 -0.2898  0.2191
 2785SOL    HW119817   2.316   2.671   3.971  0.0768 -0.3205  0.9589
 2785SOL    HW219818   2.391   2.796   3.943 -1.6469  2.9618  0.1606
 2786SOL     OW19819   0.864   2.961   4.993 -0.2038 -0.1196  0.2588
 2786SOL    HW119820   0.795   3.027   4.988 -0.6696 -0.6131  0.2680
 2786SOL    HW219821   0.829   2.936   5.078  1.1667  1.8041  1.3815
 2787SOL     OW19822   2.067   3.757   3.521  0.2177  0.2209 -0.0560
 2787SOL    HW119823   2.098   3.668   3.506 -2.6277 -0.8311  0.3576
 2787SOL    HW219824   2.076   3.793   3.433  1.0394  1.4385  0.5199
 2788SOL     OW19825   2.312   1.281  11.959 -0.0239 -0.3948  0.4014
 2788SOL    HW119826   2.229   1.289  11.912 -0.5443  0.5575  1.4706
 2788SOL    HW219827   2.306   1.362  12.011 -2.5614  0.3971 -1.1551
 2789SOL     OW19828   0.977   2.972  12.979  0.2910  0.3333 -0.2648
 2789SOL    HW119829   0.976   2.910  13.051  0.6406  0.3287 -0.2612
 2789SOL    HW219830   1.039   3.041  13.002  1.0692 -0.0150 -1.2961
 2790SOL     OW19831   4.183   0.806   5.422 -0.0746 -0.4648 -0.2875
 2790SOL    HW119832   4.125   0.882   5.418  2.3065  1.3000 -0.6903
 2790SOL    HW219833   4.123   0.731   5.421  1.3600 -1.6103 -1.8539
 2791SOL     OW19834   3.513   1.323   7.910  0.4146 -0.2704  0.2465
 2791SOL    HW119835   3.540   1.281   7.992  2.1492  1.6836  0.6671
 2791SOL    HW219836   3.599   1.352   7.878  0.5877 -0.6772  0.3516
 2792SOL     OW19837   1.446   1.245  13.176 -0.2625  0.7021  0.4276
 2792SOL    HW119838   1.378   1.201  13.125 -0.8465  2.8413 -0.6218
 2792SOL    HW219839   1.487   1.305  13.114 -2.6824  0.9008 -0.9599
 2793SOL     OW19840   2.385   2.061   6.578  0.4263 -0.2858 -0.6845
 2793SOL    HW119841   2.417   2.148   6.552 -0.9520  1.1338  2.3777
 2793SOL    HW219842   2.298   2.053   6.539  0.3360  2.0353 -0.9844
 2794SOL     OW19843   3.256   0.159   9.056  0.2594 -0.1782 -0.0037
 2794SOL    HW119844   3.276   0.079   9.104  3.8454  0.6954 -0.0473
 2794SOL    HW219845   3.343   0.197   9.048 -0.3070  1.3361  1.0181
 2795SOL     OW19846   0.048   2.128   1.749  0.5196 -0.1958  0.7667
 2795SOL    HW119847   0.014   2.195   1.808 -0.0648 -1.1026  1.4651
 2795SOL    HW219848   0.043   2.173   1.665 -1.2060 -0.9004  0.4878
 2796SOL     OW19849   0.493   2.116   1.332  0.0159 -0.3662  0.6095
 2796SOL    HW119850   0.418   2.057   1.328  0.4909 -1.0936  2.3263
 2796SOL    HW219851   0.471   2.168   1.255  1.2805 -2.0728 -0.9222
 2797SOL     OW19852   0.132   0.852  11.701  0.2635 -0.1102  0.1883
 2797SOL    HW119853   0.197   0.881  11.766 -0.1530  1.0367  0.0959
 2797SOL    HW219854   0.078   0.793  11.752 -3.0927  2.2171 -0.6193
 2798SOL     OW19855   1.939   4.615   9.905  0.3179 -0.1102  0.0124
 2798SOL    HW119856   1.914   4.677   9.974  1.6729 -0.8885  1.2079
 2798SOL    HW219857   1.926   4.671   9.828 -3.4357 -1.6214 -0.4677
 2799SOL     OW19858   2.393   2.300   5.528  0.1281  0.1392 -0.0816
 2799SOL    HW119859   2.389   2.224   5.470  0.3868 -0.1583  0.2901
 2799SOL    HW219860   2.386   2.378   5.473  0.2358 -0.3407 -0.7773
 2800SOL     OW19861   4.462   2.637   3.830 -0.0771 -0.1423 -0.0733
 2800SOL    HW119862   4.531   2.703   3.838 -0.1477  0.0035 -0.6089
 2800SOL    HW219863   4.508   2.568   3.783 -0.2863  0.3710 -1.0476
 2801SOL     OW19864   1.912   1.192   7.267 -0.5363  0.4339 -0.1078
 2801SOL    HW119865   1.927   1.137   7.190 -2.6604  0.4030 -0.4959
 2801SOL    HW219866   1.900   1.126   7.335 -2.5446  0.6244 -0.2810
 2802SOL     OW19867   0.741   1.360   4.888  0.0377 -0.5882 -0.0698
 2802SOL    HW119868   0.834   1.383   4.877  0.2169 -0.9932  0.5500
 2802SOL    HW219869   0.744   1.307   4.968  0.0325  0.4359  0.6085
 2803SOL     OW19870   1.443   4.563   6.147  0.0108  0.2655 -0.0673
 2803SOL    HW119871   1.422   4.656   6.133 -1.0224 -0.2055 -1.5832
 2803SOL    HW219872   1.535   4.568   6.122  0.3400 -0.1177  1.0570
 2804SOL     OW19873   0.414   3.502  15.841 -0.1766 -0.1956  0.0412
 2804SOL    HW119874   0.388   3.526  15.930  0.7179 -1.5505  0.6724
 2804SOL    HW219875   0.409   3.407  15.850 -0.8821 -0.1465  0.1678
 2805SOL     OW19876   1.301   2.083   9.633 -0.8191  0.2434  0.2166
 2805SOL    HW119877   1.362   2.015   9.660  0.3298  1.4923  0.8092
 2805SOL    HW219878   1.236   2.070   9.702 -0.7252 -2.1034 -0.1405
 2806SOL     OW19879   3.014   2.937   7.641 -0.2388  0.0739  0.2616
 2806SOL    HW119880   2.960   2.980   7.707 -0.5347  0.6869 -0.3812
 2806SOL    HW219881   2.945   2.877   7.611 -0.4916 -0.1908  1.4003
 2807SOL     OW19882   3.654   1.240  13.195 -0.7155  0.2323 -0.3011
 2807SOL    HW119883   3.706   1.205  13.267 -1.8227 -2.0644 -0.6083
 2807SOL    HW219884   3.576   1.188  13.178  0.4339 -1.9924  1.3125
 2808SOL     OW19885   0.039   1.294   1.287  0.5478  0.0558  0.1427
 2808SOL    HW119886   0.114   1.314   1.231  0.7438 -1.2046 -0.0423
 2808SOL    HW219887   0.077   1.319   1.371 -1.7423 -0.2605  1.2763
 2809SOL     OW19888   0.630   4.044   1.282  0.1598  0.1395 -0.8769
 2809SOL    HW119889   0.585   4.076   1.204 -0.4561 -0.2697 -0.6965
 2809SOL    HW219890   0.641   4.134   1.313 -1.6568 -1.2694  3.8465
 2810SOL     OW19891   2.431   2.335   9.473 -0.1092 -0.0979  0.3952
 2810SOL    HW119892   2.394   2.417   9.508 -0.2877 -0.4853  1.1283
 2810SOL    HW219893   2.424   2.274   9.547 -0.4070 -1.4814 -0.7852
 2811SOL     OW19894   0.768   3.942   5.143  0.0052 -0.0479 -0.4641
 2811SOL    HW119895   0.816   3.973   5.067  1.2842 -2.7736 -0.7922
 2811SOL    HW219896   0.832   3.911   5.207 -1.7586 -1.5956  0.5563
 2812SOL     OW19897   3.567   4.145   9.190 -0.2721  0.7569  0.3534
 2812SOL    HW119898   3.556   4.057   9.226 -0.2032  0.5490 -0.1204
 2812SOL    HW219899   3.477   4.177   9.181 -0.8292 -0.2861  2.2202
 2813SOL     OW19900   0.120   1.355   8.639 -0.6370  0.1999 -0.3784
 2813SOL    HW119901   0.034   1.397   8.635 -0.1551  1.1552 -0.7947
 2813SOL    HW219902   0.187   1.423   8.650  0.1814 -0.6910  0.1457
 2814SOL     OW19903   1.177   3.805   7.382  0.3022  0.7280  0.0625
 2814SOL    HW119904   1.185   3.767   7.295 -1.8213  0.0869  0.1598
 2814SOL    HW219905   1.261   3.842   7.410  1.1475 -0.6491 -0.6463
 2815SOL     OW19906   4.259   2.728   6.078 -0.5555  0.1828  0.4901
 2815SOL    HW119907   4.272   2.671   6.002  0.9364  1.8639 -0.5284
 2815SOL    HW219908   4.287   2.807   6.033  1.5750 -0.4274  0.7377
 2816SOL     OW19909   3.813   4.268   2.515 -0.2138  0.3801  0.4994
 2816SOL    HW119910   3.901   4.296   2.490  0.1918  0.4667  2.0083
 2816SOL    HW219911   3.777   4.354   2.494 -2.5758 -0.8526 -0.4146
 2817SOL     OW19912   0.623   3.797   7.369 -0.9523 -0.3083  0.2033
 2817SOL    HW119913   0.705   3.818   7.325 -0.8666 -1.0572  0.0081
 2817SOL    HW219914   0.621   3.844   7.453  1.0246 -0.8284  0.5361
 2818SOL     OW19915   2.907   3.061   6.021 -0.0909 -0.6734 -0.1591
 2818SOL    HW119916   2.978   3.125   6.027 -1.3056  0.5720  0.8967
 2818SOL    HW219917   2.871   3.075   5.933  0.9524  0.9828 -0.3251
 2819SOL     OW19918   2.108   0.791   6.640  0.0500  0.6463  0.6412
 2819SOL    HW119919   2.159   0.789   6.721  0.6287 -1.6075  0.2061
 2819SOL    HW219920   2.173   0.819   6.576  2.0414 -1.0959  1.9135
 2820SOL     OW19921   1.203   4.407   9.774  0.5247  0.7364 -0.5498
 2820SOL    HW119922   1.189   4.502   9.783  1.8253  1.0511 -1.8385
 2820SOL    HW219923   1.231   4.388   9.685  0.0089 -2.6377  0.0258
 2821SOL     OW19924   3.637   0.471   8.884  0.3729  0.1023 -0.0776
 2821SOL    HW119925   3.688   0.390   8.879 -1.6363 -1.0178 -2.2305
 2821SOL    HW219926   3.639   0.481   8.979  1.0085 -0.3679 -0.0449
 2822SOL     OW19927   0.249   1.081   7.929 -0.1886 -0.6578 -0.6281
 2822SOL    HW119928   0.181   1.071   7.863 -2.7181 -0.0706  1.9030
 2822SOL    HW219929   0.275   0.991   7.947 -2.8404 -1.3635 -0.3928
 2823SOL     OW19930   0.510   1.286   4.249  0.0643 -0.2809 -0.2314
 2823SOL    HW119931   0.493   1.331   4.166  0.3696  1.2632  0.5491
 2823SOL    HW219932   0.543   1.361   4.298 -2.1032  0.5751 -0.0866
 2824SOL     OW19933   4.050   0.237  16.873 -0.3326  0.6903  0.2110
 2824SOL    HW119934   4.044   0.200  16.961  2.8720  1.8216  0.8947
 2824SOL    HW219935   4.103   0.165  16.841 -0.1897 -0.4598  3.0057
 2825SOL     OW19936   4.105   0.739   4.892 -0.5292  0.3002 -0.4159
 2825SOL    HW119937   4.154   0.719   4.813  1.2629  2.2262  0.2037
 2825SOL    HW219938   4.021   0.733   4.848 -1.0975 -1.3742  0.8774
 2826SOL     OW19939   1.921   1.263   4.173 -0.2959 -0.2800  0.2667
 2826SOL    HW119940   1.997   1.315   4.200  0.1819  0.4507 -2.5334
 2826SOL    HW219941   1.971   1.227   4.099 -0.3763  2.4838 -1.1228
 2827SOL     OW19942   0.208   1.799  13.292  0.0631  0.5033  0.3704
 2827SOL    HW119943   0.283   1.800  13.232  1.1933 -0.4417  1.7652
 2827SOL    HW219944   0.160   1.721  13.264 -0.0243  1.0478 -1.0268
 2828SOL     OW19945   4.393   1.234   1.193  0.1637 -0.0551  0.0524
 2828SOL    HW119946   4.441   1.197   1.119 -0.6067  1.7174 -1.3434
 2828SOL    HW219947   4.377   1.158   1.249 -2.4113  0.8102  0.5097
 2829SOL     OW19948   3.018   4.189  11.850 -0.4106  0.2476 -0.7305
 2829SOL    HW119949   3.056   4.172  11.764 -0.4326 -0.8820 -0.5100
 2829SOL    HW219950   3.095   4.237  11.882 -0.9120  0.5012  0.0939
 2830SOL     OW19951   4.419   0.325   6.482 -0.1523  0.1106  0.5640
 2830SOL    HW119952   4.469   0.404   6.462 -1.7402  0.5736 -1.5463
 2830SOL    HW219953   4.482   0.272   6.530 -0.2967  0.3896  1.0654
 2831SOL     OW19954   3.033   2.861   2.911  0.1050 -0.5724 -0.5608
 2831SOL    HW119955   3.118   2.876   2.953 -0.6519  0.0173  0.7564
 2831SOL    HW219956   3.059   2.816   2.831  1.6711 -0.5852 -0.0395
 2832SOL     OW19957   4.232   3.017   4.335 -0.6800  0.6464  0.3367
 2832SOL    HW119958   4.272   2.932   4.319 -1.3328  0.1736  1.1801
 2832SOL    HW219959   4.180   2.994   4.412  0.9132  0.6775  1.4153
 2833SOL     OW19960   4.177   3.161   5.851 -0.2295  0.2539 -0.3868
 2833SOL    HW119961   4.092   3.163   5.895  0.3490 -0.3070  0.7567
 2833SOL    HW219962   4.214   3.242   5.885  0.5676  0.1336 -0.9683
 2834SOL     OW19963   1.276   1.827   7.849  0.0020  0.6915  0.0520
 2834SOL    HW119964   1.320   1.759   7.900  0.0879 -0.2906 -1.3235
 2834SOL    HW219965   1.191   1.836   7.893  0.6037  0.2719  1.2871
 2835SOL     OW19966   0.778   3.511   9.119  0.6399 -0.2368 -0.2128
 2835SOL    HW119967   0.716   3.476   9.056 -1.0922  2.1973  0.1422
 2835SOL    HW219968   0.739   3.596   9.139 -0.5034 -0.8301  0.0784
 2836SOL     OW19969   3.210   4.213   8.456  0.3315 -0.4253  0.4983
 2836SOL    HW119970   3.185   4.223   8.365  1.4518 -2.3168 -0.0129
 2836SOL    HW219971   3.200   4.300   8.494  1.1007  0.3637 -1.1239
 2837SOL     OW19972   1.465   1.653   2.354 -0.0216  0.4174  0.4482
 2837SOL    HW119973   1.413   1.726   2.387 -0.0883  1.5912 -2.2361
 2837SOL    HW219974   1.446   1.586   2.420 -0.7231  0.9164  0.7565
 2838SOL     OW19975   1.812   4.065   2.684 -0.1936 -0.0988  0.2845
 2838SOL    HW119976   1.775   4.030   2.603 -1.8773  1.8378  0.2332
 2838SOL    HW219977   1.898   4.023   2.689 -0.8609 -1.3908  1.0087
 2839SOL     OW19978   1.130   2.500   4.421  0.7296 -0.2953 -0.5559
 2839SOL    HW119979   1.039   2.509   4.448  1.4061 -0.1691  1.6846
 2839SOL    HW219980   1.160   2.591   4.420 -1.9417  0.5783 -1.0987
 2840SOL     OW19981   3.497   3.333   4.057 -0.3252  0.0131 -0.5062
 2840SOL    HW119982   3.444   3.399   4.101 -3.0575 -1.8459 -1.0050
 2840SOL    HW219983   3.462   3.252   4.095 -2.2210  1.6004  1.1530
 2841SOL     OW19984   0.958   0.114   7.310  0.1582  0.1207  0.5426
 2841SOL    HW119985   0.968   0.204   7.279  1.0271 -1.0640 -2.5859
 2841SOL    HW219986   1.022   0.066   7.257  0.9468  0.7165  0.9672
 2842SOL     OW19987   1.011   0.216   2.000  0.8738  0.7127 -0.2781
 2842SOL    HW119988   0.978   0.233   2.088 -1.2091 -0.1774 -0.8886
 2842SOL    HW219989   1.037   0.305   1.977  0.3176  1.3401  1.4988
 2843SOL     OW19990   0.447   1.859   8.005 -0.1648  0.1752  0.4067
 2843SOL    HW119991   0.447   1.772   8.045 -0.0039  0.6838  1.5128
 2843SOL    HW219992   0.422   1.913   8.080 -0.3165  0.3991  0.1962
 2844SOL     OW19993   4.107   3.351   9.583  0.4099 -0.0216 -0.0203
 2844SOL    HW119994   4.199   3.373   9.596  0.8271 -0.8451 -1.6040
 2844SOL    HW219995   4.093   3.413   9.511  1.8824 -0.0530 -0.3384
 2845SOL     OW19996   2.207   4.150  13.595 -0.2241 -0.3385 -1.0629
 2845SOL    HW119997   2.301   4.146  13.576 -0.2731  2.0686 -1.8555
 2845SOL    HW219998   2.196   4.075  13.652  1.1406  0.0022 -0.3434
 2846SOL     OW19999   3.388   2.149   7.321 -0.6724  1.0497 -0.3060
 2846SOL    HW120000   3.396   2.244   7.327  2.0292  0.7885  0.2457
 2846SOL    HW220001   3.330   2.138   7.397  1.0790  0.1711  0.8977
 2847SOL     OW20002   1.674   1.480  17.437  0.2734  0.3407  0.3092
 2847SOL    HW120003   1.676   1.411  17.503 -1.1925 -2.4335 -2.5577
 2847SOL    HW220004   1.618   1.540  17.486 -0.6426 -0.4813  0.2536
 2848SOL     OW20005   2.770   4.108   0.876 -0.7243  0.0478  0.5285
 2848SOL    HW120006   2.862   4.131   0.888 -0.3838 -0.0536 -2.0156
 2848SOL    HW220007   2.742   4.185   0.827 -1.6789 -0.8224 -0.2862
 2849SOL     OW20008   1.724   2.270   6.685  0.0068 -0.2445  0.5187
 2849SOL    HW120009   1.768   2.355   6.685  0.1040 -0.2923 -0.1382
 2849SOL    HW220010   1.752   2.238   6.771  1.4606 -1.3027 -0.3470
 2850SOL     OW20011   1.834   0.390   8.753  0.5633 -0.0910 -0.3934
 2850SOL    HW120012   1.880   0.413   8.834 -1.7520  1.4040  0.5106
 2850SOL    HW220013   1.834   0.295   8.742  0.5201 -0.0872 -0.4239
 2851SOL     OW20014   0.556   4.170  12.126 -0.1955 -0.0240  0.1271
 2851SOL    HW120015   0.610   4.107  12.174 -2.0395 -0.8763  1.0909
 2851SOL    HW220016   0.518   4.219  12.199  1.6420 -0.7174  1.5387
 2852SOL     OW20017   1.751   0.222   4.048 -0.5771  0.4176  0.1804
 2852SOL    HW120018   1.693   0.146   4.043 -1.3277  1.0420 -0.7695
 2852SOL    HW220019   1.833   0.175   4.035 -1.0270  0.3695 -2.4991
 2853SOL     OW20020   0.674   4.348  12.530 -0.0600  0.4406 -0.1728
 2853SOL    HW120021   0.722   4.429  12.546  2.5308 -0.2800 -4.3520
 2853SOL    HW220022   0.606   4.372  12.466 -0.4571 -1.2145 -0.3781
 2854SOL     OW20023   2.253   0.240   8.668  0.0600  0.0333  0.4776
 2854SOL    HW120024   2.287   0.309   8.725 -1.1158  0.8610  0.1579
 2854SOL    HW220025   2.227   0.286   8.588  1.0258  0.7932  0.6028
 2855SOL     OW20026   0.061   3.561   5.685 -0.3590  0.1384 -0.0963
 2855SOL    HW120027   0.131   3.555   5.619  0.3795 -0.3210  0.7220
 2855SOL    HW220028   4.718   3.592   5.625  0.1643  1.7287  0.1577
 2856SOL     OW20029   3.251   4.241   4.113  0.5355  0.0485  0.4333
 2856SOL    HW120030   3.256   4.166   4.054  2.3740 -0.9441  1.8583
 2856SOL    HW220031   3.212   4.194   4.187  0.3316 -0.4517  0.0102
 2857SOL     OW20032   3.934   2.041  14.307  0.0695 -0.0769  0.0043
 2857SOL    HW120033   3.900   1.984  14.376  0.8346 -0.1226  0.3373
 2857SOL    HW220034   3.859   2.055  14.249  0.7413 -0.2972 -0.9249
 2858SOL     OW20035   2.361   0.808   7.427  0.0038  0.1396  0.4161
 2858SOL    HW120036   2.375   0.724   7.383  0.9275  1.3223 -1.5721
 2858SOL    HW220037   2.402   0.794   7.512  0.0830 -0.7611  0.2359
 2859SOL     OW20038   2.039   4.249  10.054  0.6295  0.0360  0.1095
 2859SOL    HW120039   2.055   4.212  10.141  0.6707 -0.3794 -0.0726
 2859SOL    HW220040   1.945   4.252  10.069  0.8912  0.3835  1.7196
 2860SOL     OW20041   2.825   3.485   7.175 -0.9019  0.1640  0.1579
 2860SOL    HW120042   2.782   3.402   7.194 -1.2223  1.3836  4.7226
 2860SOL    HW220043   2.832   3.484   7.080 -2.3507 -2.7733  0.0970
 2861SOL     OW20044   0.952   0.040   8.598 -0.2309  0.3645  0.7125
 2861SOL    HW120045   0.875   0.062   8.545  0.7109 -0.1238 -0.8420
 2861SOL    HW220046   0.976   4.681   8.558  0.8287  2.1292 -2.3450
 2862SOL     OW20047   1.190   4.640  10.859 -0.2383  0.0262  0.3871
 2862SOL    HW120048   1.110   4.605  10.820 -1.2206  0.2127  2.2638
 2862SOL    HW220049   1.222   4.698  10.790 -2.0197 -1.0031 -1.3118
 2863SOL     OW20050   1.837   4.697   8.026  0.8802  0.5016 -0.2227
 2863SOL    HW120051   1.933   4.705   8.022  0.7770  1.4636 -0.6662
 2863SOL    HW220052   1.828   0.063   8.057  1.4722 -0.0598  1.6230
 2864SOL     OW20053   3.615   1.233   8.486  0.0351 -0.5188 -0.1415
 2864SOL    HW120054   3.533   1.194   8.456  1.0625 -0.9828 -2.3549
 2864SOL    HW220055   3.579   1.307   8.535  0.7749 -0.3290  0.1156
 2865SOL     OW20056   4.126   3.519   2.873  0.0398  0.0758  0.5081
 2865SOL    HW120057   4.054   3.489   2.819  0.6797 -1.1821  0.3398
 2865SOL    HW220058   4.187   3.445   2.862 -0.4778 -0.4637  1.2512
 2866SOL     OW20059   0.799   4.640   6.516 -0.2008 -0.7702 -0.5480
 2866SOL    HW120060   0.840   4.639   6.602  0.5504  0.8171 -0.8844
 2866SOL    HW220061   0.881   4.653   6.468 -1.0678  1.8187 -1.3625
 2867SOL     OW20062   1.301   3.046  12.996 -0.0859  0.3718 -0.5460
 2867SOL    HW120063   1.360   2.998  13.056 -2.6515 -1.5063  0.4722
 2867SOL    HW220064   1.361   3.070  12.925 -0.0299  1.8884  0.0162
 2868SOL     OW20065   4.143   1.437   7.851 -0.2145  0.0740 -0.5765
 2868SOL    HW120066   4.103   1.489   7.781 -2.4790  0.6690  1.1679
 2868SOL    HW220067   4.085   1.457   7.924 -2.2883 -0.3537 -2.1161
 2869SOL     OW20068   4.561   0.600   7.871 -0.0883  0.2869 -0.5576
 2869SOL    HW120069   4.578   0.671   7.933  1.9462  0.1628 -0.9803
 2869SOL    HW220070   4.535   0.657   7.799  0.5041 -0.2737 -1.2233
 2870SOL     OW20071   4.444   4.433   4.174 -0.0873 -0.2305  0.0656
 2870SOL    HW120072   4.509   4.449   4.242 -0.4906  1.1687  0.1220
 2870SOL    HW220073   4.380   4.370   4.208 -0.2533  0.3936  0.9133
 2871SOL     OW20074   1.356   2.356  16.889  0.0112  0.8671 -0.4066
 2871SOL    HW120075   1.364   2.451  16.884 -0.7581  0.8387 -2.1409
 2871SOL    HW220076   1.374   2.345  16.983 -0.4163  0.0342 -0.4168
 2872SOL     OW20077   2.315   1.688   7.768 -0.0312  0.2985  0.4919
 2872SOL    HW120078   2.268   1.757   7.721  1.0825  0.7979  0.1245
 2872SOL    HW220079   2.305   1.710   7.861  1.1391 -0.1082  0.7091
 2873SOL     OW20080   3.658   4.446  10.225  0.9026 -0.1159  0.2146
 2873SOL    HW120081   3.733   4.479  10.174  0.8864 -0.0157  0.2541
 2873SOL    HW220082   3.710   4.386  10.278  0.3786  0.6098  1.5506
 2874SOL     OW20083   2.981   2.226   4.142 -0.3313 -0.1751 -0.1756
 2874SOL    HW120084   3.031   2.165   4.196  0.5836 -0.1180 -0.9468
 2874SOL    HW220085   2.893   2.208   4.173 -0.2643 -0.2821 -0.0462
 2875SOL     OW20086   1.571   2.306   3.507  0.1415  0.0428  0.0625
 2875SOL    HW120087   1.565   2.348   3.593 -0.4787 -0.6656  0.3584
 2875SOL    HW220088   1.621   2.369   3.454  0.7160 -1.1731 -0.8395
 2876SOL     OW20089   0.064   1.153   9.695 -0.4325 -0.2282 -0.2579
 2876SOL    HW120090   0.045   1.170   9.787  1.8137 -0.0400  0.1687
 2876SOL    HW220091   4.704   1.113   9.675  0.8055 -3.5736  1.1451
 2877SOL     OW20092   1.823   2.268   8.086  0.4336  0.3656  0.3639
 2877SOL    HW120093   1.784   2.337   8.033 -0.6473  0.0044  0.6887
 2877SOL    HW220094   1.859   2.308   8.165 -0.4382  1.7026  0.0754
 2878SOL     OW20095   1.161   2.102   7.325 -0.3663  0.1269 -0.2334
 2878SOL    HW120096   1.119   2.021   7.355  0.5637 -0.3625 -0.2718
 2878SOL    HW220097   1.221   2.111   7.399 -1.6016 -0.9885  0.9138
 2879SOL     OW20098   4.257   1.503   9.816 -0.8246  0.4930 -0.2281
 2879SOL    HW120099   4.162   1.515   9.810 -0.6154  1.9116 -0.8150
 2879SOL    HW220100   4.275   1.532   9.905 -0.7540  2.4877 -0.8787
 2880SOL     OW20101   1.189   4.280  10.627  0.1699 -0.1892 -0.1657
 2880SOL    HW120102   1.244   4.218  10.676  0.0249  0.5362  0.9314
 2880SOL    HW220103   1.141   4.226  10.564 -4.3134  0.5340  2.5953
 2881SOL     OW20104   3.485   4.464  16.835  0.3022 -0.9520  0.6213
 2881SOL    HW120105   3.521   4.512  16.760  1.1026 -1.9711  0.3512
 2881SOL    HW220106   3.390   4.468  16.825  0.1483 -2.0386  1.6569
 2882SOL     OW20107   4.671   1.195   5.298  0.8664 -0.1932 -0.0641
 2882SOL    HW120108   0.030   1.213   5.254  1.2339 -0.6760  0.4264
 2882SOL    HW220109   4.687   1.221   5.389 -0.0870 -0.0402  0.0604
 2883SOL     OW20110   1.339   2.018   4.887 -0.6634  0.0088 -1.1582
 2883SOL    HW120111   1.332   2.094   4.829  0.6853 -0.2647 -1.7021
 2883SOL    HW220112   1.263   2.036   4.942  0.6492  1.4577  0.1943
 2884SOL     OW20113   3.456   3.039  17.447 -0.2664  0.1963  0.8137
 2884SOL    HW120114   3.499   2.972  17.500  1.4495  1.6811  1.3074
 2884SOL    HW220115   3.469   3.115  17.504  0.3731 -0.0924  1.0385
 2885SOL     OW20116   1.402   1.221   8.150  0.4051  0.3313 -0.0217
 2885SOL    HW120117   1.464   1.167   8.101  0.2776  1.1996 -1.1349
 2885SOL    HW220118   1.335   1.241   8.084 -0.9091 -0.4578  1.0616
 2886SOL     OW20119   2.329   3.719   0.778 -0.0134  0.0736  0.2743
 2886SOL    HW120120   2.384   3.787   0.741 -1.9442  2.3350  1.5902
 2886SOL    HW220121   2.260   3.775   0.813 -1.9206 -1.8948 -0.3276
 2887SOL     OW20122   3.421   3.318  11.667 -0.1309 -0.0213  0.1767
 2887SOL    HW120123   3.516   3.318  11.659 -0.0230 -0.1803  1.5731
 2887SOL    HW220124   3.393   3.301  11.577  0.0001  1.1448 -0.0868
 2888SOL     OW20125   0.986   1.092   6.072  0.4379  0.4145 -0.2330
 2888SOL    HW120126   1.066   1.096   6.126  0.4401  0.2404 -0.2220
 2888SOL    HW220127   1.025   1.072   5.987 -0.0397  0.5344 -0.4748
 2889SOL     OW20128   0.933   1.827   5.349  0.1115 -0.5285 -0.8052
 2889SOL    HW120129   0.948   1.904   5.294 -0.7925  1.8779  2.3482
 2889SOL    HW220130   0.934   1.863   5.438 -0.9837 -4.2741  0.7399
 2890SOL     OW20131   2.006   3.154   8.581  0.2013 -0.0683  0.2505
 2890SOL    HW120132   1.933   3.140   8.641 -0.0186  0.2450  0.0573
 2890SOL    HW220133   1.992   3.087   8.514 -4.2631  0.3824  0.7373
 2891SOL     OW20134   0.098   3.286  15.721 -0.2741 -0.3958 -0.6928
 2891SOL    HW120135   0.159   3.343  15.673  0.1100 -2.5242 -2.7330
 2891SOL    HW220136   0.027   3.278  15.657 -0.1680  1.8773 -1.0944
 2892SOL     OW20137   2.915   1.280   3.901  0.1679  0.0818 -0.4094
 2892SOL    HW120138   2.998   1.256   3.944  0.0237 -1.6937 -1.1380
 2892SOL    HW220139   2.940   1.350   3.841 -1.4594 -0.1531 -1.3577
 2893SOL     OW20140   0.095   0.843   7.366 -0.8194 -0.3467 -0.1389
 2893SOL    HW120141   0.136   0.827   7.281 -0.0093 -2.5665  0.6668
 2893SOL    HW220142   0.040   0.765   7.370 -0.2159 -0.6758  1.6800
 2894SOL     OW20143   2.664   2.646   9.851  0.1502  0.5509  0.2168
 2894SOL    HW120144   2.572   2.658   9.874  0.2295 -1.5136  1.6028
 2894SOL    HW220145   2.665   2.551   9.858 -1.7399  0.5095 -0.0396
 2895SOL     OW20146   2.794   1.226   9.703 -0.1998 -0.1227 -0.4136
 2895SOL    HW120147   2.758   1.171   9.773  0.5109  1.5415  1.2533
 2895SOL    HW220148   2.886   1.198   9.709 -0.2291 -0.2228 -0.4218
 2896SOL     OW20149   1.951   1.017   9.493  0.0160  0.5712  0.3917
 2896SOL    HW120150   2.008   0.976   9.558 -0.4336 -1.5582 -0.5475
 2896SOL    HW220151   1.960   0.949   9.425  1.1918  0.6888  0.4303
 2897SOL     OW20152   4.315   2.534   5.907 -0.7292  0.2607  0.1922
 2897SOL    HW120153   4.231   2.519   5.863 -1.4722  2.8924  0.7110
 2897SOL    HW220154   4.349   2.595   5.843 -1.2144 -2.0343 -2.2552
 2898SOL     OW20155   3.192   2.195   8.872  0.0583  0.2563  0.1029
 2898SOL    HW120156   3.120   2.132   8.868 -0.3966  0.7275  1.0882
 2898SOL    HW220157   3.262   2.129   8.876 -0.2744 -0.0890  0.1715
 2899SOL     OW20158   2.848   3.667   8.522 -0.4526  0.4204  0.1167
 2899SOL    HW120159   2.896   3.653   8.441 -1.4648 -0.5810 -0.3109
 2899SOL    HW220160   2.808   3.580   8.534 -1.1901  0.5079 -1.6866
 2900SOL     OW20161   2.071   0.109   0.254  0.6335 -0.2407  0.0090
 2900SOL    HW120162   2.112   0.049   0.317 -0.4140 -0.1425  0.7893
 2900SOL    HW220163   2.040   0.180   0.310 -0.0136 -0.3248 -0.2375
 2901SOL     OW20164   4.038   4.320   0.896 -0.4298 -0.4233 -0.3225
 2901SOL    HW120165   3.944   4.316   0.881 -0.5251 -0.2826  0.2424
 2901SOL    HW220166   4.051   4.409   0.864 -3.6072 -0.2610 -1.1051
 2902SOL     OW20167   1.315   1.435   7.520  0.0460  0.2460  0.0541
 2902SOL    HW120168   1.401   1.393   7.516  1.1871  2.4583  1.3676
 2902SOL    HW220169   1.253   1.377   7.475  1.3361 -1.0043 -0.1074
 2903SOL     OW20170   3.660   2.209   0.353 -0.2218  0.4195  0.3122
 2903SOL    HW120171   3.755   2.201   0.343 -0.3399 -1.1824  0.4112
 2903SOL    HW220172   3.661   2.263   0.432 -0.9637  2.0670 -0.8042
 2904SOL     OW20173   2.588   0.750   4.693 -0.4830  0.6907 -0.2987
 2904SOL    HW120174   2.605   0.671   4.642 -3.0212  0.5229 -0.8646
 2904SOL    HW220175   2.569   0.814   4.624  0.3187  0.2257 -0.9495
 2905SOL     OW20176   1.952   2.512   3.900 -0.4945  0.4899 -0.9905
 2905SOL    HW120177   1.918   2.601   3.897 -1.2956  0.1929 -0.9043
 2905SOL    HW220178   1.874   2.457   3.888 -0.3493 -0.0173  0.3911
 2906SOL     OW20179   2.380   1.842  14.595  0.3621 -0.1787 -0.0539
 2906SOL    HW120180   2.441   1.832  14.522 -1.8162  3.1266 -2.3147
 2906SOL    HW220181   2.413   1.768  14.646 -1.0176 -0.2752  0.6804
 2907SOL     OW20182   0.939   1.578  14.231  0.1389  0.4473  0.0626
 2907SOL    HW120183   1.011   1.548  14.176 -0.1374  0.6320 -0.4009
 2907SOL    HW220184   0.864   1.530  14.194  0.5945 -2.2189  2.6185
 2908SOL     OW20185   1.196   1.083   2.689  0.3886  0.0437 -0.4534
 2908SOL    HW120186   1.213   0.999   2.646  1.5356  1.1154 -2.0939
 2908SOL    HW220187   1.212   1.069   2.783  0.6056 -2.7788 -0.9259
 2909SOL     OW20188   3.803   2.619   9.232 -0.2687 -0.5515  0.0024
 2909SOL    HW120189   3.858   2.544   9.208 -0.0742 -0.4753  0.2099
 2909SOL    HW220190   3.769   2.611   9.320 -2.9998 -0.8811 -1.0906
 2910SOL     OW20191   2.009   2.146   4.678  0.1899 -0.4270  0.3138
 2910SOL    HW120192   1.920   2.175   4.655 -0.6543 -3.8839 -0.8658
 2910SOL    HW220193   1.979   2.075   4.735  0.7165 -0.7794  0.1485
 2911SOL     OW20194   0.537   4.079   4.588 -0.0142  0.3450 -0.2318
 2911SOL    HW120195   0.492   4.001   4.556  0.8583  0.4797 -1.8277
 2911SOL    HW220196   0.476   4.094   4.660  0.9981  0.3712  0.6292
 2912SOL     OW20197   0.705   0.805   2.547  1.0818  0.4545  0.0845
 2912SOL    HW120198   0.643   0.818   2.475 -1.1507 -0.1207  1.8847
 2912SOL    HW220199   0.779   0.765   2.501  0.0888 -1.7632  0.4196
 2913SOL     OW20200   0.594   3.740  17.586 -0.3133  0.1233 -0.7797
 2913SOL    HW120201   0.689   3.741  17.574 -0.2664 -2.5740 -0.6536
 2913SOL    HW220202   0.565   3.722  17.496  1.6401 -2.2869 -0.9063
 2914SOL     OW20203   0.141   0.494  12.230 -0.1421 -0.4333 -0.2178
 2914SOL    HW120204   0.230   0.525  12.213 -0.4329 -0.7739 -2.4365
 2914SOL    HW220205   0.119   0.446  12.150 -0.1733  0.5040 -0.7647
 2915SOL     OW20206   2.965   0.328  10.148 -0.6188  0.1585 -0.5689
 2915SOL    HW120207   2.961   0.412  10.195  0.7360 -1.3876  2.2469
 2915SOL    HW220208   2.918   0.275  10.212 -1.0392  2.3560  0.9604
 2916SOL     OW20209   3.617   3.641   0.982  0.6182 -0.6337 -0.0770
 2916SOL    HW120210   3.603   3.555   0.943 -0.5315 -0.4417 -0.0750
 2916SOL    HW220211   3.535   3.684   0.957  1.8493  0.8329 -1.6415
 2917SOL     OW20212   0.196   4.065   9.291  0.0095  0.5761 -0.2130
 2917SOL    HW120213   0.183   4.130   9.222 -0.2012  1.6040  0.7920
 2917SOL    HW220214   0.109   4.055   9.331 -0.4648 -0.5421 -1.5270
 2918SOL     OW20215   0.373   0.782   6.648 -0.0326 -0.2747 -0.3429
 2918SOL    HW120216   0.311   0.841   6.604  1.2310  1.6082  0.3806
 2918SOL    HW220217   0.460   0.817   6.628  0.6312 -0.5295  2.1062
 2919SOL     OW20218   2.542   3.701   0.263 -0.0403  0.1775  0.0855
 2919SOL    HW120219   2.512   3.669   0.348  2.1399 -0.7188  0.5053
 2919SOL    HW220220   2.633   3.671   0.259 -0.0095 -0.0823  2.6768
 2920SOL     OW20221   1.400   2.261  17.170  0.1353 -0.1001 -0.7981
 2920SOL    HW120222   1.326   2.201  17.162  1.9436 -2.5370  0.9799
 2920SOL    HW220223   1.452   2.217  17.236  1.9355 -0.3267 -2.3841
 2921SOL     OW20224   2.222   1.066  13.800  0.4311 -0.5940  0.3469
 2921SOL    HW120225   2.149   1.100  13.852 -0.7473 -1.7090 -0.5834
 2921SOL    HW220226   2.182   0.988  13.762 -2.4827  1.4813 -0.8646
 2922SOL     OW20227   0.684   3.146   6.644 -0.1684  0.2704 -0.3912
 2922SOL    HW120228   0.694   3.205   6.569 -3.0228  0.7828 -0.3584
 2922SOL    HW220229   0.639   3.076   6.596 -1.4006  0.5610  0.3536
 2923SOL     OW20230   4.071   2.386   3.240 -0.0818  0.5524 -0.0953
 2923SOL    HW120231   4.078   2.307   3.294  0.9571  1.6123  1.3286
 2923SOL    HW220232   4.064   2.356   3.149 -2.6276 -0.2013  0.3307
 2924SOL     OW20233   0.739   2.450   7.505 -0.2298  0.1374  0.1806
 2924SOL    HW120234   0.703   2.518   7.447 -2.7264 -0.8390  0.5665
 2924SOL    HW220235   0.709   2.367   7.469 -0.7960 -0.2439  1.5090
 2925SOL     OW20236   0.755   3.141   2.108  0.5132  0.6447 -0.5451
 2925SOL    HW120237   0.787   3.158   2.197 -2.2829  0.0707  0.5870
 2925SOL    HW220238   0.837   3.137   2.058 -0.5868  3.0179 -2.5538
 2926SOL     OW20239   3.460   1.824   8.190  0.4024 -0.2881  0.1639
 2926SOL    HW120240   3.469   1.764   8.265 -0.2266 -0.3141  0.2149
 2926SOL    HW220241   3.463   1.908   8.236 -2.4886 -0.7241  1.1465
 2927SOL     OW20242   4.249   3.644   6.488  0.1055 -0.1870 -0.1867
 2927SOL    HW120243   4.191   3.713   6.520 -0.7680 -0.5541 -0.9609
 2927SOL    HW220244   4.333   3.655   6.532  0.0954 -0.8222  0.0028
 2928SOL     OW20245   3.665   1.225   8.134  0.6390 -0.5159  0.0151
 2928SOL    HW120246   3.671   1.130   8.123  0.2514 -0.6122  0.6404
 2928SOL    HW220247   3.744   1.251   8.087  0.2788  2.0374  0.8425
 2929SOL     OW20248   1.281   1.553  11.974  0.4426  0.9113  0.2803
 2929SOL    HW120249   1.349   1.517  11.915 -0.7469 -0.1880 -0.4355
 2929SOL    HW220250   1.327   1.546  12.057  3.0691 -0.7316 -1.2871
 2930SOL     OW20251   1.330   2.841  15.952  0.2961 -0.5527  0.3985
 2930SOL    HW120252   1.329   2.761  16.004 -2.5282 -1.2430 -0.7141
 2930SOL    HW220253   1.323   2.793  15.870 -1.4445 -0.2786  0.3842
 2931SOL     OW20254   4.076   2.124   3.341  0.1133  1.0188 -0.3506
 2931SOL    HW120255   3.990   2.082   3.338  0.2681  0.8172 -1.9500
 2931SOL    HW220256   4.122   2.048   3.304 -0.4969  1.2605 -1.6081
 2932SOL     OW20257   0.508   4.484   3.124 -0.0955 -0.3332  0.0467
 2932SOL    HW120258   0.429   4.538   3.124 -0.6808 -1.1875 -1.6631
 2932SOL    HW220259   0.541   4.487   3.214  0.9479  0.2480 -0.3496
 2933SOL     OW20260   2.005   4.128   9.675 -0.3424 -0.1339  0.3753
 2933SOL    HW120261   1.995   4.061   9.743 -1.2488  1.2081  1.5617
 2933SOL    HW220262   1.957   4.201   9.715  1.1797  1.0029  0.1164
 2934SOL     OW20263   2.738   1.804   3.719  0.0590  0.0356 -0.5075
 2934SOL    HW120264   2.659   1.757   3.746  0.7463  0.0765  1.6066
 2934SOL    HW220265   2.695   1.867   3.661 -1.6804 -0.0027  0.7452
 2935SOL     OW20266   0.130   0.610   4.883  0.1652  0.3278 -0.3864
 2935SOL    HW120267   0.131   0.687   4.825  1.2599  0.2824 -0.4267
 2935SOL    HW220268   0.039   0.586   4.899  1.0693 -1.3098  2.1956
 2936SOL     OW20269   0.985   3.084   1.943  0.5003 -0.1369 -0.6277
 2936SOL    HW120270   1.073   3.045   1.946  0.8920  0.6321 -2.0076
 2936SOL    HW220271   0.984   3.118   1.854 -1.1530  0.4586 -0.3682
 2937SOL     OW20272   2.171   0.106   1.763  0.2008  0.0556  0.2422
 2937SOL    HW120273   2.243   0.108   1.701  0.0337  1.2803  0.0805
 2937SOL    HW220274   2.173   0.202   1.758  3.2000 -0.0471 -0.4342
 2938SOL     OW20275   4.425   4.323  15.620  0.0549  0.0129 -0.6933
 2938SOL    HW120276   4.450   4.386  15.552  0.8324  1.0797  0.5752
 2938SOL    HW220277   4.463   4.239  15.592  0.3803 -0.2518  0.5283
 2939SOL     OW20278   3.460   3.185   1.308  0.1217  0.0473  0.2767
 2939SOL    HW120279   3.399   3.157   1.376 -0.0685 -0.4573 -0.1018
 2939SOL    HW220280   3.450   3.280   1.314 -0.2617  0.0097  0.2374
 2940SOL     OW20281   0.312   1.901  16.026 -0.5339 -0.4131  0.0547
 2940SOL    HW120282   0.383   1.919  16.088 -0.4752  0.8603 -0.3978
 2940SOL    HW220283   0.334   1.961  15.955 -2.4186  0.8230  0.5343
 2941SOL     OW20284   0.619   1.730   4.041 -0.2595 -0.4868  0.5248
 2941SOL    HW120285   0.555   1.733   3.970 -0.1124  2.2130  0.5141
 2941SOL    HW220286   0.588   1.661   4.100 -0.5400 -1.3449 -0.6169
 2942SOL     OW20287   0.621   0.903   8.652  0.0741 -0.0257  0.1925
 2942SOL    HW120288   0.541   0.864   8.689  0.8810 -2.5043 -0.6629
 2942SOL    HW220289   0.605   0.911   8.558  1.4265  1.0648  0.0638
 2943SOL     OW20290   3.213   2.997   5.016 -0.0038 -0.1034  0.1922
 2943SOL    HW120291   3.287   2.958   5.063  1.1189  0.9671 -0.6879
 2943SOL    HW220292   3.214   3.091   5.033  1.9102  0.1229 -1.1249
 2944SOL     OW20293   2.224   4.082   5.056  0.3760 -0.0029 -0.4632
 2944SOL    HW120294   2.131   4.069   5.075 -0.0916  2.0086 -1.3525
 2944SOL    HW220295   2.257   3.993   5.068 -0.0447 -0.5455 -3.3135
 2945SOL     OW20296   4.205   2.680   0.765  0.1720 -0.4273 -0.5126
 2945SOL    HW120297   4.151   2.612   0.807  0.9776 -1.9032 -1.8878
 2945SOL    HW220298   4.290   2.641   0.783 -0.1591 -1.5326 -1.3229
 2946SOL     OW20299   1.594   3.145   9.263 -0.0162 -0.0264 -0.9287
 2946SOL    HW120300   1.651   3.216   9.293  0.7661 -0.2269 -1.9305
 2946SOL    HW220301   1.515   3.142   9.317  0.5273  0.3011 -0.1200
 2947SOL     OW20302   2.880   1.327   2.465 -0.8422 -0.1379 -0.1966
 2947SOL    HW120303   2.789   1.352   2.449 -1.2513 -0.4516  1.6803
 2947SOL    HW220304   2.916   1.315   2.377 -0.6966  0.2231 -0.1837
 2948SOL     OW20305   1.049   4.712  14.764 -0.3657  0.2044 -0.1298
 2948SOL    HW120306   1.082   0.053  14.702 -1.0186 -0.5810 -1.2982
 2948SOL    HW220307   1.041   4.634  14.709  0.5097  1.0710 -1.4922
 2949SOL     OW20308   0.737   1.943   9.777 -0.4194 -0.2013  0.0176
 2949SOL    HW120309   0.706   1.863   9.819 -0.0953 -0.1292  0.3916
 2949SOL    HW220310   0.770   2.002   9.845 -0.1345  0.2289 -0.4923
 2950SOL     OW20311   0.759   0.417   2.475  0.3454  0.1403 -0.1369
 2950SOL    HW120312   0.793   0.506   2.471 -0.3286  0.2702 -3.0739
 2950SOL    HW220313   0.671   0.436   2.443 -0.1844 -1.1839  0.5405
 2951SOL     OW20314   0.409   4.535   5.018 -0.0898  0.1483  0.5093
 2951SOL    HW120315   0.362   4.464   5.061  0.6467 -1.2225 -0.9685
 2951SOL    HW220316   0.428   4.490   4.935 -1.5144 -0.9463  0.7812
 2952SOL     OW20317   3.281   0.808  14.898  0.8509  0.2721 -0.6328
 2952SOL    HW120318   3.215   0.875  14.917 -0.4753 -1.1141 -0.2895
 2952SOL    HW220319   3.255   0.752  14.971 -1.2385  0.7031 -1.0335
 2953SOL     OW20320   3.883   2.247   5.166  0.4857 -0.6746 -0.0538
 2953SOL    HW120321   3.791   2.225   5.148 -0.0789  0.4181  1.4240
 2953SOL    HW220322   3.928   2.170   5.131  1.1187 -0.3192 -0.0077
 2954SOL     OW20323   4.600   1.020   6.915 -0.2304 -0.0148  0.0352
 2954SOL    HW120324   4.623   1.103   6.873 -2.2297  0.7945  0.5906
 2954SOL    HW220325   4.588   1.051   7.005  1.8286  1.1589 -0.0647
 2955SOL     OW20326   3.626   0.658   5.854  0.0053  0.4466 -0.1289
 2955SOL    HW120327   3.581   0.614   5.926  3.8087 -1.0384  1.3133
 2955SOL    HW220328   3.594   0.746   5.876  0.8441  1.2125 -1.9458
 2956SOL     OW20329   3.762   0.156   7.352  0.5026 -0.3601  0.3416
 2956SOL    HW120330   3.734   0.172   7.262  1.6865 -0.3685 -0.0388
 2956SOL    HW220331   3.770   0.061   7.356  1.6512 -0.2969 -0.3307
 2957SOL     OW20332   0.370   3.077   7.608 -0.4003 -0.2147 -0.1628
 2957SOL    HW120333   0.449   3.099   7.559  0.1556 -0.3101  0.6946
 2957SOL    HW220334   0.401   3.084   7.698 -1.8634 -0.5844  0.3825
 2958SOL     OW20335   0.272   2.512  15.727  0.1438  0.5916  0.2147
 2958SOL    HW120336   0.253   2.440  15.788 -1.2658 -0.4492 -1.4573
 2958SOL    HW220337   0.262   2.589  15.782 -1.8025  1.8320 -1.8704
 2959SOL     OW20338   0.739   0.245   6.724 -0.2957  0.3459  0.0478
 2959SOL    HW120339   0.724   0.329   6.681 -1.7026 -0.3411 -0.7950
 2959SOL    HW220340   0.735   0.268   6.817  0.5057  1.2421 -0.1397
 2960SOL     OW20341   0.934   3.364   2.071  0.0706 -0.0617  0.6648
 2960SOL    HW120342   0.858   3.403   2.114  0.6866  2.8295 -0.8992
 2960SOL    HW220343   1.000   3.433   2.070  0.6644 -0.6274  0.9674
 2961SOL     OW20344   1.126   0.892   8.933 -0.8142 -0.2542 -0.5237
 2961SOL    HW120345   1.049   0.848   8.900 -0.1424 -1.2158 -0.8111
 2961SOL    HW220346   1.103   0.898   9.026 -2.9110  0.3505 -1.0807
 2962SOL     OW20347   3.893   2.007   8.260  0.2130 -0.5499  0.7236
 2962SOL    HW120348   3.803   2.029   8.236  0.1369 -0.9733  0.6241
 2962SOL    HW220349   3.886   1.926   8.310  1.8848 -2.1483 -1.6827
 2963SOL     OW20350   2.727   2.074   5.587  0.8872  0.3820 -0.3736
 2963SOL    HW120351   2.784   2.034   5.521 -0.1316 -0.6691 -0.6188
 2963SOL    HW220352   2.641   2.043   5.561 -1.2409  2.6357  3.9755
 2964SOL     OW20353   0.512   0.148   0.282  0.5490 -0.7855  0.2592
 2964SOL    HW120354   0.495   0.082   0.215  2.0266  0.2907 -1.1706
 2964SOL    HW220355   0.594   0.184   0.248 -0.5833  0.4662 -1.1610
 2965SOL     OW20356   3.626   1.301  10.422  0.3408  0.7536 -0.2469
 2965SOL    HW120357   3.713   1.279  10.456 -0.8348 -1.5651  1.3001
 2965SOL    HW220358   3.621   1.389  10.461  0.5261 -0.0237  1.5357
 2966SOL     OW20359   3.149   1.166   7.155 -0.1683  0.5231  0.2161
 2966SOL    HW120360   3.138   1.181   7.249  1.2002  0.9627  0.3072
 2966SOL    HW220361   3.177   1.251   7.119  0.7321  0.8189  1.5897
 2967SOL     OW20362   3.163   0.405   7.028 -0.1543  0.3926 -0.0719
 2967SOL    HW120363   3.071   0.416   7.051  0.1758  2.9970 -0.0421
 2967SOL    HW220364   3.207   0.477   7.073  0.0307  1.1125 -1.4067
 2968SOL     OW20365   1.076   4.231   5.560  0.0286 -0.0698  0.0930
 2968SOL    HW120366   1.039   4.317   5.539 -0.2812 -0.4028 -0.7201
 2968SOL    HW220367   0.994   4.185   5.541 -0.5051  0.6033  0.7834
 2969SOL     OW20368   2.847   1.458  16.601 -0.3241  0.3267  0.5136
 2969SOL    HW120369   2.822   1.530  16.543  0.4247 -0.4602 -0.7668
 2969SOL    HW220370   2.905   1.507  16.659 -0.5720 -1.2926  2.1351
 2970SOL     OW20371   3.913   0.484   7.860  0.6964  0.5825  0.1342
 2970SOL    HW120372   3.951   0.570   7.879 -3.0315  2.0709  0.6664
 2970SOL    HW220373   3.963   0.472   7.779  0.3035  0.0971 -0.0358
 2971SOL     OW20374   1.531   2.248   1.098  0.1454 -0.3640 -0.5896
 2971SOL    HW120375   1.452   2.224   1.051 -1.3461  0.4546  1.5159
 2971SOL    HW220376   1.509   2.239   1.191  2.0912 -2.9232 -0.3810
 2972SOL     OW20377   2.157   2.250   8.056 -0.6068  0.0862 -0.3625
 2972SOL    HW120378   2.181   2.342   8.064  0.0455 -0.2437  1.4540
 2972SOL    HW220379   2.085   2.243   8.119  0.3399  2.1340  0.9385
 2973SOL     OW20380   4.366   0.983   7.732  0.1748  0.3388 -0.3667
 2973SOL    HW120381   4.441   1.042   7.729  0.7888 -0.4405 -0.1697
 2973SOL    HW220382   4.311   1.025   7.665 -0.9730  1.1037  1.0515
 2974SOL     OW20383   1.442   4.489   4.221 -0.2862 -0.4399 -0.3171
 2974SOL    HW120384   1.481   4.522   4.302  1.0875  0.2329 -1.2475
 2974SOL    HW220385   1.515   4.474   4.162  0.1022 -2.0827  0.5862
 2975SOL     OW20386   3.367   3.805   6.461 -0.3187  0.0478  0.1843
 2975SOL    HW120387   3.353   3.898   6.478  0.6734  0.3220 -0.5205
 2975SOL    HW220388   3.391   3.803   6.369  0.5070 -1.1639  0.4199
 2976SOL     OW20389   1.968   1.697   2.673 -0.0785 -0.0097  0.2663
 2976SOL    HW120390   2.011   1.778   2.647  1.2198  0.1046  2.7203
 2976SOL    HW220391   1.955   1.716   2.766  2.2665 -0.9312  0.7839
 2977SOL     OW20392   2.174   0.322   5.961 -0.3091  0.0093  0.3718
 2977SOL    HW120393   2.206   0.233   5.952 -0.6636 -0.0232 -0.5330
 2977SOL    HW220394   2.209   0.368   5.885  0.6840 -1.8244 -0.2805
 2978SOL     OW20395   4.651   3.547   4.364 -0.4060 -0.3670 -0.5040
 2978SOL    HW120396   4.656   3.577   4.274  1.8844 -0.9003 -0.5530
 2978SOL    HW220397   4.575   3.597   4.395 -0.4033  0.1910 -1.3992
 2979SOL     OW20398   2.848   3.582  11.054  0.6641  0.3917  0.1056
 2979SOL    HW120399   2.911   3.610  11.121 -0.8835  0.6166  1.4601
 2979SOL    HW220400   2.861   3.650  10.988  0.7357  0.8009  0.5415
 2980SOL     OW20401   0.974   4.525   7.952 -0.0908 -0.1692 -0.3596
 2980SOL    HW120402   0.890   4.550   7.914  0.7245  2.3824 -0.4729
 2980SOL    HW220403   1.001   4.614   7.975 -1.4036  0.1768 -0.1539
 2981SOL     OW20404   4.712   0.254   1.005 -0.3553 -0.1584  0.1633
 2981SOL    HW120405   4.660   0.306   0.944 -0.6881 -0.2246  0.3862
 2981SOL    HW220406   0.057   0.316   1.028 -1.9958  1.4991  0.6816
 2982SOL     OW20407   3.103   0.478   5.292 -0.4125 -0.3630  0.4562
 2982SOL    HW120408   3.109   0.531   5.372 -0.7931  1.3623 -0.6601
 2982SOL    HW220409   3.017   0.513   5.271  0.3968  0.0860 -2.0628
 2983SOL     OW20410   3.895   1.794   3.725  0.7319 -0.5400  0.7762
 2983SOL    HW120411   3.989   1.808   3.739  0.6388  0.4878  0.3598
 2983SOL    HW220412   3.896   1.757   3.637 -2.1996  1.9157 -0.2750
 2984SOL     OW20413   2.576   3.583   6.166 -0.3876  0.5538 -0.0342
 2984SOL    HW120414   2.505   3.632   6.207  3.2927  3.5744  2.7739
 2984SOL    HW220415   2.533   3.561   6.083  1.5867  0.4449 -1.0382
 2985SOL     OW20416   1.048   2.964  17.077  0.5173 -0.0399  0.5106
 2985SOL    HW120417   0.977   2.982  17.016  0.6323  0.7790  0.6254
 2985SOL    HW220418   1.077   2.875  17.056 -2.4389 -0.2969 -2.3464
 2986SOL     OW20419   3.877   0.752   4.743  0.5368 -0.3836 -0.4064
 2986SOL    HW120420   3.832   0.805   4.808  0.5839 -0.0847 -0.6197
 2986SOL    HW220421   3.813   0.765   4.673 -0.7203 -2.0718  0.4173
 2987SOL     OW20422   2.879   0.683  14.259  0.3482 -0.3398 -0.4470
 2987SOL    HW120423   2.789   0.707  14.234  0.3961  1.7797  1.4616
 2987SOL    HW220424   2.932   0.718  14.187  1.1736  0.2911  0.4810
 2988SOL     OW20425   4.721   4.092   6.510  0.0154  0.3640  0.3283
 2988SOL    HW120426   4.654   4.082   6.577 -0.2256 -0.5145 -0.0421
 2988SOL    HW220427   4.677   4.069   6.428 -1.4549  2.8868  0.4245
 2989SOL     OW20428   0.320   3.086   6.993 -0.1432  0.1043 -0.5870
 2989SOL    HW120429   0.349   3.176   6.975  3.8081 -0.9358  0.3751
 2989SOL    HW220430   0.403   3.038   6.991  0.5136  1.2429 -0.7971
 2990SOL     OW20431   2.078   2.914   5.297  0.1916 -0.1621 -1.0801
 2990SOL    HW120432   2.052   3.000   5.264  0.3712  1.0115  1.8344
 2990SOL    HW220433   2.044   2.859   5.227 -1.4270 -0.3719 -0.1377
 2991SOL     OW20434   4.594   4.650   7.193  0.5156  0.7212  0.0770
 2991SOL    HW120435   4.606   4.682   7.104 -0.4021 -0.2585 -0.3936
 2991SOL    HW220436   4.572   4.559   7.174 -0.5714  1.3264 -1.4496
 2992SOL     OW20437   3.687   2.407   1.810 -0.3900 -0.3095  0.1159
 2992SOL    HW120438   3.627   2.441   1.876 -1.1148 -1.0853 -0.1338
 2992SOL    HW220439   3.641   2.329   1.779  0.1988 -0.6592  0.1230
 2993SOL     OW20440   0.811   4.120   9.481 -0.3415 -0.5651 -0.0420
 2993SOL    HW120441   0.896   4.084   9.456  0.5432  2.4046 -1.3201
 2993SOL    HW220442   0.757   4.051   9.442 -1.4798  0.9968 -1.2209
 2994SOL     OW20443   4.426   1.860   3.996 -0.1674 -0.1588  0.4037
 2994SOL    HW120444   4.443   1.781   3.945 -1.5946 -0.7683  0.8840
 2994SOL    HW220445   4.334   1.855   4.021 -0.3308  1.1242  0.0160
 2995SOL     OW20446   0.039   3.393   5.909  0.2769  0.3780  0.0132
 2995SOL    HW120447   0.051   3.430   5.821  0.6784 -1.6099 -0.7627
 2995SOL    HW220448   4.677   3.425   5.935  0.0399  0.0858 -0.4206
 2996SOL     OW20449   0.079   3.134   2.650 -0.5343  0.2323 -0.2868
 2996SOL    HW120450   0.079   3.039   2.640  2.7846  0.0365  1.5482
 2996SOL    HW220451   0.162   3.158   2.609  0.3883 -0.7977  0.9776
 2997SOL     OW20452   2.443   3.411   1.575 -0.1661  0.2987  0.6024
 2997SOL    HW120453   2.527   3.452   1.594  0.2591 -0.3283  0.0932
 2997SOL    HW220454   2.481   3.334   1.533  1.9747  0.9466  1.3417
 2998SOL     OW20455   4.448   3.154   7.582 -0.1789 -0.3985  0.2142
 2998SOL    HW120456   4.414   3.101   7.509  1.1144  1.6498 -1.8626
 2998SOL    HW220457   4.417   3.104   7.657 -0.0694 -2.5421 -1.1622
 2999SOL     OW20458   1.950   2.018   5.544  0.2127  0.9834 -0.7166
 2999SOL    HW120459   2.015   2.001   5.612 -0.8838 -0.7769 -0.1241
 2999SOL    HW220460   1.868   2.015   5.593 -0.0183 -0.2658 -1.1802
 3000SOL     OW20461   0.257   3.430   3.761  0.2974  0.0539  0.1225
 3000SOL    HW120462   0.308   3.493   3.813  0.4975  1.7206 -2.1047
 3000SOL    HW220463   0.175   3.479   3.762 -0.4697 -1.2232 -3.2580
 3001SOL     OW20464   3.216   1.563  15.045  0.1089 -0.1659  0.2368
 3001SOL    HW120465   3.127   1.592  15.026 -0.5666 -3.2858 -1.4041
 3001SOL    HW220466   3.275   1.635  15.024  1.1997 -0.8221  1.0691
 3002SOL     OW20467   2.329   3.365  16.382 -0.5128 -0.3988  0.2706
 3002SOL    HW120468   2.397   3.328  16.325  1.2095  0.4048  1.8179
 3002SOL    HW220469   2.265   3.381  16.312 -1.8913 -0.7061  1.4817
 3003SOL     OW20470   4.417   3.227  14.825  0.4788  0.2816  0.4295
 3003SOL    HW120471   4.419   3.269  14.911 -2.6463 -0.7115  0.9982
 3003SOL    HW220472   4.499   3.181  14.813  1.3233  1.9595 -0.2210
 3004SOL     OW20473   3.410   2.192   4.080  0.4223  0.3473 -0.4734
 3004SOL    HW120474   3.499   2.227   4.092  0.8587 -1.0671  0.3486
 3004SOL    HW220475   3.430   2.112   4.031 -1.0253  0.6698 -1.5754
 3005SOL     OW20476   2.728   1.251   9.059 -0.0484 -0.8264 -0.0209
 3005SOL    HW120477   2.674   1.177   9.031  0.5597 -2.0858  2.1281
 3005SOL    HW220478   2.662   1.309   9.096 -0.0752  0.9255 -2.8110
 3006SOL     OW20479   1.298   3.485   3.801 -0.2566  0.5531 -0.0287
 3006SOL    HW120480   1.233   3.535   3.851 -1.4200  0.0899 -1.0718
 3006SOL    HW220481   1.319   3.541   3.726 -0.2873 -0.5501 -0.8547
 3007SOL     OW20482   0.159   2.568   2.068  0.4394 -0.2683 -0.2267
 3007SOL    HW120483   0.198   2.626   2.133 -0.8480 -0.2681  0.5615
 3007SOL    HW220484   0.140   2.629   1.997 -1.7219  1.2452  1.6376
 3008SOL     OW20485   3.451   3.284   6.340  0.0561  0.0933  0.2166
 3008SOL    HW120486   3.380   3.348   6.345 -0.5330 -0.5977  0.8509
 3008SOL    HW220487   3.427   3.239   6.259 -0.1836 -0.9882  0.8806
 3009SOL     OW20488   1.955   4.711  15.464 -0.2347  0.4887  0.0249
 3009SOL    HW120489   1.960   0.083  15.462  1.5176  0.4044  1.0709
 3009SOL    HW220490   2.003   4.690  15.383  0.4066 -4.3403  1.6826
 3010SOL     OW20491   2.857   2.840   1.431  0.0642 -0.2885  0.5202
 3010SOL    HW120492   2.846   2.918   1.376  1.2072  0.1153  0.8487
 3010SOL    HW220493   2.879   2.769   1.371  1.5888  0.6932 -0.0811
 3011SOL     OW20494   1.629   3.602   7.622 -0.1576  0.6569  0.4796
 3011SOL    HW120495   1.574   3.557   7.686 -0.5754  0.9340  0.3091
 3011SOL    HW220496   1.646   3.529   7.563 -0.7590  0.6564  0.3157
 3012SOL     OW20497   0.288   3.043   5.117  0.5535 -0.1193  0.7617
 3012SOL    HW120498   0.234   2.989   5.175 -1.5798 -0.2145 -1.3171
 3012SOL    HW220499   0.249   3.022   5.032  2.3187 -0.4700  0.0483
 3013SOL     OW20500   3.591   1.966   6.591  0.1380 -0.1796  0.2450
 3013SOL    HW120501   3.535   1.999   6.661 -1.4288 -0.2260 -0.9786
 3013SOL    HW220502   3.596   1.874   6.616 -2.2895  0.0055  1.3394
 3014SOL     OW20503   4.435   3.850   8.206 -0.1388 -0.2929 -0.3124
 3014SOL    HW120504   4.451   3.787   8.277  2.2357  2.1530  1.3317
 3014SOL    HW220505   4.471   3.796   8.135  0.5916  0.6703 -0.6676
 3015SOL     OW20506   4.520   4.254   3.246  0.1509  0.1096  0.0869
 3015SOL    HW120507   4.441   4.213   3.282  0.6684  0.6776  1.8389
 3015SOL    HW220508   4.485   4.323   3.190 -2.1861  0.0754  1.4998
 3016SOL     OW20509   2.295   1.183   3.729 -0.2217  0.1284  0.0968
 3016SOL    HW120510   2.263   1.097   3.700 -0.8897  1.1159 -2.0890
 3016SOL    HW220511   2.346   1.211   3.654 -3.1372  2.0403 -1.2001
 3017SOL     OW20512   2.861   3.397  11.409 -0.6411 -0.2117  0.2448
 3017SOL    HW120513   2.901   3.407  11.495 -1.7860  2.3268  0.5057
 3017SOL    HW220514   2.924   3.337  11.371 -0.6778  0.7604 -1.3653
 3018SOL     OW20515   3.489   2.397   9.609 -0.5679 -0.5075  0.1016
 3018SOL    HW120516   3.490   2.403   9.514  2.3559  0.6882  0.2189
 3018SOL    HW220517   3.455   2.484   9.632 -0.7925 -1.3284  2.8758
 3019SOL     OW20518   4.166   3.764  10.456 -0.8855  0.1389 -0.5310
 3019SOL    HW120519   4.080   3.725  10.472 -0.5422 -0.8206 -1.0154
 3019SOL    HW220520   4.207   3.761  10.543 -1.4667 -0.7200 -0.2892
 3020SOL     OW20521   4.259   2.143   8.561 -0.0454  0.0527  0.3621
 3020SOL    HW120522   4.177   2.101   8.584 -1.1210  2.3481  0.6531
 3020SOL    HW220523   4.322   2.107   8.624 -0.7814 -1.4420  0.2453
 3021SOL     OW20524   3.907   3.350   1.667  0.2980  0.1616  0.0118
 3021SOL    HW120525   3.991   3.395   1.675  0.8686 -1.2680  2.1074
 3021SOL    HW220526   3.863   3.433   1.683  2.0598  1.4082 -1.5976
 3022SOL     OW20527   0.200   3.687   8.793  0.0472 -0.1486 -0.3933
 3022SOL    HW120528   0.266   3.677   8.724  0.2847 -1.2383 -0.0124
 3022SOL    HW220529   0.219   3.627   8.865  1.0071  1.4573  0.7040
 3023SOL     OW20530   0.855   1.555   6.149  0.7535 -0.3642 -0.1049
 3023SOL    HW120531   0.820   1.642   6.129 -2.5508 -1.6812 -0.0176
 3023SOL    HW220532   0.869   1.518   6.061 -1.7259  0.3960 -0.8057
 3024SOL     OW20533   1.125   0.038   1.208  0.2246  0.8869  0.2013
 3024SOL    HW120534   1.164   4.719   1.284 -0.9216 -1.5612 -0.5903
 3024SOL    HW220535   1.078   0.112   1.247 -0.9229 -0.6835  1.8418
 3025SOL     OW20536   3.828   3.816  17.412 -0.0853 -0.0236 -0.2505
 3025SOL    HW120537   3.897   3.864  17.457 -0.5864  0.0015  0.5025
 3025SOL    HW220538   3.835   3.835  17.319 -1.0168 -0.9715 -0.5105
 3026SOL     OW20539   2.047   0.619   5.835  0.2653 -0.3458  0.4257
 3026SOL    HW120540   2.096   0.541   5.810 -0.5400 -0.9970  0.8520
 3026SOL    HW220541   2.064   0.635   5.928 -1.6730 -0.5085  0.8121
 3027SOL     OW20542   3.728   0.634   5.541  0.4044  0.6616 -0.2371
 3027SOL    HW120543   3.722   0.569   5.471 -0.7886  0.3323  0.1693
 3027SOL    HW220544   3.665   0.699   5.509  1.9987  1.8152 -0.9971
 3028SOL     OW20545   1.946   0.330   3.807 -0.6736  0.4547 -0.2618
 3028SOL    HW120546   1.856   0.320   3.779  0.1117 -3.8604 -1.1841
 3028SOL    HW220547   1.986   0.359   3.725  0.6073  0.3841  0.3270
 3029SOL     OW20548   1.338   1.281  15.407 -0.1330 -0.6082  0.2734
 3029SOL    HW120549   1.394   1.300  15.331 -0.4531  0.1460  0.2212
 3029SOL    HW220550   1.250   1.290  15.370 -0.1808  0.9541  0.7489
 3030SOL     OW20551   3.050   2.748   7.108 -0.4385  0.7972 -0.0690
 3030SOL    HW120552   2.964   2.789   7.118 -0.8034  0.2546 -0.9550
 3030SOL    HW220553   3.097   2.821   7.066 -0.3787  0.0842 -1.2576
 3031SOL     OW20554   2.254   1.461  12.191 -0.0811 -0.1021 -0.0935
 3031SOL    HW120555   2.297   1.440  12.273  3.5243  0.7663 -1.7944
 3031SOL    HW220556   2.174   1.410  12.208 -0.3431  0.6078  0.8044
 3032SOL     OW20557   3.905   2.089   4.367 -0.9952  0.8584 -0.0960
 3032SOL    HW120558   3.970   2.148   4.329  0.3088 -0.4938  0.0736
 3032SOL    HW220559   3.873   2.053   4.284 -0.6891  1.5580 -0.5195
 3033SOL     OW20560   1.241   3.434   9.758  0.3538  0.0790  0.2748
 3033SOL    HW120561   1.204   3.509   9.712 -1.9360 -2.4661 -2.0894
 3033SOL    HW220562   1.332   3.463   9.762  0.0948  1.2793 -2.3199
 3034SOL     OW20563   2.096   0.920   4.279  0.0828  0.2230 -0.2310
 3034SOL    HW120564   2.113   0.949   4.190 -0.6700  0.2617 -0.3673
 3034SOL    HW220565   2.165   0.972   4.320 -0.9423  2.0596 -0.8252
 3035SOL     OW20566   4.006   2.613   2.837 -0.0150 -0.6235 -0.5439
 3035SOL    HW120567   4.079   2.565   2.798  0.9218  1.5214 -1.3908
 3035SOL    HW220568   3.983   2.548   2.904 -1.2111 -0.7957 -1.1121
 3036SOL     OW20569   1.495   0.096   9.953  0.3109  0.4020 -0.0966
 3036SOL    HW120570   1.546   0.033   9.902 -0.9691 -2.0740  1.6444
 3036SOL    HW220571   1.538   0.088  10.038  0.1596  1.6809  0.0985
 3037SOL     OW20572   0.031   4.362  15.487 -0.7543 -0.0365  0.3973
 3037SOL    HW120573   4.681   4.413  15.454 -0.5036  1.8252  2.7335
 3037SOL    HW220574   0.031   4.295  15.418 -2.2266 -0.4783  0.8123
 3038SOL     OW20575   1.206   4.385   1.053  0.1649 -0.8210 -0.1424
 3038SOL    HW120576   1.173   4.303   1.017  0.3279 -1.2877  0.7698
 3038SOL    HW220577   1.182   4.449   0.986  3.0627  1.5858  1.0797
 3039SOL     OW20578   0.413   1.633   5.627  0.3100 -0.2904 -0.0672
 3039SOL    HW120579   0.335   1.629   5.683 -0.1704  1.1973 -0.6215
 3039SOL    HW220580   0.377   1.689   5.557  2.6481 -0.0147 -1.0595
 3040SOL     OW20581   4.445   0.363  15.246 -0.7456 -0.5411 -0.4628
 3040SOL    HW120582   4.488   0.434  15.295 -0.3078 -0.0409 -1.5814
 3040SOL    HW220583   4.434   0.412  15.165 -0.8235  3.5319  1.9685
 3041SOL     OW20584   4.233   1.207   3.283  0.4153  0.1585 -0.0528
 3041SOL    HW120585   4.145   1.244   3.285  0.1993 -0.2274 -2.4543
 3041SOL    HW220586   4.215   1.117   3.256 -0.4393  0.6586 -1.1537
 3042SOL     OW20587   0.802   1.904   5.853 -0.4078 -0.0133 -0.4759
 3042SOL    HW120588   0.810   1.846   5.928  0.5571 -0.0424 -0.6112
 3042SOL    HW220589   0.731   1.857   5.807  0.1956  0.2099 -1.6485
 3043SOL     OW20590   0.267   4.327   4.817  0.8079  0.1069  0.1627
 3043SOL    HW120591   0.262   4.274   4.897 -2.1552  2.4954  1.5629
 3043SOL    HW220592   0.362   4.344   4.816  0.6920  0.6366 -1.7478
 3044SOL     OW20593   1.510   1.098   2.815 -0.5467 -0.6569  0.7977
 3044SOL    HW120594   1.542   1.182   2.783 -1.8169 -0.7939 -0.8343
 3044SOL    HW220595   1.428   1.122   2.858 -0.8283  1.3717 -0.8588
 3045SOL     OW20596   4.386   1.454  14.122 -0.3265 -0.5010 -0.2402
 3045SOL    HW120597   4.391   1.373  14.173  0.5198 -1.6313 -2.1050
 3045SOL    HW220598   4.353   1.516  14.186 -5.4354 -2.5813 -0.9087
 3046SOL     OW20599   2.850   3.675   0.104 -0.0550 -0.4987  0.0396
 3046SOL    HW120600   2.840   3.764   0.137  0.9557 -0.5839  0.5706
 3046SOL    HW220601   2.942   3.650   0.113 -0.6845 -1.8849  2.6992
 3047SOL     OW20602   0.047   2.488   7.928  0.5162  0.0593  0.0554
 3047SOL    HW120603   0.084   2.404   7.953 -0.4820 -0.0341  1.2248
 3047SOL    HW220604   0.067   2.493   7.834  1.2980 -0.4062  0.2012
 3048SOL     OW20605   2.192   1.842  16.300 -0.2237  0.1326  0.2625
 3048SOL    HW120606   2.241   1.763  16.276  1.1374  1.0737 -0.0834
 3048SOL    HW220607   2.151   1.861  16.216 -0.2607  0.4255  0.3492
 3049SOL     OW20608   1.412   4.460   9.087  0.3021  0.0796 -0.3342
 3049SOL    HW120609   1.506   4.472   9.105 -0.0806  0.1593  1.5701
 3049SOL    HW220610   1.418   4.365   9.078 -0.1631  0.0500 -0.3110
 3050SOL     OW20611   4.110   0.137   7.544 -0.0759  0.1025 -0.1738
 3050SOL    HW120612   4.063   0.113   7.624 -0.5519 -0.0461 -0.5011
 3050SOL    HW220613   4.055   0.207   7.509  1.8974  1.8324  0.1787
 3051SOL     OW20614   1.697   0.322  17.264  0.4945 -0.3729 -0.2154
 3051SOL    HW120615   1.772   0.265  17.281 -0.5007 -1.7480 -0.4255
 3051SOL    HW220616   1.664   0.342  17.351 -1.2271 -0.4255 -0.8519
 3052SOL     OW20617   0.574   3.047  16.687 -0.5457  0.3919  0.0313
 3052SOL    HW120618   0.584   3.130  16.639 -0.4039  0.5250  0.2924
 3052SOL    HW220619   0.505   3.062  16.751  1.6250  0.1619  2.4433
 3053SOL     OW20620   3.372   0.848  13.098 -0.2202  0.1544  0.3308
 3053SOL    HW120621   3.382   0.753  13.088 -1.5403 -0.0165  0.5344
 3053SOL    HW220622   3.359   0.846  13.192 -0.9231  0.8916  0.2438
 3054SOL     OW20623   4.709   3.045   3.936  0.5092 -0.0383  0.5502
 3054SOL    HW120624   0.075   3.034   3.905  0.1190 -1.5407 -0.0333
 3054SOL    HW220625   4.714   3.014   4.026  2.7775  0.8908  0.7390
 3055SOL     OW20626   1.619   1.429  11.005  0.0722 -0.6195  0.0560
 3055SOL    HW120627   1.589   1.503  10.952  3.4504  1.3080  0.8144
 3055SOL    HW220628   1.661   1.374  10.938 -0.4205  0.0666 -0.8203
 3056SOL     OW20629   2.598   0.852   2.934 -0.3094 -0.7193  0.4920
 3056SOL    HW120630   2.644   0.909   2.873  0.8831 -0.8509  1.2631
 3056SOL    HW220631   2.539   0.799   2.881  1.4186 -2.0164 -0.1187
 3057SOL     OW20632   1.572   1.219   5.240  0.2361  0.1422 -0.1906
 3057SOL    HW120633   1.495   1.207   5.295 -0.7128 -1.7108 -1.9398
 3057SOL    HW220634   1.595   1.126   5.235  0.8261  0.3476 -1.3803
 3058SOL     OW20635   1.231   1.708   2.539 -0.0470  0.8737 -0.6553
 3058SOL    HW120636   1.208   1.627   2.494  0.4116 -0.0204  0.7319
 3058SOL    HW220637   1.221   1.772   2.468  0.0086  1.1194 -0.4401
 3059SOL     OW20638   1.828   1.514   3.372 -0.0139 -0.4672 -0.0268
 3059SOL    HW120639   1.835   1.449   3.302 -0.2632  0.1697 -0.6381
 3059SOL    HW220640   1.919   1.532   3.396 -0.2354 -0.1602  0.5872
 3060SOL     OW20641   0.644   4.509   9.157 -0.5094  0.1312  0.1448
 3060SOL    HW120642   0.596   4.547   9.083  0.0713 -2.2022 -1.4480
 3060SOL    HW220643   0.713   4.574   9.168 -1.4553  1.3813 -1.3127
 3061SOL     OW20644   4.600   0.551  13.756  0.0893  0.4143  0.3371
 3061SOL    HW120645   4.528   0.608  13.729 -0.3856 -0.2316  0.2511
 3061SOL    HW220646   4.604   0.488  13.685 -0.6367  1.1569 -0.3579
 3062SOL     OW20647   3.647   2.234  16.130 -0.0105 -0.2663  0.0032
 3062SOL    HW120648   3.554   2.255  16.138 -0.3881 -1.4598 -1.1556
 3062SOL    HW220649   3.678   2.322  16.150 -0.8988 -0.1817  0.9849
 3063SOL     OW20650   2.751   3.958   7.366  0.4484  0.0868  0.4533
 3063SOL    HW120651   2.792   3.918   7.290  1.4050  1.6953  0.1299
 3063SOL    HW220652   2.749   4.052   7.353  0.6555  0.1568  0.9058
 3064SOL     OW20653   2.904   2.049  10.239 -0.3031  0.1476 -0.1311
 3064SOL    HW120654   2.956   2.093  10.306  0.7171 -1.3840  0.0744
 3064SOL    HW220655   2.971   1.987  10.212 -0.0904  1.1194 -1.8116
 3065SOL     OW20656   1.726   3.104   5.663 -0.2337 -0.1810  0.0173
 3065SOL    HW120657   1.816   3.084   5.635 -0.4651 -2.0415  0.6053
 3065SOL    HW220658   1.710   3.186   5.617  1.5455  0.0096 -0.2863
 3066SOL     OW20659   1.948   1.468   7.198  0.2809 -0.5142  0.4436
 3066SOL    HW120660   1.921   1.377   7.196 -2.1566  0.2490 -1.2593
 3066SOL    HW220661   1.887   1.509   7.259 -1.0486 -1.9010  0.0296
 3067SOL     OW20662   1.902   2.461  15.193 -0.1662 -0.3968 -0.6173
 3067SOL    HW120663   1.913   2.372  15.160 -0.9083 -0.4050 -0.8325
 3067SOL    HW220664   1.990   2.499  15.190  0.4558 -1.7748  0.3903
 3068SOL     OW20665   4.560   2.436   8.498 -0.8630 -0.0396  0.1394
 3068SOL    HW120666   4.620   2.504   8.529 -0.6610 -1.0942  2.0932
 3068SOL    HW220667   4.478   2.478   8.524 -1.4270 -1.1706  0.2077
 3069SOL     OW20668   2.634   4.698  15.893  0.0437 -0.1822 -0.1294
 3069SOL    HW120669   2.667   0.048  15.842 -0.4748 -0.6555 -1.1459
 3069SOL    HW220670   2.553   4.682  15.847 -0.2753 -1.9188  1.0536
 3070SOL     OW20671   3.352   1.463   6.590 -0.2810 -0.0206  0.4123
 3070SOL    HW120672   3.287   1.533   6.593  0.1533  0.3599  0.9080
 3070SOL    HW220673   3.331   1.404   6.663  0.3434 -1.1206 -0.2967
 3071SOL     OW20674   0.265   0.886  10.210  0.6945  0.0996  0.2817
 3071SOL    HW120675   0.324   0.951  10.247  2.3468 -1.3210  0.1447
 3071SOL    HW220676   0.339   0.825  10.204  0.1548 -0.5792  0.5331
 3072SOL     OW20677   0.851   2.086  16.726  0.1172 -0.2412 -0.2331
 3072SOL    HW120678   0.934   2.133  16.735  0.5707 -1.3243  1.0987
 3072SOL    HW220679   0.797   2.163  16.744 -0.8938 -0.7332 -1.1101
 3073SOL     OW20680   3.632   2.173  13.371 -0.1053  0.3284 -0.0135
 3073SOL    HW120681   3.723   2.194  13.392 -0.0705  0.3709 -0.2058
 3073SOL    HW220682   3.640   2.078  13.374  0.0543  0.4010  1.8020
 3074SOL     OW20683   1.214   4.573   5.166  0.0441 -0.1559 -0.4440
 3074SOL    HW120684   1.244   4.492   5.125  0.5213 -0.4000  0.3896
 3074SOL    HW220685   1.208   4.631   5.090 -2.1406 -0.3599 -0.4298
 3075SOL     OW20686   2.466   2.565   5.830  0.2713  0.9308 -0.4378
 3075SOL    HW120687   2.402   2.544   5.762 -0.8663 -1.1408  1.2819
 3075SOL    HW220688   2.545   2.554   5.777  0.3766 -3.7589  0.7011
 3076SOL     OW20689   2.167   3.550   7.734  0.3044  0.6724 -0.2082
 3076SOL    HW120690   2.222   3.574   7.808 -0.3050  0.7073  0.2368
 3076SOL    HW220691   2.093   3.610   7.746 -1.3635 -1.6296  1.1150
 3077SOL     OW20692   1.287   3.171   3.169  0.3459  0.3156  0.0482
 3077SOL    HW120693   1.219   3.211   3.224  1.6935  2.0617  0.4567
 3077SOL    HW220694   1.230   3.141   3.099 -0.0763  0.0228  0.5205
 3078SOL     OW20695   3.305   3.842   5.159  0.2795  0.2195  0.3667
 3078SOL    HW120696   3.277   3.899   5.230  0.7754  0.4294  0.3912
 3078SOL    HW220697   3.232   3.864   5.101  0.6874  1.9932  0.5383
 3079SOL     OW20698   2.657   1.437   3.957 -0.1136 -0.4240  0.1735
 3079SOL    HW120699   2.642   1.387   3.877  2.1312 -0.0874 -0.4616
 3079SOL    HW220700   2.728   1.389   4.001  0.9608 -0.7251 -1.8670
 3080SOL     OW20701   2.042   3.629   1.409  0.5007  0.1170 -0.3266
 3080SOL    HW120702   2.019   3.706   1.356 -1.2904  1.5057  2.4745
 3080SOL    HW220703   2.082   3.675   1.483  1.5075 -1.6642  0.2197
 3081SOL     OW20704   0.813   0.177   4.616 -0.4035  0.2736  0.1130
 3081SOL    HW120705   0.771   0.251   4.573 -1.9055 -1.1863 -0.9364
 3081SOL    HW220706   0.828   0.119   4.541  0.0071 -0.5784  0.8477
 3082SOL     OW20707   1.345   1.674   9.036  0.1342  0.3881 -0.0384
 3082SOL    HW120708   1.422   1.621   9.017 -0.8215 -0.8238 -0.4831
 3082SOL    HW220709   1.295   1.610   9.087 -1.2758  0.5984 -1.1438
 3083SOL     OW20710   0.723   4.521   2.044  0.4771 -0.4252  0.3335
 3083SOL    HW120711   0.750   4.472   1.966  0.0046 -0.1419 -0.0088
 3083SOL    HW220712   0.758   4.467   2.114  1.1561 -0.7252 -0.2396
 3084SOL     OW20713   2.939   2.603   2.687  0.0921 -0.0551  0.0311
 3084SOL    HW120714   2.978   2.526   2.645  0.5691  0.0826  0.2185
 3084SOL    HW220715   2.998   2.672   2.655  2.3761 -1.4771  1.1340
 3085SOL     OW20716   0.771   2.913   5.254 -0.3533  0.1617 -0.6298
 3085SOL    HW120717   0.759   2.875   5.341 -3.0727  1.1999 -0.5636
 3085SOL    HW220718   0.682   2.906   5.220 -0.3914  2.8760 -1.1049
 3086SOL     OW20719   3.509   3.425   5.057 -0.0750  0.2709  0.4695
 3086SOL    HW120720   3.462   3.487   5.112  0.5610 -1.0195  2.4582
 3086SOL    HW220721   3.482   3.450   4.969  1.6608 -0.0621 -0.1670
 3087SOL     OW20722   2.994   0.339  16.286  0.4180 -0.5204 -0.0032
 3087SOL    HW120723   3.081   0.320  16.252  0.3270 -0.4573 -0.2684
 3087SOL    HW220724   2.948   0.304  16.210  0.7066  2.0257 -1.3671
 3088SOL     OW20725   0.637   3.564   5.129  0.3307  0.3610 -0.4955
 3088SOL    HW120726   0.579   3.550   5.204 -0.0133  0.4349 -0.7525
 3088SOL    HW220727   0.608   3.499   5.065 -1.3052  1.1386 -0.5398
 3089SOL     OW20728   0.607   0.991   2.064 -0.0880 -0.8439 -0.5668
 3089SOL    HW120729   0.635   1.067   2.014  0.1493  0.2733  1.2467
 3089SOL    HW220730   0.529   0.957   2.020  0.1938 -0.2961 -1.4946
 3090SOL     OW20731   4.698   0.278  13.123  0.1618 -0.4732  0.7128
 3090SOL    HW120732   0.052   0.332  13.134  0.2450 -0.0309 -2.0261
 3090SOL    HW220733   4.637   0.350  13.112  0.6848 -0.2440 -0.6974
 3091SOL     OW20734   1.392   2.382   9.764 -0.3458  0.1517 -0.6081
 3091SOL    HW120735   1.299   2.401   9.752 -0.3212  1.3060  0.9727
 3091SOL    HW220736   1.398   2.342   9.851  1.4835 -0.9986 -1.2587
 3092SOL     OW20737   0.054   2.876   5.135 -0.6996  0.4531 -0.0420
 3092SOL    HW120738   0.072   2.865   5.041 -1.1550  0.1675 -0.0941
 3092SOL    HW220739   0.010   2.796   5.162 -1.0851  0.5189 -0.4633
 3093SOL     OW20740   0.711   1.365  15.262 -0.6782 -0.0784 -0.2640
 3093SOL    HW120741   0.743   1.327  15.344  0.7078  0.1725 -0.6968
 3093SOL    HW220742   0.771   1.439  15.256 -0.3030 -0.2539  1.1383
 3094SOL     OW20743   3.572   1.646   3.085  0.0674 -0.4127 -0.1288
 3094SOL    HW120744   3.487   1.683   3.062 -1.3959 -2.7646  1.4789
 3094SOL    HW220745   3.548   1.574   3.144  0.7821 -0.7567 -0.2540
 3095SOL     OW20746   4.634   0.157   0.674 -0.4895 -0.3119  0.2022
 3095SOL    HW120747   4.543   0.139   0.651 -1.0638  1.8361  0.7572
 3095SOL    HW220748   4.664   0.066   0.672 -0.6108 -0.3805  1.2530
 3096SOL     OW20749   4.326   3.098   8.232  0.4742  0.1852  0.0174
 3096SOL    HW120750   4.296   3.059   8.314  0.1221  2.2805  0.8791
 3096SOL    HW220751   4.248   3.152   8.218  0.3904 -0.1393 -0.7843
 3097SOL     OW20752   2.236   3.608  15.191  0.1432 -0.1241 -0.4350
 3097SOL    HW120753   2.260   3.565  15.110  0.8213  1.1609 -0.9121
 3097SOL    HW220754   2.169   3.544  15.215 -0.1804  0.9029  1.4492
 3098SOL     OW20755   0.075   4.450  11.521 -0.1107  0.5346 -0.0746
 3098SOL    HW120756   0.107   4.365  11.552 -2.6199 -0.1993  0.4724
 3098SOL    HW220757   4.720   4.456  11.574 -0.3512  1.7357 -0.5718
 3099SOL     OW20758   4.046   1.431  14.387 -0.7230 -0.2378  0.2233
 3099SOL    HW120759   4.139   1.424  14.412 -0.3445 -0.4142 -1.2474
 3099SOL    HW220760   4.009   1.431  14.475  0.2644  0.6851  0.6428
 3100SOL     OW20761   0.569   0.608  12.357  0.2169  0.0906 -0.2802
 3100SOL    HW120762   0.545   0.516  12.369  1.4391 -0.4423 -1.9348
 3100SOL    HW220763   0.498   0.640  12.301 -0.2516 -0.1048  0.2033
 3101SOL     OW20764   2.531   1.764   7.526 -0.1259  0.2353 -0.4206
 3101SOL    HW120765   2.440   1.768   7.556  0.0964 -2.3354  0.5800
 3101SOL    HW220766   2.533   1.716   7.443 -1.2731  0.5160 -0.6168
 3102SOL     OW20767   4.160   0.849   6.129 -0.0853 -0.0395 -0.1137
 3102SOL    HW120768   4.218   0.781   6.096  0.3266 -0.7460  2.0252
 3102SOL    HW220769   4.211   0.903   6.189  1.2768 -0.9266 -0.4828
 3103SOL     OW20770   0.415   1.199  11.949  0.2906 -0.3705 -0.0060
 3103SOL    HW120771   0.386   1.235  12.033 -2.0481  0.0705 -1.0181
 3103SOL    HW220772   0.464   1.123  11.979  1.0147 -0.0115 -0.2557
 3104SOL     OW20773   0.028   2.289  14.823  0.1748 -0.0083 -0.4907
 3104SOL    HW120774   4.722   2.325  14.739 -0.3537 -0.0997 -0.3377
 3104SOL    HW220775   4.704   2.330  14.895  0.0056 -4.9793  2.2024
 3105SOL     OW20776   4.048   1.418   7.361  0.2075  0.6731  0.0480
 3105SOL    HW120777   4.124   1.473   7.377 -0.6575  1.2207  2.3342
 3105SOL    HW220778   4.009   1.460   7.284  0.0346  2.4273  1.0965
 3106SOL     OW20779   2.318   3.169   5.434  0.3508  0.1530 -0.5934
 3106SOL    HW120780   2.330   3.124   5.351 -0.1355  2.2476 -1.8126
 3106SOL    HW220781   2.223   3.173   5.433  0.2917 -0.9354  1.6897
 3107SOL     OW20782   3.498   3.538   4.473 -0.3343 -0.5090  0.3825
 3107SOL    HW120783   3.477   3.629   4.450 -0.4935 -0.4488  0.7681
 3107SOL    HW220784   3.429   3.491   4.426 -1.6234  3.7747 -2.0438
 3108SOL     OW20785   2.156   1.391  10.545 -0.2641 -0.6649 -0.1223
 3108SOL    HW120786   2.220   1.403  10.615 -1.6363  0.9044  0.8702
 3108SOL    HW220787   2.195   1.439  10.472 -0.9038 -1.0363 -0.7061
 3109SOL     OW20788   4.637   1.534   2.833 -0.0838  0.8375 -0.2274
 3109SOL    HW120789   0.006   1.550   2.818  0.1558  1.0934  1.5915
 3109SOL    HW220790   4.620   1.472   2.762  0.9916 -0.3481  0.5673
 3110SOL     OW20791   3.425   0.337   3.156 -0.0589  0.3387 -0.2876
 3110SOL    HW120792   3.400   0.409   3.213 -0.7924  0.3366 -0.6044
 3110SOL    HW220793   3.438   0.379   3.071 -0.2936  2.7797  0.8929
 3111SOL     OW20794   3.964   4.490   7.215  0.6868  0.2017  0.3391
 3111SOL    HW120795   3.999   4.573   7.182  1.0838  0.5095  1.5306
 3111SOL    HW220796   3.902   4.468   7.145  0.5696 -2.3506  1.2278
 3112SOL     OW20797   3.826   3.086   7.541  0.0279  0.8187 -0.2362
 3112SOL    HW120798   3.762   3.113   7.606  0.9974  0.9123  0.6898
 3112SOL    HW220799   3.794   2.997   7.522 -3.3464  1.4119  2.7493
 3113SOL     OW20800   4.673   0.381   2.375 -0.6723 -0.8838 -0.3256
 3113SOL    HW120801   4.704   0.456   2.426 -1.2320 -1.2285  0.5206
 3113SOL    HW220802   4.641   0.417   2.292 -0.4255 -1.9555 -0.8843
 3114SOL     OW20803   2.369   2.747   2.168  0.4845 -0.0773  0.0641
 3114SOL    HW120804   2.315   2.808   2.219  1.3339  0.0204  0.8361
 3114SOL    HW220805   2.297   2.691   2.139  0.5735 -0.9775  1.5962
 3115SOL     OW20806   1.544   2.703  14.891 -0.0979  0.2060  0.1990
 3115SOL    HW120807   1.629   2.661  14.904  0.5099  2.0330  2.1846
 3115SOL    HW220808   1.502   2.619  14.872 -0.0298  0.0090  0.8973
 3116SOL     OW20809   2.588   1.070   5.107 -0.0659  0.1719  0.2984
 3116SOL    HW120810   2.599   0.975   5.110 -0.5706  0.0329 -2.3774
 3116SOL    HW220811   2.612   1.092   5.017  0.6908  2.5143  1.0578
 3117SOL     OW20812   1.045   2.884   6.052 -0.4945  0.0426  0.4249
 3117SOL    HW120813   1.110   2.904   6.119 -1.7643  1.6811  1.1766
 3117SOL    HW220814   1.023   2.793   6.069 -0.7884  0.4108  2.0503
 3118SOL     OW20815   1.744   1.554  14.499 -0.9220 -0.0144 -0.2893
 3118SOL    HW120816   1.702   1.532  14.415  0.3800  2.4893 -1.5730
 3118SOL    HW220817   1.715   1.644  14.514 -1.5387 -0.1890 -0.4289
 3119SOL     OW20818   0.300   1.549   7.966  0.3289 -0.1004  0.1518
 3119SOL    HW120819   0.226   1.552   8.027 -0.6907  1.0054 -1.1557
 3119SOL    HW220820   0.366   1.578   8.029 -1.2297  1.0168  1.2843
 3120SOL     OW20821   3.266   0.215   6.866 -0.1745 -0.0544  0.5810
 3120SOL    HW120822   3.327   0.171   6.925 -0.6854  0.2541  1.3484
 3120SOL    HW220823   3.234   0.289   6.917 -0.3261  0.2376  0.0638
 3121SOL     OW20824   3.420   3.011   3.391  0.1102 -0.0591 -0.5063
 3121SOL    HW120825   3.417   3.010   3.486  0.5844  1.6387 -0.4645
 3121SOL    HW220826   3.445   2.921   3.370  0.9494  0.0797 -0.0941
 3122SOL     OW20827   1.110   4.308   3.367  0.2781 -0.2598  0.5153
 3122SOL    HW120828   1.132   4.375   3.302  0.7757 -1.3291 -0.4189
 3122SOL    HW220829   1.195   4.294   3.410  1.5657 -0.1872 -1.9718
 3123SOL     OW20830   1.369   0.025   1.066  0.6176  0.1623  0.1028
 3123SOL    HW120831   1.376   0.103   1.010 -1.8861  1.1361  1.1833
 3123SOL    HW220832   1.279   0.024   1.097  1.1803 -1.4502  1.6530
 3124SOL     OW20833   1.652   2.617  11.651 -0.1014  0.4555  0.4619
 3124SOL    HW120834   1.614   2.543  11.698 -0.8669  0.5709  0.0248
 3124SOL    HW220835   1.636   2.678  11.723 -2.7816 -0.2211  0.4398
 3125SOL     OW20836   2.530   0.897   8.264 -0.2676 -0.4237 -0.1429
 3125SOL    HW120837   2.587   0.820   8.272 -1.7513 -1.3647  1.3875
 3125SOL    HW220838   2.447   0.856   8.242  0.3052 -2.6034  1.6532
 3126SOL     OW20839   1.879   4.014   8.321  0.2087 -0.0069  0.5833
 3126SOL    HW120840   1.828   4.071   8.379  1.5218 -0.1489  1.8842
 3126SOL    HW220841   1.832   3.931   8.320  3.2725 -1.7121 -1.0421
 3127SOL     OW20842   2.701   2.378  17.015  0.1591 -0.3056 -0.1579
 3127SOL    HW120843   2.689   2.327  17.095  1.7908 -1.5320 -0.7021
 3127SOL    HW220844   2.698   2.468  17.049  1.0390 -0.8291  1.3195
 3128SOL     OW20845   4.637   3.537   3.306 -0.0465 -0.9644  0.2442
 3128SOL    HW120846   4.654   3.624   3.342 -0.4612 -0.5873 -0.4891
 3128SOL    HW220847   4.575   3.556   3.236 -0.2521 -3.6961 -0.3206
 3129SOL     OW20848   1.248   3.475   8.958  0.0686  0.0989 -0.2474
 3129SOL    HW120849   1.173   3.418   8.975 -0.7665 -0.0020 -4.2480
 3129SOL    HW220850   1.318   3.412   8.941  0.1743  0.0087  0.5386
 3130SOL     OW20851   1.135   3.470  17.544  0.2677  0.7170  0.4767
 3130SOL    HW120852   1.125   3.376  17.525 -1.0771  0.9994 -0.1563
 3130SOL    HW220853   1.230   3.477  17.533  0.2186 -0.5704 -0.7848
 3131SOL     OW20854   2.428   4.655  15.195 -0.4161 -0.2297  0.0918
 3131SOL    HW120855   2.514   4.695  15.182 -0.2110 -0.9216 -0.6450
 3131SOL    HW220856   2.398   4.701  15.273  1.2229  1.6394 -0.3778
 3132SOL     OW20857   3.382   4.626   6.834  0.3856 -0.1838  0.3030
 3132SOL    HW120858   3.318   4.604   6.901 -0.1324  1.0485  0.2089
 3132SOL    HW220859   3.439   4.671   6.896  0.0825 -0.1515  0.5577
 3133SOL     OW20860   3.309   0.659   1.925  0.0211 -0.4206 -0.5182
 3133SOL    HW120861   3.328   0.716   1.851  0.0899  0.8298  0.4655
 3133SOL    HW220862   3.380   0.690   1.981  1.9393 -0.9667 -2.6372
 3134SOL     OW20863   1.476   0.106   8.376 -0.4186  0.7547 -0.2893
 3134SOL    HW120864   1.383   0.102   8.398 -0.6001 -1.1389 -1.4164
 3134SOL    HW220865   1.483   0.124   8.282 -0.9396 -1.0236 -0.6611
 3135SOL     OW20866   1.924   3.815   8.909 -0.2292 -0.0346  0.4509
 3135SOL    HW120867   1.876   3.769   8.839 -1.5014  1.7659  0.1452
 3135SOL    HW220868   1.898   3.766   8.987 -0.5245  0.3998  0.6243
 3136SOL     OW20869   1.351   0.129   6.965  0.1391  0.2225  0.1247
 3136SOL    HW120870   1.446   0.140   6.973  0.1206 -0.2731  0.9688
 3136SOL    HW220871   1.324   0.136   6.873 -1.7571 -1.0803  0.5902
 3137SOL     OW20872   0.173   2.400  12.243 -0.5447  0.6864  0.5322
 3137SOL    HW120873   0.144   2.427  12.156  0.4145 -1.8140 -0.5587
 3137SOL    HW220874   0.172   2.480  12.296 -0.3869  0.9582  0.1182
 3138SOL     OW20875   2.153   0.634   1.900 -0.5795 -0.8500  0.6845
 3138SOL    HW120876   2.166   0.546   1.936 -1.2105 -2.0473 -1.9424
 3138SOL    HW220877   2.142   0.682   1.982 -2.3447  0.1858 -0.1439
 3139SOL     OW20878   1.799   0.631   3.718 -0.0656 -0.0262  0.2866
 3139SOL    HW120879   1.710   0.620   3.751  0.2064 -0.6642  0.8092
 3139SOL    HW220880   1.787   0.627   3.623  2.1254  2.5802 -0.1167
 3140SOL     OW20881   2.414   2.600   4.333  0.0747 -0.3341  0.6211
 3140SOL    HW120882   2.348   2.669   4.334 -0.7671 -1.1270  0.1853
 3140SOL    HW220883   2.362   2.523   4.357 -2.1250  1.2767  0.9581
 3141SOL     OW20884   0.266   0.526   3.670 -0.3918  0.0131  0.0792
 3141SOL    HW120885   0.295   0.541   3.580  1.1757  0.6905  0.6984
 3141SOL    HW220886   0.333   0.463   3.697  0.3744  0.2472 -1.2897
 3142SOL     OW20887   1.045   4.260   4.087 -0.5007  0.5993  0.2868
 3142SOL    HW120888   1.020   4.291   4.000  1.5034 -0.5779 -0.6972
 3142SOL    HW220889   1.132   4.299   4.093 -0.6697  1.1479 -0.7743
 3143SOL     OW20890   2.256   2.408   4.398  0.0985 -0.1491 -0.0362
 3143SOL    HW120891   2.173   2.432   4.356 -0.1634 -1.9320 -0.5433
 3143SOL    HW220892   2.262   2.314   4.379 -0.1086  0.3082 -2.3582
 3144SOL     OW20893   3.459   1.966   8.534  0.1982 -0.0958  0.0290
 3144SOL    HW120894   3.411   2.039   8.495  1.3574 -0.0039 -1.2569
 3144SOL    HW220895   3.401   1.894   8.510 -1.4206  1.1349  0.2726
 3145SOL     OW20896   4.099   0.679   5.815  0.6325 -0.3208  0.9072
 3145SOL    HW120897   4.108   0.774   5.806  1.0143 -0.5580 -1.3182
 3145SOL    HW220898   4.011   0.673   5.776  2.1120  0.1672 -2.4997
 3146SOL     OW20899   1.017   0.239   6.682 -0.2773 -0.1345  0.0984
 3146SOL    HW120900   0.930   0.227   6.721 -0.4523  0.8437  0.0080
 3146SOL    HW220901   1.003   0.323   6.638 -3.2409 -0.3946  0.5490
 3147SOL     OW20902   2.494   0.669  15.658  0.0871  0.3589 -0.2623
 3147SOL    HW120903   2.479   0.590  15.606 -1.0363  0.7473 -0.5399
 3147SOL    HW220904   2.494   0.733  15.587  1.1062  1.5038  0.7839
 3148SOL     OW20905   2.461   0.009   5.472  0.5416 -0.3061  0.2336
 3148SOL    HW120906   2.467   0.075   5.541 -1.5701 -0.3659  0.4704
 3148SOL    HW220907   2.430   0.062   5.399  1.4716  0.3364  0.2956
 3149SOL     OW20908   0.065   2.573   4.268  0.3159 -0.7413 -0.0818
 3149SOL    HW120909   0.114   2.535   4.195 -0.1681  2.1101 -1.8994
 3149SOL    HW220910   0.002   2.632   4.228  0.1897 -0.6070  0.3149
 3150SOL     OW20911   1.950   4.437   0.863  0.3412  0.5988 -0.1856
 3150SOL    HW120912   1.873   4.483   0.895  1.1208  1.3405  0.6194
 3150SOL    HW220913   1.990   4.398   0.940 -0.6428 -2.2876 -1.1249
 3151SOL     OW20914   1.675   3.172  15.498 -0.0886 -0.0545  0.1028
 3151SOL    HW120915   1.768   3.157  15.484  0.2314  1.1150  0.9875
 3151SOL    HW220916   1.649   3.100  15.555  0.6801  0.2578  0.8357
 3152SOL     OW20917   1.807   4.017  15.499  0.1864 -0.9916 -0.3495
 3152SOL    HW120918   1.858   3.948  15.541  1.6484  1.0772  1.2748
 3152SOL    HW220919   1.799   3.976  15.413  0.0800 -0.2537 -0.6893
 3153SOL     OW20920   3.266   0.875   3.342  0.0626  0.4465 -0.8630
 3153SOL    HW120921   3.307   0.951   3.383 -1.0710 -1.0169  2.9821
 3153SOL    HW220922   3.250   0.908   3.254  1.2231  1.6833 -0.5989
 3154SOL     OW20923   2.209   1.306   9.072  0.3137 -0.4106 -0.2764
 3154SOL    HW120924   2.137   1.247   9.051 -1.7073  0.9819  2.6363
 3154SOL    HW220925   2.241   1.314   8.983 -0.2622  1.4806 -0.3093
 3155SOL     OW20926   1.938   0.271   6.077 -0.0212 -0.5206  0.3952
 3155SOL    HW120927   1.957   0.301   6.166 -1.6620 -1.2342  0.9779
 3155SOL    HW220928   1.993   0.327   6.022  2.2035 -0.8248  2.3490
 3156SOL     OW20929   3.771   1.238  14.353  0.7398  0.2985  0.3810
 3156SOL    HW120930   3.784   1.329  14.326 -0.6049  0.7480  1.2963
 3156SOL    HW220931   3.678   1.235  14.373  0.6924 -3.2413 -0.3684
 3157SOL     OW20932   4.005   1.803   9.474  0.1230 -0.2934  0.3371
 3157SOL    HW120933   4.063   1.846   9.537  1.2794  0.0638 -0.9802
 3157SOL    HW220934   4.059   1.738   9.430 -1.6942 -1.6993  0.1878
 3158SOL     OW20935   3.940   0.869   7.571  0.7217  0.5967 -0.2153
 3158SOL    HW120936   3.894   0.952   7.582 -0.6434 -0.3027  0.8210
 3158SOL    HW220937   3.944   0.871   7.475 -1.5300 -1.5822 -0.3649
 3159SOL     OW20938   1.075   1.432  15.414  0.4406 -0.3536 -0.1693
 3159SOL    HW120939   1.026   1.507  15.382 -0.6458 -0.3972  1.3970
 3159SOL    HW220940   1.005   1.383  15.456  1.0280 -1.9305 -0.9848
 3160SOL     OW20941   1.071   2.465   4.731 -0.2306 -0.0095  0.0196
 3160SOL    HW120942   1.078   2.481   4.637  0.6466 -2.1278 -0.2697
 3160SOL    HW220943   1.001   2.525   4.758  1.4228  1.8812  0.1540
 3161SOL     OW20944   4.078   4.306  10.423 -0.8159 -0.3929 -0.0875
 3161SOL    HW120945   4.125   4.307  10.506  0.3419 -0.4602 -0.7469
 3161SOL    HW220946   4.078   4.398  10.395  0.2325 -0.0652  0.9928
 3162SOL     OW20947   3.895   2.906   9.665 -0.2739  0.1466 -0.4764
 3162SOL    HW120948   3.873   2.924   9.756  1.0822 -1.4419  0.1647
 3162SOL    HW220949   3.813   2.925   9.621 -0.3309 -0.2080 -0.5219
 3163SOL     OW20950   0.420   0.621   7.331 -0.1638 -0.3593  0.1773
 3163SOL    HW120951   0.512   0.649   7.324 -0.3837 -0.2355 -2.1926
 3163SOL    HW220952   0.391   0.697   7.381 -2.0415 -1.6277  0.9828
 3164SOL     OW20953   0.466   1.205  15.309  0.0476  0.2600  0.0976
 3164SOL    HW120954   0.541   1.258  15.283 -1.2720  2.2712  0.3968
 3164SOL    HW220955   0.503   1.117  15.315  1.9636  0.9338 -1.7720
 3165SOL     OW20956   3.444   4.712   9.676  0.2364 -0.1106 -0.6502
 3165SOL    HW120957   3.444   4.635   9.733 -2.3587  0.9105  0.7713
 3165SOL    HW220958   3.473   0.053   9.740 -1.7379  1.5131 -1.4025
 3166SOL     OW20959   4.449   3.955   8.514  0.0871  0.0116 -0.0283
 3166SOL    HW120960   4.360   3.930   8.492 -0.3811  0.9462  0.7605
 3166SOL    HW220961   4.499   3.888   8.467 -1.2769 -0.6408 -0.5361
 3167SOL     OW20962   3.859   2.468   6.219  0.1564  0.3648  0.1826
 3167SOL    HW120963   3.779   2.420   6.240 -0.1878  0.7985 -0.1561
 3167SOL    HW220964   3.867   2.529   6.292  0.3421 -0.9485  1.2615
 3168SOL     OW20965   3.839   2.280   2.437 -0.0620  0.0931 -0.3448
 3168SOL    HW120966   3.820   2.372   2.420  0.1132 -0.1176 -1.6297
 3168SOL    HW220967   3.772   2.230   2.390 -0.0498 -0.8063  0.5878
 3169SOL     OW20968   4.190   3.425   7.369 -0.2460  0.3930  0.1289
 3169SOL    HW120969   4.268   3.373   7.387 -0.5123 -0.6024 -1.5648
 3169SOL    HW220970   4.212   3.507   7.415  1.6290  0.2374 -0.5156
 3170SOL     OW20971   3.742   2.077   9.579 -0.1193  0.2501 -0.5338
 3170SOL    HW120972   3.678   2.014   9.545 -1.2141  1.4420 -0.6961
 3170SOL    HW220973   3.670   2.129   9.616 -0.5391 -1.4738  1.1392
 3171SOL     OW20974   1.038   0.597   7.020 -0.6520  0.5023 -0.3437
 3171SOL    HW120975   1.005   0.633   7.103 -1.1286 -0.5829 -0.0613
 3171SOL    HW220976   1.133   0.605   7.028 -0.5941 -0.1035 -0.4634
 3172SOL     OW20977   2.146   3.895   0.874  0.2092  0.2807  0.1340
 3172SOL    HW120978   2.075   3.914   0.935 -0.5822  2.6437 -1.5060
 3172SOL    HW220979   2.184   3.980   0.855 -2.2652  1.2211 -0.6894
 3173SOL     OW20980   3.316   3.877   2.089  0.3765  0.4472  0.0429
 3173SOL    HW120981   3.230   3.916   2.105  0.1935  0.5876 -1.2645
 3173SOL    HW220982   3.313   3.813   2.160 -0.2521  1.1314  0.6229
 3174SOL     OW20983   3.801   4.005  12.428  0.4066 -0.2183  0.0397
 3174SOL    HW120984   3.806   3.929  12.486  2.1959  0.8926  1.3722
 3174SOL    HW220985   3.888   4.045  12.424 -0.6818  1.7117 -4.2873
 3175SOL     OW20986   3.697   4.378  15.912  0.7268 -0.3073  0.0397
 3175SOL    HW120987   3.615   4.342  15.879  0.8926  0.6291 -1.4176
 3175SOL    HW220988   3.677   4.378  16.005 -0.9721 -1.1507 -0.3359
 3176SOL     OW20989   3.152   2.195   3.604 -0.1339 -0.1607 -0.0003
 3176SOL    HW120990   3.193   2.186   3.690 -0.8694  1.9253  0.5582
 3176SOL    HW220991   3.154   2.105   3.571 -1.9075 -0.7622  1.4902
 3177SOL     OW20992   3.202   1.169  13.946 -0.4194 -0.1221 -0.0818
 3177SOL    HW120993   3.162   1.090  13.909 -0.3347  0.5418 -1.5850
 3177SOL    HW220994   3.146   1.226  13.892 -0.5353 -0.8642 -0.7443
 3178SOL     OW20995   2.946   1.679   5.888  0.0769 -0.6642  0.2938
 3178SOL    HW120996   2.909   1.590   5.885 -0.7774 -0.2323 -2.0219
 3178SOL    HW220997   2.874   1.742   5.888 -1.9085 -2.9465 -0.4813
 3179SOL     OW20998   3.534   2.771   8.067  0.5306 -0.4154 -0.0556
 3179SOL    HW120999   3.609   2.829   8.062 -1.5910  2.3632  0.6132
 3179SOL    HW221000   3.516   2.745   7.976  0.6109 -0.6901  0.0049
 3180SOL     OW21001   0.963   1.317   2.220  0.3801 -0.7221 -0.1601
 3180SOL    HW121002   1.013   1.310   2.139 -0.3278 -0.0603 -0.6560
 3180SOL    HW221003   0.884   1.363   2.190  0.5961  0.8149  1.6370
 3181SOL     OW21004   0.017   2.767   6.999  0.1727  0.0745  0.3428
 3181SOL    HW121005   0.059   2.693   6.955 -0.1103  0.4658 -0.5739
 3181SOL    HW221006   4.650   2.738   7.005 -0.1865  1.0669 -0.3418
 3182SOL     OW21007   3.827   0.467   4.830 -0.1491 -0.2603 -0.7308
 3182SOL    HW121008   3.768   0.538   4.804  1.7130  1.0873 -1.2671
 3182SOL    HW221009   3.849   0.426   4.747  1.1152  0.3038 -0.6766
 3183SOL     OW21010   1.839   1.396  10.146  0.3346  0.5319 -0.2491
 3183SOL    HW121011   1.774   1.467  10.148 -0.4288 -0.1581 -0.3952
 3183SOL    HW221012   1.828   1.371  10.054  2.0789 -0.1408 -0.2798
 3184SOL     OW21013   2.924   3.681   5.112 -0.3129  0.0579  0.0716
 3184SOL    HW121014   2.867   3.758   5.105  0.3406  0.5601  0.3402
 3184SOL    HW221015   2.977   3.718   5.182  0.7649  0.4346 -0.9526
 3185SOL     OW21016   3.607   0.848  13.905 -0.3707 -0.1471 -0.1688
 3185SOL    HW121017   3.519   0.844  13.943 -0.5435 -0.2670 -0.5757
 3185SOL    HW221018   3.662   0.903  13.960  0.9930 -1.4512 -0.2242
 3186SOL     OW21019   1.852   2.751   3.819 -0.5251  0.1425 -0.4306
 3186SOL    HW121020   1.807   2.819   3.769 -2.4467 -1.2177 -0.5768
 3186SOL    HW221021   1.934   2.800   3.826 -0.2950 -0.6444  2.2108
 3187SOL     OW21022   2.566   3.130   9.880  0.1251  0.1969  0.3379
 3187SOL    HW121023   2.520   3.048   9.862  0.5283  0.1131 -0.2797
 3187SOL    HW221024   2.655   3.098   9.897  0.2413 -0.5536 -1.7688
 3188SOL     OW21025   3.027   3.350   1.634  0.2938 -0.3312  0.0707
 3188SOL    HW121026   3.014   3.287   1.705  0.9968 -1.9502 -1.2328
 3188SOL    HW221027   2.973   3.314   1.563  2.3515  0.3354 -1.8132
 3189SOL     OW21028   2.402   3.469   7.609 -0.7688 -0.1458  0.1128
 3189SOL    HW121029   2.309   3.460   7.588 -0.6147  0.7333 -0.9417
 3189SOL    HW221030   2.403   3.422   7.692  0.1435 -0.5390 -0.1237
 3190SOL     OW21031   1.823   0.873   4.765  0.5476 -0.6204  0.1697
 3190SOL    HW121032   1.917   0.864   4.753  0.9791  1.3984  1.9780
 3190SOL    HW221033   1.812   0.879   4.860  0.0098 -0.4080  0.0932
 3191SOL     OW21034   1.527   2.852   5.164  0.2898  0.5462  0.8108
 3191SOL    HW121035   1.489   2.929   5.207  0.7944  0.0244  2.1839
 3191SOL    HW221036   1.504   2.778   5.220 -0.7457  0.2656  0.0003
 3192SOL     OW21037   3.195   0.388   2.834  0.5076  0.3965 -0.4618
 3192SOL    HW121038   3.276   0.347   2.803  0.5541 -1.2621  1.8713
 3192SOL    HW221039   3.134   0.318   2.811 -0.5057  1.2750 -0.4945
 3193SOL     OW21040   0.975   3.189   7.415  0.1357 -0.0133 -0.1487
 3193SOL    HW121041   0.948   3.277   7.387  0.3307  0.5854  1.5185
 3193SOL    HW221042   0.982   3.206   7.509 -0.4841  0.6039 -0.2142
 3194SOL     OW21043   3.799   3.815   7.713 -0.6817  0.1915  0.0067
 3194SOL    HW121044   3.755   3.858   7.786 -1.4630 -2.7964  1.3167
 3194SOL    HW221045   3.719   3.793   7.665 -1.9977  1.9904  1.4017
 3195SOL     OW21046   1.277   2.467   6.609  0.4244  0.3041  0.1318
 3195SOL    HW121047   1.211   2.420   6.558  1.2723 -0.2209 -0.4734
 3195SOL    HW221048   1.348   2.449   6.548  0.9782  1.9148  0.2849
 3196SOL     OW21049   2.311   4.403   2.558  0.2864 -0.1295  0.1659
 3196SOL    HW121050   2.276   4.330   2.507 -1.2048 -0.9946  2.3959
 3196SOL    HW221051   2.250   4.472   2.532 -1.7075 -1.2773  1.7802
 3197SOL     OW21052   2.944   1.152   2.659 -0.0569  0.5022 -0.2884
 3197SOL    HW121053   2.948   1.211   2.583  0.6647 -0.2076 -0.8065
 3197SOL    HW221054   2.961   1.065   2.624 -0.0293  1.3824 -2.4935
 3198SOL     OW21055   1.097   3.648   9.664 -0.3750 -0.2844 -0.7186
 3198SOL    HW121056   1.040   3.665   9.589 -0.0920  1.3225 -0.5640
 3198SOL    HW221057   1.042   3.684   9.733  0.0045  3.4576 -2.3905
 3199SOL     OW21058   4.077   4.342   1.699 -0.1297  0.4195  0.0199
 3199SOL    HW121059   4.157   4.393   1.686 -1.1809  2.0028 -0.2768
 3199SOL    HW221060   4.028   4.373   1.623  0.3553 -0.8777 -0.8244
 3200SOL     OW21061   2.055   1.044   7.881  0.2141 -0.3030 -0.3260
 3200SOL    HW121062   2.030   1.115   7.940 -1.4024 -0.8902 -0.3149
 3200SOL    HW221063   2.024   1.084   7.799 -2.5126 -4.6814 -1.4038
 3201SOL     OW21064   0.463   3.081   7.912 -0.1759  0.3899  0.4558
 3201SOL    HW121065   0.548   3.124   7.922 -0.5219  0.8874  1.3199
 3201SOL    HW221066   0.414   3.163   7.918  0.9609  0.9526  2.0823
 3202SOL     OW21067   4.077   3.659   7.198 -0.5850  0.0901 -0.3104
 3202SOL    HW121068   4.116   3.727   7.143 -0.7855 -0.2089 -0.8186
 3202SOL    HW221069   4.148   3.596   7.209 -0.9777 -0.2579  0.2537
 3203SOL     OW21070   3.777   0.242   5.000 -0.3872 -0.2557 -0.4598
 3203SOL    HW121071   3.722   0.271   5.072 -0.4581 -1.7444  0.0747
 3203SOL    HW221072   3.798   0.327   4.961  2.0011 -0.2467  0.8425
 3204SOL     OW21073   1.457   0.279   1.914 -0.2049  0.0907  0.1809
 3204SOL    HW121074   1.412   0.357   1.882 -1.1121 -0.6915 -0.4644
 3204SOL    HW221075   1.533   0.271   1.857  0.1072 -2.3416  0.9338
 3205SOL     OW21076   1.659   0.580   9.658  0.5063 -0.3208  1.1980
 3205SOL    HW121077   1.619   0.639   9.722  0.4991  0.9907 -0.0072
 3205SOL    HW221078   1.588   0.548   9.602  1.0659  0.3401  0.0905
 3206SOL     OW21079   2.544   3.386   5.338 -0.0970  0.0789 -0.0308
 3206SOL    HW121080   2.591   3.342   5.267  0.5691  0.7615 -0.0102
 3206SOL    HW221081   2.470   3.326   5.351 -0.3362  0.2550 -0.5670
 3207SOL     OW21082   2.821   2.576   9.579 -0.0422 -0.4880 -0.4927
 3207SOL    HW121083   2.737   2.578   9.534  1.3264 -0.7188 -3.0832
 3207SOL    HW221084   2.827   2.483   9.600 -2.0467 -0.7030 -0.9181
 3208SOL     OW21085   4.487   1.687   4.588  0.4702  0.0881  0.3987
 3208SOL    HW121086   4.552   1.757   4.590 -1.9431  2.3253  0.4294
 3208SOL    HW221087   4.459   1.689   4.497  0.2229 -3.6591  0.3987
 3209SOL     OW21088   1.953   2.001   4.076 -0.1145  0.6077 -0.0294
 3209SOL    HW121089   1.979   2.030   3.988  0.3472  0.7602  0.1542
 3209SOL    HW221090   1.998   1.918   4.092 -0.3966  0.3943 -0.3340
 3210SOL     OW21091   2.144   2.887  14.973 -0.3577  0.6479 -0.0430
 3210SOL    HW121092   2.071   2.857  15.027 -0.0878 -0.5508 -0.3513
 3210SOL    HW221093   2.208   2.911  15.041 -0.8571  1.5104  0.1314
 3211SOL     OW21094   2.671   4.292   6.441 -0.1769 -0.1658  0.6952
 3211SOL    HW121095   2.657   4.377   6.483 -0.6046  1.0016 -1.7896
 3211SOL    HW221096   2.588   4.246   6.439 -0.3418  0.2010 -0.9349
 3212SOL     OW21097   2.506   2.585   2.006  0.6570  0.5155 -0.1066
 3212SOL    HW121098   2.421   2.544   1.991  0.9020  0.4804 -1.3856
 3212SOL    HW221099   2.477   2.662   2.056 -2.0305  0.5327 -1.6980
 3213SOL     OW21100   2.459   2.149   5.053  0.3214 -0.4808 -0.0874
 3213SOL    HW121101   2.493   2.060   5.059  0.3326 -0.6067 -1.9238
 3213SOL    HW221102   2.434   2.162   5.144  0.4918 -1.4036  0.0953
 3214SOL     OW21103   4.197   4.685   7.351  0.0641 -0.4065  0.0866
 3214SOL    HW121104   4.161   0.009   7.426 -2.2766 -0.1842 -1.1647
 3214SOL    HW221105   4.198   4.596   7.387 -1.1928 -0.7975 -0.8227
 3215SOL     OW21106   0.294   2.371   5.524  0.3730 -0.5296  0.3610
 3215SOL    HW121107   0.342   2.318   5.587 -0.6615  0.3372  1.8572
 3215SOL    HW221108   0.210   2.325   5.515 -0.2878  1.3325 -3.2725
 3216SOL     OW21109   1.830   3.273   4.602 -0.2940  0.1658  0.0196
 3216SOL    HW121110   1.777   3.274   4.682 -1.7751 -0.7152 -0.9397
 3216SOL    HW221111   1.784   3.202   4.557  0.6122 -0.5599  0.2559
 3217SOL     OW21112   2.188   4.566  17.038  0.2856  0.0961  0.0715
 3217SOL    HW121113   2.104   4.521  17.039  0.3597 -0.0681 -0.7969
 3217SOL    HW221114   2.194   4.605  17.125  0.6258  0.3654 -0.0717
 3218SOL     OW21115   3.638   2.546   1.550  1.5580  0.6798  0.1248
 3218SOL    HW121116   3.656   2.497   1.630 -1.4525  0.8457  0.9097
 3218SOL    HW221117   3.726   2.560   1.515  1.2688  0.5802 -0.6418
 3219SOL     OW21118   4.322   0.176   2.943 -0.0548 -0.5913 -0.3606
 3219SOL    HW121119   4.275   0.245   2.895 -1.1349 -0.8707  0.2760
 3219SOL    HW221120   4.261   0.105   2.920  0.6095 -1.2978  0.0562
 3220SOL     OW21121   2.229   3.210   6.044 -0.1982 -0.1308  0.3834
 3220SOL    HW121122   2.139   3.218   6.075  0.1563 -2.8201  2.0509
 3220SOL    HW221123   2.248   3.118   6.064 -1.0431 -0.4920 -0.4891
 3221SOL     OW21124   4.057   0.644  14.601  0.2810  0.1153 -0.0244
 3221SOL    HW121125   4.005   0.612  14.675 -0.7435  2.4219  0.2493
 3221SOL    HW221126   3.998   0.719  14.596  1.3072  0.8578 -0.9230
 3222SOL     OW21127   3.516   3.913  13.464  0.6637 -0.0062  0.4204
 3222SOL    HW121128   3.579   3.887  13.532  1.1088 -0.2269 -0.0745
 3222SOL    HW221129   3.528   4.008  13.469 -0.5230  0.0497  2.1878
 3223SOL     OW21130   4.035   2.583   4.107  0.0334  0.0702  0.2562
 3223SOL    HW121131   4.041   2.674   4.134  1.1269 -0.0925  0.5800
 3223SOL    HW221132   4.124   2.554   4.084 -0.4536 -0.8055 -0.5224
 3224SOL     OW21133   1.310   1.752  15.852  0.2387  0.0440  0.1062
 3224SOL    HW121134   1.234   1.714  15.808  1.1581 -0.7423 -0.7974
 3224SOL    HW221135   1.308   1.841  15.816 -0.5171  0.3699  0.9586
 3225SOL     OW21136   2.527   3.823   9.458  0.0647 -0.0710  0.3064
 3225SOL    HW121137   2.574   3.892   9.505  1.0044 -0.1643 -0.4789
 3225SOL    HW221138   2.583   3.814   9.381 -1.1056  0.3415 -0.5838
 3226SOL     OW21139   0.434   1.975  12.555 -0.1978 -0.1693 -1.0715
 3226SOL    HW121140   0.424   1.948  12.464 -0.3170  2.4302 -1.8410
 3226SOL    HW221141   0.479   2.058  12.540  1.9067 -1.0751  0.2792
 3227SOL     OW21142   1.994   4.534   8.978 -0.3077 -0.3172  0.2410
 3227SOL    HW121143   1.916   4.560   8.929  1.4638  2.5244 -1.1240
 3227SOL    HW221144   2.001   4.453   8.929 -1.2348 -2.1061  3.0423
 3228SOL     OW21145   3.260   1.798   8.452  0.2364  0.1853 -0.0268
 3228SOL    HW121146   3.242   1.750   8.371  2.1348 -0.9043  0.2135
 3228SOL    HW221147   3.191   1.775   8.515  1.6650 -2.1093  0.7251
 3229SOL     OW21148   4.537   0.662   3.832 -0.3100  0.2734  0.1707
 3229SOL    HW121149   4.553   0.755   3.851 -0.7049  1.0574 -3.3181
 3229SOL    HW221150   4.513   0.672   3.740 -3.1485 -1.4943  0.7233
 3230SOL     OW21151   2.130   2.893  16.073  0.1015 -0.1296  0.2620
 3230SOL    HW121152   2.124   2.980  16.112  0.2191 -0.7390  1.6595
 3230SOL    HW221153   2.223   2.874  16.063  0.6416  2.5372  0.3243
 3231SOL     OW21154   1.082   4.235   7.688 -0.2676 -0.4334  0.3446
 3231SOL    HW121155   1.104   4.302   7.623 -0.5171  1.0305  1.7710
 3231SOL    HW221156   0.996   4.264   7.719 -0.8601 -0.9567 -0.7938
 3232SOL     OW21157   2.759   3.101   3.236 -0.7275  0.0721 -0.5466
 3232SOL    HW121158   2.760   3.086   3.331  1.5401 -3.1670 -1.0621
 3232SOL    HW221159   2.771   3.010   3.208 -2.2844 -0.3690  0.2361
 3233SOL     OW21160   4.671   3.141   8.000  0.2512  0.3896 -0.3348
 3233SOL    HW121161   4.645   3.173   7.914  0.5187 -0.6998 -0.8290
 3233SOL    HW221162   4.613   3.067   8.017  1.6611 -0.3256  1.3381
 3234SOL     OW21163   4.321   1.852   8.638 -0.0582 -0.1861 -0.2301
 3234SOL    HW121164   4.314   1.757   8.644 -0.8323 -0.2419 -1.8266
 3234SOL    HW221165   4.414   1.870   8.622 -0.0010  0.0056  0.3244
 3235SOL     OW21166   4.170   3.778  11.481  0.2668 -0.0969 -0.0190
 3235SOL    HW121167   4.195   3.841  11.413 -0.2206  0.3005  0.1694
 3235SOL    HW221168   4.209   3.823  11.556  2.4293 -1.7370 -0.1907
 3236SOL     OW21169   2.838   4.202  10.041 -0.2932  0.2156 -0.1645
 3236SOL    HW121170   2.859   4.116  10.004  0.7243  0.9105 -1.2315
 3236SOL    HW221171   2.778   4.238   9.976 -2.9491  2.3110  3.4569
 3237SOL     OW21172   0.094   3.916   5.507 -0.2506 -0.4322  0.0199
 3237SOL    HW121173   0.095   3.833   5.458 -1.4576  0.6437 -1.8102
 3237SOL    HW221174   0.000   3.923   5.524 -0.0719  0.7300  0.4708
 3238SOL     OW21175   1.555   1.744  11.811  0.2367  0.5724 -0.0345
 3238SOL    HW121176   1.600   1.709  11.888  1.3459  0.4525 -0.7289
 3238SOL    HW221177   1.557   1.667  11.754 -0.2166  0.7460 -0.2813
 3239SOL     OW21178   2.306   2.958   0.446  0.6921 -0.6159  0.2070
 3239SOL    HW121179   2.356   3.037   0.429 -1.9796  0.8062 -1.1233
 3239SOL    HW221180   2.304   2.930   0.354  1.1504  0.8661 -0.2534
 3240SOL     OW21181   3.388   2.832   7.140  0.7648  0.4592 -0.4353
 3240SOL    HW121182   3.317   2.896   7.135 -0.3736 -1.0923 -3.7475
 3240SOL    HW221183   3.466   2.885   7.154  1.1539 -0.2678  0.1852
 3241SOL     OW21184   3.659   2.836   6.359 -0.3920  0.0320 -0.3712
 3241SOL    HW121185   3.568   2.857   6.337 -0.5908 -1.5977 -1.1407
 3241SOL    HW221186   3.692   2.814   6.272 -1.4844 -1.7494 -0.3397
 3242SOL     OW21187   2.295   1.192   5.477 -0.6297  0.5065 -0.5654
 3242SOL    HW121188   2.228   1.248   5.438 -2.0531 -0.7089  0.1202
 3242SOL    HW221189   2.276   1.114   5.423  1.4913 -0.0734 -0.4830
 3243SOL     OW21190   0.490   1.780   2.877 -0.1189 -0.7635  0.0789
 3243SOL    HW121191   0.420   1.799   2.814 -1.8671  2.5945  2.9974
 3243SOL    HW221192   0.452   1.714   2.935 -1.5787  0.5165  0.6069
 3244SOL     OW21193   0.598   2.823   3.878 -0.0233  0.4077  0.0735
 3244SOL    HW121194   0.650   2.865   3.809 -0.2162 -1.2211 -1.0556
 3244SOL    HW221195   0.552   2.753   3.831  0.9418  0.3104 -0.7283
 3245SOL     OW21196   4.408   1.423   0.034  0.3527 -0.5018 -0.2647
 3245SOL    HW121197   4.398   1.483  17.659 -2.3377  1.2169  1.5100
 3245SOL    HW221198   4.347   1.350   0.022 -0.7042  0.3907 -0.3281
 3246SOL     OW21199   0.486   1.483   3.635  0.0377  0.2172 -0.2960
 3246SOL    HW121200   0.427   1.410   3.616 -0.3258  0.8130 -1.4641
 3246SOL    HW221201   0.451   1.554   3.581 -1.2507 -0.4077 -0.2939
 3247SOL     OW21202   2.491   1.899   9.401 -0.2610  0.1901 -0.2619
 3247SOL    HW121203   2.410   1.894   9.453  0.9107 -1.0137  1.4447
 3247SOL    HW221204   2.517   1.807   9.404 -3.5896 -0.7679 -0.4281
 3248SOL     OW21205   1.132   0.885   3.657 -0.1112  0.3737  0.2944
 3248SOL    HW121206   1.168   0.968   3.626  0.1296 -0.4512 -1.6760
 3248SOL    HW221207   1.109   0.897   3.749 -0.5475  1.4627  0.0387
 3249SOL     OW21208   0.715   2.137  12.365 -0.6847  0.6601  0.2607
 3249SOL    HW121209   0.768   2.057  12.358 -1.4195  0.0964  1.1872
 3249SOL    HW221210   0.694   2.147  12.458  0.2822  1.0601  0.4333
 3250SOL     OW21211   2.253   3.358  13.674 -0.1512  0.3749  0.2546
 3250SOL    HW121212   2.260   3.282  13.733 -3.9412  2.0018  2.8135
 3250SOL    HW221213   2.255   3.427  13.741  0.8714 -0.0662  0.6754
 3251SOL     OW21214   3.427   0.995   2.410 -0.1720  0.3242  0.1627
 3251SOL    HW121215   3.337   1.027   2.404  0.7181  2.7636  0.1914
 3251SOL    HW221216   3.478   1.070   2.379 -0.6021 -0.5326 -2.6623
 3252SOL     OW21217   3.230   3.492   4.354 -0.0504 -0.1974  0.2673
 3252SOL    HW121218   3.273   3.501   4.269  2.0070  1.9083  1.5125
 3252SOL    HW221219   3.164   3.561   4.351 -0.6721 -0.8764 -1.8443
 3253SOL     OW21220   3.142   0.116  11.407 -0.3762 -0.3379 -0.1470
 3253SOL    HW121221   3.134   0.091  11.315 -0.5093  0.4354 -0.3459
 3253SOL    HW221222   3.054   0.151  11.419 -1.4534 -2.6567 -1.1809
 3254SOL     OW21223   0.892   1.736   0.841 -0.2673  0.6108 -0.1105
 3254SOL    HW121224   0.886   1.697   0.754  0.2553  0.8685 -0.2610
 3254SOL    HW221225   0.894   1.657   0.895  0.6608 -0.3784 -1.6102
 3255SOL     OW21226   2.794   1.863   5.015 -0.0275 -0.4271  0.5497
 3255SOL    HW121227   2.800   1.902   4.928  0.8754  0.2270  0.9125
 3255SOL    HW221228   2.837   1.778   5.005 -1.5668 -1.3867  1.9816
 3256SOL     OW21229   3.295   2.567   5.645 -0.3439 -0.3344  0.2472
 3256SOL    HW121230   3.343   2.485   5.652  0.5960  0.1622 -0.5336
 3256SOL    HW221231   3.369   2.627   5.643  0.3155 -1.1755 -0.3893
 3257SOL     OW21232   1.719   2.020   8.071 -0.0700  0.2481  0.2202
 3257SOL    HW121233   1.769   2.101   8.065 -0.9633  0.6006 -2.4749
 3257SOL    HW221234   1.658   2.050   8.139 -0.7314  0.6149 -0.5352
 3258SOL     OW21235   4.209   1.242   4.062  0.6586  0.3582  0.2497
 3258SOL    HW121236   4.186   1.264   3.972 -1.6519  1.7111  1.1872
 3258SOL    HW221237   4.139   1.179   4.074  1.8062 -1.1371 -0.8981
 3259SOL     OW21238   1.637   0.395   8.207 -0.0816 -0.6040 -0.2739
 3259SOL    HW121239   1.709   0.424   8.262  0.1769  1.5222 -1.7179
 3259SOL    HW221240   1.572   0.403   8.277 -0.7561 -3.1913 -0.5941
 3260SOL     OW21241   1.617   3.547  13.205 -0.0364  0.6984  0.2686
 3260SOL    HW121242   1.644   3.550  13.113  0.5698  4.8621  0.5897
 3260SOL    HW221243   1.649   3.633  13.233  0.6221  0.2115  0.9978
 3261SOL     OW21244   2.276   1.488   3.084  0.1019 -0.1448 -0.5167
 3261SOL    HW121245   2.338   1.539   3.030 -0.1688 -0.6082 -1.2641
 3261SOL    HW221246   2.324   1.500   3.166  0.6976 -0.3510 -0.8276
 3262SOL     OW21247   0.068   3.250   5.425  0.2079  0.5628 -0.0441
 3262SOL    HW121248   0.157   3.259   5.393 -0.0243  0.1176 -0.8042
 3262SOL    HW221249   0.017   3.232   5.346 -0.6657  0.0882  0.6171
 3263SOL     OW21250   3.958   2.410  11.593 -0.4216  0.7181  0.0303
 3263SOL    HW121251   4.011   2.459  11.530  0.6367  0.9242  1.0955
 3263SOL    HW221252   3.970   2.318  11.566  0.8696  0.4110  1.7063
 3264SOL     OW21253   2.134   2.554   6.310 -0.0962  0.1172  0.2344
 3264SOL    HW121254   2.184   2.631   6.337  1.6816 -0.1834 -2.1904
 3264SOL    HW221255   2.165   2.488   6.372  3.4021 -1.1195 -2.8363
 3265SOL     OW21256   3.749   0.225   3.940 -0.3096 -0.3510  0.0664
 3265SOL    HW121257   3.692   0.155   3.909 -0.6822 -0.1525  0.3060
 3265SOL    HW221258   3.711   0.291   3.882 -0.2036  0.4959  0.9505
 3266SOL     OW21259   3.699   2.714  16.916  0.1829  0.0485  0.1557
 3266SOL    HW121260   3.642   2.784  16.948 -0.5753 -0.0578 -0.9813
 3266SOL    HW221261   3.640   2.676  16.851 -0.5376  1.1425  0.1745
 3267SOL     OW21262   3.226   3.256   4.149 -0.1121 -0.0938 -0.1207
 3267SOL    HW121263   3.135   3.233   4.135 -0.0918 -1.4029  1.8556
 3267SOL    HW221264   3.226   3.352   4.141 -1.6039 -0.0857  0.0104
 3268SOL     OW21265   1.170   3.670   5.698  0.2148 -0.1458 -0.2013
 3268SOL    HW121266   1.107   3.602   5.723  1.4755 -1.4576 -0.5779
 3268SOL    HW221267   1.219   3.685   5.778  1.2100  0.8487 -1.0024
 3269SOL     OW21268   0.988   1.586  12.526  0.0848 -0.2689  0.5248
 3269SOL    HW121269   0.904   1.558  12.490 -0.0404 -0.3217  0.8600
 3269SOL    HW221270   1.053   1.537  12.476  1.0961 -0.6155  2.1639
 3270SOL     OW21271   0.671   2.220  13.238 -0.4937  0.2066  0.2657
 3270SOL    HW121272   0.648   2.313  13.240 -0.3134  0.2642 -0.2595
 3270SOL    HW221273   0.684   2.195  13.146  0.5714  2.5399 -0.2400
 3271SOL     OW21274   3.166   2.554   8.262  0.3150  0.2942  0.4656
 3271SOL    HW121275   3.217   2.634   8.246 -0.1007  0.6265  0.7753
 3271SOL    HW221276   3.222   2.504   8.320  1.0565 -0.3194 -0.8025
 3272SOL     OW21277   3.544   2.286   9.360  0.0536  0.6230  0.3662
 3272SOL    HW121278   3.622   2.276   9.305 -0.0877 -1.9121  0.6388
 3272SOL    HW221279   3.498   2.204   9.345  0.1463  0.9967 -2.0054
 3273SOL     OW21280   1.090   4.714  11.131 -0.3250 -0.4958  0.4320
 3273SOL    HW121281   1.133   4.637  11.170  2.2385 -0.1396 -1.6421
 3273SOL    HW221282   1.101   4.697  11.037 -0.0909  1.7154  0.0644
 3274SOL     OW21283   2.434   4.086   8.822 -0.5005  0.1327  0.5586
 3274SOL    HW121284   2.498   4.111   8.889  2.1267 -1.6359 -1.2774
 3274SOL    HW221285   2.370   4.153   8.844  0.0916  0.6786  0.6034
 3275SOL     OW21286   0.491   3.185   3.321 -0.0917  0.2126  0.5320
 3275SOL    HW121287   0.436   3.214   3.393 -0.7941  0.7087 -0.1966
 3275SOL    HW221288   0.422   3.166   3.257 -1.2726 -0.4781  2.0239
 3276SOL     OW21289   3.032   1.370   6.470 -0.0675  0.5056  0.0632
 3276SOL    HW121290   3.109   1.326   6.432  0.0066  0.1441  0.6412
 3276SOL    HW221291   3.002   1.422   6.395 -0.2021  1.1140  0.5503
 3277SOL     OW21292   0.434   4.598   5.798  0.7399 -0.1716 -0.0489
 3277SOL    HW121293   0.523   4.609   5.765  1.2472  2.8777  2.3202
 3277SOL    HW221294   0.401   4.687   5.805  0.3316 -0.1848 -1.8747
 3278SOL     OW21295   3.040   0.678   9.898  0.3043 -0.5922  0.7264
 3278SOL    HW121296   2.978   0.612   9.928 -0.8536  0.5877  0.9381
 3278SOL    HW221297   3.077   0.621   9.831 -0.5418  1.1649 -1.2374
 3279SOL     OW21298   2.065   0.052   8.415  0.6804  0.8590 -0.5046
 3279SOL    HW121299   1.976   0.071   8.446  0.1395 -0.0640 -1.4505
 3279SOL    HW221300   2.100   0.141   8.417  2.1813  0.3225 -2.4654
 3280SOL     OW21301   4.324   2.900  11.128  0.3303 -0.2547 -0.5255
 3280SOL    HW121302   4.285   2.849  11.057  0.2135  0.4156 -0.9473
 3280SOL    HW221303   4.406   2.934  11.092 -1.4556  2.7099 -1.7444
 3281SOL     OW21304   2.128   3.686  11.961 -0.0250 -0.1625 -0.3931
 3281SOL    HW121305   2.043   3.726  11.940 -0.2871 -0.8914 -0.7328
 3281SOL    HW221306   2.171   3.685  11.875 -2.8770 -1.1808 -1.8270
 3282SOL     OW21307   3.777   3.576   8.293 -0.4796 -0.0641 -0.2140
 3282SOL    HW121308   3.837   3.519   8.246 -1.6568 -0.6484 -0.9885
 3282SOL    HW221309   3.747   3.527   8.369 -3.7300  0.6528 -1.0054
 3283SOL     OW21310   4.324   0.435  14.108 -0.1242  0.3014 -0.3508
 3283SOL    HW121311   4.341   0.361  14.167 -2.7746 -0.3470 -0.3983
 3283SOL    HW221312   4.411   0.448  14.070  0.3659 -2.4696 -0.1872
 3284SOL     OW21313   3.970   3.805   8.871  0.3079  0.1845 -0.0546
 3284SOL    HW121314   4.033   3.872   8.898 -0.1829  0.8068 -0.4700
 3284SOL    HW221315   3.881   3.838   8.874  0.5298  0.8246 -0.7028
 3285SOL     OW21316   0.542   4.274   8.880 -0.1228 -0.2766  0.1296
 3285SOL    HW121317   0.465   4.226   8.907 -0.9930  0.7908 -0.4333
 3285SOL    HW221318   0.498   4.359   8.873 -0.6349 -0.5021  0.7525
 3286SOL     OW21319   4.639   0.360   5.515  0.5006 -0.6387  0.2619
 3286SOL    HW121320   4.553   0.338   5.479  0.5981  1.5211 -1.3280
 3286SOL    HW221321   4.619   0.409   5.595 -0.0460  0.7656 -0.7349
 3287SOL     OW21322   3.376   4.644   7.538  0.3785 -0.1625  0.2634
 3287SOL    HW121323   3.403   4.590   7.612 -0.7461 -0.9070  0.1405
 3287SOL    HW221324   3.320   4.713   7.575  2.9992  1.5523  1.0023
 3288SOL     OW21325   3.878   2.189   8.717 -0.8433  0.1241 -0.5984
 3288SOL    HW121326   3.931   2.111   8.698  1.1787  1.0117  1.3149
 3288SOL    HW221327   3.940   2.255   8.685  2.2452 -2.2491  0.4217
 3289SOL     OW21328   3.296   2.461  15.853 -0.5616 -0.4698  1.1183
 3289SOL    HW121329   3.326   2.456  15.762  0.7985 -0.8483  1.5826
 3289SOL    HW221330   3.251   2.545  15.865  0.7466  0.5132 -0.8858
 3290SOL     OW21331   1.115   0.620   3.445 -0.0332 -0.4951 -0.0036
 3290SOL    HW121332   1.198   0.647   3.485  0.4137  0.2835 -1.4694
 3290SOL    HW221333   1.134   0.532   3.413  1.7334  0.3797 -1.3355
 3291SOL     OW21334   3.821   0.122   2.546  0.4576 -0.2243  0.1648
 3291SOL    HW121335   3.860   0.164   2.469 -1.1981 -1.0438 -1.1182
 3291SOL    HW221336   3.870   0.041   2.542  0.7299 -0.0390 -0.2641
 3292SOL     OW21337   0.809   0.149   4.874 -0.2503 -0.4922 -0.3957
 3292SOL    HW121338   0.832   0.164   4.782  0.3820  3.0377  0.3266
 3292SOL    HW221339   0.722   0.115   4.855 -0.8030  0.6885  0.0433
 3293SOL     OW21340   4.652   3.063   4.685  0.3410 -0.1499 -0.3435
 3293SOL    HW121341   4.575   3.025   4.728  0.4773 -1.8887 -1.6571
 3293SOL    HW221342   4.616   3.057   4.596 -2.7933  0.5042  0.8653
 3294SOL     OW21343   4.352   4.529   2.822  0.4802 -0.5453 -0.1786
 3294SOL    HW121344   4.349   4.460   2.756 -0.0847  0.6863 -1.4418
 3294SOL    HW221345   4.263   4.564   2.832  0.6043  0.2391 -1.8736
 3295SOL     OW21346   2.717   2.260   5.328  0.3858 -0.0417 -0.3038
 3295SOL    HW121347   2.810   2.240   5.312  0.9051  1.1923  1.1617
 3295SOL    HW221348   2.696   2.179   5.373 -1.6208  1.5913  1.7145
 3296SOL     OW21349   0.402   0.797   3.090 -0.3711 -0.3876 -0.8666
 3296SOL    HW121350   0.412   0.891   3.105  0.0625 -0.4739 -0.5890
 3296SOL    HW221351   0.307   0.791   3.091 -0.2895 -1.5355  0.6714
 3297SOL     OW21352   1.660   0.246   8.548 -0.2300  0.2493  0.3785
 3297SOL    HW121353   1.590   0.244   8.482 -0.0477  1.6278  0.1446
 3297SOL    HW221354   1.607   0.278   8.620  1.2459  0.2663  1.4437
 3298SOL     OW21355   1.913   4.478  14.344 -0.3354  0.3362 -0.2030
 3298SOL    HW121356   1.943   4.467  14.254  2.9773  0.4487  0.9178
 3298SOL    HW221357   1.841   4.538  14.322  0.5982  2.2985  2.1358
 3299SOL     OW21358   0.631   1.181  13.733 -0.0314 -0.9130  0.0952
 3299SOL    HW121359   0.558   1.202  13.675  0.8307  0.4934 -0.4959
 3299SOL    HW221360   0.696   1.147  13.671  0.6153 -1.1618  0.8952
 3300SOL     OW21361   2.930   1.723  17.583 -0.4344  0.3871 -0.2004
 3300SOL    HW121362   2.932   1.749  17.491  0.6304 -1.1432 -0.6219
 3300SOL    HW221363   2.982   1.790  17.628 -0.0399  0.2778 -0.4902
 3301SOL     OW21364   1.621   1.125   8.005  0.6818  0.3658 -0.2229
 3301SOL    HW121365   1.630   1.196   7.941 -0.0102  1.0846  0.4782
 3301SOL    HW221366   1.708   1.128   8.045 -0.1757  1.0310  1.5741
 3302SOL     OW21367   2.843   4.049  13.742 -0.0281 -0.0219  0.3686
 3302SOL    HW121368   2.857   4.098  13.661 -0.9231 -0.3013  0.0412
 3302SOL    HW221369   2.900   3.975  13.726  1.2618  1.1877 -0.6552
 3303SOL     OW21370   2.478   0.347   6.034  0.4212 -0.2896 -0.0920
 3303SOL    HW121371   2.475   0.443   6.039  2.6962 -0.1985 -0.4632
 3303SOL    HW221372   2.386   0.326   6.019  0.2954 -1.0722  1.6860
 3304SOL     OW21373   0.468   1.928   6.285  0.3353 -0.3192  0.2953
 3304SOL    HW121374   0.427   2.001   6.239 -1.1214 -1.0998  0.3587
 3304SOL    HW221375   0.551   1.974   6.295  0.1333  0.1724 -0.2549
 3305SOL     OW21376   3.247   3.815   7.518  0.6322  0.3956  0.3865
 3305SOL    HW121377   3.243   3.898   7.471 -0.0499  0.7169  1.0119
 3305SOL    HW221378   3.333   3.779   7.493 -0.1601 -0.6012 -0.8691
 3306SOL     OW21379   4.367   1.484   8.449  0.3827  0.5201 -0.5793
 3306SOL    HW121380   4.297   1.550   8.445  0.5688  0.8249  1.5644
 3306SOL    HW221381   4.316   1.416   8.493  0.7804  0.2861 -0.4788
 3307SOL     OW21382   3.262   4.302   7.542  0.4093  0.6056 -0.1309
 3307SOL    HW121383   3.270   4.215   7.581  1.7056  0.7916  0.0059
 3307SOL    HW221384   3.169   4.306   7.518  0.2580 -0.9268  0.1890
 3308SOL     OW21385   1.247   0.423   3.073 -0.1214  0.1274  0.2365
 3308SOL    HW121386   1.265   0.454   3.161  2.6053 -1.3987  0.2216
 3308SOL    HW221387   1.197   0.342   3.083 -3.5434  2.0259 -1.7029
 3309SOL     OW21388   4.538   3.546   6.007 -0.2024  0.2527  0.1702
 3309SOL    HW121389   4.594   3.538   6.085 -2.7638 -2.6431  1.7091
 3309SOL    HW221390   4.552   3.640   5.998  0.5749 -0.1504 -2.6794
 3310SOL     OW21391   2.544   3.858   7.251 -0.5239  0.3734 -0.0317
 3310SOL    HW121392   2.607   3.874   7.321  0.3459 -0.8645 -0.5212
 3310SOL    HW221393   2.543   3.762   7.254  2.1076  0.3381 -0.0983
 3311SOL     OW21394   3.711   0.853  17.007 -0.4021  0.0673 -1.0190
 3311SOL    HW121395   3.673   0.840  16.919 -3.6105  1.5959  0.1538
 3311SOL    HW221396   3.694   0.772  17.056  1.2638  1.8261  2.3859
 3312SOL     OW21397   3.449   1.728   2.546 -0.2130 -0.2378 -0.3817
 3312SOL    HW121398   3.414   1.782   2.475 -1.0340 -1.4923 -0.9373
 3312SOL    HW221399   3.533   1.771   2.564 -0.6809  0.1539  0.8698
 3313SOL     OW21400   4.073   0.288  12.220  0.3695  0.1221 -0.5275
 3313SOL    HW121401   4.021   0.274  12.141  0.4771 -0.9806 -0.4126
 3313SOL    HW221402   4.131   0.212  12.226 -0.2401 -0.1464  1.7862
 3314SOL     OW21403   3.183   3.713   0.265  0.4059 -0.3381 -0.1277
 3314SOL    HW121404   3.191   3.782   0.330 -0.1099 -1.1251  0.7547
 3314SOL    HW221405   3.201   3.762   0.185  0.2822 -0.8012 -0.4416
 3315SOL     OW21406   1.666   0.705   7.720  0.0610 -0.4901  0.5698
 3315SOL    HW121407   1.619   0.660   7.790 -1.7508  0.6669  0.0901
 3315SOL    HW221408   1.633   0.666   7.639  0.4681 -0.6616  0.4900
 3316SOL     OW21409   1.132   2.029   9.854  0.2388 -0.0037 -0.2125
 3316SOL    HW121410   1.115   1.937   9.834 -2.6337  0.7020 -0.9940
 3316SOL    HW221411   1.048   2.050   9.895 -1.0022  0.1248 -2.8081
 3317SOL     OW21412   0.391   1.671   3.867  0.1523  0.4951 -1.0506
 3317SOL    HW121413   0.372   1.761   3.840 -2.0829 -0.0188 -1.1698
 3317SOL    HW221414   0.399   1.634   3.779  0.7535 -1.2963 -0.2570
 3318SOL     OW21415   4.102   2.147   6.793 -0.1916 -0.8416  0.2038
 3318SOL    HW121416   4.063   2.130   6.878  0.6348  0.4150  0.8390
 3318SOL    HW221417   4.046   2.101   6.731  2.6896 -0.3433 -2.8156
 3319SOL     OW21418   2.484   1.165  12.211  0.4211 -0.0410 -0.3362
 3319SOL    HW121419   2.441   1.221  12.276 -0.6259 -0.0330 -1.0432
 3319SOL    HW221420   2.576   1.187  12.225  0.2292  1.6230 -1.6770
 3320SOL     OW21421   4.568   2.896   3.755 -0.1093  0.9323 -0.2416
 3320SOL    HW121422   4.626   2.884   3.680  2.3316 -0.7348  1.9312
 3320SOL    HW221423   4.615   2.954   3.815 -2.0117  0.2197  1.9453
 3321SOL     OW21424   1.088   0.426   6.132  0.2692  0.3253 -0.3342
 3321SOL    HW121425   1.120   0.443   6.220 -2.5225 -3.2835  1.3433
 3321SOL    HW221426   1.035   0.348   6.145 -0.7089  1.2445  1.1211
 3322SOL     OW21427   3.974   2.529   1.472 -0.1310  0.1706 -0.4403
 3322SOL    HW121428   4.034   2.603   1.471 -2.2248  1.8776  0.4951
 3322SOL    HW221429   3.947   2.538   1.380  1.0879 -1.9445 -1.0005
 3323SOL     OW21430   0.925   4.592   1.645  0.2002 -0.2542  0.0145
 3323SOL    HW121431   0.921   4.646   1.724  1.9898 -2.4227  1.6034
 3323SOL    HW221432   0.907   4.504   1.677 -1.2339 -0.5223 -1.5488
 3324SOL     OW21433   2.528   0.908   1.607 -0.0168  0.7537 -0.2316
 3324SOL    HW121434   2.596   0.873   1.665 -0.3819 -0.1884 -0.3600
 3324SOL    HW221435   2.527   0.844   1.536 -3.4194 -0.5509  0.9865
 3325SOL     OW21436   3.101   3.771   6.207  0.1794  0.3976  0.2878
 3325SOL    HW121437   3.147   3.705   6.258 -2.0094 -0.7779  0.7684
 3325SOL    HW221438   3.121   3.853   6.252  2.5924 -1.0296  1.7553
 3326SOL     OW21439   2.893   1.109   5.018 -0.4890 -0.7191 -0.9713
 3326SOL    HW121440   2.865   1.039   5.078  1.0972 -0.0230  0.5672
 3326SOL    HW221441   2.966   1.064   4.975  1.0524  1.3768 -0.5552
 3327SOL     OW21442   1.326   0.257   1.537 -0.5270 -0.0001  0.4601
 3327SOL    HW121443   1.265   0.284   1.467  0.4238  0.5618 -0.1530
 3327SOL    HW221444   1.267   0.244   1.611 -1.8653 -1.8163 -0.9262
 3328SOL     OW21445   1.141   4.183   5.209  0.5610  0.2467  0.1256
 3328SOL    HW121446   1.236   4.179   5.204  0.4590  1.3675 -3.2897
 3328SOL    HW221447   1.122   4.131   5.287 -2.8963  1.7503  0.3195
 3329SOL     OW21448   1.692   3.451   5.973  0.4514 -0.7403  0.0133
 3329SOL    HW121449   1.681   3.356   5.966 -0.3130 -0.6822  0.4585
 3329SOL    HW221450   1.627   3.474   6.039 -1.6909 -1.0802 -1.9505
 3330SOL     OW21451   3.244   0.443  13.432  0.1781 -0.9931  0.0269
 3330SOL    HW121452   3.288   0.407  13.355 -1.4508  1.6654 -2.1240
 3330SOL    HW221453   3.311   0.498  13.473 -1.4682  1.7526 -1.0084
 3331SOL     OW21454   0.855   1.669   3.385 -0.1035  0.0757 -0.1582
 3331SOL    HW121455   0.826   1.643   3.472  0.0345  1.6016  0.3406
 3331SOL    HW221456   0.803   1.749   3.382 -0.7483 -0.4484 -2.9766
 3332SOL     OW21457   2.598   4.490  11.059  0.3071 -0.6780 -0.4729
 3332SOL    HW121458   2.523   4.549  11.064 -1.9784 -3.4845 -1.3921
 3332SOL    HW221459   2.569   4.436  10.986 -1.7892 -0.2474  0.0401
 3333SOL     OW21460   1.602   1.965  14.137  0.2400 -0.7473  0.2568
 3333SOL    HW121461   1.635   1.875  14.128 -0.2441 -0.9137  0.1622
 3333SOL    HW221462   1.512   1.960  14.169 -0.5399  0.5106 -1.7344
 3334SOL     OW21463   1.751   1.912   3.102 -0.0981 -0.0221  0.5129
 3334SOL    HW121464   1.723   2.001   3.124  0.8850  0.3142  0.4146
 3334SOL    HW221465   1.783   1.927   3.013  1.7751  1.6984  1.4880
 3335SOL     OW21466   4.600   3.282   7.776 -0.1789 -0.3812  0.0648
 3335SOL    HW121467   4.684   3.290   7.731  0.3707 -0.5615  1.0600
 3335SOL    HW221468   4.544   3.254   7.704  0.2196  1.7689 -1.0788
 3336SOL     OW21469   0.182   2.473   8.274 -0.5939  0.0801 -0.3783
 3336SOL    HW121470   0.257   2.430   8.315  0.5417  0.5599 -1.9671
 3336SOL    HW221471   0.216   2.557   8.244 -1.6926 -0.1389 -2.2372
 3337SOL     OW21472   3.943   4.561   6.856 -0.0872  0.3165  0.5203
 3337SOL    HW121473   3.863   4.591   6.813 -0.4867  0.4226  1.3438
 3337SOL    HW221474   3.900   4.507   6.922  1.5237  0.3150  1.5683
 3338SOL     OW21475   2.799   2.341   6.122 -0.8440 -0.2654 -0.8007
 3338SOL    HW121476   2.731   2.339   6.189 -2.6023  0.3989 -2.5842
 3338SOL    HW221477   2.784   2.279   6.051 -2.7391  0.0715 -0.6820
 3339SOL     OW21478   0.867   0.437  16.846  0.4479  0.2036 -0.5503
 3339SOL    HW121479   0.853   0.451  16.940  0.9420 -0.8692 -0.3186
 3339SOL    HW221480   0.808   0.367  16.819  1.5333 -0.3861 -1.3893
 3340SOL     OW21481   4.707   2.420  15.809 -0.0969  0.2003 -0.3166
 3340SOL    HW121482   4.637   2.355  15.816  1.4779 -1.6013 -1.4629
 3340SOL    HW221483   0.054   2.382  15.861  1.7122 -0.7085 -3.4791
 3341SOL     OW21484   2.420   1.098  15.380  0.0793 -0.4646  0.0294
 3341SOL    HW121485   2.337   1.080  15.425  0.9305 -1.0589  1.3588
 3341SOL    HW221486   2.397   1.178  15.332 -0.2134 -1.0885 -0.8609
 3342SOL     OW21487   4.343   0.788   2.206  0.1219 -0.5850 -0.6073
 3342SOL    HW121488   4.425   0.814   2.165  1.0005 -0.1847  1.4279
 3342SOL    HW221489   4.367   0.728   2.277 -1.6817 -0.9767 -0.3234
 3343SOL     OW21490   0.423   0.256   6.192 -0.2754 -0.5391  0.1530
 3343SOL    HW121491   0.508   0.297   6.210 -1.4438  1.4607  1.1698
 3343SOL    HW221492   0.382   0.290   6.272  0.5454 -0.0724  0.3803
 3344SOL     OW21493   3.805   0.839   5.701 -0.6741 -0.2795 -0.2531
 3344SOL    HW121494   3.750   0.827   5.778 -1.7473  3.8949 -0.3374
 3344SOL    HW221495   3.787   0.758   5.653  1.8637  0.0180 -1.7017
 3345SOL     OW21496   3.253   1.521  12.109 -0.2651 -0.1585  0.2834
 3345SOL    HW121497   3.186   1.589  12.103 -0.3701 -0.3960 -1.2901
 3345SOL    HW221498   3.328   1.579  12.120 -0.0270 -0.5287  0.6521
 3346SOL     OW21499   2.524   2.187  10.796  0.1857  0.3466  0.3627
 3346SOL    HW121500   2.610   2.224  10.815 -0.0261  1.5157 -0.9627
 3346SOL    HW221501   2.540   2.148  10.710 -0.4196 -2.4017  1.4859
 3347SOL     OW21502   1.698   4.666   2.550  0.2468  0.1618  0.3877
 3347SOL    HW121503   1.783   4.711   2.545  0.7556 -0.7926  0.5497
 3347SOL    HW221504   1.651   4.695   2.472 -1.9189  0.3838  1.7854
 3348SOL     OW21505   0.078   2.423   9.390  0.1638  0.0126 -0.0820
 3348SOL    HW121506   0.114   2.422   9.302 -2.7453 -1.8796 -1.2388
 3348SOL    HW221507   4.707   2.419   9.380  0.0368  3.0759 -0.0442
 3349SOL     OW21508   0.531   3.012   1.659  0.3842 -0.0486 -0.2234
 3349SOL    HW121509   0.485   3.011   1.575 -2.4781  1.0493  1.3266
 3349SOL    HW221510   0.615   3.039   1.621  2.2118 -1.9590  2.4585
 3350SOL     OW21511   3.128   0.919   6.862 -0.2418 -0.3937  0.2280
 3350SOL    HW121512   3.201   0.970   6.826  0.8294 -1.9780  0.1811
 3350SOL    HW221513   3.117   0.850   6.797  0.4022 -0.9838  0.7475
 3351SOL     OW21514   1.351   2.752   6.619  0.6502  0.4675  0.4629
 3351SOL    HW121515   1.322   2.661   6.611  2.8496 -0.0377 -1.8108
 3351SOL    HW221516   1.280   2.793   6.667  0.2786 -2.0785  2.1002
 3352SOL     OW21517   2.895   3.909  10.031  0.0364  0.0298  0.2175
 3352SOL    HW121518   2.953   3.838  10.003 -0.7650 -0.8019  0.7020
 3352SOL    HW221519   2.967   3.970  10.046  0.5976 -0.0898 -1.9724
 3353SOL     OW21520   2.939   2.852   6.171  0.0956  0.5740 -0.7381
 3353SOL    HW121521   2.864   2.811   6.129  1.0597 -1.6929 -0.2720
 3353SOL    HW221522   2.942   2.931   6.118  0.3586  0.1996 -1.2857
 3354SOL     OW21523   3.005   2.291   2.248  0.0716 -0.6851 -0.1082
 3354SOL    HW121524   2.973   2.381   2.243  2.0864 -0.0518 -1.7288
 3354SOL    HW221525   3.068   2.287   2.176 -0.4578 -0.7364 -0.5629
 3355SOL     OW21526   3.299   3.796   7.109 -0.3574  0.0391 -0.1618
 3355SOL    HW121527   3.206   3.773   7.098 -0.4082  1.0296 -1.8351
 3355SOL    HW221528   3.328   3.739   7.180 -1.1443 -1.5614 -1.1161
 3356SOL     OW21529   0.474   3.692  16.124 -0.0392  0.4663  0.0224
 3356SOL    HW121530   0.499   3.765  16.066  0.5392  0.8038  0.6902
 3356SOL    HW221531   0.454   3.743  16.202 -0.5124 -1.1669  0.9585
 3357SOL     OW21532   0.339   2.551   7.346  0.3023 -0.9394 -0.4559
 3357SOL    HW121533   0.309   2.592   7.265  0.1345  0.3780  0.2756
 3357SOL    HW221534   0.422   2.515   7.317  0.3760 -1.6886  0.6893
 3358SOL     OW21535   3.467   1.743   5.050  0.0967  0.0333 -0.5025
 3358SOL    HW121536   3.456   1.657   5.090 -0.9823  0.4910  0.1920
 3358SOL    HW221537   3.554   1.737   5.012  0.2588 -2.1674  0.2422
 3359SOL     OW21538   4.325   2.318   7.791 -0.3436 -0.8958 -0.2042
 3359SOL    HW121539   4.394   2.372   7.830  0.5027 -2.5528  0.5873
 3359SOL    HW221540   4.313   2.249   7.856  1.9329  1.8451  3.1244
 3360SOL     OW21541   0.668   2.262   8.173 -0.2151  0.4484 -0.0381
 3360SOL    HW121542   0.657   2.221   8.088  0.4278  0.5237 -0.1524
 3360SOL    HW221543   0.640   2.351   8.153 -1.8708 -0.2924 -1.0233
 3361SOL     OW21544   0.796   3.710  16.494  0.1193 -0.0580 -0.5176
 3361SOL    HW121545   0.744   3.770  16.548 -0.8707 -0.5035 -0.9648
 3361SOL    HW221546   0.884   3.730  16.524  0.5015  1.7218 -2.8548
 3362SOL     OW21547   0.812   4.019   7.722 -0.2599 -0.4938  0.2129
 3362SOL    HW121548   0.829   4.112   7.705  2.4294 -0.3678  3.4621
 3362SOL    HW221549   0.750   4.032   7.794 -1.0917  1.7024 -0.9009
 3363SOL     OW21550   3.997   2.359  12.935  0.5184  0.0170 -0.0311
 3363SOL    HW121551   4.058   2.431  12.947 -0.0938  0.3508  1.0121
 3363SOL    HW221552   3.951   2.352  13.019  4.8403 -1.3528  2.1973
 3364SOL     OW21553   0.410   1.614  15.445 -0.0649  0.3124 -0.0432
 3364SOL    HW121554   0.474   1.682  15.424 -0.7541  2.4575  4.8572
 3364SOL    HW221555   0.330   1.665  15.454 -0.7070 -0.4225 -1.6175
 3365SOL     OW21556   2.190   1.181   3.338 -0.1285  0.1063 -0.3827
 3365SOL    HW121557   2.224   1.269   3.355 -2.2936  1.3326 -2.4630
 3365SOL    HW221558   2.191   1.181   3.242 -2.1609  0.6393 -0.3985
 3366SOL     OW21559   1.027   3.328   9.922 -0.2868  0.0740  0.9931
 3366SOL    HW121560   1.084   3.276   9.865  2.3981  2.1781  1.7300
 3366SOL    HW221561   0.952   3.270   9.934 -2.0642  2.5947  2.1452
 3367SOL     OW21562   0.918   1.578   8.006  0.3200 -0.2772  0.0353
 3367SOL    HW121563   0.986   1.632   8.045  0.8755 -0.8696 -0.1051
 3367SOL    HW221564   0.844   1.581   8.066 -0.2096  2.3346 -0.7810
 3368SOL     OW21565   0.137   2.127   2.610 -0.1918 -0.3035 -0.1181
 3368SOL    HW121566   0.115   2.073   2.535  1.3575  0.1650 -0.9040
 3368SOL    HW221567   0.197   2.188   2.568  0.3922 -0.4427  0.5033
 3369SOL     OW21568   0.947   0.107  14.216 -0.6091 -0.2729 -0.0834
 3369SOL    HW121569   0.923   0.175  14.279 -0.2992 -0.8713  0.6700
 3369SOL    HW221570   1.024   0.074  14.261 -0.0813  1.1346  0.0384
 3370SOL     OW21571   4.108   3.635  13.714  0.2159 -0.6544 -0.3318
 3370SOL    HW121572   4.118   3.724  13.681  0.8007 -0.1285  1.3031
 3370SOL    HW221573   4.016   3.624  13.686  0.0491 -1.3278  0.4798
 3371SOL     OW21574   4.545   4.269   1.773  0.5170 -0.3689  0.1104
 3371SOL    HW121575   4.470   4.308   1.728  1.1134 -0.2051 -0.7475
 3371SOL    HW221576   4.583   4.341   1.823  0.2595  0.5022 -0.9277
 3372SOL     OW21577   0.345   4.578   3.940 -0.3717 -0.3434 -0.2270
 3372SOL    HW121578   0.345   4.528   3.859 -0.3932 -2.2890  0.9594
 3372SOL    HW221579   0.435   4.561   3.968 -0.1949  0.6923 -0.1923
 3373SOL     OW21580   4.678   2.127   4.753 -0.5245  0.3904  0.1010
 3373SOL    HW121581   0.046   2.134   4.727 -0.6880 -1.8046 -1.0303
 3373SOL    HW221582   4.684   2.106   4.846  0.1654  1.3195  0.2653
 3374SOL     OW21583   2.129   4.371  13.769 -0.8900  0.5231  0.1591
 3374SOL    HW121584   2.170   4.316  13.703 -0.0311 -0.9122  1.9141
 3374SOL    HW221585   2.061   4.315  13.806  0.3934  0.0184  1.7430
 3375SOL     OW21586   3.627   2.612   5.794 -0.0292  0.0231  0.2926
 3375SOL    HW121587   3.719   2.597   5.812  0.3256  0.8147 -0.8903
 3375SOL    HW221588   3.587   2.578   5.875  0.4112  1.3108  1.0445
 3376SOL     OW21589   2.938   3.846   1.697  0.1864  0.2765 -0.2475
 3376SOL    HW121590   2.858   3.794   1.708  0.1545  0.5438  0.8184
 3376SOL    HW221591   2.998   3.771   1.702 -0.2352 -0.1046 -0.8074
 3377SOL     OW21592   2.213   0.016   9.377  0.2160  0.5622 -0.0938
 3377SOL    HW121593   2.188   4.650   9.399  1.7011 -0.2641 -1.7368
 3377SOL    HW221594   2.211   0.001   9.282 -0.5582  0.5439 -0.0777
 3378SOL     OW21595   0.885   1.376   5.163 -0.3645  0.5062 -0.1070
 3378SOL    HW121596   0.900   1.470   5.154  1.4243  0.3158  0.8313
 3378SOL    HW221597   0.972   1.346   5.190 -0.6809  0.8841  1.3325
 3379SOL     OW21598   3.923   2.269   7.898 -0.1364 -0.2819 -0.2812
 3379SOL    HW121599   3.833   2.296   7.918 -0.0467 -0.1067 -0.1227
 3379SOL    HW221600   3.949   2.349   7.852  0.0159  0.0149  0.3242
 3380SOL     OW21601   3.953   3.719  15.773 -0.2172 -0.3771 -0.4408
 3380SOL    HW121602   3.882   3.779  15.795  0.6721  0.6106 -0.2384
 3380SOL    HW221603   3.958   3.729  15.677 -0.4797 -1.7009 -0.5841
 3381SOL     OW21604   0.998   4.322   8.996  0.4659  0.5688 -0.0785
 3381SOL    HW121605   1.052   4.360   9.065  0.9739 -2.5712  1.2790
 3381SOL    HW221606   0.954   4.252   9.044  2.8880  0.3789  1.8464
 3382SOL     OW21607   1.118   0.108   3.380  0.4800 -0.8356  0.0917
 3382SOL    HW121608   1.087   0.128   3.468 -4.0571 -2.8016 -1.0265
 3382SOL    HW221609   1.189   0.046   3.392  0.7765 -0.6272 -0.5927
 3383SOL     OW21610   0.763   1.359   7.047  0.4585  0.2719  0.1727
 3383SOL    HW121611   0.749   1.267   7.072 -0.2542  0.7762  1.6858
 3383SOL    HW221612   0.855   1.365   7.024  0.6281 -0.2739  0.6992
 3384SOL     OW21613   0.869   1.992   0.186 -0.2472  0.2580  0.5950
 3384SOL    HW121614   0.949   2.044   0.180 -0.6251  0.6938 -0.6796
 3384SOL    HW221615   0.823   2.015   0.105 -0.4929  0.1735  0.7126
 3385SOL     OW21616   1.087   3.287   5.322 -0.2768 -0.2212 -0.0114
 3385SOL    HW121617   1.051   3.199   5.330  0.1951 -0.4841 -0.7709
 3385SOL    HW221618   1.042   3.304   5.239  2.3513  1.1896 -1.1565
 3386SOL     OW21619   0.990   3.667   4.813  0.1816  0.0469  0.0301
 3386SOL    HW121620   0.904   3.709   4.807  1.0614  2.0286  1.2678
 3386SOL    HW221621   0.970   3.574   4.802 -1.1854 -0.0212  2.8882
 3387SOL     OW21622   1.520   1.029  15.206 -0.7116 -0.1387 -0.3211
 3387SOL    HW121623   1.582   1.011  15.136  1.4569  2.0878  1.0236
 3387SOL    HW221624   1.508   0.941  15.243  1.0906  0.0757  0.8019
 3388SOL     OW21625   3.471   0.100   3.465 -0.4108  0.2894  0.4847
 3388SOL    HW121626   3.393   0.098   3.519 -0.5185 -0.4310  0.2966
 3388SOL    HW221627   3.500   0.009   3.468 -0.0387  0.4635  1.9003
 3389SOL     OW21628   3.359   0.200   6.164 -0.2166  0.1627  0.0056
 3389SOL    HW121629   3.379   0.147   6.087 -0.8284  2.2188 -1.5897
 3389SOL    HW221630   3.288   0.148   6.201 -0.6359  0.8524  0.1620
 3390SOL     OW21631   1.232   3.264   3.488  0.1211  0.0347 -0.4925
 3390SOL    HW121632   1.233   3.359   3.481 -2.5036  0.0102 -1.0436
 3390SOL    HW221633   1.300   3.246   3.553 -0.1713 -0.1393 -0.2357
 3391SOL     OW21634   0.287   0.689   9.079  0.1514  0.7364  0.9481
 3391SOL    HW121635   0.238   0.615   9.118  0.9751 -1.4785 -2.2609
 3391SOL    HW221636   0.337   0.647   9.010  0.3492 -1.1926  2.2390
 3392SOL     OW21637   2.567   4.488   6.855  0.3350  0.4403  0.1633
 3392SOL    HW121638   2.620   4.552   6.903  0.4276 -0.0214  0.6758
 3392SOL    HW221639   2.628   4.416   6.847 -0.0754 -0.0085  1.0899
 3393SOL     OW21640   3.800   4.397   7.022 -0.1907  0.0316  0.2283
 3393SOL    HW121641   3.724   4.419   7.076 -0.5082  0.8791 -0.5581
 3393SOL    HW221642   3.786   4.307   6.992 -1.4486 -0.0482  1.0788
 3394SOL     OW21643   2.034   0.391   2.290 -0.2960  0.2952  0.4318
 3394SOL    HW121644   1.971   0.355   2.229  1.6925  0.0980 -1.5169
 3394SOL    HW221645   2.101   0.431   2.233 -0.1231 -1.1359 -0.3679
 3395SOL     OW21646   3.098   3.736   1.137 -0.3912 -0.2046  0.2850
 3395SOL    HW121647   3.172   3.795   1.120 -1.2781 -0.0223 -2.9496
 3395SOL    HW221648   3.093   3.720   1.231 -1.5060 -4.8769 -0.5609
 3396SOL     OW21649   4.260   0.092   4.711  0.5723 -1.1753  0.6901
 3396SOL    HW121650   4.333   0.038   4.681  0.7961  0.0763 -0.9817
 3396SOL    HW221651   4.205   0.096   4.634  2.1078 -1.5858 -0.4341
 3397SOL     OW21652   0.671   3.972   0.071  0.5289 -0.1406 -0.2337
 3397SOL    HW121653   0.575   3.970   0.067  0.3949  4.8983  0.8798
 3397SOL    HW221654   0.693   4.065   0.064 -0.9810  0.1328 -1.2636
 3398SOL     OW21655   0.739   2.307   1.954 -0.1533  0.1710  0.3297
 3398SOL    HW121656   0.785   2.228   1.984 -0.9516 -0.4129  0.0378
 3398SOL    HW221657   0.689   2.269   1.882 -1.1628  1.0059  0.6026
 3399SOL     OW21658   2.267   0.738   4.647 -0.1488  0.0889 -0.3630
 3399SOL    HW121659   2.324   0.692   4.710 -1.8097 -3.2749 -1.3228
 3399SOL    HW221660   2.203   0.781   4.705  1.6486  1.4460  0.6210
 3400SOL     OW21661   4.323   2.926   7.437  0.3664  0.1561 -0.4087
 3400SOL    HW121662   4.304   2.839   7.472 -2.1557  0.9187  0.1255
 3400SOL    HW221663   4.250   2.923   7.375  1.3124 -1.7709 -1.4361
 3401SOL     OW21664   4.589   0.101   4.134  0.0731  0.0142  0.1378
 3401SOL    HW121665   4.661   0.040   4.117  0.1901  0.2895 -0.3446
 3401SOL    HW221666   4.631   0.175   4.091 -0.4470 -0.9340 -2.0291
 3402SOL     OW21667   1.719   1.154   8.730 -0.2428  0.5732 -0.2276
 3402SOL    HW121668   1.682   1.175   8.816  0.5272 -0.3309  0.3202
 3402SOL    HW221669   1.635   1.126   8.695  0.4952 -2.2628  0.2371
 3403SOL     OW21670   0.660   4.072   9.038 -0.5943 -0.2447  0.4667
 3403SOL    HW121671   0.691   4.139   9.098  0.7600  0.2004 -0.7266
 3403SOL    HW221672   0.628   4.132   8.972  2.7317  0.7312 -0.2639
 3404SOL     OW21673   1.810   2.980  12.297 -0.0377  0.2960 -0.1655
 3404SOL    HW121674   1.730   2.930  12.281  1.4135 -2.2807  0.4554
 3404SOL    HW221675   1.846   2.984  12.209  1.5982  0.8577  0.5281
 3405SOL     OW21676   2.520   0.409   2.264 -0.4795  0.3539 -0.0575
 3405SOL    HW121677   2.506   0.349   2.338  1.0795 -1.6484 -1.4007
 3405SOL    HW221678   2.548   0.359   2.188  0.2804 -0.4201  0.7268
 3406SOL     OW21679   1.875   3.150  11.285 -0.0899 -0.3794  0.4120
 3406SOL    HW121680   1.868   3.153  11.190 -0.4152  2.2946  0.5408
 3406SOL    HW221681   1.877   3.056  11.307  0.5747 -0.8152 -1.5247
 3407SOL     OW21682   4.141   4.485   4.450 -0.0668 -0.2755 -0.5137
 3407SOL    HW121683   4.164   4.490   4.357  0.8957 -0.8760 -0.3079
 3407SOL    HW221684   4.175   4.569   4.482  0.0324  0.2763 -2.0614
 3408SOL     OW21685   1.615   3.175   6.351  0.5323 -0.3990  0.2292
 3408SOL    HW121686   1.588   3.202   6.439 -1.5516  2.0696 -1.1821
 3408SOL    HW221687   1.538   3.203   6.302  0.0227 -0.3279  1.0539
 3409SOL     OW21688   1.821   1.501  13.855 -0.1078  0.1964 -0.1136
 3409SOL    HW121689   1.766   1.423  13.845 -0.3638  0.2031  1.1948
 3409SOL    HW221690   1.841   1.528  13.766 -3.3892  2.9942 -0.0284
 3410SOL     OW21691   3.488   4.465  10.802 -0.3154  0.1268  0.4896
 3410SOL    HW121692   3.429   4.406  10.850 -0.9483  1.6680  1.6027
 3410SOL    HW221693   3.480   4.433  10.712  1.2079  1.7594 -0.2226
 3411SOL     OW21694   1.028   3.175   8.044 -0.3833  0.2826  0.5958
 3411SOL    HW121695   1.008   3.162   8.137 -2.6151 -0.8776 -0.0352
 3411SOL    HW221696   0.965   3.115   8.003  1.0127 -0.3822 -0.5691
 3412SOL     OW21697   4.028   3.616   4.321 -0.4104  0.2269  0.6380
 3412SOL    HW121698   3.968   3.544   4.301 -0.2760  0.0410  0.8964
 3412SOL    HW221699   4.082   3.569   4.385  0.8414  3.3293  1.8800
 3413SOL     OW21700   3.891   1.896  13.176  0.1190 -0.0957  0.3738
 3413SOL    HW121701   3.920   1.806  13.164  1.1129  0.5163 -1.7545
 3413SOL    HW221702   3.904   1.893  13.271 -2.8709  1.3005  0.8482
 3414SOL     OW21703   1.614   2.870   6.087  0.2550  0.0419 -0.1540
 3414SOL    HW121704   1.542   2.917   6.129  0.0378 -2.8616  2.6753
 3414SOL    HW221705   1.626   2.921   6.007  1.8054 -0.0916 -0.0113
 3415SOL     OW21706   0.558   4.507   2.858 -0.2561 -0.4442 -0.7152
 3415SOL    HW121707   0.525   4.510   2.947 -0.9675  1.2204 -1.0409
 3415SOL    HW221708   0.522   4.423   2.830 -1.0206 -0.0771 -0.8247
 3416SOL     OW21709   1.016   2.354   4.986 -0.8048  0.0812  0.3998
 3416SOL    HW121710   1.033   2.351   4.892  1.0356  0.1926  0.7265
 3416SOL    HW221711   1.072   2.429   5.004 -0.7880  0.1347  0.1215
 3417SOL     OW21712   4.277   1.918   3.236  0.0425 -0.0203  0.0655
 3417SOL    HW121713   4.365   1.912   3.275  0.5213  0.1054 -0.9885
 3417SOL    HW221714   4.305   1.924   3.144  1.3012 -0.9692  0.3900
 3418SOL     OW21715   2.894   2.800   7.900 -0.3110 -0.4233  0.5774
 3418SOL    HW121716   2.867   2.758   7.818 -0.6806  0.7001  0.1322
 3418SOL    HW221717   2.979   2.761   7.923  0.7004  0.3821 -1.7760
 3419SOL     OW21718   1.499   4.475  11.141 -0.0629  0.2808  0.1568
 3419SOL    HW121719   1.457   4.492  11.226  1.3669  1.8256  0.5615
 3419SOL    HW221720   1.583   4.510  11.171 -0.3441 -0.9573  2.4415
 3420SOL     OW21721   0.061   0.161   0.239 -0.1976 -0.1852 -0.0356
 3420SOL    HW121722   0.119   0.118   0.302  0.6773  0.8139 -0.1619
 3420SOL    HW221723   0.070   0.252   0.268 -0.8093 -0.0004 -0.4220
 3421SOL     OW21724   0.667   0.207   5.913  0.0176  0.1828 -0.4314
 3421SOL    HW121725   0.639   0.146   5.981 -1.2817  0.8060 -0.4088
 3421SOL    HW221726   0.722   0.154   5.855 -1.5747 -1.6471 -0.2641
 3422SOL     OW21727   4.206   1.936  15.698 -0.1580 -0.0693  0.7253
 3422SOL    HW121728   4.136   1.899  15.752 -0.4868  0.3698  0.5989
 3422SOL    HW221729   4.155   1.993  15.640  2.2779  0.5269 -0.8261
 3423SOL     OW21730   1.675   1.205  14.712 -0.0395  0.1804 -0.3013
 3423SOL    HW121731   1.656   1.193  14.618  2.3741 -0.7882 -0.6769
 3423SOL    HW221732   1.723   1.288  14.715 -0.0863  0.1455  1.1265
 3424SOL     OW21733   4.675   1.874   0.894 -0.7287 -0.4079  0.1878
 3424SOL    HW121734   4.649   1.807   0.958 -0.7564  0.1513  0.7637
 3424SOL    HW221735   0.016   1.824   0.845 -1.1915  0.5141 -1.3641
 3425SOL     OW21736   1.527   0.210   7.444 -0.5264  0.1420 -0.0544
 3425SOL    HW121737   1.576   0.150   7.387 -1.1843  1.2618 -1.8215
 3425SOL    HW221738   1.574   0.200   7.527  2.2684  0.3784 -1.5841
 3426SOL     OW21739   0.088   3.076   7.517  0.1861  0.0296 -0.0257
 3426SOL    HW121740   0.048   2.994   7.487 -0.3186  0.0580  0.5760
 3426SOL    HW221741   0.178   3.046   7.531  0.9564  1.4648 -1.8713
 3427SOL     OW21742   4.470   3.333   3.442 -0.0448  0.1536 -0.4474
 3427SOL    HW121743   4.529   3.389   3.393 -1.7038  0.0453 -2.5433
 3427SOL    HW221744   4.514   3.248   3.441 -0.6305 -0.1466 -1.6203
 3428SOL     OW21745   3.631   1.118   4.143 -0.3575  0.4928 -0.0542
 3428SOL    HW121746   3.642   1.202   4.188  0.6943 -0.1036  0.8226
 3428SOL    HW221747   3.536   1.119   4.138 -0.4579  0.6283  1.9409
 3429SOL     OW21748   2.381   2.386   6.712 -0.0243  0.4174  0.1003
 3429SOL    HW121749   2.473   2.369   6.728  0.1901  1.9823  0.5432
 3429SOL    HW221750   2.359   2.441   6.787 -0.0353 -2.0159  1.8468
 3430SOL     OW21751   3.039   0.636   3.171 -0.6823  0.0450  0.3251
 3430SOL    HW121752   3.013   0.550   3.137 -2.1006  0.1646  1.0987
 3430SOL    HW221753   3.001   0.695   3.105 -0.2224  1.7775  1.6276
 3431SOL     OW21754   1.126   0.608  13.809 -0.1957  0.0112 -0.3554
 3431SOL    HW121755   1.199   0.618  13.870  0.0921  3.8011 -1.2832
 3431SOL    HW221756   1.168   0.645  13.732 -1.9552  1.9357 -0.3905
 3432SOL     OW21757   1.305   0.286   4.516  0.1589 -0.1316  0.2255
 3432SOL    HW121758   1.270   0.311   4.431  0.8856 -0.5418 -0.1941
 3432SOL    HW221759   1.341   0.368   4.549  1.8132 -1.3112  1.4070
 3433SOL     OW21760   2.605   1.901   2.806 -0.0095  0.1855  0.8808
 3433SOL    HW121761   2.626   1.893   2.713  0.7815 -1.9596  1.2477
 3433SOL    HW221762   2.546   1.976   2.814 -0.8130 -0.6741  3.0316
 3434SOL     OW21763   0.507   2.446   5.335 -0.0905 -0.6321  0.4541
 3434SOL    HW121764   0.559   2.463   5.257  0.3746  0.9453  1.1153
 3434SOL    HW221765   0.517   2.351   5.341  0.4833 -0.4754  1.9452
 3435SOL     OW21766   0.560   4.055   2.825 -0.1470  0.3293 -0.3494
 3435SOL    HW121767   0.593   3.966   2.841  0.6280  0.0462 -3.5829
 3435SOL    HW221768   0.563   4.096   2.912  0.7914 -2.2349  0.8536
 3436SOL     OW21769   2.203   2.213   3.025 -0.6322 -0.1220 -0.1653
 3436SOL    HW121770   2.211   2.309   3.031  1.0707 -0.1850 -1.1596
 3436SOL    HW221771   2.161   2.201   2.940 -0.2043  1.3912 -0.5969
 3437SOL     OW21772   2.596   4.008   6.231  0.0720  0.1426 -0.2901
 3437SOL    HW121773   2.535   4.031   6.301 -0.0844 -0.5230 -0.2019
 3437SOL    HW221774   2.570   4.074   6.168  1.0229  1.4395  0.6638
 3438SOL     OW21775   1.567   3.384   6.994 -0.0683  0.1084  0.0169
 3438SOL    HW121776   1.509   3.325   7.043 -1.0796  2.3479  1.4783
 3438SOL    HW221777   1.649   3.336   7.007 -0.2107 -0.5915 -1.6738
 3439SOL     OW21778   2.129   4.621   2.527  0.4759  0.4822 -0.2587
 3439SOL    HW121779   2.113   4.617   2.433  1.5451 -2.5501 -0.2942
 3439SOL    HW221780   2.090   4.701   2.562  0.5674  0.2521  0.3598
 3440SOL     OW21781   0.707   2.572   8.654  0.4318 -0.7207 -0.1679
 3440SOL    HW121782   0.708   2.521   8.573  0.9092 -1.0911  0.0670
 3440SOL    HW221783   0.768   2.642   8.632 -1.0610  0.6877  0.2217
 3441SOL     OW21784   1.947   0.182   3.091  0.1629  0.9050  0.5560
 3441SOL    HW121785   1.996   0.174   3.173 -2.2296  1.3965  2.0450
 3441SOL    HW221786   1.969   0.106   3.038  0.0514  2.1511 -1.2780
 3442SOL     OW21787   0.567   2.380   1.153  0.2975  0.1792 -0.3010
 3442SOL    HW121788   0.614   2.380   1.237 -1.5127 -0.7692  0.6958
 3442SOL    HW221789   0.482   2.416   1.177 -0.5712 -1.5629 -0.8168
 3443SOL     OW21790   3.043   2.090   5.159  0.2468 -0.1167 -0.5361
 3443SOL    HW121791   3.135   2.066   5.159  0.2746  0.0050 -1.0077
 3443SOL    HW221792   3.007   2.050   5.080 -1.5006  1.8494 -0.7436
 3444SOL     OW21793   3.235   1.039  15.535  0.6137 -0.2502 -0.2201
 3444SOL    HW121794   3.285   1.115  15.563  0.9913 -0.5600 -0.0461
 3444SOL    HW221795   3.202   1.011  15.620  0.7275 -1.0542 -0.4337
 3445SOL     OW21796   1.730   4.623   0.892  0.0296  0.1044  0.1190
 3445SOL    HW121797   1.652   4.593   0.845  0.3008  1.6799 -1.3444
 3445SOL    HW221798   1.745   4.707   0.847 -0.7193  0.4668  0.5474
 3446SOL     OW21799   0.889   0.771   3.876 -0.0677 -0.0181  0.2504
 3446SOL    HW121800   0.820   0.803   3.936 -1.2419 -1.5167 -0.3087
 3446SOL    HW221801   0.946   0.848   3.875 -2.0882  1.5282  2.8371
 3447SOL     OW21802   4.195   2.499   5.117 -0.3810  0.2077  0.8536
 3447SOL    HW121803   4.100   2.499   5.105 -0.4157  0.9634  1.1963
 3447SOL    HW221804   4.228   2.465   5.033  0.0236  1.2581  0.5847
 3448SOL     OW21805   2.451   3.204   1.788 -0.0043 -0.4419 -0.0237
 3448SOL    HW121806   2.367   3.158   1.794 -0.1669 -0.2106 -0.5614
 3448SOL    HW221807   2.424   3.276   1.732 -1.9776 -1.0094  0.2073
 3449SOL     OW21808   0.417   4.067   2.015 -0.3327  0.0766 -0.1572
 3449SOL    HW121809   0.383   4.152   1.987 -1.2394  0.2307  1.4355
 3449SOL    HW221810   0.420   4.072   2.110  0.3477  2.4410 -0.3076
 3450SOL     OW21811   3.712   1.651   4.974 -0.3271 -0.1677 -0.0782
 3450SOL    HW121812   3.801   1.687   4.979  0.2185 -1.6461  0.7450
 3450SOL    HW221813   3.724   1.577   5.033  2.9090 -0.6112 -1.2895
 3451SOL     OW21814   1.461   3.606   4.240 -0.7556  0.6526  0.5043
 3451SOL    HW121815   1.426   3.694   4.227 -1.1861  0.7263  2.2528
 3451SOL    HW221816   1.552   3.630   4.259 -1.1066  0.8193  1.9688
 3452SOL     OW21817   2.525   2.552   2.379  0.0130 -0.4797 -0.3046
 3452SOL    HW121818   2.474   2.546   2.298  3.0420  2.4975 -2.4212
 3452SOL    HW221819   2.594   2.491   2.353  0.2525  0.3092 -1.5593
 3453SOL     OW21820   0.516   3.461  15.565  0.2289  0.4639  0.1362
 3453SOL    HW121821   0.423   3.444  15.550  0.0734  0.7819  0.7271
 3453SOL    HW221822   0.506   3.515  15.644  1.1562  1.5465 -0.4764
 3454SOL     OW21823   0.559   2.760   9.629 -0.0722 -0.3751 -0.2672
 3454SOL    HW121824   0.500   2.731   9.560 -2.6124  2.1894  0.8194
 3454SOL    HW221825   0.497   2.819   9.672  1.4996  0.5565  0.7488
 3455SOL     OW21826   2.619   2.342   4.946  0.0761  0.1847 -0.4460
 3455SOL    HW121827   2.638   2.374   5.034 -2.1473 -0.9765  0.4533
 3455SOL    HW221828   2.570   2.264   4.968 -2.0427  1.2207 -1.5077
 3456SOL     OW21829   1.467   3.235   2.585 -0.6321 -0.6274 -0.4832
 3456SOL    HW121830   1.426   3.189   2.512 -2.0137 -0.7497  0.3686
 3456SOL    HW221831   1.536   3.289   2.547 -2.3120  2.3365  0.6318
 3457SOL     OW21832   2.095   3.158   3.107  0.1867 -0.6653  0.2076
 3457SOL    HW121833   2.006   3.193   3.114  0.6398  0.1744  1.8557
 3457SOL    HW221834   2.125   3.168   3.197 -1.6818 -3.3429  1.1410
 3458SOL     OW21835   3.702   1.672   0.823  0.1821  0.3400 -0.9730
 3458SOL    HW121836   3.633   1.607   0.836 -0.5229  1.0481 -1.2039
 3458SOL    HW221837   3.704   1.671   0.727 -1.8324 -0.7035 -1.0008
 3459SOL     OW21838   4.540   1.070   3.422  0.1578  0.1295  0.8217
 3459SOL    HW121839   4.501   1.135   3.480 -3.4063  0.3730 -1.8153
 3459SOL    HW221840   4.459   1.029   3.392  2.1791 -3.3853  0.1373
 3460SOL     OW21841   4.085   0.473   6.230  0.0599  0.0300  0.1127
 3460SOL    HW121842   4.061   0.381   6.242  0.9837 -0.1834  0.2516
 3460SOL    HW221843   4.173   0.465   6.194  0.8593  2.7946  1.4650
 3461SOL     OW21844   2.534   1.066   4.655 -0.1723  0.3558  0.1394
 3461SOL    HW121845   2.578   1.083   4.572 -0.8665 -1.3752 -0.5768
 3461SOL    HW221846   2.600   1.091   4.719 -0.3209 -0.1214  0.4749
 3462SOL     OW21847   4.498   3.606   3.086 -0.4812  0.3723  0.3664
 3462SOL    HW121848   4.503   3.525   3.036 -0.2529 -0.4901  1.7762
 3462SOL    HW221849   4.540   3.662   3.021 -1.2816  2.2579  1.4599
 3463SOL     OW21850   0.234   1.173  15.437 -0.1352 -0.3743 -0.2703
 3463SOL    HW121851   0.259   1.265  15.445 -0.7649 -0.3617  1.5697
 3463SOL    HW221852   0.317   1.138  15.404  0.5766  1.5498 -0.4876
 3464SOL     OW21853   1.395   4.545   7.028 -0.7269 -0.5577 -0.0076
 3464SOL    HW121854   1.462   4.500   7.079 -1.5789 -3.8208 -1.7221
 3464SOL    HW221855   1.445   4.596   6.965  0.1767  0.4293  1.5092
 3465SOL     OW21856   1.782   2.335  16.346 -0.8745  0.4160 -0.0677
 3465SOL    HW121857   1.781   2.250  16.302  2.8737 -0.4217  1.4223
 3465SOL    HW221858   1.874   2.335  16.375 -0.5729 -0.7608 -1.0183
 3466SOL     OW21859   2.679   2.700   7.369  0.5724  0.0657 -0.3289
 3466SOL    HW121860   2.727   2.629   7.411  1.5687 -1.1307 -3.4502
 3466SOL    HW221861   2.741   2.769   7.345  1.5709 -0.9937 -0.7924
 3467SOL     OW21862   4.415   4.060   9.796 -0.1406  0.3733 -0.5483
 3467SOL    HW121863   4.381   4.013   9.872  0.0133 -0.8947 -1.2630
 3467SOL    HW221864   4.491   4.106   9.833 -0.6682 -0.6370  1.7899
 3468SOL     OW21865   3.701   0.099   4.779 -0.3291  0.3817 -0.1012
 3468SOL    HW121866   3.753   0.133   4.852 -2.0084 -1.4179  1.8866
 3468SOL    HW221867   3.692   0.178   4.725 -0.3027  1.6862  1.8005
 3469SOL     OW21868   3.531   2.471   2.332 -0.4180  0.0485 -0.2164
 3469SOL    HW121869   3.553   2.382   2.305 -0.8373  0.2349 -1.1479
 3469SOL    HW221870   3.588   2.476   2.410  1.5218 -1.9088 -1.4969
 3470SOL     OW21871   1.675   4.314  16.308  0.4213  0.1124 -0.4003
 3470SOL    HW121872   1.767   4.288  16.306  0.0815 -1.0545 -0.4633
 3470SOL    HW221873   1.687   4.387  16.247 -0.1531 -0.5384 -1.2983
 3471SOL     OW21874   1.730   4.489   4.677 -0.1292 -0.2097 -0.0668
 3471SOL    HW121875   1.708   4.517   4.588 -0.1280  2.4653  0.7621
 3471SOL    HW221876   1.824   4.505   4.685 -0.4216  1.3750  0.1620
 3472SOL     OW21877   0.756   0.198  16.823  0.0770  0.2026 -0.1081
 3472SOL    HW121878   0.686   0.190  16.758 -0.7278  1.2954  0.6266
 3472SOL    HW221879   0.798   0.113  16.818  2.6282  1.2711  2.9187
 3473SOL     OW21880   0.634   4.308  15.016  0.0915  0.2289  0.1895
 3473SOL    HW121881   0.555   4.333  15.064  0.0587 -0.0081  0.2590
 3473SOL    HW221882   0.683   4.252  15.076  0.7210 -0.8433 -1.3155
 3474SOL     OW21883   2.180   4.263  15.706 -0.4785  0.4403 -0.1452
 3474SOL    HW121884   2.142   4.210  15.776  0.1870  0.8638  0.5350
 3474SOL    HW221885   2.115   4.252  15.636  1.5308  1.2853 -2.1466
 3475SOL     OW21886   0.456   4.005   3.225 -0.2557 -0.5102  0.3776
 3475SOL    HW121887   0.390   4.055   3.176  0.6869 -1.9371 -2.2985
 3475SOL    HW221888   0.495   3.949   3.158  0.9677 -1.0958  1.5817
 3476SOL     OW21889   0.956   3.962   6.618 -0.0978  0.4542 -0.3695
 3476SOL    HW121890   0.915   4.012   6.548 -0.1601  1.1579  0.1656
 3476SOL    HW221891   0.893   3.890   6.614  0.0672  0.4126 -2.1281
 3477SOL     OW21892   3.366   3.517   1.672 -0.0019  0.2550 -0.1250
 3477SOL    HW121893   3.315   3.496   1.751  0.7679  2.2067  0.8754
 3477SOL    HW221894   3.338   3.453   1.606 -0.0476  1.5448 -1.3560
 3478SOL     OW21895   3.900   1.961   6.800  0.2681  0.2513  0.1336
 3478SOL    HW121896   3.827   2.020   6.816  0.3381  0.2042  0.6263
 3478SOL    HW221897   3.876   1.873   6.830 -0.8810 -0.2683 -2.3372
 3479SOL     OW21898   1.624   3.058   4.528  0.2220 -0.2355 -0.4482
 3479SOL    HW121899   1.538   3.099   4.532  0.5906  0.5569 -0.7723
 3479SOL    HW221900   1.627   3.029   4.437 -0.7842 -3.0922  0.3986
 3480SOL     OW21901   1.137   3.844  16.206  0.4188 -0.5706  0.1629
 3480SOL    HW121902   1.063   3.887  16.248  2.4017  1.2687  1.7567
 3480SOL    HW221903   1.212   3.903  16.217 -0.6277  0.2007  3.1336
 3481SOL     OW21904   0.892   0.257  15.158 -0.1424  0.2464 -0.0511
 3481SOL    HW121905   0.963   0.240  15.096 -0.4678 -1.7379  0.1221
 3481SOL    HW221906   0.899   0.350  15.177  1.3276 -0.0897  1.0769
 3482SOL     OW21907   4.466   3.820   5.985  0.0759 -0.2424  0.1425
 3482SOL    HW121908   4.470   3.800   6.078 -1.2723  2.6507  0.8293
 3482SOL    HW221909   4.470   3.915   5.974 -1.3244 -0.1374  0.6197
 3483SOL     OW21910   1.407   0.446   6.310 -0.3058  0.2608 -0.1420
 3483SOL    HW121911   1.414   0.385   6.383  0.8464  0.4514 -0.0855
 3483SOL    HW221912   1.326   0.482   6.345 -1.4241 -3.0910  0.6312
 3484SOL     OW21913   0.949   1.118  13.002 -0.3804 -0.2130  0.5097
 3484SOL    HW121914   0.867   1.070  12.994 -0.1311 -0.5202 -0.1990
 3484SOL    HW221915   0.975   1.120  12.910 -0.0159  0.1413  0.6192
 3485SOL     OW21916   4.718   2.643   3.663 -0.0599 -0.1798 -0.9877
 3485SOL    HW121917   0.049   2.588   3.607 -0.7321  0.0006 -1.8171
 3485SOL    HW221918   0.036   2.729   3.669  0.3790 -0.6052  2.2636
 3486SOL     OW21919   3.040   4.201  17.673 -0.0516  0.1643 -0.8359
 3486SOL    HW121920   3.064   4.287   0.010 -0.1300 -0.1039 -0.1164
 3486SOL    HW221921   2.996   4.220  17.590 -1.0211 -1.4200 -0.7001
 3487SOL     OW21922   3.131   2.405   6.644  0.2700  0.0072  0.2817
 3487SOL    HW121923   3.102   2.492   6.672 -1.3766 -0.2609 -0.5742
 3487SOL    HW221924   3.064   2.340   6.664  0.0462 -0.2063 -1.1545
 3488SOL     OW21925   0.166   3.679   3.086  0.4876 -0.0895 -0.6219
 3488SOL    HW121926   0.086   3.633   3.107  1.2467 -0.2422  1.9578
 3488SOL    HW221927   0.175   3.736   3.163 -0.2714 -1.4241  0.4272
 3489SOL     OW21928   3.497   3.290  17.566  0.0361  0.4174  0.3923
 3489SOL    HW121929   3.591   3.295  17.585  0.0533  0.5884  0.2543
 3489SOL    HW221930   3.459   3.361  17.618 -0.9536  0.5033 -0.4544
 3490SOL     OW21931   2.325   0.356   3.391 -0.7165 -0.2605 -1.0080
 3490SOL    HW121932   2.364   0.362   3.303  0.8063  2.1711 -0.1806
 3490SOL    HW221933   2.375   0.282   3.424  1.6773  2.2139  0.9126
 3491SOL     OW21934   1.919   1.728  12.840 -0.2015  0.1570  0.2530
 3491SOL    HW121935   1.875   1.812  12.831  0.8106  0.8690  1.8969
 3491SOL    HW221936   1.998   1.725  12.786 -0.6363 -1.1430 -0.3260
 3492SOL     OW21937   4.639   0.931   6.644 -0.1642  0.7501  0.3382
 3492SOL    HW121938   4.566   0.989   6.622  0.9957  2.2085  0.3477
 3492SOL    HW221939   4.644   0.925   6.739 -0.4058  1.4446  0.3953
 3493SOL     OW21940   0.995   0.849   5.503 -0.0633  0.1408 -0.4653
 3493SOL    HW121941   1.078   0.838   5.457 -1.7607 -3.5573 -2.7341
 3493SOL    HW221942   0.939   0.831   5.427 -0.2798  1.0190 -0.5049
 3494SOL     OW21943   1.253   2.985   9.058  0.0948  0.3702 -0.2650
 3494SOL    HW121944   1.246   2.894   9.087 -0.5665  0.0146 -1.5574
 3494SOL    HW221945   1.335   2.978   9.010  0.2536  1.0784 -0.0910
 3495SOL     OW21946   3.313   4.037  12.523  0.3505 -0.3194 -0.2541
 3495SOL    HW121947   3.408   4.028  12.519  0.3090 -0.3267 -1.1250
 3495SOL    HW221948   3.289   4.088  12.446 -2.6507  1.5997  1.9359
 3496SOL     OW21949   3.228   0.786   9.276 -0.3198  0.4869  0.5988
 3496SOL    HW121950   3.200   0.794   9.185 -1.6856  0.4298  1.0139
 3496SOL    HW221951   3.141   0.783   9.316 -0.4442  3.1877  0.5464
 3497SOL     OW21952   2.385   3.511  14.682  0.7765  0.2373  0.2641
 3497SOL    HW121953   2.324   3.459  14.629  0.8994 -0.2284  0.5814
 3497SOL    HW221954   2.461   3.460  14.656  0.4163  0.2668 -0.8790
 3498SOL     OW21955   0.983   3.051  13.374 -0.4244  0.3451  0.4593
 3498SOL    HW121956   0.909   3.022  13.428 -1.6621  1.6395 -0.5403
 3498SOL    HW221957   1.023   2.965  13.361  0.4829  0.9250 -0.4698
 3499SOL     OW21958   2.093   3.934   3.032 -0.0953 -0.0413 -0.8275
 3499SOL    HW121959   2.118   3.987   2.957  0.5367  1.8030  0.7025
 3499SOL    HW221960   2.066   3.849   2.997  3.0976 -1.7909  0.9958
 3500SOL     OW21961   1.392   0.043  11.079 -0.4803  0.5142 -0.3246
 3500SOL    HW121962   1.376   0.079  11.166 -1.4729 -1.8446  0.4778
 3500SOL    HW221963   1.486   0.061  11.067 -0.6859 -0.2831 -3.2593
 3501SOL     OW21964   0.070   1.945  12.301  0.2689  0.2301  0.2538
 3501SOL    HW121965   4.721   1.985  12.348 -0.9872 -3.1140  1.0771
 3501SOL    HW221966   0.137   2.013  12.311 -1.7438  1.9739  1.9961
 3502SOL     OW21967   2.025   4.207   3.372 -0.7339  0.8939 -0.3365
 3502SOL    HW121968   2.086   4.280   3.357 -1.7327  1.7467 -0.2677
 3502SOL    HW221969   1.972   4.210   3.292 -0.9182  0.4975 -0.2294
 3503SOL     OW21970   2.888   2.595   6.382  0.2279 -0.2140 -0.4620
 3503SOL    HW121971   2.805   2.584   6.334  0.1009 -1.5123  0.0528
 3503SOL    HW221972   2.912   2.502   6.376 -3.4565 -1.1365 -1.2495
 3504SOL     OW21973   3.262   3.540  11.120  0.4030  0.0576  0.5640
 3504SOL    HW121974   3.212   3.551  11.201 -1.3574  1.9730 -0.7800
 3504SOL    HW221975   3.265   3.444  11.121 -1.1494  0.0021  0.1182
 3505SOL     OW21976   4.649   4.259   4.602 -0.3820 -0.2833 -0.1719
 3505SOL    HW121977   4.648   4.345   4.644  0.1547 -0.7160  0.7229
 3505SOL    HW221978   4.564   4.263   4.558 -0.6857 -1.3136  0.3186
 3506SOL     OW21979   4.637   2.634   6.641  0.3750  0.1910 -0.3672
 3506SOL    HW121980   4.607   2.721   6.667  5.4742  1.1797  2.0740
 3506SOL    HW221981   4.587   2.585   6.707 -0.9567  0.0010 -1.5211
 3507SOL     OW21982   3.909   0.882   8.767 -0.4634  0.4212  0.1069
 3507SOL    HW121983   3.856   0.876   8.847 -0.4747  0.4411  0.1011
 3507SOL    HW221984   3.854   0.942   8.717 -0.2029  0.5439 -0.0288
 3508SOL     OW21985   2.021   1.942   5.066  0.4092  0.8783 -0.7786
 3508SOL    HW121986   1.931   1.973   5.078 -0.8681 -3.3968  0.7044
 3508SOL    HW221987   2.024   1.848   5.084  0.0004  0.7736 -1.2742
 3509SOL     OW21988   1.349   1.894  14.326  0.6831  0.2185  0.6957
 3509SOL    HW121989   1.304   1.910  14.409 -3.9313  0.3973 -1.8403
 3509SOL    HW221990   1.382   1.804  14.333 -0.2561 -0.3146 -1.6615
 3510SOL     OW21991   0.786   3.268   6.875  0.5616 -0.0929  0.3168
 3510SOL    HW121992   0.875   3.256   6.842 -0.1463  0.2989 -1.7117
 3510SOL    HW221993   0.730   3.230   6.807 -0.2559 -1.1994  1.6250
 3511SOL     OW21994   4.309   3.776   2.676 -0.3419 -0.0751  0.4193
 3511SOL    HW121995   4.389   3.820   2.648  1.2214 -3.2427 -0.0919
 3511SOL    HW221996   4.336   3.684   2.684 -0.4537 -0.1969 -0.5773
 3512SOL     OW21997   4.514   4.517   8.426 -0.8356  0.2297 -0.0376
 3512SOL    HW121998   4.530   4.423   8.423 -1.2234  0.1311  1.1449
 3512SOL    HW221999   4.506   4.526   8.331  0.1925 -3.9066 -0.4982
 3513SOL     OW22000   3.133   0.186   5.230 -0.3835 -0.1900  0.0854
 3513SOL    HW122001   3.141   0.244   5.154 -0.7849 -0.6086 -0.2765
 3513SOL    HW222002   3.156   0.249   5.298 -2.1337 -2.6003  2.8972
 3514SOL     OW22003   2.625   3.445  14.997  0.5453  0.8114 -0.1942
 3514SOL    HW122004   2.687   3.411  15.063 -1.9913 -0.6694  1.4235
 3514SOL    HW222005   2.589   3.360  14.969  0.0074  0.9075  0.2148
 3515SOL     OW22006   1.541   0.583  15.310 -0.4624 -0.2961 -0.7316
 3515SOL    HW122007   1.559   0.489  15.311  1.3483  0.0212 -2.5627
 3515SOL    HW222008   1.630   0.619  15.314 -0.3231 -0.9036  1.3863
 3516SOL     OW22009   0.446   1.257   7.978  0.6334  0.3347 -0.2493
 3516SOL    HW122010   0.363   1.234   7.935  0.3219  1.6911 -0.3928
 3516SOL    HW222011   0.486   1.171   7.968 -0.2465 -0.0643 -0.3828
 3517SOL     OW22012   0.124   1.884   5.847  0.2194  0.0815 -0.0849
 3517SOL    HW122013   0.062   1.918   5.781 -0.4156  0.8556  0.9131
 3517SOL    HW222014   0.070   1.885   5.926  0.7792 -1.7066  0.3170
 3518SOL     OW22015   4.640   4.195   7.963 -0.1468  0.8659 -0.8511
 3518SOL    HW122016   4.552   4.189   7.925 -0.3130 -0.1367 -0.2818
 3518SOL    HW222017   4.616   4.150   8.043 -2.5494  1.2605 -1.3478
 3519SOL     OW22018   2.740   2.604   8.485 -0.1486 -0.1779 -0.3061
 3519SOL    HW122019   2.661   2.553   8.472  0.6698 -1.0349 -1.9519
 3519SOL    HW222020   2.733   2.670   8.416 -1.0928  0.8801  0.7991
 3520SOL     OW22021   0.359   3.490   3.246 -0.2464  0.0588 -0.6303
 3520SOL    HW122022   0.278   3.449   3.277 -1.3377  1.4424 -1.6838
 3520SOL    HW222023   0.341   3.579   3.277 -0.7812  0.4653 -2.1239
 3521SOL     OW22024   1.772   1.994  12.426  0.3234  0.2105 -0.8724
 3521SOL    HW122025   1.721   2.073  12.409 -1.4485 -0.3739  1.6937
 3521SOL    HW222026   1.761   1.954  12.340 -1.6066  1.2168 -1.0844
 3522SOL     OW22027   3.245   0.762   4.319  0.3397 -0.1485 -0.2955
 3522SOL    HW122028   3.298   0.697   4.365  1.1208  1.8532  1.6335
 3522SOL    HW222029   3.214   0.808   4.398 -2.6045 -0.4526 -1.2629
 3523SOL     OW22030   1.829   4.260   6.328 -0.7709 -0.0631  0.3300
 3523SOL    HW122031   1.759   4.325   6.337 -0.4454  0.4247 -0.7473
 3523SOL    HW222032   1.865   4.248   6.416  1.9469 -2.3521 -1.1112
 3524SOL     OW22033   0.818   0.787   8.145 -0.0632  0.5508 -0.7243
 3524SOL    HW122034   0.742   0.728   8.144  0.1338  0.2908 -0.5395
 3524SOL    HW222035   0.850   0.779   8.235 -1.1123  0.6055 -0.3392
 3525SOL     OW22036   4.345   0.223   5.937 -0.3880 -0.2932  0.3633
 3525SOL    HW122037   4.412   0.168   5.896  2.5250  1.7690  2.4588
 3525SOL    HW222038   4.327   0.295   5.876  0.1883 -0.9618 -0.5958
 3526SOL     OW22039   2.090   2.895   8.995 -0.1386 -0.1649  0.1162
 3526SOL    HW122040   2.072   2.982   8.959  1.7634  0.3236  0.3754
 3526SOL    HW222041   2.072   2.839   8.920  1.9379 -1.0920  0.3008
 3527SOL     OW22042   3.631   3.459  14.284  0.5693 -0.1339  0.3535
 3527SOL    HW122043   3.555   3.454  14.226  1.5744 -1.4208 -0.8405
 3527SOL    HW222044   3.587   3.412  14.355  2.0478 -0.2885  1.1621
 3528SOL     OW22045   3.932   1.915  15.015  0.0679  1.1483  0.0869
 3528SOL    HW122046   3.945   1.868  15.097 -1.1136  0.2550 -0.2337
 3528SOL    HW222047   3.872   1.981  15.050 -2.4264  1.0506 -4.0543
 3529SOL     OW22048   3.851   3.717  13.627 -0.2121  0.2300  0.3786
 3529SOL    HW122049   3.779   3.662  13.656 -2.7675  3.0324 -0.6660
 3529SOL    HW222050   3.797   3.793  13.604  1.2078  0.5887 -1.8186
 3530SOL     OW22051   1.270   2.441   5.347 -0.9906  0.0019  0.2411
 3530SOL    HW122052   1.176   2.438   5.363 -1.1513  0.4527 -0.6754
 3530SOL    HW222053   1.288   2.356   5.389 -2.1005  0.5997  1.9165
 3531SOL     OW22054   1.462   1.650  14.308  0.4647  0.0781 -1.1662
 3531SOL    HW122055   1.412   1.570  14.324 -0.6861  1.0929  0.3651
 3531SOL    HW222056   1.539   1.602  14.279 -0.4302 -2.9501  1.5674
 3532SOL     OW22057   1.718   3.920   4.216  0.0956 -0.0033 -0.6160
 3532SOL    HW122058   1.669   3.901   4.296 -0.2199  0.5658 -0.6729
 3532SOL    HW222059   1.779   3.990   4.238  0.6944 -0.1874 -1.6846
 3533SOL     OW22060   1.260   0.245  11.250 -0.0667 -0.0671 -0.0373
 3533SOL    HW122061   1.204   0.281  11.181 -0.8526 -2.6968 -0.7464
 3533SOL    HW222062   1.208   0.166  11.263  0.1405 -0.3952 -1.2251
 3534SOL     OW22063   2.372   2.339   3.235  0.3646 -0.1079  0.7484
 3534SOL    HW122064   2.391   2.359   3.144  1.7101 -1.4835  0.7332
 3534SOL    HW222065   2.300   2.399   3.256 -0.8424 -1.0916 -0.5369
 3535SOL     OW22066   2.273   4.129   0.819 -0.8314  0.0624  0.2541
 3535SOL    HW122067   2.308   4.142   0.731 -1.3430  0.1114  0.0588
 3535SOL    HW222068   2.346   4.092   0.870 -1.5821 -2.2925 -0.3759
 3536SOL     OW22069   4.111   0.003   1.074 -0.2248  0.0490 -0.0686
 3536SOL    HW122070   4.115   0.080   1.018  2.5130 -0.8967 -1.1631
 3536SOL    HW222071   4.144   4.669   1.005  0.6486  2.4348 -1.6669
 3537SOL     OW22072   0.909   1.673   3.984  0.5510 -0.5759  0.3160
 3537SOL    HW122073   0.819   1.696   3.961  0.0995 -1.5127  1.1400
 3537SOL    HW222074   0.948   1.713   3.907 -1.6135  1.8484  0.4827
 3538SOL     OW22075   1.090   3.386  17.272  0.3144 -0.0284  0.2646
 3538SOL    HW122076   1.090   3.468  17.322  0.9176  0.4494 -0.5178
 3538SOL    HW222077   1.065   3.330  17.345 -0.3971  0.0887  0.1099
 3539SOL     OW22078   4.250   0.263   3.871 -0.4975 -0.5666 -0.2785
 3539SOL    HW122079   4.155   0.248   3.865 -0.4149 -0.5769 -1.7417
 3539SOL    HW222080   4.264   0.352   3.837  1.0719  0.6272  3.5418
 3540SOL     OW22081   3.010   3.296   1.939 -0.0704 -0.0572 -0.1331
 3540SOL    HW122082   2.918   3.292   1.913 -0.4928 -0.2590  1.3947
 3540SOL    HW222083   3.029   3.207   1.968 -0.8452 -0.1018  0.2542
 3541SOL     OW22084   4.052   0.042   5.414 -0.9327 -0.2789  0.1083
 3541SOL    HW122085   4.141   0.018   5.387 -0.7768  0.3224  0.0815
 3541SOL    HW222086   4.006   0.063   5.333  0.5230  0.0539 -0.6388
 3542SOL     OW22087   3.533   2.246   6.527 -0.1263 -0.3864 -0.2023
 3542SOL    HW122088   3.617   2.291   6.541 -0.4672  0.2682 -0.2658
 3542SOL    HW222089   3.515   2.218   6.616 -1.1115  0.9722  0.0254
 3543SOL     OW22090   1.507   1.175   3.315  0.2402  0.1496  0.5377
 3543SOL    HW122091   1.436   1.112   3.305 -1.2602  1.6319  1.5946
 3543SOL    HW222092   1.454   1.247   3.280  0.6349 -0.5149 -1.4271
 3544SOL     OW22093   2.505   1.006   9.282  0.2536 -0.1138  0.7978
 3544SOL    HW122094   2.539   1.044   9.363 -1.2188  0.7626  0.9904
 3544SOL    HW222095   2.480   1.081   9.227  0.6213 -0.4430  0.1744
 3545SOL     OW22096   1.312   0.338  10.402  0.2335 -0.1870  0.7462
 3545SOL    HW122097   1.328   0.432  10.398 -0.9580 -0.0993 -2.2887
 3545SOL    HW222098   1.354   0.315  10.485  2.4720 -0.9261 -0.5760
 3546SOL     OW22099   2.281   4.521   3.238  0.0432 -0.0720 -0.3641
 3546SOL    HW122100   2.345   4.450   3.229  0.7844  0.3738  1.3440
 3546SOL    HW222101   2.250   4.499   3.326 -2.0268  1.0130 -0.8389
 3547SOL     OW22102   0.599   3.861   3.061 -1.0561  0.1194  0.0153
 3547SOL    HW122103   0.549   3.792   3.016  0.2811 -0.9737  0.1996
 3547SOL    HW222104   0.679   3.816   3.089 -0.8071  1.9015  2.1410
 3548SOL     OW22105   4.513   3.135   6.208  0.9875  0.4080  0.2014
 3548SOL    HW122106   4.581   3.139   6.140  0.2075 -1.1719 -0.6546
 3548SOL    HW222107   4.545   3.055   6.249 -2.3229 -1.5728 -1.1182
 3549SOL     OW22108   3.955   4.260   4.080 -0.4901  0.2570  0.7121
 3549SOL    HW122109   3.927   4.170   4.097 -3.8622  1.4785  1.4761
 3549SOL    HW222110   3.994   4.272   4.166 -2.3674  2.6576  1.2068
 3550SOL     OW22111   1.206   3.113   2.911  0.2094  0.0141  0.0849
 3550SOL    HW122112   1.182   3.022   2.896  2.4105 -0.5264 -0.1349
 3550SOL    HW222113   1.298   3.122   2.886 -0.4090  0.6027 -1.9775
 3551SOL     OW22114   4.552   3.911   5.568  0.0346  0.2032  0.2613
 3551SOL    HW122115   4.511   3.913   5.482  0.1737  1.8783  0.2204
 3551SOL    HW222116   4.511   3.837   5.613  1.9337 -0.9767  0.0529
 3552SOL     OW22117   1.415   2.578   4.607  0.4961 -0.1700 -0.4692
 3552SOL    HW122118   1.414   2.491   4.566  0.3439 -0.1379 -0.5336
 3552SOL    HW222119   1.336   2.620   4.574  1.1349 -0.0251 -1.8093
 3553SOL     OW22120   0.774   0.580  11.285 -0.0594 -0.2345 -0.4352
 3553SOL    HW122121   0.737   0.656  11.241 -1.9188 -0.2630  1.0549
 3553SOL    HW222122   0.777   0.520  11.210  0.3560 -0.9460  0.1433
 3554SOL     OW22123   2.280   4.425   7.577 -0.0988 -0.3019  0.4859
 3554SOL    HW122124   2.223   4.349   7.565  1.4970 -1.5462  0.7131
 3554SOL    HW222125   2.332   4.400   7.653  0.3846  0.2029  0.3209
 3555SOL     OW22126   4.409   3.988   5.339  0.7817  0.1538 -0.3194
 3555SOL    HW122127   4.326   3.976   5.293  1.8954 -1.6615 -1.8736
 3555SOL    HW222128   4.400   4.081   5.362 -0.2305  0.2514 -1.1081
 3556SOL     OW22129   1.129   2.175  16.716  0.4393 -0.0981 -0.1401
 3556SOL    HW122130   1.191   2.233  16.761  0.7255  0.3831 -1.1503
 3556SOL    HW222131   1.141   2.201  16.624  0.0186 -1.2171 -0.5126
 3557SOL     OW22132   1.051   3.548  10.106 -0.0512 -0.2133 -0.1430
 3557SOL    HW122133   1.038   3.472  10.048 -1.8141  0.3068 -0.4562
 3557SOL    HW222134   1.131   3.529  10.155 -1.2995 -1.5995  1.3727
 3558SOL     OW22135   2.563   4.343   7.203  0.3416  0.4815 -0.7902
 3558SOL    HW122136   2.500   4.410   7.177  0.0114 -0.6407 -2.9141
 3558SOL    HW222137   2.519   4.283   7.263 -0.0622  1.4028 -0.1781
 3559SOL     OW22138   2.141   3.529   8.077  0.0969 -0.1305  0.4491
 3559SOL    HW122139   2.203   3.508   8.147 -0.2862 -1.2235  0.4746
 3559SOL    HW222140   2.192   3.591   8.026 -0.1176 -0.3141  0.0129
 3560SOL     OW22141   0.057   4.388   8.270 -0.5212  0.5787 -0.2526
 3560SOL    HW122142   0.125   4.328   8.242  0.1349  1.4614 -0.5548
 3560SOL    HW222143   0.031   4.338   8.348  0.5546 -0.3023 -0.4643
 3561SOL     OW22144   3.266   0.094  12.768 -0.2733 -0.1473 -0.1293
 3561SOL    HW122145   3.319   0.098  12.847 -2.3813  0.4236  1.2447
 3561SOL    HW222146   3.184   0.077  12.813  0.3978  0.1978  1.2366
 3562SOL     OW22147   0.178   3.153   2.933  0.1911 -0.6260  0.1938
 3562SOL    HW122148   0.189   3.248   2.943 -0.6173 -0.4920 -0.1786
 3562SOL    HW222149   0.139   3.151   2.846  0.5362  0.0242  0.0226
 3563SOL     OW22150   0.766   3.756   1.937 -0.5176  0.1231 -0.7458
 3563SOL    HW122151   0.783   3.802   2.020 -0.7923  0.0891 -0.6702
 3563SOL    HW222152   0.673   3.770   1.919 -0.3613  0.7144 -1.1072
 3564SOL     OW22153   3.129   1.881  10.190 -0.1546 -0.1890 -0.2264
 3564SOL    HW122154   3.191   1.814  10.160  1.1094  1.3926 -1.1369
 3564SOL    HW222155   3.139   1.872  10.285 -0.1999  2.2538  0.0146
 3565SOL     OW22156   0.244   3.502   1.526  0.0464 -0.1652 -0.1722
 3565SOL    HW122157   0.212   3.419   1.560 -0.4790  1.3815  3.1624
 3565SOL    HW222158   0.301   3.528   1.599 -0.4936  1.3608 -0.2949
 3566SOL     OW22159   0.839   4.184  10.796 -0.0037  0.2898  0.3213
 3566SOL    HW122160   0.849   4.165  10.702 -2.6302 -2.0910  0.5317
 3566SOL    HW222161   0.782   4.260  10.785 -0.7802 -0.5343 -1.4138
 3567SOL     OW22162   2.369   0.116  10.094  0.0820  0.1329  0.3297
 3567SOL    HW122163   2.356   0.099  10.000 -1.1421  0.4255  0.4432
 3567SOL    HW222164   2.279   0.144  10.110 -0.1262 -0.4407  0.1879
 3568SOL     OW22165   1.049   4.294   2.257  0.5330  0.1463 -0.3915
 3568SOL    HW122166   0.979   4.251   2.306 -0.0857  0.3031 -1.1331
 3568SOL    HW222167   1.000   4.369   2.222 -1.0486 -0.7441 -0.0680
 3569SOL     OW22168   4.694   0.868  14.265  0.2942  0.1721 -0.0573
 3569SOL    HW122169   4.708   0.898  14.175 -0.2252 -0.1017 -0.2301
 3569SOL    HW222170   4.614   0.914  14.292  1.6677  1.4037  1.9262
 3570SOL     OW22171   4.160   1.625   0.821  0.6417  0.0951  0.2527
 3570SOL    HW122172   4.116   1.646   0.739  0.0421  0.8167  0.7573
 3570SOL    HW222173   4.094   1.564   0.853  1.6910 -0.6291  1.0584
 3571SOL     OW22174   0.902   4.375   3.060  0.2844  0.3138  0.3928
 3571SOL    HW122175   0.869   4.317   3.128 -0.1369  0.9117  0.7024
 3571SOL    HW222176   0.877   4.319   2.987  0.5713 -0.2079  0.6981
 3572SOL     OW22177   2.789   2.260   4.472  0.0162  0.2873  0.5980
 3572SOL    HW122178   2.711   2.302   4.509  0.5779  1.5351  0.3633
 3572SOL    HW222179   2.752   2.249   4.384 -0.5106  1.0110  0.7239
 3573SOL     OW22180   2.498   2.172   7.335 -0.2537  0.1002 -0.0318
 3573SOL    HW122181   2.563   2.109   7.368 -0.3627 -2.0356 -3.8441
 3573SOL    HW222182   2.498   2.246   7.395  0.4871  1.2124 -1.4202
 3574SOL     OW22183   1.694   0.163   3.181  0.2300 -0.1183  0.4021
 3574SOL    HW122184   1.689   0.068   3.190 -0.3012 -0.4255 -3.1939
 3574SOL    HW222185   1.771   0.163   3.124  1.1243  2.6583  1.6061
 3575SOL     OW22186   3.742   2.472   4.963 -0.0404  0.2659  0.3817
 3575SOL    HW122187   3.730   2.467   4.868  0.2094 -2.3145  0.4914
 3575SOL    HW222188   3.658   2.448   5.002  1.3209 -2.6796  1.4754
 3576SOL     OW22189   3.781   4.557   6.406 -0.0080  0.3573 -0.2070
 3576SOL    HW122190   3.877   4.562   6.401  0.1485 -1.1598  1.1608
 3576SOL    HW222191   3.759   4.649   6.418  1.3758  0.5896  0.6711
 3577SOL     OW22192   1.363   0.200   2.386 -0.7358 -0.2011 -0.4665
 3577SOL    HW122193   1.317   0.142   2.447  1.5007  0.3091  1.6972
 3577SOL    HW222194   1.438   0.226   2.439 -1.6636  0.4278  0.5502
 3578SOL     OW22195   2.529   0.107  10.594 -0.2247 -1.0549  0.3222
 3578SOL    HW122196   2.528   0.164  10.518 -1.6656  2.0173  2.6138
 3578SOL    HW222197   2.621   0.113  10.618 -0.2786  2.9076 -0.6493
 3579SOL     OW22198   3.189   1.960  13.147 -0.1359  0.1414 -0.4720
 3579SOL    HW122199   3.242   1.921  13.216  0.2859  1.2110 -0.1967
 3579SOL    HW222200   3.243   1.956  13.068  0.0907  0.5790 -0.3340
 3580SOL     OW22201   0.310   4.195   9.656 -0.5683  0.4841 -0.3065
 3580SOL    HW122202   0.362   4.203   9.576  1.4836 -0.6678  0.9073
 3580SOL    HW222203   0.366   4.254   9.707  0.6951 -1.0061  0.0068
 3581SOL     OW22204   3.629   0.172   1.490 -0.2896 -0.2940  0.0082
 3581SOL    HW122205   3.702   0.113   1.472 -1.7592 -2.0899 -0.1650
 3581SOL    HW222206   3.655   0.250   1.442  0.7309 -0.9333 -0.4807
 3582SOL     OW22207   2.907   1.935   9.055  0.0258  0.4581  0.0133
 3582SOL    HW122208   2.972   1.911   9.121 -2.3072 -0.8941  1.8254
 3582SOL    HW222209   2.832   1.880   9.078  0.7180 -0.0459  1.0403
 3583SOL     OW22210   1.996   0.886   2.778 -0.2249  0.0679  0.9047
 3583SOL    HW122211   1.902   0.884   2.792 -0.2361  0.2263  0.8554
 3583SOL    HW222212   2.023   0.806   2.823  1.8267  1.7385  2.6072
 3584SOL     OW22213   1.641   2.540  10.577 -0.1192 -0.5573  0.2693
 3584SOL    HW122214   1.672   2.496  10.657  0.7376 -0.9029 -0.2536
 3584SOL    HW222215   1.558   2.493  10.568 -0.1020 -0.8865  1.8086
 3585SOL     OW22216   0.126   3.634   1.320 -0.1173 -0.1885  0.0048
 3585SOL    HW122217   0.039   3.625   1.359 -0.5416 -0.6583 -1.0396
 3585SOL    HW222218   0.183   3.587   1.380 -1.4172 -0.0657  1.3365
 3586SOL     OW22219   3.566   0.485   6.401 -0.1467 -0.2885 -0.2793
 3586SOL    HW122220   3.531   0.422   6.464 -0.7845 -2.1857 -2.5378
 3586SOL    HW222221   3.653   0.497   6.439 -0.8213  1.5941  0.6380
 3587SOL     OW22222   2.368   1.997  12.073 -0.3697  0.0505 -0.3226
 3587SOL    HW122223   2.442   1.998  12.013  0.7520  1.9240  1.0851
 3587SOL    HW222224   2.369   1.915  12.124 -1.2826  0.3111  0.1217
 3588SOL     OW22225   0.055   1.431   6.526  0.1924 -0.0060 -0.0021
 3588SOL    HW122226   0.009   1.482   6.592  1.1311  0.1689  0.5150
 3588SOL    HW222227   0.013   1.346   6.538 -1.5215  0.7593 -0.6279
 3589SOL     OW22228   2.868   1.819   1.769  0.0771 -0.4935 -0.1282
 3589SOL    HW122229   2.913   1.741   1.736 -0.5292 -1.0490  0.3561
 3589SOL    HW222230   2.836   1.852   1.685 -0.2802  0.3093  0.3194
 3590SOL     OW22231   2.363   0.059   4.938  0.1598  0.0376  0.1363
 3590SOL    HW122232   2.424   0.103   4.879 -0.4115 -0.0694 -0.5327
 3590SOL    HW222233   2.400   0.081   5.024  0.7433 -2.3185  0.4986
 3591SOL     OW22234   2.278   3.793  15.398  0.1620 -0.0443 -0.0768
 3591SOL    HW122235   2.355   3.758  15.442 -1.6469 -0.0205  3.0820
 3591SOL    HW222236   2.262   3.723  15.334  3.1685 -0.3676 -0.4833
 3592SOL     OW22237   4.214   1.945  17.192  0.2334 -0.1513  0.1350
 3592SOL    HW122238   4.283   1.951  17.257  1.2635 -0.3391 -0.9364
 3592SOL    HW222239   4.157   2.010  17.233 -1.3750 -1.9953  0.8118
 3593SOL     OW22240   0.817   4.510   8.863 -0.2530  0.1205 -0.2963
 3593SOL    HW122241   0.855   4.481   8.780 -0.1041  1.7278 -0.7919
 3593SOL    HW222242   0.869   4.456   8.923 -0.6179 -1.7107 -1.6241
 3594SOL     OW22243   0.640   3.221   9.699 -0.4173  0.5269  0.1791
 3594SOL    HW122244   0.570   3.269   9.743 -2.5866  0.2323 -2.9735
 3594SOL    HW222245   0.633   3.135   9.741 -1.2670  0.8298  0.6634
 3595SOL     OW22246   3.484   0.840  17.382 -1.2065 -0.4364 -0.2975
 3595SOL    HW122247   3.492   0.764  17.325 -2.3387 -0.7034 -0.1057
 3595SOL    HW222248   3.422   0.814  17.449  0.3199 -0.8888  0.9283
 3596SOL     OW22249   4.723   3.761   6.463 -0.4623  0.1633 -0.0282
 3596SOL    HW122250   0.031   3.766   6.553 -0.1700  0.7163 -0.1648
 3596SOL    HW222251   4.714   3.667   6.453 -2.4881  0.2647  0.7779
 3597SOL     OW22252   3.982   2.521   9.612 -0.1752  0.1569  0.1123
 3597SOL    HW122253   4.045   2.498   9.544  0.1419  0.4450  0.3051
 3597SOL    HW222254   3.906   2.530   9.556  0.7953  1.5173 -0.9788
 3598SOL     OW22255   4.402   3.844   7.047  0.5227  0.7984 -0.1441
 3598SOL    HW122256   4.306   3.848   7.050  0.6737  4.3752 -0.2765
 3598SOL    HW222257   4.421   3.750   7.043  1.1118  0.9365 -0.6108
 3599SOL     OW22258   0.328   0.177  16.978 -0.2065 -0.1426 -0.1136
 3599SOL    HW122259   0.360   0.223  16.900  0.1109  0.6060  0.4577
 3599SOL    HW222260   0.240   0.214  16.992 -0.5478 -1.4561  1.2584
 3600SOL     OW22261   1.636   4.000   4.903 -0.1384 -0.6462  0.0965
 3600SOL    HW122262   1.583   3.978   4.827 -2.4101 -2.2222  2.1204
 3600SOL    HW222263   1.648   3.921   4.955 -1.0856 -0.6192  0.3628
 3601SOL     OW22264   4.081   4.356   7.701  0.4745 -0.0534 -0.8194
 3601SOL    HW122265   4.167   4.382   7.668  1.2456 -0.0246  1.2085
 3601SOL    HW222266   4.026   4.382   7.628  0.8504 -0.6401 -1.3064
 3602SOL     OW22267   3.311   1.591   4.257  0.2439  0.2071  0.7459
 3602SOL    HW122268   3.390   1.562   4.212 -1.1838 -2.1580 -0.2239
 3602SOL    HW222269   3.329   1.684   4.273 -0.6715  0.5746 -0.3945
 3603SOL     OW22270   3.101   3.199   5.427  0.1956 -0.0477 -0.2669
 3603SOL    HW122271   3.017   3.169   5.462 -0.2733  0.6163 -0.7954
 3603SOL    HW222272   3.151   3.118   5.425 -1.7044 -1.2391  1.3246
 3604SOL     OW22273   3.367   1.027   7.316  0.0656 -0.2261 -0.1474
 3604SOL    HW122274   3.427   0.984   7.378  0.2791 -0.5486 -0.5752
 3604SOL    HW222275   3.393   1.119   7.311 -0.1125 -0.3568 -3.3168
 3605SOL     OW22276   2.701   1.525   8.311  0.6041 -0.4297 -0.4023
 3605SOL    HW122277   2.732   1.490   8.394  0.1393 -1.4657 -0.6780
 3605SOL    HW222278   2.635   1.462   8.285 -0.9129 -0.1336  2.7379
 3606SOL     OW22279   1.687   0.811  11.304 -0.8439  0.4188  0.2864
 3606SOL    HW122280   1.719   0.801  11.215  0.3075 -0.1820  0.7669
 3606SOL    HW222281   1.636   0.730  11.303  0.7740 -0.6321  2.2299
 3607SOL     OW22282   4.693   4.701   9.727 -0.1160 -0.4876  0.2597
 3607SOL    HW122283   4.628   4.684   9.659  1.7116  0.2441 -1.6395
 3607SOL    HW222284   0.043   4.646   9.702  0.7108  0.5109  0.5351
 3608SOL     OW22285   2.448   0.124  16.591  0.2548  0.2158  0.5215
 3608SOL    HW122286   2.505   0.049  16.605  3.3102  2.5427  0.3685
 3608SOL    HW222287   2.475   0.193  16.652  2.3594 -0.1310 -0.0306
 3609SOL     OW22288   4.303   0.179   1.792  0.2607  0.0634 -0.3158
 3609SOL    HW122289   4.286   0.085   1.797 -0.0900  0.0713 -1.4748
 3609SOL    HW222290   4.316   0.181   1.697 -1.0701 -0.5081 -0.5079
 3610SOL     OW22291   3.870   2.747   6.965 -0.2569  0.2633  0.2834
 3610SOL    HW122292   3.785   2.713   6.995 -0.2819 -1.5370 -1.7646
 3610SOL    HW222293   3.868   2.835   7.001 -0.1707  1.3728 -2.4169
 3611SOL     OW22294   1.720   0.864   7.096  0.1988 -0.4880 -0.3309
 3611SOL    HW122295   1.643   0.918   7.077  0.4557  0.4273  1.1829
 3611SOL    HW222296   1.763   0.873   7.012  1.8167  0.7318  0.6332
 3612SOL     OW22297   3.438   0.296   7.920  0.1356  0.3466  0.8890
 3612SOL    HW122298   3.442   0.306   8.015 -1.7133  1.0043  0.8905
 3612SOL    HW222299   3.504   0.227   7.911 -0.3680 -0.3590  2.6107
 3613SOL     OW22300   2.290   0.673   3.786 -0.5229  0.2419 -0.2837
 3613SOL    HW122301   2.195   0.664   3.791 -0.5911 -0.6624 -2.7832
 3613SOL    HW222302   2.314   0.646   3.874 -1.3598  2.2551  0.5478
 3614SOL     OW22303   1.638   0.178   7.711 -0.5945  0.2410  0.3921
 3614SOL    HW122304   1.584   0.122   7.768  0.0185  1.0727  1.8070
 3614SOL    HW222305   1.710   0.117   7.691 -1.3343 -1.6950  3.4743
 3615SOL     OW22306   1.490   0.021  15.865  0.0333 -0.2536 -0.3451
 3615SOL    HW122307   1.505   0.099  15.919  1.7954 -0.8739  0.0488
 3615SOL    HW222308   1.397   0.019  15.889 -0.2840 -1.0771 -1.6652
 3616SOL     OW22309   4.093   2.742   3.556 -0.4227  0.1841  0.2996
 3616SOL    HW122310   4.113   2.719   3.465  0.1914  0.8116  0.2716
 3616SOL    HW222311   4.168   2.707   3.603 -0.4056  1.4962  1.2453
 3617SOL     OW22312   0.346   1.486   9.074  0.0320 -0.9644 -0.2575
 3617SOL    HW122313   0.410   1.517   9.138 -1.0431 -0.0194  0.3701
 3617SOL    HW222314   0.304   1.412   9.117 -1.2505  0.8689  1.6836
 3618SOL     OW22315   4.504   2.318   1.320 -0.3359  0.0818  0.2070
 3618SOL    HW122316   4.587   2.319   1.369 -0.9893  1.3766  1.3259
 3618SOL    HW222317   4.445   2.371   1.374  0.4359 -0.5383  1.6682
 3619SOL     OW22318   0.415   4.382  15.151  0.0791 -0.4955  0.0527
 3619SOL    HW122319   0.342   4.441  15.130 -0.3385 -0.5300  1.3508
 3619SOL    HW222320   0.403   4.355  15.242 -0.5926  1.5167  0.5720
 3620SOL     OW22321   4.635   3.989   2.198 -0.6190 -0.2767 -0.0601
 3620SOL    HW122322   4.630   4.038   2.116  0.0439  2.6520  1.6461
 3620SOL    HW222323   4.548   3.993   2.238 -0.6293  2.3925 -0.3296
 3621SOL     OW22324   1.239   3.674   8.302 -0.2430  0.5390 -0.1291
 3621SOL    HW122325   1.322   3.638   8.270 -0.3572  0.6533 -0.5653
 3621SOL    HW222326   1.274   3.738   8.363  1.6006  0.1251 -0.7248
 3622SOL     OW22327   1.519   0.330   3.879  0.4993 -0.1278 -0.1166
 3622SOL    HW122328   1.477   0.317   3.964 -3.0678  0.1255 -1.8535
 3622SOL    HW222329   1.598   0.282   3.903  1.8815  1.7790 -0.9139
 3623SOL     OW22330   2.268   2.940   4.747 -0.4514 -0.3090 -0.4103
 3623SOL    HW122331   2.188   2.988   4.767 -1.2533 -1.2851 -1.2785
 3623SOL    HW222332   2.297   2.921   4.837 -0.8592 -0.5897 -0.3399
 3624SOL     OW22333   0.087   0.693  11.896  0.5917 -0.4695 -0.2237
 3624SOL    HW122334   0.060   0.652  11.978 -0.7521  1.1163  0.1358
 3624SOL    HW222335   0.175   0.725  11.917  0.9626 -0.7280 -1.3508
 3625SOL     OW22336   2.998   0.439   6.175  0.1815 -0.1722  0.2256
 3625SOL    HW122337   3.053   0.428   6.252 -2.4901 -1.9272  1.8955
 3625SOL    HW222338   3.024   0.370   6.115 -0.5497  0.4729 -0.8383
 3626SOL     OW22339   2.779   1.494   9.602  0.1736  0.1913  0.5090
 3626SOL    HW122340   2.776   1.429   9.672  3.1527 -0.9253 -0.4338
 3626SOL    HW222341   2.736   1.569   9.644  2.3363  0.6566  1.8633
 3627SOL     OW22342   0.191   4.583   6.710  0.1135  0.3176 -0.0600
 3627SOL    HW122343   0.096   4.595   6.713  0.1734  0.6628  0.3746
 3627SOL    HW222344   0.193   4.501   6.660  1.8624  0.2091  0.1835
 3628SOL     OW22345   3.790   4.461   0.892 -0.9071 -0.1356  0.3531
 3628SOL    HW122346   3.700   4.442   0.867 -0.3870 -1.5908 -0.3775
 3628SOL    HW222347   3.802   4.415   0.974  1.6233  0.7204  0.4599
 3629SOL     OW22348   1.951   1.978   9.282 -0.1182  0.3016 -0.1684
 3629SOL    HW122349   2.006   2.008   9.355  0.6805  0.1525 -0.7130
 3629SOL    HW222350   1.917   2.064   9.257 -2.9168 -0.9775 -0.6460
 3630SOL     OW22351   3.569   0.035   9.067 -0.3365 -0.7424 -0.1267
 3630SOL    HW122352   3.632   4.708   9.017 -0.4146 -1.7956  0.8390
 3630SOL    HW222353   3.516   4.704   9.124 -0.3011  0.4460  1.0828
 3631SOL     OW22354   0.960   3.380   5.076 -0.1268  0.1266 -0.6133
 3631SOL    HW122355   0.967   3.399   4.982 -2.0267 -0.8583 -0.9546
 3631SOL    HW222356   0.889   3.316   5.076  0.1480 -0.1664  0.7039
 3632SOL     OW22357   3.923   0.649  16.641 -0.2774  0.3192  0.5797
 3632SOL    HW122358   3.850   0.677  16.585  1.6038 -1.8281 -2.8797
 3632SOL    HW222359   3.938   0.728  16.694  0.6400  1.3481 -1.2114
 3633SOL     OW22360   0.217   2.164  12.344 -0.3608 -0.3156 -0.6762
 3633SOL    HW122361   0.182   2.250  12.318 -0.3648 -0.4856 -1.2418
 3633SOL    HW222362   0.188   2.160  12.435 -0.5966 -1.7196 -0.8245
 3634SOL     OW22363   0.807   4.155   5.698  0.2162 -0.6182 -0.6001
 3634SOL    HW122364   0.795   4.120   5.609  0.8224 -3.6264  0.5002
 3634SOL    HW222365   0.716   4.157   5.728  1.0695  5.3733  1.6267
 3635SOL     OW22366   1.296   3.069   2.435 -0.6537  0.1658 -0.4828
 3635SOL    HW122367   1.297   2.996   2.373 -0.4693 -1.2620  1.1832
 3635SOL    HW222368   1.212   3.107   2.413 -0.6274  1.3997  1.5127
 3636SOL     OW22369   3.835   1.465   5.821  0.0518  0.0858 -0.1651
 3636SOL    HW122370   3.799   1.396   5.877 -1.3552 -0.0404 -1.2103
 3636SOL    HW222371   3.801   1.431   5.738  0.2387  0.1647 -0.2743
 3637SOL     OW22372   4.253   1.869  16.827  0.3074  0.1269 -0.1810
 3637SOL    HW122373   4.320   1.893  16.891  0.7087 -0.1206 -0.5042
 3637SOL    HW222374   4.308   1.828  16.760  1.4531 -0.3376  1.0570
 3638SOL     OW22375   0.103   3.845   3.981  0.3320  0.6942 -0.3724
 3638SOL    HW122376   0.105   3.908   4.053 -1.4809 -1.8281  1.9090
 3638SOL    HW222377   0.108   3.904   3.906  1.2047 -1.4757 -2.0259
 3639SOL     OW22378   0.413   4.486   6.042 -0.0026 -0.0305 -0.3573
 3639SOL    HW122379   0.396   4.568   6.088  1.1221 -0.0191  0.0294
 3639SOL    HW222380   0.440   4.514   5.954 -0.9097  2.5032  0.1816
 3640SOL     OW22381   3.595   0.306   2.296 -0.0420  0.0380 -0.3780
 3640SOL    HW122382   3.630   0.293   2.208  0.0007  0.3117 -0.4037
 3640SOL    HW222383   3.576   0.399   2.285 -0.4864 -0.2241 -1.8072
 3641SOL     OW22384   0.795   0.835   5.080 -0.2539  0.7565 -0.4485
 3641SOL    HW122385   0.736   0.760   5.071 -2.0759  2.1327 -0.1933
 3641SOL    HW222386   0.826   0.835   4.989 -2.0455 -1.7099 -1.0554
 3642SOL     OW22387   0.453   3.379   9.134  0.2371 -0.1448 -0.1014
 3642SOL    HW122388   0.467   3.291   9.170 -0.3873 -1.4338 -2.9906
 3642SOL    HW222389   0.461   3.440   9.207  0.6187  0.4728 -0.6544
 3643SOL     OW22390   2.616   0.495   0.793  0.5383  0.1737  0.4165
 3643SOL    HW122391   2.604   0.468   0.702  1.7982  1.0751 -0.0195
 3643SOL    HW222392   2.529   0.533   0.808 -0.2457 -1.0821 -0.9290
 3644SOL     OW22393   2.222   0.154   6.370  0.9161 -0.1061  0.1180
 3644SOL    HW122394   2.185   0.107   6.296 -0.2256  0.5587  0.2645
 3644SOL    HW222395   2.266   0.089   6.426 -1.0409 -0.9593  0.6520
 3645SOL     OW22396   2.064   2.843   4.126  0.8082  0.0693  0.5129
 3645SOL    HW122397   2.089   2.783   4.196 -0.1528 -3.3279 -2.0719
 3645SOL    HW222398   2.144   2.837   4.073  1.4933 -0.3661  1.5947
 3646SOL     OW22399   3.332   2.515   2.781 -0.5918  0.3556 -0.3037
 3646SOL    HW122400   3.339   2.609   2.797  1.5422  0.1604 -0.1029
 3646SOL    HW222401   3.288   2.486   2.861 -0.0019 -1.5226 -0.6502
 3647SOL     OW22402   1.034   3.753  16.607 -0.4559  0.1511  0.0926
 3647SOL    HW122403   1.025   3.752  16.702 -0.4577 -0.2194  0.0893
 3647SOL    HW222404   1.012   3.845  16.592  1.8610  0.5957 -0.6637
 3648SOL     OW22405   1.051   1.052   1.790  0.2740  0.0853  0.6314
 3648SOL    HW122406   0.981   0.987   1.787  0.3240  0.0531  0.1455
 3648SOL    HW222407   1.002   1.134   1.801  0.6024  0.4877 -0.8619
 3649SOL     OW22408   4.235   3.848   5.201  0.1843  0.0588  0.5520
 3649SOL    HW122409   4.248   3.854   5.106 -0.6861  0.0833  0.4369
 3649SOL    HW222410   4.139   3.847   5.202  0.2354 -2.6925  1.1276
 3650SOL     OW22411   3.672   2.475  13.979  0.4715 -0.0933 -0.1473
 3650SOL    HW122412   3.756   2.485  14.024  1.6353  0.7433 -2.4644
 3650SOL    HW222413   3.681   2.547  13.916  3.1495  0.5118  0.9189
 3651SOL     OW22414   1.792   1.975   5.759  0.0629 -0.2198  0.1095
 3651SOL    HW122415   1.766   1.884   5.775  0.2315 -0.5979 -1.6643
 3651SOL    HW222416   1.704   2.012   5.752 -0.3657 -1.5807 -1.9044
 3652SOL     OW22417   0.475   0.109   7.369 -1.0843 -0.2261 -0.2978
 3652SOL    HW122418   0.441   0.198   7.370 -0.5501 -0.0119 -1.4959
 3652SOL    HW222419   0.531   0.122   7.446  1.1279 -0.2783 -1.9040
 3653SOL     OW22420   2.967   1.292   8.876 -0.1870 -0.2616 -0.0248
 3653SOL    HW122421   2.918   1.357   8.825 -0.6252  1.6267  2.7797
 3653SOL    HW222422   2.940   1.314   8.965 -2.7095  0.3166 -0.9364
 3654SOL     OW22423   2.832   1.883   1.513  0.3349 -0.0581 -0.1406
 3654SOL    HW122424   2.777   1.930   1.450 -0.6206 -1.9431 -0.7305
 3654SOL    HW222425   2.840   1.800   1.465 -0.6741  0.9188 -2.0424
 3655SOL     OW22426   0.567   2.778   5.731 -0.2282 -0.3580 -0.2324
 3655SOL    HW122427   0.493   2.814   5.683 -0.6097 -0.2183  0.4577
 3655SOL    HW222428   0.577   2.697   5.681  3.0087 -1.7216  2.5891
 3656SOL     OW22429   0.455   1.297   5.205  0.4190 -0.0757  0.4760
 3656SOL    HW122430   0.541   1.258   5.188  1.0393  1.4209  0.2140
 3656SOL    HW222431   0.481   1.322   5.293  2.0226  0.2185 -0.0878
 3657SOL     OW22432   1.146   0.028  14.374 -0.4921  0.0256  0.2932
 3657SOL    HW122433   1.164   4.664  14.405 -2.1386  0.5468  2.7883
 3657SOL    HW222434   1.151   0.067  14.462 -0.9677  0.7535  0.0039
 3658SOL     OW22435   3.657   4.264   0.225  0.4070  0.2059  0.5173
 3658SOL    HW122436   3.727   4.313   0.182  1.4169 -0.6833  1.1327
 3658SOL    HW222437   3.636   4.191   0.166  2.3595 -0.9705  1.2765
 3659SOL     OW22438   2.727   1.409   4.462 -0.1358  0.3418  0.5318
 3659SOL    HW122439   2.736   1.504   4.453 -0.7620  0.7375  3.9180
 3659SOL    HW222440   2.761   1.384   4.377 -0.7108 -0.5221  0.5576
 3660SOL     OW22441   3.283   4.584   4.293 -0.4381  0.3457 -0.1029
 3660SOL    HW122442   3.268   4.543   4.378 -0.6017  0.0199 -0.2874
 3660SOL    HW222443   3.222   4.536   4.236  1.5993 -2.0622 -0.2695
 3661SOL     OW22444   3.694   2.514  16.158 -0.4244 -0.0770  0.2742
 3661SOL    HW122445   3.730   2.531  16.070  1.2984 -1.0869  0.7837
 3661SOL    HW222446   3.668   2.605  16.177 -0.1573 -0.0227  0.3843
 3662SOL     OW22447   2.635   4.276   3.550 -0.4981  0.5505 -0.3913
 3662SOL    HW122448   2.693   4.274   3.474  0.9533  0.6469  0.6956
 3662SOL    HW222449   2.580   4.199   3.536  0.0383  0.4482 -1.9548
 3663SOL     OW22450   0.879   0.716   7.544 -0.0239 -0.2682 -0.1232
 3663SOL    HW122451   0.832   0.678   7.619 -0.0726  0.1130  0.0384
 3663SOL    HW222452   0.969   0.688   7.563 -0.2461 -2.0247 -1.7233
 3664SOL     OW22453   4.065   1.965   8.654  0.6240 -0.4006  0.8527
 3664SOL    HW122454   4.149   1.921   8.667 -0.1991 -2.6344 -1.5148
 3664SOL    HW222455   4.003   1.893   8.668  0.1118 -0.0776  0.1807
 3665SOL     OW22456   1.734   0.690   5.475  0.1275  0.4824  0.3095
 3665SOL    HW122457   1.733   0.650   5.562 -2.3688 -0.0387  0.0309
 3665SOL    HW222458   1.814   0.659   5.433  1.0339  0.9245  1.7146
 3666SOL     OW22459   4.305   3.059   6.582  0.0078 -0.2753 -0.1164
 3666SOL    HW122460   4.323   3.128   6.646 -0.7825  1.9282 -2.2788
 3666SOL    HW222461   4.325   3.111   6.504 -1.3009 -2.4560 -1.9062
 3667SOL     OW22462   0.406   0.166   5.064  0.4529 -0.7895  0.2434
 3667SOL    HW122463   0.369   0.199   4.981  0.8362 -0.5721  0.1596
 3667SOL    HW222464   0.331   0.148   5.120 -0.4893 -3.8191 -1.9764
 3668SOL     OW22465   1.589   3.576   8.887 -0.6123 -0.1330  0.1737
 3668SOL    HW122466   1.635   3.542   8.963  0.6503  1.9641  0.3367
 3668SOL    HW222467   1.653   3.617   8.829  0.9515 -2.6031  0.1519
 3669SOL     OW22468   0.147   4.631   1.990 -0.1361  0.0330  0.2296
 3669SOL    HW122469   0.200   4.636   1.910  1.3629  0.6196  1.2739
 3669SOL    HW222470   0.216   4.651   2.052  1.0870  0.2009 -1.1803
 3670SOL     OW22471   3.248   3.665  15.681 -0.0883  0.4215  0.1182
 3670SOL    HW122472   3.329   3.651  15.632 -1.3167 -0.7933 -1.5375
 3670SOL    HW222473   3.272   3.641  15.771 -1.4405  1.7272  0.8231
 3671SOL     OW22474   4.587   3.732  13.773  0.7581 -0.2616  0.0307
 3671SOL    HW122475   4.537   3.741  13.692 -0.5905  0.6036  0.9638
 3671SOL    HW222476   4.646   3.808  13.776 -0.4971  0.7406 -1.3750
 3672SOL     OW22477   1.790   1.223   4.502  0.9139  1.0924 -0.0286
 3672SOL    HW122478   1.815   1.245   4.413  0.3919 -1.6713 -0.8646
 3672SOL    HW222479   1.840   1.142   4.508 -0.1147  0.5681  1.5953
 3673SOL     OW22480   2.317   4.364   6.853 -0.1916 -0.1154  0.0965
 3673SOL    HW122481   2.407   4.396   6.860  0.0686 -0.7133 -0.4147
 3673SOL    HW222482   2.331   4.277   6.890  0.0442  0.7184  1.9754
 3674SOL     OW22483   0.874   3.335   6.239  0.2880 -0.1138 -0.6149
 3674SOL    HW122484   0.894   3.265   6.302 -1.9019 -0.3780 -0.2140
 3674SOL    HW222485   0.781   3.318   6.224  0.6142 -1.7540 -0.8468
 3675SOL     OW22486   0.200   3.512   6.893 -0.0188  0.3376  0.3547
 3675SOL    HW122487   0.164   3.497   6.981  0.7666 -1.0811  0.4271
 3675SOL    HW222488   0.254   3.591   6.901  0.9821 -0.2274 -0.7548
 3676SOL     OW22489   1.830   0.785   8.008  0.4779  0.7436  0.4738
 3676SOL    HW122490   1.778   0.706   7.992  1.8039  0.2793 -1.4391
 3676SOL    HW222491   1.883   0.803   7.931 -0.6987 -0.2071 -0.5529
 3677SOL     OW22492   4.414   0.093   9.901 -0.1672  0.0408 -0.3316
 3677SOL    HW122493   4.498   0.118   9.941 -0.8167  1.4457  0.1627
 3677SOL    HW222494   4.373   0.038   9.967 -0.4159 -0.8037 -1.1947
 3678SOL     OW22495   2.732   3.689   2.636  0.1025 -0.1670  0.1988
 3678SOL    HW122496   2.804   3.630   2.612  1.4685  1.0142  1.4687
 3678SOL    HW222497   2.721   3.755   2.567 -0.2100 -1.6214 -1.1536
 3679SOL     OW22498   1.135   4.040   8.182 -0.2259 -0.6938  0.7003
 3679SOL    HW122499   1.120   4.073   8.271  0.1709 -0.6178  0.7359
 3679SOL    HW222500   1.090   3.957   8.196 -0.0097 -0.8544  0.4210
 3680SOL     OW22501   2.006   1.843  13.495 -0.2436  0.0916  0.2102
 3680SOL    HW122502   1.994   1.923  13.444 -1.4595  0.1755  0.6259
 3680SOL    HW222503   1.969   1.884  13.574  1.5055 -0.3138  1.2312
 3681SOL     OW22504   1.778   2.081   7.745 -0.2064 -0.1912  0.5615
 3681SOL    HW122505   1.856   2.046   7.787  0.7475  1.7343  0.3660
 3681SOL    HW222506   1.712   2.020   7.778 -0.1909 -0.1228  0.7207
 3682SOL     OW22507   1.087   2.852  12.079 -0.6432 -0.0612  0.1816
 3682SOL    HW122508   1.023   2.908  12.036 -1.9975 -1.2680  0.6302
 3682SOL    HW222509   1.058   2.832  12.168  0.5110 -1.7812  0.1757
 3683SOL     OW22510   1.658   2.884   5.796 -0.3848  0.3805 -0.0060
 3683SOL    HW122511   1.667   2.811   5.736 -1.4339 -0.1643  0.5049
 3683SOL    HW222512   1.668   2.960   5.739  1.3869  2.4910  3.1064
 3684SOL     OW22513   2.961   3.867   4.772  0.3908  0.2502 -0.4593
 3684SOL    HW122514   2.873   3.853   4.805  1.0630 -0.2990  1.1348
 3684SOL    HW222515   2.992   3.884   4.861 -2.0523 -1.4750  0.7014
 3685SOL     OW22516   4.639   1.899   3.631  0.5519  0.0989  0.1036
 3685SOL    HW122517   4.569   1.839   3.606 -0.6613  1.9963 -1.0830
 3685SOL    HW222518   4.629   1.887   3.725 -0.4817  0.3868  0.0339
 3686SOL     OW22519   3.591   0.300  12.618 -0.8390  0.3842 -0.0078
 3686SOL    HW122520   3.672   0.347  12.599 -0.6306 -0.9348 -2.2917
 3686SOL    HW222521   3.624   0.212  12.603  0.3255  0.5519  1.5226
 3687SOL     OW22522   1.118   1.247  14.666  0.5442  0.3754 -0.3139
 3687SOL    HW122523   1.203   1.263  14.627  1.3692 -0.0119  1.3153
 3687SOL    HW222524   1.055   1.261  14.595 -0.0691  2.0610  0.5547
 3688SOL     OW22525   1.968   4.288   5.360  0.2141  0.3917 -0.5043
 3688SOL    HW122526   1.960   4.362   5.422  0.1224 -0.2525  0.2561
 3688SOL    HW222527   2.030   4.328   5.300 -1.5217  1.0313 -1.8635
 3689SOL     OW22528   4.005   3.328   6.748  0.5198 -0.1885  0.7342
 3689SOL    HW122529   4.002   3.317   6.653 -0.7212  0.9091  0.6452
 3689SOL    HW222530   4.065   3.403   6.744 -0.7031  0.7968  0.8362
 3690SOL     OW22531   2.084   2.627   7.226 -0.1761  0.2165 -0.4338
 3690SOL    HW122532   2.170   2.608   7.265 -1.2607 -0.9543  1.3511
 3690SOL    HW222533   2.072   2.546   7.176 -0.7860  0.0246  0.0329
 3691SOL     OW22534   0.013   1.701   3.258 -0.4986 -0.1341  0.0970
 3691SOL    HW122535   4.676   1.741   3.196  0.8478  0.0923 -1.0661
 3691SOL    HW222536   4.692   1.621   3.286  0.0433 -0.0179  1.2898
 3692SOL     OW22537   0.591   4.656   4.053  0.1848 -0.3633  0.6295
 3692SOL    HW122538   0.662   4.692   4.106 -0.0020  1.3766 -0.3203
 3692SOL    HW222539   0.573   4.711   3.976  0.0557 -1.3244 -0.0284
 3693SOL     OW22540   4.600   1.179  15.695  0.1754 -0.2931  0.0307
 3693SOL    HW122541   4.545   1.256  15.687 -0.5225 -0.8578 -0.5565
 3693SOL    HW222542   4.536   1.111  15.717  0.1266 -0.2275  0.0888
 3694SOL     OW22543   3.418   4.327   2.023  0.5934  0.6574 -0.4709
 3694SOL    HW122544   3.344   4.267   2.011  1.2895 -0.0328 -1.3280
 3694SOL    HW222545   3.454   4.318   1.935 -0.5955 -0.8563 -0.8042
 3695SOL     OW22546   3.756   1.367   5.593  0.3483  0.1035  0.0613
 3695SOL    HW122547   3.821   1.371   5.522 -1.6353 -1.1457 -1.8304
 3695SOL    HW222548   3.757   1.272   5.605  2.2824  0.4232  2.4208
 3696SOL     OW22549   0.184   1.864  14.105 -0.0943 -0.1262 -0.1171
 3696SOL    HW122550   0.136   1.796  14.058  1.1873 -1.6228  0.7764
 3696SOL    HW222551   0.114   1.926  14.127 -0.8449 -0.8684 -0.4153
 3697SOL     OW22552   3.016   2.657   6.738  0.0107  0.0677 -0.0242
 3697SOL    HW122553   2.998   2.713   6.813  0.1304  0.6337 -0.4146
 3697SOL    HW222554   3.106   2.681   6.715 -0.1059 -1.0410 -1.6599
 3698SOL     OW22555   0.623   2.636   1.948  0.0215 -0.1734 -0.0575
 3698SOL    HW122556   0.568   2.664   1.875  1.9182 -0.0339 -1.4296
 3698SOL    HW222557   0.645   2.720   1.988 -1.8060  0.1204  0.3726
 3699SOL     OW22558   2.249   0.393   8.120  0.0380  0.2069  0.2117
 3699SOL    HW122559   2.184   0.353   8.179  0.1550 -1.6904 -0.9412
 3699SOL    HW222560   2.209   0.472   8.084 -0.9002  0.0331  0.8634
 3700SOL     OW22561   2.354   0.298   7.889  0.6601  0.1718 -0.1618
 3700SOL    HW122562   2.339   0.317   7.981  3.2632  2.6667 -0.2383
 3700SOL    HW222563   2.280   0.338   7.843  0.2505 -1.0963 -0.6036
 3701SOL     OW22564   3.331   0.897   0.906  0.0443 -0.4661 -0.3043
 3701SOL    HW122565   3.344   0.968   0.969  0.5999 -2.3688  1.7331
 3701SOL    HW222566   3.423   0.872   0.900  0.2591  0.0889  0.6960
 3702SOL     OW22567   4.122   1.300   6.458  0.2015  0.3473  0.6860
 3702SOL    HW122568   4.130   1.241   6.533 -2.4637 -0.2708  0.4943
 3702SOL    HW222569   4.205   1.348   6.458 -0.2428  1.1215  0.4466
 3703SOL     OW22570   2.500   0.469   6.404  0.0642 -0.6135  0.2768
 3703SOL    HW122571   2.490   0.486   6.498 -2.6245 -1.2823  0.0901
 3703SOL    HW222572   2.537   0.554   6.379 -0.7924 -0.2293  0.3263
 3704SOL     OW22573   1.264   1.021   3.318  0.3012  0.1741 -0.5827
 3704SOL    HW122574   1.318   0.945   3.343  1.3950  2.4803  4.0400
 3704SOL    HW222575   1.176   0.997   3.347  0.2332 -0.8662 -1.6160
 3705SOL     OW22576   3.072   3.931  10.394  0.5814 -0.4568  0.1774
 3705SOL    HW122577   3.148   3.890  10.435  0.9167  1.2539  1.2332
 3705SOL    HW222578   3.076   4.014  10.441  2.3629  0.6773 -1.9844
 3706SOL     OW22579   2.429   3.037   8.182 -0.3039  0.3491  0.3423
 3706SOL    HW122580   2.427   3.002   8.093  0.4833  1.6651 -0.1998
 3706SOL    HW222581   2.355   3.097   8.177 -0.7239 -0.1373  0.7633
 3707SOL     OW22582   0.148   2.990   2.324  0.2938 -0.0236 -0.2336
 3707SOL    HW122583   0.194   3.072   2.338  0.0555  0.1829 -0.6758
 3707SOL    HW222584   0.217   2.942   2.278 -0.4185 -0.3127 -1.0090
 3708SOL     OW22585   3.013   0.171   3.453  0.6320  0.5663 -0.6484
 3708SOL    HW122586   3.050   0.097   3.501  1.2330  0.3985 -1.3710
 3708SOL    HW222587   3.084   0.233   3.472 -0.1213  1.1565  0.2930
 3709SOL     OW22588   1.556   3.090  12.555 -0.1985 -0.1982  0.0822
 3709SOL    HW122589   1.642   3.122  12.529 -1.1235  1.8752 -0.4652
 3709SOL    HW222590   1.535   3.034  12.480  3.2072 -0.9469 -0.2863
 3710SOL     OW22591   4.576   0.363   8.680 -0.1621  0.3197  0.6174
 3710SOL    HW122592   4.524   0.336   8.756 -0.5281 -1.4369 -0.2609
 3710SOL    HW222593   4.548   0.455   8.676  0.6113  0.4682 -1.3247
 3711SOL     OW22594   1.603   2.270  17.420  0.3998  0.3410 -0.2321
 3711SOL    HW122595   1.583   2.353  17.463 -2.8119  0.0397 -1.1485
 3711SOL    HW222596   1.662   2.296  17.349 -0.2985  0.3847 -0.7987
 3712SOL     OW22597   4.516   3.681   0.827  0.1764  0.4864  0.1861
 3712SOL    HW122598   4.607   3.653   0.843 -0.0839  0.3781  1.4932
 3712SOL    HW222599   4.524   3.740   0.753  1.1178  1.1482  0.8199
 3713SOL     OW22600   2.304   4.300  17.040  0.0973 -0.1177 -0.6154
 3713SOL    HW122601   2.321   4.232  17.105  0.2004 -3.4327 -4.1068
 3713SOL    HW222602   2.329   4.378  17.090 -1.0519 -1.3951  1.9857
 3714SOL     OW22603   2.776   3.798   5.548 -0.1658 -0.1247 -0.0866
 3714SOL    HW122604   2.687   3.787   5.514 -1.7055  0.5937  3.7328
 3714SOL    HW222605   2.761   3.791   5.642 -0.8915  1.2163 -0.0969
 3715SOL     OW22606   2.699   3.480  13.325  0.2054  0.0313 -0.4492
 3715SOL    HW122607   2.688   3.548  13.259  0.9757 -1.2962 -1.9732
 3715SOL    HW222608   2.709   3.525  13.408 -1.1720 -0.7663  0.1504
 3716SOL     OW22609   0.151   0.841   4.715  0.2471 -0.0890 -0.3152
 3716SOL    HW122610   0.164   0.886   4.632  0.8413  0.7275  0.2228
 3716SOL    HW222611   0.058   0.857   4.731  0.2011 -1.8750  1.2744
 3717SOL     OW22612   0.620   3.579   5.995  0.3914  0.2291 -0.6423
 3717SOL    HW122613   0.536   3.604   5.956 -1.5074 -2.0322  1.9603
 3717SOL    HW222614   0.622   3.648   6.060 -1.2950 -0.5748  0.2622
 3718SOL     OW22615   1.539   1.927  11.090 -0.3712  0.2030  0.5086
 3718SOL    HW122616   1.621   1.946  11.137  1.2181 -0.2837 -2.0614
 3718SOL    HW222617   1.566   1.863  11.024 -0.2144  1.5938 -0.7778
 3719SOL     OW22618   1.760   2.853   4.113 -0.1099 -0.8227 -0.5994
 3719SOL    HW122619   1.853   2.828   4.115  0.6568  1.8528 -2.5287
 3719SOL    HW222620   1.764   2.907   4.034 -1.7878  0.2359  0.0356
 3720SOL     OW22621   1.466   0.716   2.850 -0.4297 -0.0691  0.4859
 3720SOL    HW122622   1.459   0.775   2.775  1.8313  1.4335  1.4634
 3720SOL    HW222623   1.373   0.693   2.850 -0.9370  1.9841  1.3216
 3721SOL     OW22624   1.254   4.118   2.258  0.1577  0.0738 -0.5995
 3721SOL    HW122625   1.248   4.099   2.351 -0.0478  2.3479 -0.1528
 3721SOL    HW222626   1.196   4.192   2.242 -1.1767 -0.6968  0.6648
 3722SOL     OW22627   1.443   2.675   5.354  0.4188  0.2890  0.0183
 3722SOL    HW122628   1.416   2.717   5.436  0.6416 -0.6956  0.6007
 3722SOL    HW222629   1.387   2.599   5.371  0.7958 -0.5181 -2.4196
 3723SOL     OW22630   1.686   3.780  11.414  0.2965 -0.0123 -0.1091
 3723SOL    HW122631   1.754   3.719  11.444 -0.4461 -0.0726  1.4675
 3723SOL    HW222632   1.638   3.732  11.348 -0.4527 -0.8013  1.0191
 3724SOL     OW22633   3.984   2.547  14.832  0.1010  0.3407  0.9538
 3724SOL    HW122634   3.990   2.642  14.821 -0.6461  0.2369 -0.3914
 3724SOL    HW222635   4.025   2.511  14.754 -1.4313 -0.1938  0.3952
 3725SOL     OW22636   4.387   2.765   4.872 -0.1849 -0.0088 -0.8281
 3725SOL    HW122637   4.430   2.730   4.950 -0.5097  2.5269  0.4843
 3725SOL    HW222638   4.401   2.690   4.813 -2.5740 -1.1632  0.0946
 3726SOL     OW22639   2.083   0.825   9.343 -0.2920  0.0995  0.2704
 3726SOL    HW122640   2.092   0.734   9.370  0.5840  0.2966  0.6172
 3726SOL    HW222641   2.012   0.807   9.281  0.6006 -1.1064 -0.4096
 3727SOL     OW22642   1.278   0.752   9.659 -0.2899 -0.1964  0.7985
 3727SOL    HW122643   1.345   0.736   9.725  0.7662  0.6632 -0.0627
 3727SOL    HW222644   1.224   0.673   9.662  1.2919 -1.3536 -0.4022
 3728SOL     OW22645   1.367   2.158   3.702  0.1523  0.0025 -0.4803
 3728SOL    HW122646   1.452   2.119   3.681 -0.7946 -1.5331 -1.4876
 3728SOL    HW222647   1.380   2.243   3.660 -1.3104  1.0781  1.2228
 3729SOL     OW22648   2.015   2.636   1.824 -0.4366 -0.0751 -0.1263
 3729SOL    HW122649   1.994   2.560   1.770 -1.2382  0.4703 -0.5887
 3729SOL    HW222650   2.030   2.704   1.759 -2.0563  0.4474  0.0393
 3730SOL     OW22651   0.475   3.545   7.045  0.0412  0.6130  0.0862
 3730SOL    HW122652   0.482   3.515   7.136 -0.1550 -1.5916 -0.6320
 3730SOL    HW222653   0.445   3.634   7.062 -0.3935  0.9397 -2.4417
 3731SOL     OW22654   0.357   0.707   5.043 -0.1543 -0.3680 -0.2222
 3731SOL    HW122655   0.308   0.653   4.980  1.9134 -1.3827 -0.9507
 3731SOL    HW222656   0.282   0.745   5.089 -0.0809 -0.2325 -0.2174
 3732SOL     OW22657   2.063   4.185  16.514  0.0486  0.0438 -0.0613
 3732SOL    HW122658   1.981   4.190  16.465 -0.1751  0.9793  0.4278
 3732SOL    HW222659   2.073   4.273  16.550 -2.6276  0.1540  0.4099
 3733SOL     OW22660   4.407   2.718   8.133 -0.2810 -0.0181 -0.4282
 3733SOL    HW122661   4.449   2.760   8.209 -1.3519 -0.2578  0.2964
 3733SOL    HW222662   4.423   2.624   8.148  1.3899  0.4202  0.5584
 3734SOL     OW22663   1.050   0.040   6.429 -0.2474  0.1042  0.1801
 3734SOL    HW122664   1.070   0.111   6.489 -1.4494 -0.6927  1.5295
 3734SOL    HW222665   1.010   0.073   6.349 -2.2297  0.3932  1.2918
 3735SOL     OW22666   0.319   3.456   4.196  0.3266  0.0760 -0.5046
 3735SOL    HW122667   0.315   3.523   4.127 -0.7901 -0.8179 -1.3319
 3735SOL    HW222668   0.275   3.390   4.143 -4.1681  1.1311  1.9027
 3736SOL     OW22669   3.838   0.109  13.684  0.5772  0.3955  0.4151
 3736SOL    HW122670   3.861   0.129  13.594 -2.5133 -1.4324 -0.7879
 3736SOL    HW222671   3.765   0.051  13.660 -0.1552  1.6054 -0.3032
 3737SOL     OW22672   1.013   0.093   7.616 -0.1218  0.1914  0.0117
 3737SOL    HW122673   0.969   0.081   7.532  0.3232  3.0910 -0.6206
 3737SOL    HW222674   1.092   0.135   7.581  1.1944 -1.0274  1.5275
 3738SOL     OW22675   1.333   3.286  13.866 -0.1397  0.4583 -0.4027
 3738SOL    HW122676   1.362   3.215  13.808 -0.9617 -1.6136  1.7151
 3738SOL    HW222677   1.331   3.353  13.797  0.1820 -0.1597 -1.0108
 3739SOL     OW22678   2.605   1.717   7.793  0.5799 -0.3989  0.3720
 3739SOL    HW122679   2.514   1.708   7.821  0.1941 -0.4594 -0.9344
 3739SOL    HW222680   2.594   1.748   7.703 -2.3995  0.8035  1.1642
 3740SOL     OW22681   2.686   0.989   3.687  0.5577 -0.1174 -0.0915
 3740SOL    HW122682   2.625   0.928   3.646  0.8212 -0.0573 -0.5633
 3740SOL    HW222683   2.771   0.974   3.647  0.9533 -1.6797  1.3479
 3741SOL     OW22684   2.000   3.527   6.840 -0.0518  0.1815 -0.5575
 3741SOL    HW122685   1.945   3.601   6.867  0.8528  0.6802 -0.0883
 3741SOL    HW222686   2.087   3.563   6.857  0.4044 -1.8717  1.4043
 3742SOL     OW22687   0.819   0.973   7.918 -0.2817  0.0025 -0.0830
 3742SOL    HW122688   0.724   0.979   7.916 -0.2294  0.7701 -0.4852
 3742SOL    HW222689   0.838   0.919   7.995  0.5477 -1.7807 -1.5362
 3743SOL     OW22690   1.463   3.461   7.766 -0.4354 -0.2540 -0.1413
 3743SOL    HW122691   1.422   3.494   7.846 -1.5896 -0.5159 -0.6158
 3743SOL    HW222692   1.391   3.463   7.702  0.1499  2.5367 -0.7416
 3744SOL     OW22693   1.372   0.823   2.268 -0.1986  0.8909 -0.1896
 3744SOL    HW122694   1.397   0.896   2.324 -1.1369  0.8655  0.2699
 3744SOL    HW222695   1.383   0.858   2.179  0.6389 -0.7812 -0.7400
 3745SOL     OW22696   3.208   4.567   2.408  0.1933  0.0103 -0.1832
 3745SOL    HW122697   3.171   4.558   2.320 -0.8420 -0.7516  0.3340
 3745SOL    HW222698   3.297   4.531   2.408 -0.6687 -2.1338  0.9737
 3746SOL     OW22699   4.554   3.512   1.329 -0.0442  0.1853  0.2844
 3746SOL    HW122700   4.591   3.542   1.411 -0.3862  0.9658  0.1557
 3746SOL    HW222701   4.489   3.579   1.308 -0.2775  0.5314  2.1362
 3747SOL     OW22702   0.074   4.261   2.667  0.4840  0.0868  0.0293
 3747SOL    HW122703   0.076   4.166   2.668  0.5734  0.0947  0.3922
 3747SOL    HW222704   0.106   4.282   2.754 -2.3913  1.7854  0.6770
 3748SOL     OW22705   2.271   0.869   2.160  0.2085 -0.3773 -0.1064
 3748SOL    HW122706   2.268   0.934   2.230  3.1519  1.4595 -1.6761
 3748SOL    HW222707   2.233   0.919   2.087  0.5869 -0.3009 -0.2550
 3749SOL     OW22708   2.302   0.601   2.373  0.0183 -0.3455 -0.0262
 3749SOL    HW122709   2.352   0.675   2.340  0.4151 -0.1718  0.9863
 3749SOL    HW222710   2.333   0.541   2.305  0.0123 -0.7689  0.3444
 3750SOL     OW22711   2.268   4.293  10.995  0.2471  0.2902 -0.1247
 3750SOL    HW122712   2.305   4.377  11.023 -2.0641  0.8251  1.3220
 3750SOL    HW222713   2.180   4.329  10.984  0.2828 -0.3904 -2.7065
 3751SOL     OW22714   0.670   1.699   6.493 -0.0922 -0.0914  0.9041
 3751SOL    HW122715   0.585   1.728   6.526 -1.3388  1.1408 -3.4852
 3751SOL    HW222716   0.654   1.605   6.507 -0.0504 -0.1496  0.5668
 3752SOL     OW22717   0.326   2.653   8.089  0.8463 -0.1251 -0.0731
 3752SOL    HW122718   0.420   2.634   8.090  1.0844  1.0921  0.8291
 3752SOL    HW222719   0.315   2.670   7.995  2.5420 -2.1169 -0.6244
 3753SOL     OW22720   4.413   4.243   2.744  0.2625  0.6581  0.3671
 3753SOL    HW122721   4.322   4.214   2.737  0.7799 -1.1237  0.8442
 3753SOL    HW222722   4.440   4.203   2.827  0.8320 -0.4231 -0.3441
 3754SOL     OW22723   3.910   0.089   8.698 -0.3822  0.0031  0.8781
 3754SOL    HW122724   3.877   0.005   8.665  1.8173 -0.9988  1.2215
 3754SOL    HW222725   3.986   0.067   8.751 -0.0448  0.7416  0.6965
 3755SOL     OW22726   3.928   2.373   2.980  0.0106  0.2308 -0.9943
 3755SOL    HW122727   3.867   2.306   3.011  0.2146  0.7900  0.6337
 3755SOL    HW222728   3.950   2.330   2.898 -0.7819  3.2418 -2.7796
 3756SOL     OW22729   1.653   3.266  16.366  0.0675 -0.0414 -0.0916
 3756SOL    HW122730   1.644   3.175  16.394 -0.8527  0.8465  2.4839
 3756SOL    HW222731   1.588   3.304  16.425 -1.1204  0.2605 -1.5912
 3757SOL     OW22732   1.576   2.431  16.551 -0.6327  0.2284 -0.0919
 3757SOL    HW122733   1.609   2.390  16.471 -0.7301 -1.1999  0.6121
 3757SOL    HW222734   1.654   2.454  16.603 -1.0203  1.8222 -0.2021
 3758SOL     OW22735   1.113   0.274   4.316 -0.0829  0.1427 -0.2689
 3758SOL    HW122736   1.056   0.350   4.305 -0.3646  0.1849  1.5506
 3758SOL    HW222737   1.116   0.256   4.222 -3.3566 -0.2613 -0.2683
 3759SOL     OW22738   0.034   2.200   0.139  0.1405  0.2641  0.0564
 3759SOL    HW122739   0.111   2.148   0.118 -0.9471 -1.1740 -0.3526
 3759SOL    HW222740   4.686   2.138   0.134  0.3184 -0.1074  1.9397
 3760SOL     OW22741   1.527   2.951   7.506  0.4402  0.2078  0.2714
 3760SOL    HW122742   1.560   2.892   7.573 -0.0562 -1.1028 -0.6423
 3760SOL    HW222743   1.437   2.918   7.503  0.6792 -0.3906 -0.1732
 3761SOL     OW22744   1.469   4.386  16.478 -0.1434 -0.1212  0.1173
 3761SOL    HW122745   1.468   4.480  16.497  1.3748  0.3694 -2.1205
 3761SOL    HW222746   1.526   4.376  16.401 -0.6419  0.7091 -0.3625
 3762SOL     OW22747   1.080   4.722  12.499  0.2532  0.4358 -0.1125
 3762SOL    HW122748   1.132   4.649  12.463  1.2648  0.1689  1.9146
 3762SOL    HW222749   1.044   0.034  12.418  1.0730 -0.5218 -0.9255
 3763SOL     OW22750   4.000   2.590   6.722 -0.4903 -0.1914 -0.2103
 3763SOL    HW122751   3.975   2.649   6.793 -0.8323 -0.3000 -0.2386
 3763SOL    HW222752   3.966   2.507   6.756  0.2343  0.3003  1.7105
 3764SOL     OW22753   2.522   4.178  10.989  0.4599  0.4731 -0.0246
 3764SOL    HW122754   2.564   4.178  11.075  1.2072  0.6386 -0.3905
 3764SOL    HW222755   2.432   4.205  11.006  0.5389  0.0007  1.1461
 3765SOL     OW22756   2.061   2.278   5.739 -0.2330  0.1648 -0.4250
 3765SOL    HW122757   2.021   2.192   5.730 -1.0363  0.4914  0.0346
 3765SOL    HW222758   1.997   2.325   5.685  2.0586  2.0480 -1.5209
 3766SOL     OW22759   3.504   3.612  11.049 -0.1000  0.4590  0.5136
 3766SOL    HW122760   3.429   3.574  11.094  1.3779  0.0272  2.6011
 3766SOL    HW222761   3.548   3.530  11.025 -1.3186  0.0015 -0.1766
 3767SOL     OW22762   0.760   3.427   2.263  0.3780 -0.0476  0.3036
 3767SOL    HW122763   0.789   3.480   2.338  1.0346  0.9177 -0.6242
 3767SOL    HW222764   0.775   3.339   2.297  2.0314  0.3082  0.5175
 3768SOL     OW22765   4.473   0.714  14.122  0.5972 -0.3472 -0.4483
 3768SOL    HW122766   4.525   0.660  14.182 -2.1675 -3.0106 -0.4293
 3768SOL    HW222767   4.540   0.773  14.087 -1.1172  3.0107  1.8965
 3769SOL     OW22768   2.112   1.761   8.855  0.3124  0.2070 -0.1806
 3769SOL    HW122769   2.066   1.791   8.934  1.0465 -1.6867  0.9709
 3769SOL    HW222770   2.043   1.703   8.824 -2.2815  3.0117  0.3448
 3770SOL     OW22771   1.483   3.216   9.921  0.3940 -0.2821 -0.0852
 3770SOL    HW122772   1.496   3.183   9.832 -0.3726 -2.4113  0.5967
 3770SOL    HW222773   1.548   3.286   9.921  0.7871 -0.6443  0.6868
 3771SOL     OW22774   2.730   3.874   8.009 -0.1854 -0.9242  0.1777
 3771SOL    HW122775   2.640   3.907   8.009  0.4542  0.7956  1.0367
 3771SOL    HW222776   2.765   3.885   7.921  1.0295 -0.5276  0.7168
 3772SOL     OW22777   1.175   3.548   8.696  0.1263  0.1660  0.0040
 3772SOL    HW122778   1.206   3.521   8.783 -2.8854  0.4741  1.1980
 3772SOL    HW222779   1.089   3.584   8.721 -0.2190 -0.0683 -0.8625
 3773SOL     OW22780   1.461   0.161   8.765 -0.1012  0.3725  0.1929
 3773SOL    HW122781   1.496   0.075   8.788 -1.7163 -0.2142  0.4626
 3773SOL    HW222782   1.388   0.159   8.827  1.1021 -2.3138  1.5140
 3774SOL     OW22783   1.676   2.408   4.663  0.2291 -0.5447  0.1171
 3774SOL    HW122784   1.608   2.405   4.595 -0.6682 -0.5571  1.0110
 3774SOL    HW222785   1.625   2.431   4.740  1.5605  2.4852  0.0766
 3775SOL     OW22786   4.479   1.909  15.782  0.2931  0.0340  0.4843
 3775SOL    HW122787   4.453   1.870  15.865 -1.5824  1.5740  0.6241
 3775SOL    HW222788   4.394   1.929  15.743  1.1973  1.4922 -0.7505
 3776SOL     OW22789   3.367   2.385   6.997  0.7691  0.1218  0.0362
 3776SOL    HW122790   3.331   2.374   7.085 -1.5374 -0.0992 -0.9092
 3776SOL    HW222791   3.290   2.422   6.954  0.7249  2.6717  2.2680
 3777SOL     OW22792   1.686   3.966   8.646 -0.0264 -0.7551  0.1702
 3777SOL    HW122793   1.749   4.014   8.699  1.3414  0.5215 -2.6379
 3777SOL    HW222794   1.631   4.027   8.595 -0.8674  0.0548  2.0583
 3778SOL     OW22795   2.975   2.427  15.672 -0.5110  0.5251  0.2881
 3778SOL    HW122796   2.932   2.460  15.594  3.8833  1.7804 -1.5891
 3778SOL    HW222797   3.067   2.443  15.650  0.3713  1.0048  4.3025
 3779SOL     OW22798   0.460   2.479  15.501 -0.4059  0.3730 -0.2930
 3779SOL    HW122799   0.451   2.552  15.440  0.2309  0.2588 -0.5309
 3779SOL    HW222800   0.475   2.525  15.584 -3.3645  1.8432 -0.5971
 3780SOL     OW22801   4.026   0.508   1.678 -0.2216  0.3149 -0.3036
 3780SOL    HW122802   4.046   0.547   1.593 -0.2756 -0.5474 -0.7160
 3780SOL    HW222803   4.087   0.551   1.738  0.3211  1.4635 -1.6881
 3781SOL     OW22804   4.397   0.131   7.198  0.2466 -0.6558  0.4788
 3781SOL    HW122805   4.339   0.079   7.253 -0.9448  0.7463  0.5481
 3781SOL    HW222806   4.463   0.064   7.180  0.8642  0.5251 -1.7248
 3782SOL     OW22807   4.040   2.741   9.249 -0.1263 -0.2970  0.1384
 3782SOL    HW122808   3.954   2.699   9.251 -0.9762  1.4866  0.8699
 3782SOL    HW222809   4.012   2.833   9.242 -0.8793 -0.7797 -3.0902
 3783SOL     OW22810   1.087   2.037  14.333  0.1168  0.0066 -0.1962
 3783SOL    HW122811   1.046   2.118  14.303 -0.2433 -0.2510 -0.3998
 3783SOL    HW222812   1.024   1.979  14.291 -1.2952  0.8808  0.7187
 3784SOL     OW22813   0.078   1.056   2.802  0.7310 -0.3928  0.2548
 3784SOL    HW122814   0.150   1.027   2.747  0.1297 -0.2386 -0.6053
 3784SOL    HW222815   0.053   1.129   2.745  1.5070 -1.4201 -1.3688
 3785SOL     OW22816   4.252   1.561   6.680 -0.0170  0.2466  0.3837
 3785SOL    HW122817   4.296   1.615   6.745 -1.0071 -0.0832  1.3168
 3785SOL    HW222818   4.176   1.614   6.656  0.6489  0.9469 -0.2203
 3786SOL     OW22819   4.592   1.118   7.166 -0.4384  0.2970 -0.1096
 3786SOL    HW122820   4.688   1.116   7.170 -0.3545  0.1723 -2.0607
 3786SOL    HW222821   4.573   1.174   7.241  3.1213 -0.0611  1.0790
 3787SOL     OW22822   1.482   1.616  12.757 -0.2285  0.1618 -0.3187
 3787SOL    HW122823   1.483   1.592  12.850  0.9978 -0.8670 -0.5946
 3787SOL    HW222824   1.541   1.691  12.757 -0.1721  0.1100  1.1863
 3788SOL     OW22825   4.713   2.023  11.379 -0.3313  0.2490 -0.2748
 3788SOL    HW122826   4.663   2.095  11.341 -2.2012 -1.6757 -1.4290
 3788SOL    HW222827   4.710   2.044  11.472 -1.2274 -3.1569  0.4649
 3789SOL     OW22828   3.503   0.702   9.485 -0.4969  0.1164  0.6323
 3789SOL    HW122829   3.526   0.761   9.557 -2.1578 -1.6256  2.5940
 3789SOL    HW222830   3.520   0.750   9.404  0.6716  1.3546  1.6197
 3790SOL     OW22831   0.655   4.174   6.867  0.3293 -0.3811 -0.1872
 3790SOL    HW122832   0.659   4.244   6.803 -1.0436  0.1688  0.3250
 3790SOL    HW222833   0.565   4.146   6.850  0.1482  0.0257  0.1013
 3791SOL     OW22834   1.562   0.572   7.499 -0.0613  0.5234  0.0148
 3791SOL    HW122835   1.633   0.565   7.435  0.3658 -0.0389  0.5445
 3791SOL    HW222836   1.486   0.558   7.443 -0.5285 -0.4686  0.8771
 3792SOL     OW22837   3.509   4.537   5.260 -0.0552  0.4699  0.1517
 3792SOL    HW122838   3.499   4.628   5.230 -1.4550  0.1840 -0.2260
 3792SOL    HW222839   3.523   4.499   5.173  3.3109  2.1549 -0.0513
 3793SOL     OW22840   3.256   3.589  15.936 -0.3530  0.0702 -0.3400
 3793SOL    HW122841   3.338   3.604  15.982 -0.9092  0.1240  0.6265
 3793SOL    HW222842   3.199   3.555  16.005  2.2822 -0.9002  1.3223
 3794SOL     OW22843   3.035   1.651  16.670 -0.2872  0.2492 -0.3183
 3794SOL    HW122844   3.112   1.709  16.668 -0.2606  0.1709 -1.3957
 3794SOL    HW222845   2.973   1.707  16.623  1.0197  1.3820 -0.6999
 3795SOL     OW22846   3.143   1.944   6.564  0.1891 -0.1800  0.1340
 3795SOL    HW122847   3.059   1.975   6.529 -0.4311 -2.1526 -0.1514
 3795SOL    HW222848   3.176   1.908   6.481 -1.6090  0.5904 -0.9296
 3796SOL     OW22849   2.619   1.124   9.495  0.2445 -0.8575 -0.1125
 3796SOL    HW122850   2.683   1.056   9.476 -0.3556 -1.2934 -0.6002
 3796SOL    HW222851   2.677   1.193   9.528  0.2182  0.1671 -2.1598
 3797SOL     OW22852   3.641   4.035  10.244 -0.5166 -0.2713 -0.6072
 3797SOL    HW122853   3.671   4.006  10.330  1.2425  1.4617 -0.6167
 3797SOL    HW222854   3.671   4.124  10.222 -0.3849 -0.3998 -0.9504
 3798SOL     OW22855   1.853   3.572   2.316  0.2415 -0.2438  0.0590
 3798SOL    HW122856   1.830   3.508   2.383  1.4614 -0.1706  0.5511
 3798SOL    HW222857   1.770   3.613   2.292  1.1472  1.4980 -0.0789
 3799SOL     OW22858   2.423   3.849  11.205 -0.3608  0.1139 -0.0796
 3799SOL    HW122859   2.425   3.864  11.111 -3.4250  1.1110  0.0168
 3799SOL    HW222860   2.514   3.826  11.223  0.4618  3.6766  0.5104
 3800SOL     OW22861   2.414   2.509   6.091  0.0576  0.1218 -0.6200
 3800SOL    HW122862   2.441   2.521   6.000 -1.1685  0.1583 -0.9687
 3800SOL    HW222863   2.347   2.442   6.078  1.4605 -1.0956 -1.6118
 3801SOL     OW22864   3.965   1.152   4.082  0.0051  0.2576  0.4485
 3801SOL    HW122865   3.889   1.203   4.054 -0.3683 -1.0034 -0.8127
 3801SOL    HW222866   3.922   1.078   4.123  0.2437  0.4122  0.9798
 3802SOL     OW22867   1.466   0.211   6.473  0.3417 -0.1579 -0.7834
 3802SOL    HW122868   1.412   0.157   6.532  1.4883 -0.6203 -0.1555
 3802SOL    HW222869   1.532   0.150   6.440 -0.0521 -1.1926  0.3148
 3803SOL     OW22870   3.911   2.153  13.408  0.1149 -0.2005  0.1159
 3803SOL    HW122871   3.926   2.060  13.427 -1.2615 -0.3820  0.3154
 3803SOL    HW222872   3.975   2.198  13.463  1.1024 -1.2100 -0.1995
 3804SOL     OW22873   0.809   4.003   9.760 -0.1303  0.1176  0.1980
 3804SOL    HW122874   0.719   3.972   9.751 -0.0418  0.2255 -1.0988
 3804SOL    HW222875   0.824   4.050   9.677  0.8994  0.7033  0.7097
 3805SOL     OW22876   0.774   1.314   7.547  0.4168  0.0752  0.0397
 3805SOL    HW122877   0.680   1.297   7.549  0.0143  2.4191  0.2701
 3805SOL    HW222878   0.793   1.308   7.641  0.2659 -0.1441  0.0573
 3806SOL     OW22879   1.307   2.209   6.309  0.2618 -0.0317  0.0444
 3806SOL    HW122880   1.253   2.130   6.300  1.3775 -0.6424 -1.3402
 3806SOL    HW222881   1.361   2.167   6.375  0.8150 -0.0410 -0.4180
 3807SOL     OW22882   0.728   1.412   5.725 -0.5510 -0.3867  0.1688
 3807SOL    HW122883   0.632   1.420   5.724 -0.3095  2.5788  0.3234
 3807SOL    HW222884   0.748   1.337   5.781  0.6304 -0.6507 -0.6159
 3808SOL     OW22885   1.204   1.323   2.611 -0.5059 -0.1393 -0.5238
 3808SOL    HW122886   1.146   1.363   2.675  4.2495 -1.0289  4.3523
 3808SOL    HW222887   1.208   1.233   2.644 -0.4498  0.1381  0.2190
 3809SOL     OW22888   0.560   2.879   4.465 -0.2682 -1.4569  0.2940
 3809SOL    HW122889   0.552   2.786   4.487  0.0115 -1.3408  0.8754
 3809SOL    HW222890   0.655   2.876   4.459 -0.3411  0.7962 -1.9429
 3810SOL     OW22891   2.285   3.122   7.753  0.3220  0.3900  0.1431
 3810SOL    HW122892   2.224   3.194   7.772  1.2866  0.7426  1.9226
 3810SOL    HW222893   2.338   3.151   7.679  2.2093 -1.5919  0.7265
 3811SOL     OW22894   2.610   4.080   9.045 -0.2389 -0.0422  0.1359
 3811SOL    HW122895   2.626   3.998   9.093 -0.7029 -1.1451 -1.5829
 3811SOL    HW222896   2.690   4.132   9.038 -0.6747  0.7965  1.5485
 3812SOL     OW22897   2.406   2.086   2.868  0.4751 -0.3583  0.3871
 3812SOL    HW122898   2.348   2.074   2.792 -0.7922 -0.6485  1.3930
 3812SOL    HW222899   2.351   2.125   2.936 -0.5407  0.6841 -1.0371
 3813SOL     OW22900   1.058   0.665  16.629 -0.2893  0.6704 -0.7153
 3813SOL    HW122901   1.135   0.609  16.628 -0.5768  0.2479  1.2973
 3813SOL    HW222902   1.088   0.720  16.556  2.9635 -1.3959 -0.9480
 3814SOL     OW22903   2.403   3.384   0.256 -0.0004 -0.3554  0.6343
 3814SOL    HW122904   2.382   3.436   0.334 -0.1478  1.5963 -0.7124
 3814SOL    HW222905   2.388   3.444   0.183  1.1776 -0.2202  0.5112
 3815SOL     OW22906   1.921   1.846   3.480 -0.1873 -0.1733  0.0445
 3815SOL    HW122907   1.960   1.929   3.505  1.0620 -1.0829  1.1068
 3815SOL    HW222908   1.865   1.839   3.557 -1.2594 -1.5299 -0.8387
 3816SOL     OW22909   2.825   2.548   0.847 -0.6970  0.2711 -0.7540
 3816SOL    HW122910   2.873   2.625   0.878 -2.5763  0.5820  1.4147
 3816SOL    HW222911   2.872   2.485   0.901  0.1230  0.4004 -1.3213
 3817SOL     OW22912   3.952   1.668  10.681 -0.2932 -0.5269 -0.3556
 3817SOL    HW122913   3.914   1.673  10.593 -1.7668  0.0883  0.3090
 3817SOL    HW222914   3.998   1.584  10.678 -0.6726 -0.7370 -0.3581
 3818SOL     OW22915   4.638   4.439   1.335  0.8561  0.0751  0.0774
 3818SOL    HW122916   4.666   4.348   1.346 -2.6835 -0.9105  1.2111
 3818SOL    HW222917   4.683   4.462   1.254  0.5772 -1.6532 -0.5792
 3819SOL     OW22918   3.079   4.468  10.193  0.1780  0.4653 -0.2648
 3819SOL    HW122919   3.093   4.459  10.287 -0.9713 -1.4362 -0.2821
 3819SOL    HW222920   3.120   4.553  10.174  1.3133  0.2842  1.3473
 3820SOL     OW22921   4.187   0.856   8.835 -0.1035  0.1133  0.8616
 3820SOL    HW122922   4.116   0.872   8.772 -1.6830 -2.2518  2.0650
 3820SOL    HW222923   4.129   0.820   8.902 -1.0929  1.2183  0.5983
 3821SOL     OW22924   1.425   2.321  12.538 -0.4260 -0.1178 -0.2923
 3821SOL    HW122925   1.359   2.254  12.554 -1.1500  0.4514 -0.9382
 3821SOL    HW222926   1.372   2.382  12.487 -0.2758  0.2062 -0.0624
 3822SOL     OW22927   2.522   3.551   6.860  0.9224  0.1860  0.2871
 3822SOL    HW122928   2.514   3.608   6.936 -0.3020  0.0555  0.2474
 3822SOL    HW222929   2.429   3.527   6.857  1.3044 -1.3386  0.5066
 3823SOL     OW22930   3.926   2.224   8.416 -0.4895  0.5418  0.0724
 3823SOL    HW122931   3.836   2.255   8.414 -0.3505  1.0551  1.9327
 3823SOL    HW222932   3.919   2.148   8.357  0.1660  0.3979  0.1773
 3824SOL     OW22933   4.326   1.050   0.292  1.0946 -0.0225  0.0322
 3824SOL    HW122934   4.395   1.115   0.281  1.0350 -0.3692 -2.5114
 3824SOL    HW222935   4.322   1.012   0.204 -0.4793  0.5093 -0.1205
 3825SOL     OW22936   2.546   4.570   8.284  0.4016  0.0447 -0.1540
 3825SOL    HW122937   2.485   4.594   8.353  2.5351  3.0827  0.6754
 3825SOL    HW222938   2.543   4.475   8.298  1.0189 -0.2451 -2.0416
 3826SOL     OW22939   3.898   1.730   8.767 -0.3492  0.1454 -0.0172
 3826SOL    HW122940   3.904   1.643   8.726  1.6045  1.8322 -3.2604
 3826SOL    HW222941   3.807   1.753   8.748  0.0939  2.4390  0.6368
 3827SOL     OW22942   0.999   4.018  16.463  0.6210 -0.0346  0.5768
 3827SOL    HW122943   1.049   4.084  16.510  0.5401  0.5198 -0.1162
 3827SOL    HW222944   0.921   4.070  16.446  0.4325 -0.1542  1.0830
 3828SOL     OW22945   0.341   2.310  12.611 -0.2867  0.4164 -0.8350
 3828SOL    HW122946   0.426   2.271  12.589 -0.0686  0.4345 -0.0095
 3828SOL    HW222947   0.371   2.378  12.670  2.3143 -0.0778 -1.5989
 3829SOL     OW22948   2.166   1.788   3.984 -0.1306  0.0423  0.4462
 3829SOL    HW122949   2.125   1.766   3.901 -0.0869 -1.3755  0.8087
 3829SOL    HW222950   2.209   1.869   3.956  0.4333  0.3938  2.2926
 3830SOL     OW22951   4.410   1.421  15.683 -0.6368  0.3252 -0.4599
 3830SOL    HW122952   4.344   1.403  15.750 -0.1266 -0.1869 -0.0950
 3830SOL    HW222953   4.365   1.394  15.603  1.1381 -0.9812 -1.0271
 3831SOL     OW22954   0.235   3.176   4.656 -0.2554  0.2865 -0.2138
 3831SOL    HW122955   0.198   3.229   4.726  1.3456  0.6128  0.3853
 3831SOL    HW222956   0.164   3.113   4.651 -0.2477  0.2817 -0.2689
 3832SOL     OW22957   3.026   2.729   3.794  0.3159 -0.1321  0.2203
 3832SOL    HW122958   2.972   2.650   3.791  0.5153 -0.3619  2.5285
 3832SOL    HW222959   2.969   2.797   3.756 -0.0244 -0.9443 -0.7108
 3833SOL     OW22960   3.091   2.556   9.110  0.1404 -0.0462  0.2641
 3833SOL    HW122961   3.067   2.518   9.194  0.0138 -0.5722 -0.0108
 3833SOL    HW222962   3.170   2.503   9.098  0.6194  0.8552 -0.5998
 3834SOL     OW22963   4.275   1.586   3.707  0.0295  0.5498 -0.4239
 3834SOL    HW122964   4.246   1.675   3.683 -0.7144 -0.0361 -1.7290
 3834SOL    HW222965   4.238   1.536   3.634  1.9497 -0.9318 -0.3460
 3835SOL     OW22966   1.095   0.230  14.976 -0.1214  0.2824 -0.0876
 3835SOL    HW122967   1.148   0.294  15.024 -0.2669  1.1591 -1.1098
 3835SOL    HW222968   1.157   0.159  14.963 -0.1831  0.6585 -2.3934
 3836SOL     OW22969   1.327   1.907   3.131 -0.1687  0.5289 -0.3319
 3836SOL    HW122970   1.231   1.907   3.126 -0.1351 -0.7530 -0.7967
 3836SOL    HW222971   1.343   1.860   3.212  4.3214  1.6742 -0.5590
 3837SOL     OW22972   4.017   4.646   6.304  0.0701 -0.7466 -0.4080
 3837SOL    HW122973   4.026   0.011   6.338 -2.3355 -1.4811  2.1240
 3837SOL    HW222974   4.096   4.610   6.344 -0.3802  1.3985  2.3719
 3838SOL     OW22975   0.529   4.214   3.414  0.7172 -0.8932  0.3347
 3838SOL    HW122976   0.527   4.128   3.371  2.1906 -0.6177 -0.3040
 3838SOL    HW222977   0.440   4.226   3.445  1.1118 -1.3392  1.6335
 3839SOL     OW22978   3.422   2.562   4.980  0.1241  0.2493 -0.0735
 3839SOL    HW122979   3.357   2.541   4.913  1.3624 -0.4575 -1.0407
 3839SOL    HW222980   3.461   2.645   4.949  0.9070  0.5367  1.7120
 3840SOL     OW22981   1.288   0.501   9.738 -0.3238  0.3510  0.1502
 3840SOL    HW122982   1.311   0.444   9.812  1.6942  0.4217 -0.4416
 3840SOL    HW222983   1.371   0.497   9.692 -0.6127  1.1846 -0.4427
 3841SOL     OW22984   2.457   3.263   7.210  0.3545 -0.2513 -0.4570
 3841SOL    HW122985   2.430   3.195   7.148 -4.3310  1.5513 -0.3394
 3841SOL    HW222986   2.544   3.226   7.224  0.3425 -1.0149 -2.5389
 3842SOL     OW22987   1.140   1.480   7.182  0.7553  0.1301 -0.6873
 3842SOL    HW122988   1.149   1.544   7.254 -1.7645 -2.1713  1.6657
 3842SOL    HW222989   1.148   1.398   7.231 -1.9053  0.1336 -0.2547
 3843SOL     OW22990   1.356   3.566   2.915 -0.1775  0.3642 -0.0752
 3843SOL    HW122991   1.277   3.519   2.888 -1.2306  0.9013  2.0660
 3843SOL    HW222992   1.427   3.518   2.872 -2.7022 -2.0753 -1.5495
 3844SOL     OW22993   3.933   3.409   3.364 -0.4471  0.1245  0.1591
 3844SOL    HW122994   4.025   3.417   3.390 -1.0424  1.2522  1.8754
 3844SOL    HW222995   3.953   3.366   3.281 -0.6367 -0.1655  0.2668
 3845SOL     OW22996   3.251   2.592   8.597  0.3071 -0.0295 -0.1293
 3845SOL    HW122997   3.187   2.557   8.659  1.0649 -1.0136  0.1096
 3845SOL    HW222998   3.190   2.650   8.553 -0.0976  0.8591  1.5986
 3846SOL     OW22999   2.712   0.367   7.331 -0.4284  0.0243  0.1226
 3846SOL    HW123000   2.656   0.307   7.381  0.0118 -0.5160 -0.0345
 3846SOL    HW223001   2.677   0.442   7.379  1.1009  0.1229  1.0857
 3847SOL     OW23002   4.340   4.340  12.988 -0.4719 -0.2602 -0.0697
 3847SOL    HW123003   4.267   4.379  12.940  0.4394  1.9941  0.3731
 3847SOL    HW223004   4.356   4.265  12.932  0.0136 -1.2109  1.3443
 3848SOL     OW23005   0.729   0.585  15.583  0.5055 -0.2574 -0.8766
 3848SOL    HW123006   0.636   0.585  15.559 -0.0549  0.8993  1.2891
 3848SOL    HW223007   0.766   0.507  15.543 -1.6548 -0.4978 -2.3795
 3849SOL     OW23008   2.041   1.201   7.667 -0.0864 -0.1535  0.4581
 3849SOL    HW123009   2.105   1.198   7.596 -0.3169  1.9906  0.1645
 3849SOL    HW223010   2.028   1.293   7.691 -1.1184 -0.2110  0.0914
 3850SOL     OW23011   1.996   1.838   3.204 -0.0573  0.1811  0.3250
 3850SOL    HW123012   1.907   1.839   3.169  0.0909 -1.7155 -0.1322
 3850SOL    HW223013   1.977   1.839   3.298 -1.1837 -1.0951  0.1191
 3851SOL     OW23014   2.275   2.273   4.642 -0.3645 -0.1622 -0.1173
 3851SOL    HW123015   2.265   2.303   4.552  2.0411 -0.4107 -0.4601
 3851SOL    HW223016   2.181   2.254   4.654 -0.2089 -0.4226  0.6788
 3852SOL     OW23017   0.078   3.957   5.000 -0.3184  0.2130  0.2712
 3852SOL    HW123018   0.030   4.023   4.948 -2.2452 -1.1512  0.3260
 3852SOL    HW223019   0.011   3.916   5.055  2.1997 -1.9787  1.6734
 3853SOL     OW23020   0.649   2.028   7.632  0.1018  0.2418  0.3348
 3853SOL    HW123021   0.648   2.069   7.545 -3.1319 -1.1841 -0.3039
 3853SOL    HW223022   0.716   1.965   7.608  0.0749  0.4664 -0.3517
 3854SOL     OW23023   1.742   2.793   5.392 -0.0809 -0.0576 -0.3213
 3854SOL    HW123024   1.696   2.876   5.381  1.6874  0.7587 -1.5801
 3854SOL    HW223025   1.791   2.788   5.310 -0.4116 -3.2717 -0.3272
 3855SOL     OW23026   2.548   0.457  15.500 -0.2049 -0.1168  0.2215
 3855SOL    HW123027   2.498   0.476  15.420  0.4842  0.7091 -0.0042
 3855SOL    HW223028   2.579   0.371  15.469  2.1012  1.3913 -1.6011
 3856SOL     OW23029   3.789   0.234   4.461 -0.5600  1.0717 -0.0833
 3856SOL    HW123030   3.797   0.251   4.367  1.2651 -0.5325 -0.2270
 3856SOL    HW223031   3.813   0.141   4.465 -2.8751  0.4998  0.6278
 3857SOL     OW23032   1.684   3.482   6.573  0.3059 -0.2631 -0.4639
 3857SOL    HW123033   1.653   3.571   6.587  2.0932  0.2971 -0.0960
 3857SOL    HW223034   1.611   3.437   6.530 -0.5110  1.0602 -0.4675
 3858SOL     OW23035   2.766   3.150   5.776 -0.1654  0.5355 -0.6682
 3858SOL    HW123036   2.846   3.193   5.747 -0.4264 -0.6614 -3.1174
 3858SOL    HW223037   2.699   3.218   5.783 -1.5624 -0.8482 -0.6826
 3859SOL     OW23038   0.676   3.332  15.989  0.5406  0.4436  0.1335
 3859SOL    HW123039   0.658   3.366  16.077  0.6052 -2.0458  1.1161
 3859SOL    HW223040   0.763   3.293  15.993  0.6966  0.6293 -1.3350
 3860SOL     OW23041   0.888   0.719   1.496  0.1892  0.1827  0.3233
 3860SOL    HW123042   0.966   0.704   1.443 -0.4655  0.5014 -0.7308
 3860SOL    HW223043   0.829   0.771   1.441 -0.8656 -1.1466  0.2143
 3861SOL     OW23044   3.101   4.607   3.150 -0.4161  0.0490  0.3318
 3861SOL    HW123045   3.156   4.610   3.072  1.3306 -0.6167  1.5494
 3861SOL    HW223046   3.137   4.679   3.201  0.6930  0.7330 -1.4255
 3862SOL     OW23047   3.437   0.430   7.673  0.1855  0.0461  0.0764
 3862SOL    HW123048   3.453   0.398   7.762  1.5884  1.1466  0.2241
 3862SOL    HW223049   3.471   0.518   7.688  0.5694  0.4346 -3.0893
 3863SOL     OW23050   3.823   3.901   4.565 -0.6203 -0.5101 -0.2527
 3863SOL    HW123051   3.843   3.872   4.476  2.3756 -2.0847  0.9314
 3863SOL    HW223052   3.889   3.853   4.615  0.8118  1.3040 -0.4295
 3864SOL     OW23053   1.240   1.849   4.281  0.0013 -0.6467  0.1784
 3864SOL    HW123054   1.289   1.769   4.299 -1.7231 -1.7786 -0.1334
 3864SOL    HW223055   1.170   1.830   4.344  1.4723 -1.6869  1.4753
 3865SOL     OW23056   0.208   2.601   3.127 -0.7885  0.3490 -0.2851
 3865SOL    HW123057   0.298   2.570   3.136 -0.9467 -0.1127 -0.2846
 3865SOL    HW223058   0.165   2.538   3.069  0.1952  2.0747 -2.9040
 3866SOL     OW23059   2.465   3.556   4.001  0.0445  0.3548  0.1127
 3866SOL    HW123060   2.373   3.570   4.024 -0.0587 -0.0694 -0.0449
 3866SOL    HW223061   2.459   3.558   3.906 -1.0071  0.7263  0.1799
 3867SOL     OW23062   0.513   0.867  16.824 -0.3828  0.3344 -0.0168
 3867SOL    HW123063   0.457   0.840  16.897 -0.5997  1.4740  0.2344
 3867SOL    HW223064   0.495   0.961  16.819 -1.4683  0.3362  3.5464
 3868SOL     OW23065   3.138   3.542   4.991  0.0925 -0.1851 -0.2728
 3868SOL    HW123066   3.206   3.550   5.058 -1.3157  0.7813  1.0457
 3868SOL    HW223067   3.063   3.580   5.036  0.2962 -0.7573  0.5539
 3869SOL     OW23068   2.002   0.627  16.298 -0.0762 -0.1859  0.0737
 3869SOL    HW123069   1.962   0.658  16.217  1.6273  1.3414 -0.2010
 3869SOL    HW223070   2.093   0.617  16.268 -0.3980 -2.8257  0.0137
 3870SOL     OW23071   1.218   0.867   6.165  0.2035 -0.5667  0.4200
 3870SOL    HW123072   1.282   0.796   6.158 -0.3138 -0.9027 -0.9437
 3870SOL    HW223073   1.271   0.936   6.205  0.7142 -0.0016 -1.2647
 3871SOL     OW23074   2.058   3.865   1.282 -0.0507 -0.3763  0.1720
 3871SOL    HW123075   2.146   3.881   1.248 -0.3463  0.9219  0.0352
 3871SOL    HW223076   2.005   3.893   1.207 -3.0496 -1.7875  1.7772
 3872SOL     OW23077   0.121   3.780   4.327  0.1826 -0.4412 -0.0339
 3872SOL    HW123078   0.182   3.813   4.261 -1.8412 -0.2711 -1.8279
 3872SOL    HW223079   0.064   3.725   4.272 -1.5679  0.2482  1.0987
 3873SOL     OW23080   3.844   0.234   2.133 -0.0238 -0.0976 -0.8774
 3873SOL    HW123081   3.885   0.160   2.178  1.9418  0.9423 -0.9477
 3873SOL    HW223082   3.896   0.306   2.167  0.5580 -1.5665  1.3120
 3874SOL     OW23083   1.140   2.935  11.282 -0.0480 -0.2779 -0.8093
 3874SOL    HW123084   1.125   2.953  11.189  2.3504  1.0785 -0.9344
 3874SOL    HW223085   1.206   3.002  11.300  0.0176 -0.5829  0.0822
 3875SOL     OW23086   0.011   4.713   6.006  0.2377  0.1757  0.1245
 3875SOL    HW123087   0.034   4.677   5.920  1.0364  0.9460  0.0121
 3875SOL    HW223088   0.069   4.662   6.062 -0.3440  0.4282  0.9409
 3876SOL     OW23089   2.696   3.721  17.053 -0.3839 -0.0959  0.1286
 3876SOL    HW123090   2.743   3.691  16.975 -0.0692  1.7884 -0.3852
 3876SOL    HW223091   2.656   3.637  17.077 -0.2722 -0.5950 -1.4566
 3877SOL     OW23092   1.327   1.288   4.002  0.2536  0.4086  0.1867
 3877SOL    HW123093   1.401   1.232   4.022  1.4927  1.6738 -0.8725
 3877SOL    HW223094   1.302   1.255   3.915  1.4747 -0.8701  0.3296
 3878SOL     OW23095   2.087   1.922   0.102 -0.0251  0.0963 -0.1653
 3878SOL    HW123096   2.134   1.890   0.024 -1.3764  1.4016 -1.5032
 3878SOL    HW223097   2.131   2.007   0.112  1.6644 -0.6700 -0.9991
 3879SOL     OW23098   3.924   1.343   8.869  0.2015  0.1355 -0.0231
 3879SOL    HW123099   3.969   1.265   8.838  0.4500 -0.7297  2.4556
 3879SOL    HW223100   3.973   1.359   8.950 -3.4677  3.1445  1.6052
 3880SOL     OW23101   0.473   0.049   8.554  0.3376  0.4222 -0.1927
 3880SOL    HW123102   0.379   0.054   8.573 -0.7204 -2.8839 -4.5669
 3880SOL    HW223103   0.485   4.679   8.560  0.7317  0.4282 -1.0028
 3881SOL     OW23104   0.521   0.547  11.936  0.5184 -0.5707 -0.0297
 3881SOL    HW123105   0.562   0.619  11.889  2.1985 -1.6037 -0.1441
 3881SOL    HW223106   0.517   0.471  11.878 -2.1629 -0.4061 -0.0984
 3882SOL     OW23107   3.914   2.531  13.257 -0.0308 -0.7426 -0.0437
 3882SOL    HW123108   3.867   2.448  13.249  0.2367 -0.8099 -0.9409
 3882SOL    HW223109   3.991   2.523  13.201 -0.7653 -1.5375 -0.9373
 3883SOL     OW23110   0.643   2.844  17.055 -0.2860  0.2984  0.0063
 3883SOL    HW123111   0.693   2.921  17.031 -2.3810  1.3074 -1.1548
 3883SOL    HW223112   0.651   2.788  16.978 -0.6735 -0.0122  0.1869
 3884SOL     OW23113   3.657   4.537  12.198 -0.0444  0.3066  0.5993
 3884SOL    HW123114   3.672   4.550  12.292  0.4750  0.4959  0.4900
 3884SOL    HW223115   3.744   4.520  12.161  0.1016 -0.3107  1.2269
 3885SOL     OW23116   1.015   3.031   3.898 -0.2227  0.1739 -0.0292
 3885SOL    HW123117   0.959   2.986   3.836 -0.3356 -1.0310  0.9479
 3885SOL    HW223118   1.056   3.096   3.841 -0.7028 -1.1129 -1.8142
 3886SOL     OW23119   4.429   0.813   4.856  0.3831 -0.0371 -0.3230
 3886SOL    HW123120   4.347   0.836   4.812  0.0621  1.0318  0.8548
 3886SOL    HW223121   4.405   0.783   4.943  0.4609  0.0796 -0.2623
 3887SOL     OW23122   4.375   3.972   3.919 -0.4313 -0.2018 -0.0152
 3887SOL    HW123123   4.343   3.942   3.835  2.0118 -1.3327 -0.5662
 3887SOL    HW223124   4.461   4.008   3.898 -0.8265  1.2689  0.8798
 3888SOL     OW23125   3.032   3.041   3.940  0.2422  0.0437 -0.1166
 3888SOL    HW123126   3.115   3.069   3.899  0.9814  1.4770  2.4062
 3888SOL    HW223127   2.987   3.004   3.864  3.7994 -2.9149 -0.8237
 3889SOL     OW23128   0.385   2.059  15.786 -0.4832  0.9122 -0.1084
 3889SOL    HW123129   0.383   2.094  15.698 -1.9061 -0.0282 -0.4530
 3889SOL    HW223130   0.478   2.067  15.809 -0.1605  1.4637 -1.6346
 3890SOL     OW23131   0.032   0.334   6.334  0.2622  0.1637  0.2980
 3890SOL    HW123132   4.691   0.398   6.365 -1.6028 -1.8639  0.5926
 3890SOL    HW223133   4.689   0.267   6.320  1.2948 -0.8973  0.4399
 3891SOL     OW23134   4.023   3.559   5.525 -0.3686  0.0122 -0.1657
 3891SOL    HW123135   4.090   3.522   5.582  0.2926 -0.6283 -1.3509
 3891SOL    HW223136   4.044   3.651   5.515 -0.7190  0.2190  0.9646
 3892SOL     OW23137   0.133   3.292  11.351  0.0110  0.0997 -0.5385
 3892SOL    HW123138   0.139   3.233  11.426 -2.3591  0.4101 -0.0982
 3892SOL    HW223139   0.209   3.349  11.364  0.3227  0.0191 -2.0743
 3893SOL     OW23140   2.315   1.059  13.153  0.5791  0.5439 -0.4156
 3893SOL    HW123141   2.223   1.050  13.129  0.5161 -1.1548  0.4906
 3893SOL    HW223142   2.352   1.093  13.071 -0.1348  0.8753 -0.6033
 3894SOL     OW23143   0.873   2.026  11.388  0.0510 -0.1660 -0.2506
 3894SOL    HW123144   0.824   1.973  11.325  0.0997 -1.6494  0.9373
 3894SOL    HW223145   0.807   2.030  11.457 -0.5634  0.7160 -0.8914
 3895SOL     OW23146   2.772   4.419   6.200  0.2588 -0.2357 -0.6888
 3895SOL    HW123147   2.738   4.354   6.261 -3.2550  0.5001 -1.8497
 3895SOL    HW223148   2.753   4.394   6.109  1.2686 -3.2756 -0.0646
 3896SOL     OW23149   0.193   0.253   4.221 -0.1839 -0.7629  0.5246
 3896SOL    HW123150   0.213   0.346   4.214 -0.6175 -0.7565 -0.5962
 3896SOL    HW223151   0.107   0.247   4.179  0.7249  0.1082 -1.4588
 3897SOL     OW23152   2.519   2.164   5.984 -0.6583 -0.0532  0.6687
 3897SOL    HW123153   2.436   2.140   5.943 -0.5715  0.1250  0.3916
 3897SOL    HW223154   2.552   2.225   5.918  1.1057 -0.6376  1.0197
 3898SOL     OW23155   2.726   2.353  11.608 -0.2239  0.1715  0.3826
 3898SOL    HW123156   2.779   2.433  11.607 -1.8700  1.2378 -1.1739
 3898SOL    HW223157   2.672   2.368  11.686 -2.1038 -3.0517 -0.3150
 3899SOL     OW23158   2.956   3.048   1.611  0.7445 -0.1846  0.2299
 3899SOL    HW123159   2.969   3.082   1.522 -1.7187 -2.0888 -0.8594
 3899SOL    HW223160   2.912   2.965   1.595 -0.1490 -0.1037  2.3203
 3900SOL     OW23161   0.653   0.985   8.934 -0.0728  0.2345  0.9416
 3900SOL    HW123162   0.574   0.981   8.988 -1.1872 -0.2746 -0.7279
 3900SOL    HW223163   0.635   1.050   8.866  1.8791 -0.8569 -0.5919
 3901SOL     OW23164   3.770   4.035   4.196 -0.0224 -0.8107 -0.0214
 3901SOL    HW123165   3.752   4.096   4.267  0.7376 -1.2182  0.5279
 3901SOL    HW223166   3.803   3.958   4.243  1.2234  0.7695  1.6794
 3902SOL     OW23167   3.947   1.928   7.498 -0.5916  0.1135 -0.3515
 3902SOL    HW123168   3.860   1.946   7.534  0.0185 -0.7882  1.5597
 3902SOL    HW223169   3.958   2.010   7.449 -0.5107  0.5438  0.3719
 3903SOL     OW23170   0.526   4.421   5.381  0.4279 -0.2878  0.3909
 3903SOL    HW123171   0.585   4.358   5.340 -0.3322 -0.0330 -1.0873
 3903SOL    HW223172   0.582   4.448   5.454  0.5613  0.4599  0.0125
 3904SOL     OW23173   1.964   0.615   3.269 -0.0584 -0.1527 -0.1790
 3904SOL    HW123174   1.999   0.660   3.345  0.6786  0.7557 -1.0575
 3904SOL    HW223175   1.927   0.697   3.237 -0.2370 -0.4152 -0.6554
 3905SOL     OW23176   2.684   2.908   8.035 -0.0411 -0.4671  0.8502
 3905SOL    HW123177   2.615   2.942   7.978  0.6167  2.0857  1.5955
 3905SOL    HW223178   2.741   2.855   7.980 -2.1287 -2.4053  0.5458
 3906SOL     OW23179   4.521   1.019   8.509 -0.2744  0.6348  0.4121
 3906SOL    HW123180   4.469   0.985   8.581  0.5651 -0.1055  0.6628
 3906SOL    HW223181   4.604   1.036   8.554 -0.5347  0.8150  0.8183
 3907SOL     OW23182   0.864   1.374  16.184 -0.8303  0.5843  0.2451
 3907SOL    HW123183   0.799   1.370  16.114 -2.1645  1.1296  1.4625
 3907SOL    HW223184   0.832   1.310  16.248  1.1135 -0.7264 -0.0720
 3908SOL     OW23185   0.372   1.218   3.460 -0.0676 -0.7492  0.2901
 3908SOL    HW123186   0.374   1.158   3.385 -1.2681 -0.2191 -0.1793
 3908SOL    HW223187   0.393   1.173   3.541 -1.2707  0.4564  1.2697
 3909SOL     OW23188   3.144   0.271   3.857 -0.1895 -0.5371 -0.8604
 3909SOL    HW123189   3.226   0.287   3.809  0.7757 -0.5907  0.7460
 3909SOL    HW223190   3.098   0.354   3.866  0.0864 -0.7123  2.4425
 3910SOL     OW23191   1.096   2.819   5.426  1.1119  0.2838 -0.1454
 3910SOL    HW123192   1.144   2.775   5.496 -0.0609 -0.4911  0.1754
 3910SOL    HW223193   1.090   2.750   5.360 -4.0957  2.0788 -1.5214
 3911SOL     OW23194   3.640   1.343   6.315  0.6628  0.5614  0.4181
 3911SOL    HW123195   3.669   1.278   6.250  0.1868  1.2860 -0.5117
 3911SOL    HW223196   3.691   1.420   6.289 -1.7054  1.3435 -1.8531
 3912SOL     OW23197   3.282   3.779   3.006 -0.0391 -0.4710  0.6132
 3912SOL    HW123198   3.196   3.818   3.017  0.9853  1.9776 -0.0527
 3912SOL    HW223199   3.262   3.693   3.042  0.0701 -0.6375  0.2768
 3913SOL     OW23200   1.266   2.197   9.054 -0.1860 -0.1228 -0.7835
 3913SOL    HW123201   1.336   2.183   8.990  0.4646  1.3173 -0.3874
 3913SOL    HW223202   1.265   2.114   9.102 -0.2582  1.0051  1.1986
 3914SOL     OW23203   0.452   3.452  16.680  0.5606 -0.4814  0.3821
 3914SOL    HW123204   0.541   3.441  16.647  0.1620 -0.6967 -0.6137
 3914SOL    HW223205   0.452   3.548  16.685  0.9075 -0.5107  0.8810
 3915SOL     OW23206   3.447   0.498   9.300 -0.1921  0.2911  0.2837
 3915SOL    HW123207   3.463   0.548   9.381 -1.9205 -0.1178  0.8795
 3915SOL    HW223208   3.502   0.553   9.245  0.3275 -0.4103  0.1132
 3916SOL     OW23209   0.683   1.528   1.492  0.1304  0.2175  0.5457
 3916SOL    HW123210   0.601   1.506   1.449  1.3927 -2.5514 -0.4741
 3916SOL    HW223211   0.718   1.588   1.427 -0.8034  0.4428  0.2566
 3917SOL     OW23212   1.101   3.191   2.243 -0.4589 -0.2665  0.1811
 3917SOL    HW123213   1.079   3.102   2.216 -2.2296  0.1018  0.4014
 3917SOL    HW223214   1.042   3.240   2.185 -3.5831 -4.8031 -0.4984
 3918SOL     OW23215   1.621   2.381   5.825  0.6828 -0.0260 -0.1083
 3918SOL    HW123216   1.599   2.470   5.853  0.6114  0.4532 -1.7148
 3918SOL    HW223217   1.624   2.330   5.906 -4.0057  0.6160  0.4213
 3919SOL     OW23218   3.671   2.301   4.056 -0.3753  0.7476 -0.0622
 3919SOL    HW123219   3.670   2.319   3.962 -2.5582  2.2184  0.2128
 3919SOL    HW223220   3.763   2.295   4.080 -0.3153 -0.3138 -0.5551
 3920SOL     OW23221   3.298   0.857   7.108  0.2319  0.2927  0.3441
 3920SOL    HW123222   3.318   0.919   7.179  0.0806  1.3640 -0.5496
 3920SOL    HW223223   3.258   0.919   7.047 -0.0896  1.0253  1.2951
 3921SOL     OW23224   0.422   1.066   2.764  0.9163 -0.4511 -0.3449
 3921SOL    HW123225   0.381   1.045   2.680 -0.5161  0.5231  0.1214
 3921SOL    HW223226   0.510   1.085   2.731  0.8013  1.6714  0.6408
 3922SOL     OW23227   1.139   2.439   2.029 -0.6120  0.9770  0.1673
 3922SOL    HW123228   1.127   2.394   1.946  2.5455 -1.7773  1.2036
 3922SOL    HW223229   1.136   2.358   2.081 -2.5675  1.8693  1.4202
 3923SOL     OW23230   2.514   3.560   1.857  0.2469  0.1043 -0.4015
 3923SOL    HW123231   2.525   3.655   1.855  3.3498 -0.3003 -2.3855
 3923SOL    HW223232   2.583   3.527   1.799  1.2232  2.3047 -0.4827
 3924SOL     OW23233   1.824   0.263   5.052  0.2955  0.0723 -0.0283
 3924SOL    HW123234   1.814   0.275   5.147 -1.5118  2.2337 -0.4795
 3924SOL    HW223235   1.909   0.220   5.044  0.5381  0.6563 -0.6043
 3925SOL     OW23236   2.937   0.285   9.665 -0.4691 -0.0737 -0.2512
 3925SOL    HW123237   2.943   0.371   9.707 -0.6745  0.3233 -1.0288
 3925SOL    HW223238   3.018   0.245   9.694  1.1064  3.1440 -0.1540
 3926SOL     OW23239   2.208   3.343   2.020  0.2213 -0.2793  0.6427
 3926SOL    HW123240   2.223   3.395   1.941 -1.0770 -2.1869 -0.8498
 3926SOL    HW223241   2.177   3.412   2.079 -1.6316 -0.5170 -0.0655
 3927SOL     OW23242   1.604   3.222   7.833 -0.5119  0.2951  0.1323
 3927SOL    HW123243   1.651   3.275   7.897  0.6367 -3.9763  2.8250
 3927SOL    HW223244   1.543   3.290   7.804 -0.0458 -0.2202 -2.0190
 3928SOL     OW23245   3.823   4.663   4.210 -0.3168 -0.0933  0.1591
 3928SOL    HW123246   3.787   0.028   4.211  0.6246  0.2957 -0.1666
 3928SOL    HW223247   3.917   4.675   4.201 -0.4136  0.0695 -0.6679
 3929SOL     OW23248   0.904   1.237   6.424  0.0574 -0.0600 -0.0423
 3929SOL    HW123249   0.900   1.279   6.510 -1.0416  0.4936 -0.3602
 3929SOL    HW223250   0.865   1.318   6.391  1.8953  2.1903  3.3821
 3930SOL     OW23251   1.407   4.285   2.113  0.2870 -0.1354 -0.1356
 3930SOL    HW123252   1.464   4.223   2.068  0.8842 -0.0970  0.5615
 3930SOL    HW223253   1.360   4.238   2.181  0.9746  0.6284  0.8711
 3931SOL     OW23254   1.999   1.097   8.765  0.5979 -0.1555 -0.0621
 3931SOL    HW123255   1.905   1.088   8.750  1.0320 -2.4012 -1.5345
 3931SOL    HW223256   2.011   1.006   8.793 -0.0096 -0.1514  0.1985
 3932SOL     OW23257   4.267   1.628  15.930  0.1217  0.2937  0.3688
 3932SOL    HW123258   4.299   1.543  15.962 -1.0998 -0.5378 -0.6164
 3932SOL    HW223259   4.335   1.685  15.966 -0.6810  1.7193 -0.4220
 3933SOL     OW23260   2.152   0.974   4.026 -0.0985 -0.3133  0.7589
 3933SOL    HW123261   2.132   0.926   3.946  1.1892 -0.1822  0.3632
 3933SOL    HW223262   2.245   0.950   4.025 -0.0610 -0.1198 -1.9708
 3934SOL     OW23263   1.105   2.147   1.232  0.1444 -0.3786  0.5448
 3934SOL    HW123264   1.050   2.070   1.219 -1.0327  0.6631 -0.6075
 3934SOL    HW223265   1.079   2.191   1.151  0.1385  0.2039  0.8667
 3935SOL     OW23266   1.681   2.174   6.410 -0.1402  0.3019  0.3724
 3935SOL    HW123267   1.734   2.179   6.490  0.5759  3.1178 -0.2870
 3935SOL    HW223268   1.747   2.145   6.347  0.6510  1.0899  0.8297
 3936SOL     OW23269   0.519   3.116   2.728  0.2253  0.2627  0.1317
 3936SOL    HW123270   0.458   3.042   2.733  2.1392 -1.2587  0.6476
 3936SOL    HW223271   0.496   3.163   2.808 -0.3938  1.4766 -0.7445
 3937SOL     OW23272   0.508   4.579   3.426  0.4406  0.1355  0.2781
 3937SOL    HW123273   0.587   4.622   3.461 -2.7271  3.5439  3.1779
 3937SOL    HW223274   0.456   4.659   3.415 -0.0136 -0.0317  1.2044
 3938SOL     OW23275   4.205   2.630  11.598  0.2506  0.2652 -0.1487
 3938SOL    HW123276   4.218   2.639  11.693 -2.7242  2.1348  0.0941
 3938SOL    HW223277   4.188   2.718  11.564  1.1411  0.8173  0.8158
 3939SOL     OW23278   0.779   2.152   6.929  0.5172 -0.0694  0.0583
 3939SOL    HW123279   0.732   2.073   6.904  0.0031  0.2501  0.0189
 3939SOL    HW223280   0.839   2.127   7.000  0.0094  0.9277  0.8377
 3940SOL     OW23281   2.256   0.718   1.370  0.1094 -0.5680 -0.3410
 3940SOL    HW123282   2.244   0.684   1.458  0.2043  1.5891  0.4929
 3940SOL    HW223283   2.167   0.746   1.346  0.1974  1.1717  1.3857
 3941SOL     OW23284   3.091   1.097   6.210  0.0627 -0.2660 -0.1426
 3941SOL    HW123285   3.150   1.040   6.260 -1.9126 -0.8221  1.5736
 3941SOL    HW223286   3.051   1.029   6.156  2.4745 -0.7737 -1.2790
 3942SOL     OW23287   2.113   1.480  10.081 -0.1460 -0.2252  0.1283
 3942SOL    HW123288   2.131   1.387  10.064 -4.3622 -0.9213 -0.6052
 3942SOL    HW223289   2.028   1.473  10.123  0.3990 -1.4570  1.0154
 3943SOL     OW23290   1.630   3.735  11.732  0.2455 -0.6794  0.6432
 3943SOL    HW123291   1.607   3.642  11.727 -0.0429 -0.6025  0.5119
 3943SOL    HW223292   1.537   3.757  11.741 -0.0866 -1.5513 -0.6838
 3944SOL     OW23293   0.981   1.216  16.647  0.2554 -0.0079 -0.2679
 3944SOL    HW123294   0.987   1.288  16.710  0.8203 -0.7387  0.5137
 3944SOL    HW223295   0.984   1.269  16.568  1.7312  1.7573  0.9631
 3945SOL     OW23296   0.041   1.148   4.615  0.2079 -0.5720 -0.2787
 3945SOL    HW123297   4.714   1.103   4.682 -1.2786  0.9339 -0.3960
 3945SOL    HW223298   0.008   1.100   4.539  0.2359  0.6192 -1.0510
 3946SOL     OW23299   0.551   1.544   8.417 -0.2935  0.3374 -0.2960
 3946SOL    HW123300   0.458   1.522   8.412 -0.6719  1.7816  0.2751
 3946SOL    HW223301   0.547   1.625   8.468 -0.1858  0.1378  0.0224
 3947SOL     OW23302   2.298   2.995   4.483  0.3259 -0.5990 -0.0044
 3947SOL    HW123303   2.385   3.035   4.486 -0.7674  1.7395  0.2061
 3947SOL    HW223304   2.273   2.982   4.574  1.3201  2.1527  0.6722
 3948SOL     OW23305   3.036   3.299   2.497  0.1396 -0.0967 -0.1596
 3948SOL    HW123306   2.952   3.301   2.544  0.0873  0.2393 -0.2626
 3948SOL    HW223307   3.085   3.248   2.561 -0.4225  0.9999  1.1513
 3949SOL     OW23308   1.653   0.420  10.029 -0.7298  0.2070 -0.7289
 3949SOL    HW123309   1.728   0.377   9.988 -0.6420  0.4215 -0.7914
 3949SOL    HW223310   1.687   0.427  10.118  1.5470 -0.0278 -1.5854
 3950SOL     OW23311   2.935   0.726  16.362 -0.1435  0.3485 -0.3389
 3950SOL    HW123312   2.942   0.688  16.275  0.1263  1.2685 -0.7172
 3950SOL    HW223313   2.857   0.783  16.356  0.1285  0.7000 -0.5248
 3951SOL     OW23314   1.328   1.727   6.741  0.0540  0.6777 -0.1550
 3951SOL    HW123315   1.305   1.667   6.670 -0.0150  1.4406 -0.7870
 3951SOL    HW223316   1.424   1.726   6.740  0.0723  1.8495 -0.0385
 3952SOL     OW23317   1.347   0.703  13.980  0.3221  0.3345 -0.0864
 3952SOL    HW123318   1.298   0.664  14.052 -0.3016  2.3223  0.5730
 3952SOL    HW223319   1.312   0.791  13.995 -0.8963 -0.3482  1.1003
 3953SOL     OW23320   4.131   0.488  14.380  0.4404  0.0808 -0.0808
 3953SOL    HW123321   4.208   0.454  14.425  0.1042 -1.3661 -0.6084
 3953SOL    HW223322   4.086   0.506  14.463 -0.6821  0.6065 -0.8079
 3954SOL     OW23323   0.222   2.788   1.552  0.1935 -0.2296  0.3221
 3954SOL    HW123324   0.199   2.794   1.459  1.0150 -0.8612  0.0766
 3954SOL    HW223325   0.269   2.870   1.565 -0.1289  0.2527 -1.5537
 3955SOL     OW23326   3.512   0.632  14.139 -0.6119  0.2353  0.3222
 3955SOL    HW123327   3.506   0.542  14.173 -2.0818  0.5785  0.9674
 3955SOL    HW223328   3.605   0.653  14.151 -0.2294 -1.9238  1.2554
 3956SOL     OW23329   2.163   2.139   9.821  0.1909 -0.3486 -0.6408
 3956SOL    HW123330   2.101   2.116   9.752  0.6243 -1.5371 -0.6427
 3956SOL    HW223331   2.149   2.062   9.877  2.4851 -0.9879 -0.9519
 3957SOL     OW23332   4.470   0.859   8.780 -0.1265 -0.7624  0.1954
 3957SOL    HW123333   4.424   0.816   8.852 -1.2765 -1.4464 -0.9257
 3957SOL    HW223334   4.555   0.877   8.818 -0.3095  0.8067 -0.1301
 3958SOL     OW23335   3.209   4.485   9.877  0.3541  0.3189  0.7015
 3958SOL    HW123336   3.135   4.541   9.903  0.0753 -0.4666  1.6193
 3958SOL    HW223337   3.204   4.505   9.784 -1.1289 -0.0363  0.6948
 3959SOL     OW23338   4.563   1.957   3.317  0.2020 -0.5059 -0.2280
 3959SOL    HW123339   4.623   1.942   3.244  0.3577 -0.5381 -0.0948
 3959SOL    HW223340   4.607   2.025   3.368 -1.5102 -0.6877  1.4853
 3960SOL     OW23341   2.627   0.985   4.200  0.1025  0.1916  0.5065
 3960SOL    HW123342   2.660   0.983   4.110  1.2476  2.3558  0.8955
 3960SOL    HW223343   2.605   0.892   4.206  1.4362 -0.3215 -2.8857
 3961SOL     OW23344   1.460   0.112   6.078 -0.1236 -0.0398 -0.0327
 3961SOL    HW123345   1.445   0.206   6.066 -2.1114 -0.5222 -1.4032
 3961SOL    HW223346   1.545   0.120   6.121 -0.0587  1.1543 -0.3830
 3962SOL     OW23347   1.000   3.149   5.898  0.1978 -0.6837  0.3710
 3962SOL    HW123348   1.009   3.082   5.966  3.8168 -0.5345  0.0471
 3962SOL    HW223349   0.926   3.118   5.846  0.5423  0.8741 -1.0316
 3963SOL     OW23350   3.689   1.192   4.996  0.2529 -0.0852  0.3596
 3963SOL    HW123351   3.726   1.275   4.964 -0.6113 -1.4159 -4.0957
 3963SOL    HW223352   3.662   1.220   5.083 -0.9758 -0.8574  0.2253
 3964SOL     OW23353   0.424   2.768   8.677  0.0218 -0.0328 -0.1824
 3964SOL    HW123354   0.497   2.818   8.712  1.0522 -1.6904  0.0657
 3964SOL    HW223355   0.404   2.806   8.591  0.2531  0.3931 -0.0466
 3965SOL     OW23356   4.039   0.420  11.452 -0.1455  0.2703 -0.3766
 3965SOL    HW123357   3.973   0.351  11.460  1.7366 -1.5566 -0.7971
 3965SOL    HW223358   3.977   0.493  11.442  1.3860  1.1707 -3.3030
 3966SOL     OW23359   2.649   4.318   9.343  0.2765 -0.5992  0.2687
 3966SOL    HW123360   2.608   4.377   9.406 -0.0057 -1.6615  1.0912
 3966SOL    HW223361   2.618   4.350   9.258 -0.7773 -1.4998  0.3075
 3967SOL     OW23362   4.583   3.327  13.939 -0.6627 -0.2516 -0.5353
 3967SOL    HW123363   4.505   3.374  13.912 -0.1165  1.3640  0.6788
 3967SOL    HW223364   4.633   3.400  13.975  0.2023 -2.2578  2.3274
 3968SOL     OW23365   1.133   2.996   3.417 -0.0173  0.1126 -0.3760
 3968SOL    HW123366   1.051   3.007   3.368  0.8187  1.3473 -1.4932
 3968SOL    HW223367   1.149   3.087   3.441 -0.8751 -0.0689  0.8974
 3969SOL     OW23368   3.940   0.361   7.382 -0.4613  0.0761 -0.5369
 3969SOL    HW123369   3.882   0.294   7.346 -2.5505  0.6182  1.7555
 3969SOL    HW223370   3.960   0.408   7.302  1.7329 -2.3808 -1.4096
 3970SOL     OW23371   3.462   1.547   9.826 -0.3509 -0.2002  0.0053
 3970SOL    HW123372   3.437   1.590   9.907 -0.1816 -1.0130  0.4841
 3970SOL    HW223373   3.457   1.620   9.763  2.2378 -0.4275 -0.4641
 3971SOL     OW23374   1.815   1.493   4.771 -0.3743 -0.1454  0.0760
 3971SOL    HW123375   1.735   1.454   4.737 -0.3813  0.4137 -0.5433
 3971SOL    HW223376   1.791   1.568   4.826  1.8681 -0.4391  1.4807
 3972SOL     OW23377   2.096   1.916  16.050 -0.3719 -0.0714  0.0148
 3972SOL    HW123378   2.152   1.971  15.995  1.6438 -1.2826  0.8483
 3972SOL    HW223379   2.018   1.927  15.996 -2.1352 -0.5389  2.5116
 3973SOL     OW23380   1.218   4.088  12.352  0.3204  0.2409  0.3658
 3973SOL    HW123381   1.147   4.069  12.292 -0.0940 -0.6089  1.1210
 3973SOL    HW223382   1.204   4.180  12.374 -1.4680 -0.3579  1.7409
 3974SOL     OW23383   1.678   3.384   8.104 -0.3534  0.2880  0.5134
 3974SOL    HW123384   1.727   3.391   8.186 -3.6140  0.6587  2.4225
 3974SOL    HW223385   1.591   3.360   8.137 -0.5594 -0.9679 -0.9119
 3975SOL     OW23386   4.309   0.985   4.016 -0.6141  0.1994  0.1894
 3975SOL    HW123387   4.399   0.991   4.046 -0.3141  1.1118 -0.8850
 3975SOL    HW223388   4.288   1.078   4.004 -0.4245  0.1004 -0.8723
 3976SOL     OW23389   3.551   3.801   4.101  0.1213 -0.2889 -0.1657
 3976SOL    HW123390   3.540   3.823   4.009  0.6002 -0.8669 -0.3622
 3976SOL    HW223391   3.646   3.793   4.098  0.1676 -0.2368  0.9854
 3977SOL     OW23392   4.462   3.447  10.303 -0.1608 -0.1331  0.1855
 3977SOL    HW123393   4.454   3.484  10.391 -1.9263  2.6688 -1.1389
 3977SOL    HW223394   4.543   3.396  10.302 -0.1867 -0.1784  0.6464
 3978SOL     OW23395   4.440   1.929   7.307 -0.6288 -0.0444 -0.5996
 3978SOL    HW123396   4.361   1.978   7.283  0.7670  1.3618 -2.2756
 3978SOL    HW223397   4.436   1.845   7.260  1.0516  0.3167 -1.3694
 3979SOL     OW23398   4.068   4.256   1.948  0.6803  0.3476  0.5313
 3979SOL    HW123399   3.974   4.272   1.957  0.7851  0.9259  0.6312
 3979SOL    HW223400   4.087   4.290   1.860  1.8038  2.6510  1.6609
 3980SOL     OW23401   2.209   3.492  16.135 -1.0146  0.5944 -0.7750
 3980SOL    HW123402   2.142   3.475  16.069 -0.3783 -1.7204 -0.8144
 3980SOL    HW223403   2.276   3.545  16.092 -0.4968  0.5825  0.0199
 3981SOL     OW23404   0.475   0.266   3.000 -0.1267 -0.6162  0.2144
 3981SOL    HW123405   0.548   0.231   3.051  2.9318  2.1650 -2.2516
 3981SOL    HW223406   0.400   0.290   3.054 -0.4859 -0.1704 -0.4709
 3982SOL     OW23407   4.395   3.334   1.816  0.2081  0.2620  0.3820
 3982SOL    HW123408   4.478   3.315   1.859  0.7597 -1.4805 -1.5074
 3982SOL    HW223409   4.388   3.428   1.836  1.0504  0.5568 -0.7114
 3983SOL     OW23410   0.889   1.551   7.507 -0.1128  0.2192 -0.2751
 3983SOL    HW123411   0.842   1.468   7.500 -2.0648  1.1489  1.7436
 3983SOL    HW223412   0.930   1.538   7.593 -1.8062  0.3846  0.5537
 3984SOL     OW23413   1.876   1.423  14.693  0.3610  0.0971 -0.2232
 3984SOL    HW123414   1.911   1.481  14.761  0.9274 -0.3365 -0.1475
 3984SOL    HW223415   1.851   1.483  14.623 -1.1059 -1.8421 -1.3666
 3985SOL     OW23416   0.935   3.550   5.591  0.4991  0.0719  0.0996
 3985SOL    HW123417   1.020   3.550   5.547  0.7640 -0.4007  0.6061
 3985SOL    HW223418   0.877   3.579   5.521 -1.8481 -0.0607  1.9750
 3986SOL     OW23419   3.615   1.896  13.406 -0.0387 -0.2547  0.3000
 3986SOL    HW123420   3.535   1.844  13.410  0.6830 -1.3470  0.4009
 3986SOL    HW223421   3.688   1.837  13.388 -0.8381 -0.6790 -1.5568
 3987SOL     OW23422   4.023   2.566   0.499 -0.2055 -0.4039  0.3926
 3987SOL    HW123423   4.084   2.560   0.426  1.4012 -0.4917  1.7415
 3987SOL    HW223424   4.040   2.485   0.547 -0.9752 -0.7746  0.0438
 3988SOL     OW23425   0.435   0.318   2.155  0.1312  0.4632 -0.0249
 3988SOL    HW123426   0.388   0.254   2.101 -0.9351 -0.9066  2.5063
 3988SOL    HW223427   0.373   0.390   2.167 -2.3327 -1.5867 -0.5089
 3989SOL     OW23428   0.436   0.677   4.391 -0.8275  0.3393 -0.2540
 3989SOL    HW123429   0.463   0.761   4.353 -0.1234 -0.0940 -0.7030
 3989SOL    HW223430   0.370   0.651   4.327 -1.6984  2.1835 -0.1240
 3990SOL     OW23431   2.751   2.050   4.254 -0.0966  0.1136  0.0938
 3990SOL    HW123432   2.792   1.964   4.243 -1.5438 -0.9442  2.9383
 3990SOL    HW223433   2.678   2.027   4.311  0.3324  1.0660  1.0175
 3991SOL     OW23434   3.411   0.035   5.156 -0.2394 -0.2233  0.6813
 3991SOL    HW123435   3.401   0.119   5.110 -0.1136 -0.6947 -0.2205
 3991SOL    HW223436   3.320   0.004   5.160 -0.8315  1.1305 -2.3161
 3992SOL     OW23437   4.047   4.384   2.458  0.8281 -0.2300 -0.1631
 3992SOL    HW123438   4.053   4.417   2.369 -2.0213 -0.1978 -0.3351
 3992SOL    HW223439   4.139   4.387   2.484  0.2762  0.7992  1.6752
 3993SOL     OW23440   0.893   1.134   4.657  0.5612  0.7406  0.2202
 3993SOL    HW123441   0.808   1.105   4.691  0.9547 -1.1569 -0.4221
 3993SOL    HW223442   0.947   1.089   4.723  1.5025  0.1024 -0.9934
 3994SOL     OW23443   3.838   2.601   3.608 -0.5571  0.1856  0.6034
 3994SOL    HW123444   3.834   2.598   3.512 -0.5497  0.5756  0.5924
 3994SOL    HW223445   3.911   2.659   3.627 -1.0385  0.8046  0.5565
 3995SOL     OW23446   4.383   1.822   9.488 -0.8324 -0.4450 -0.3067
 3995SOL    HW123447   4.385   1.882   9.413  1.0447  0.7639  0.7140
 3995SOL    HW223448   4.443   1.752   9.463  2.4699  2.4804 -0.7330
 3996SOL     OW23449   3.935   2.116   7.228 -0.3305  0.3341 -0.2429
 3996SOL    HW123450   3.844   2.126   7.200 -0.7303 -0.9616  0.6104
 3996SOL    HW223451   3.964   2.204   7.203 -0.0121  0.3893  0.3147
 3997SOL     OW23452   0.989   3.470   3.384 -0.3513 -0.0994 -0.2642
 3997SOL    HW123453   0.957   3.396   3.435  1.3169  0.1472  1.1081
 3997SOL    HW223454   1.002   3.424   3.300 -0.4764 -0.2075 -0.2245
 3998SOL     OW23455   4.475   4.115   1.204  0.1404 -0.1354 -0.0272
 3998SOL    HW123456   4.483   4.051   1.133 -0.9488 -1.9403  1.4964
 3998SOL    HW223457   4.568   4.130   1.219  0.3933 -1.4316 -0.2794
 3999SOL     OW23458   2.978   2.445  10.930  0.0801 -0.0112 -0.0605
 3999SOL    HW123459   2.976   2.539  10.944 -1.0030  0.1246 -1.1473
 3999SOL    HW223460   3.056   2.420  10.980 -0.7744 -1.5895  0.4782
 4000SOL     OW23461   0.007   0.967   3.228  0.0759 -0.1508 -0.0565
 4000SOL    HW123462   4.668   0.964   3.300  0.9570  0.0621  0.7216
 4000SOL    HW223463   4.723   1.062   3.214  0.0064  0.0278  1.2383
 4001SOL     OW23464   4.679   4.507   7.620  0.6781  0.0034 -0.4975
 4001SOL    HW123465   0.016   4.443   7.656 -0.8220 -1.8511 -1.2857
 4001SOL    HW223466   4.650   4.555   7.697  0.1916 -1.8519  0.4670
 4002SOL     OW23467   1.907   1.104  16.582 -0.2996 -0.6627 -0.1641
 4002SOL    HW123468   1.923   1.188  16.626  0.4936 -1.0595  0.2999
 4002SOL    HW223469   1.990   1.084  16.539  0.3234 -0.9653  1.1617
 4003SOL     OW23470   3.645   2.187   0.844 -0.0091 -0.2870  0.3892
 4003SOL    HW123471   3.597   2.107   0.866 -0.8592 -0.3306 -1.6114
 4003SOL    HW223472   3.728   2.156   0.880  0.2507 -3.2250 -2.7390
 4004SOL     OW23473   0.576   0.669  13.903  0.1708 -0.8430  0.1691
 4004SOL    HW123474   0.559   0.742  13.963 -2.2655  0.3613 -2.0067
 4004SOL    HW223475   0.671   0.661  13.918  0.3961  1.9876  0.1975
 4005SOL     OW23476   1.523   4.378   4.818  0.4257  0.1892  0.8303
 4005SOL    HW123477   1.498   4.349   4.730  0.2083 -1.6474  1.5028
 4005SOL    HW223478   1.597   4.432   4.791  0.5244 -0.9682 -1.2292
 4006SOL     OW23479   4.193   3.352   3.480 -0.4593  0.1696 -0.3521
 4006SOL    HW123480   4.285   3.326   3.470 -0.1536  1.9633 -2.4263
 4006SOL    HW223481   4.149   3.268   3.465  1.6093 -1.3129  1.9169
 4007SOL     OW23482   1.419   0.764   7.273  0.2115  0.2141  0.5987
 4007SOL    HW123483   1.373   0.831   7.223  1.2230 -1.2403 -2.3101
 4007SOL    HW223484   1.350   0.700   7.287 -0.2450  0.6492  0.3322
 4008SOL     OW23485   0.226   1.941  11.263  0.1778  0.0341 -0.0982
 4008SOL    HW123486   0.133   1.944  11.285  0.5663 -1.6348  1.7480
 4008SOL    HW223487   0.246   1.857  11.303  0.7068 -0.0167 -0.4648
 4009SOL     OW23488   4.310   0.333   4.294  0.6698 -0.7195 -0.5491
 4009SOL    HW123489   4.347   0.413   4.257 -0.0999 -0.5480 -0.9580
 4009SOL    HW223490   4.394   0.290   4.310  0.2795 -1.1403  0.3614
 4010SOL     OW23491   2.927   2.081   7.359 -0.1329  0.3760  0.5088
 4010SOL    HW123492   2.936   2.040   7.273  1.3047  0.8994  0.4091
 4010SOL    HW223493   2.851   2.031   7.387 -0.5895  0.8369  0.0781
 4011SOL     OW23494   1.400   2.901  11.194  0.0063  0.0856  0.4233
 4011SOL    HW123495   1.469   2.939  11.140  1.2334  1.1671  2.7589
 4011SOL    HW223496   1.337   2.973  11.202  1.2692  1.0535  1.5133
 4012SOL     OW23497   1.346   4.104   7.601 -0.1492 -0.2896  0.3237
 4012SOL    HW123498   1.297   4.155   7.665 -2.0811 -2.7216  0.8112
 4012SOL    HW223499   1.423   4.160   7.599  0.8348 -1.6116  0.9800
 4013SOL     OW23500   0.380   3.084   8.296  0.3134  0.0087 -0.0124
 4013SOL    HW123501   0.307   3.048   8.246  0.7288  0.3403 -0.8533
 4013SOL    HW223502   0.357   3.175   8.313  1.8203  0.6940 -1.6187
 4014SOL     OW23503   0.089   2.621   5.357 -0.0597  0.1233  0.3605
 4014SOL    HW123504   0.147   2.674   5.411 -1.4803  0.3567  1.6430
 4014SOL    HW223505   0.019   2.608   5.421  0.5617 -0.6830  0.8652
 4015SOL     OW23506   4.679   3.895   1.807  0.0424  0.0218 -0.0346
 4015SOL    HW123507   4.617   3.939   1.865 -0.4518 -0.0704 -0.4907
 4015SOL    HW223508   4.626   3.816   1.794 -0.9333  0.2896  2.2403
 4016SOL     OW23509   2.617   2.037  17.660 -0.3424  0.0802 -0.4199
 4016SOL    HW123510   2.707   2.039  17.627 -0.7828  0.0288 -1.6402
 4016SOL    HW223511   2.586   2.108  17.602 -0.2757 -0.1148 -0.6940
 4017SOL     OW23512   2.401   1.119   2.929 -0.1052  0.1939 -0.2078
 4017SOL    HW123513   2.467   1.065   2.973 -1.0467 -1.7534 -1.1791
 4017SOL    HW223514   2.451   1.157   2.857 -2.5112  3.1375 -0.3255
 4018SOL     OW23515   3.630   0.804   7.179 -0.5709  0.1687  0.0487
 4018SOL    HW123516   3.634   0.842   7.091 -0.5175 -1.2904 -0.5861
 4018SOL    HW223517   3.651   0.711   7.169  1.8078  0.6060  1.0302
 4019SOL     OW23518   2.159   0.607   2.799  1.2580  0.1424 -0.3173
 4019SOL    HW123519   2.122   0.560   2.725  0.7148 -0.8227  0.5644
 4019SOL    HW223520   2.111   0.566   2.871  0.1357  0.5401 -0.8466
 4020SOL     OW23521   3.056   2.866  15.829  0.3155  0.3535 -0.5630
 4020SOL    HW123522   3.036   2.906  15.914  3.4063 -2.3084  1.3887
 4020SOL    HW223523   3.115   2.937  15.804  0.8059 -0.1010 -0.6822
 4021SOL     OW23524   3.449   1.057   8.197  0.0678  0.5271  0.0243
 4021SOL    HW123525   3.487   1.142   8.222 -1.0419  0.9230  0.3778
 4021SOL    HW223526   3.466   0.998   8.270 -1.0134 -0.6688 -0.7073
 4022SOL     OW23527   1.493   3.735   3.051 -0.8552 -0.2118  0.7424
 4022SOL    HW123528   1.533   3.780   2.977  2.4166 -3.0019  0.8325
 4022SOL    HW223529   1.426   3.680   3.011 -1.0457  1.9327 -1.8243
 4023SOL     OW23530   3.533   2.174   4.846 -0.0699  0.2717 -0.6829
 4023SOL    HW123531   3.467   2.174   4.915  0.9552  0.3540  0.2971
 4023SOL    HW223532   3.482   2.205   4.771 -0.9443  0.8801  0.1627
 4024SOL     OW23533   2.603   2.935   1.804  0.0456  0.2195  0.1438
 4024SOL    HW123534   2.618   2.840   1.811 -2.3101 -0.1576 -0.0142
 4024SOL    HW223535   2.546   2.954   1.730  0.0606 -2.1403 -0.4900
 4025SOL     OW23536   2.797   1.386   6.892  0.2692  0.2747 -0.1751
 4025SOL    HW123537   2.738   1.425   6.828 -0.7061  0.3469  0.7666
 4025SOL    HW223538   2.884   1.411   6.858 -0.3644  1.2597 -1.0686
 4026SOL     OW23539   1.042   2.302   6.567 -0.0018  0.1441  0.2486
 4026SOL    HW123540   1.011   2.219   6.602  1.5633  0.2876  1.9805
 4026SOL    HW223541   1.093   2.320   6.646  3.1943  3.1278 -2.4831
 4027SOL     OW23542   0.099   3.493  15.294 -0.2502  0.0194  0.1122
 4027SOL    HW123543   0.066   3.439  15.221  1.7652 -3.1117  1.4985
 4027SOL    HW223544   0.077   3.578  15.256 -0.8013  0.0532  0.4991
 4028SOL     OW23545   1.441   1.330   4.390 -0.6174  0.7473  0.0347
 4028SOL    HW123546   1.484   1.355   4.472  1.2673  0.3677 -0.8497
 4028SOL    HW223547   1.385   1.263   4.429 -0.0251  0.3131  0.1318
 4029SOL     OW23548   3.620   1.805   3.810 -0.5458  0.0099 -0.0761
 4029SOL    HW123549   3.699   1.824   3.760 -0.8388  2.1324  0.2717
 4029SOL    HW223550   3.555   1.841   3.750 -1.4093  2.1236  2.1212
 4030SOL     OW23551   2.728   2.992   4.537 -0.4012  0.4983  0.4424
 4030SOL    HW123552   2.707   2.917   4.481 -0.6824  1.3480 -0.5826
 4030SOL    HW223553   2.806   3.019   4.489 -0.0750 -2.3558 -0.6466
 4031SOL     OW23554   2.570   3.065   9.014 -0.1138  0.0052  0.1807
 4031SOL    HW123555   2.475   3.071   9.008 -0.1678  0.2279  1.4385
 4031SOL    HW223556   2.595   3.139   8.959 -1.5416 -0.2317 -0.7938
 4032SOL     OW23557   4.138   1.084   4.949 -0.1448 -0.1687 -0.4824
 4032SOL    HW123558   4.091   1.158   4.911 -1.5525 -1.8102 -1.9350
 4032SOL    HW223559   4.074   1.020   4.980 -0.1010 -0.1864 -0.4282
 4033SOL     OW23560   3.835   3.876  17.125  0.0195  0.1027  0.0645
 4033SOL    HW123561   3.775   3.810  17.090 -0.6838  0.4618  0.5902
 4033SOL    HW223562   3.767   3.941  17.143  2.0021  1.7258  1.6530
 4034SOL     OW23563   4.287   4.611   1.822  0.1985  0.2691  0.0849
 4034SOL    HW123564   4.331   4.575   1.899  0.0383  0.1398  0.1160
 4034SOL    HW223565   4.202   4.625   1.863 -0.3679 -0.6736 -0.7758
 4035SOL     OW23566   1.489   1.590  15.228 -0.4280 -0.1820  0.0138
 4035SOL    HW123567   1.478   1.514  15.172 -0.6168 -1.3621  1.6508
 4035SOL    HW223568   1.425   1.650  15.191  0.2137  0.9942  0.7732
 4036SOL     OW23569   3.663   4.722   0.956  0.2615 -0.1328  0.1608
 4036SOL    HW123570   3.696   0.060   1.021 -0.6989 -0.8093  1.3129
 4036SOL    HW223571   3.648   4.642   1.008 -2.2734  0.9517  1.1291
 4037SOL     OW23572   3.412   1.158  13.305 -0.3686  0.0384 -0.2320
 4037SOL    HW123573   3.476   1.104  13.352 -1.2384 -0.3960  0.4606
 4037SOL    HW223574   3.334   1.107  13.326 -1.0396  0.0548 -2.7043
 4038SOL     OW23575   2.660   3.969  15.982  0.0801 -0.4573  0.1260
 4038SOL    HW123576   2.608   3.930  16.053 -1.9442 -1.8871 -2.1244
 4038SOL    HW223577   2.602   4.026  15.932  0.4482 -1.4911 -1.4755
 4039SOL     OW23578   0.908   4.595  11.492 -0.3550 -0.8023  0.3435
 4039SOL    HW123579   0.966   4.603  11.417 -3.4903  1.4200 -1.8232
 4039SOL    HW223580   0.968   4.603  11.567 -1.2290  0.4431  0.9059
 4040SOL     OW23581   2.923   1.653   5.303  0.0916  0.5482 -0.1059
 4040SOL    HW123582   2.842   1.607   5.280  1.7786 -1.2557 -2.3931
 4040SOL    HW223583   2.966   1.579   5.348 -1.7052 -1.6102 -1.9642
 4041SOL     OW23584   2.235   3.113   2.578  0.0086 -0.5220  0.4508
 4041SOL    HW123585   2.257   3.176   2.509 -0.7185 -1.7529 -0.8973
 4041SOL    HW223586   2.316   3.062   2.575  0.4117  0.1939 -0.9537
 4042SOL     OW23587   3.680   1.154   7.270 -0.1740  0.9314 -0.8411
 4042SOL    HW123588   3.672   1.084   7.334 -2.2651  1.5623 -0.3978
 4042SOL    HW223589   3.617   1.219   7.300 -2.1272 -0.9277 -0.8962
 4043SOL     OW23590   0.340   3.811   7.622  0.4321  0.2713  0.3614
 4043SOL    HW123591   0.325   3.760   7.543 -2.1532  2.0076 -0.2712
 4043SOL    HW223592   0.403   3.877   7.593  1.3743 -1.2732 -1.1169
 4044SOL     OW23593   0.297   4.263   2.485  0.2359 -0.1158  0.4580
 4044SOL    HW123594   0.221   4.270   2.543 -0.0508 -1.4407  0.2626
 4044SOL    HW223595   0.277   4.183   2.436  0.0096  0.0365  0.2997
 4045SOL     OW23596   1.465   2.637  15.758 -0.0208  0.3787 -0.0158
 4045SOL    HW123597   1.429   2.585  15.830 -0.0157 -0.2183 -0.4452
 4045SOL    HW223598   1.547   2.662  15.799 -0.1793  0.3106  0.3522
 4046SOL     OW23599   2.840   2.381  12.812 -0.2422 -0.2857 -0.0098
 4046SOL    HW123600   2.848   2.290  12.784 -0.1277 -0.0625 -0.6968
 4046SOL    HW223601   2.789   2.369  12.892 -2.1407  0.0260 -1.1684
 4047SOL     OW23602   0.182   2.804  12.136 -0.4889  0.1875  0.5291
 4047SOL    HW123603   0.198   2.732  12.074  0.0977  0.5191  0.2942
 4047SOL    HW223604   0.232   2.775  12.211 -1.2193 -2.8209 -0.1566
 4048SOL     OW23605   2.267   4.294   8.132 -0.6268  0.9160 -0.2994
 4048SOL    HW123606   2.266   4.217   8.190  0.3655  1.8524  0.9791
 4048SOL    HW223607   2.176   4.303   8.103 -2.0072 -3.9360  2.4466
 4049SOL     OW23608   3.930   2.780   3.185  0.2457  0.4722 -0.4159
 4049SOL    HW123609   4.007   2.734   3.219  0.0333 -0.3600 -1.0741
 4049SOL    HW223610   3.974   2.819   3.109  0.2722  0.3488 -0.4640
 4050SOL     OW23611   1.377   0.100   2.107  0.3471  0.2768  0.1995
 4050SOL    HW123612   1.418   0.154   2.039  0.1351 -0.2744 -0.3756
 4050SOL    HW223613   1.348   0.166   2.169 -2.0439 -1.4385  0.9097
 4051SOL     OW23614   3.361   3.577   7.303 -0.1531 -0.5836 -0.0992
 4051SOL    HW123615   3.277   3.590   7.346 -0.2871  0.2248 -0.5954
 4051SOL    HW223616   3.407   3.521   7.365 -0.4289  1.4484  1.9274
 4052SOL     OW23617   1.847   0.274   5.338 -0.2652 -0.3732  0.2058
 4052SOL    HW123618   1.893   0.200   5.378 -0.0575 -0.2199  0.2507
 4052SOL    HW223619   1.765   0.278   5.386 -0.7690 -1.9379 -0.4898
 4053SOL     OW23620   3.412   4.128   9.911 -0.0963 -0.2189 -0.0162
 4053SOL    HW123621   3.372   4.073   9.978 -1.3884 -0.6934 -1.1958
 4053SOL    HW223622   3.473   4.184   9.960  0.3377 -1.0872  0.4470
 4054SOL     OW23623   4.566   3.721   2.853  0.3682 -0.7314  0.2517
 4054SOL    HW123624   4.632   3.781   2.889 -0.0783 -0.6341  0.9028
 4054SOL    HW223625   4.508   3.789   2.820  1.0760 -0.0731  0.3597
 4055SOL     OW23626   2.751   2.879  13.534 -0.8565 -0.7404  0.2238
 4055SOL    HW123627   2.732   2.861  13.626  1.2131  0.3362  0.8627
 4055SOL    HW223628   2.799   2.803  13.501 -1.7876 -2.0846  1.9103
 4056SOL     OW23629   2.719   2.341   2.363 -0.6606  0.2585  0.2000
 4056SOL    HW123630   2.643   2.305   2.409 -0.1068 -1.1015  0.0461
 4056SOL    HW223631   2.787   2.342   2.430  0.1121 -0.2479 -0.5916
 4057SOL     OW23632   3.513   0.551  15.317 -0.2497  1.0781 -0.0297
 4057SOL    HW123633   3.449   0.590  15.377 -0.7068  0.1066  0.1118
 4057SOL    HW223634   3.476   0.566  15.230 -1.5938  1.3232  0.5859
 4058SOL     OW23635   3.158   3.418   3.900  0.1451  0.3840 -0.1326
 4058SOL    HW123636   3.227   3.459   3.848 -0.3692 -0.0658 -1.1959
 4058SOL    HW223637   3.086   3.428   3.837 -1.2848 -2.2800  1.1002
 4059SOL     OW23638   2.771   1.432   7.815  0.1885  0.1657  0.2804
 4059SOL    HW123639   2.818   1.393   7.889 -2.8614 -0.0363  2.1024
 4059SOL    HW223640   2.798   1.523   7.815  2.6927 -0.5630  2.9714
 4060SOL     OW23641   2.439   2.926   8.567  0.1790 -0.1492 -0.2758
 4060SOL    HW123642   2.415   3.008   8.611 -1.8284 -1.1128  0.3859
 4060SOL    HW223643   2.498   2.884   8.629 -1.6170  2.4258  3.1915
 4061SOL     OW23644   3.819   1.023  11.337 -0.5396  0.5745 -0.2013
 4061SOL    HW123645   3.912   0.998  11.341 -0.8500 -0.3414  1.1429
 4061SOL    HW223646   3.792   0.985  11.421  1.8511  0.1248  0.3747
 4062SOL     OW23647   4.098   3.880   0.125  0.3799  0.5021  0.6520
 4062SOL    HW123648   4.129   3.916   0.208 -0.2669  0.9123  0.7208
 4062SOL    HW223649   4.020   3.934   0.109 -1.0371 -1.5703  0.5916
 4063SOL     OW23650   4.709   3.299  10.285 -0.2108  0.3022  0.3626
 4063SOL    HW123651   4.697   3.262  10.198 -2.6273  0.2836  0.6771
 4063SOL    HW223652   0.064   3.349  10.268  2.2910 -3.2193  1.7602
 4064SOL     OW23653   0.979   1.390  16.858  0.7615 -0.8492 -0.4596
 4064SOL    HW123654   1.042   1.325  16.888  0.6478 -0.4045  0.7266
 4064SOL    HW223655   0.929   1.399  16.939  0.3724  1.2711 -0.9289
 4065SOL     OW23656   2.963   3.514   3.739  0.2957 -0.2373 -0.6401
 4065SOL    HW123657   2.934   3.605   3.731 -2.3671 -0.9944  0.1623
 4065SOL    HW223658   2.950   3.478   3.651  0.8363 -1.0786 -0.3734
 4066SOL     OW23659   0.400   2.473   4.200  0.5769 -0.2703 -0.1164
 4066SOL    HW123660   0.414   2.428   4.283  0.7497  1.5606  0.8486
 4066SOL    HW223661   0.481   2.453   4.152  2.2694 -0.8833  2.9621
 4067SOL     OW23662   2.285   1.533   5.315 -0.3748  0.0683  0.1647
 4067SOL    HW123663   2.200   1.571   5.335 -0.6545 -1.1324  1.2278
 4067SOL    HW223664   2.250   1.449   5.287  0.2585 -0.3231  0.5339
 4068SOL     OW23665   0.289   4.351   5.250  0.1623 -0.1464 -0.3864
 4068SOL    HW123666   0.363   4.377   5.305 -1.6453  3.2130  0.4601
 4068SOL    HW223667   0.207   4.346   5.300  0.9846 -0.7610  0.8918
 4069SOL     OW23668   4.604   1.251   9.499 -0.0700 -0.1263  0.6018
 4069SOL    HW123669   4.589   1.160   9.526 -0.0474 -0.4228 -0.3903
 4069SOL    HW223670   4.550   1.290   9.568  1.0187 -1.9451  2.4726
 4070SOL     OW23671   3.654   0.364  14.197  0.4644  0.2920 -0.0559
 4070SOL    HW123672   3.627   0.327  14.281  0.4911  0.2657 -0.0589
 4070SOL    HW223673   3.749   0.352  14.199  0.2772 -0.6053  2.8297
 4071SOL     OW23674   4.098   3.839   9.537 -0.5026 -0.5787  0.6704
 4071SOL    HW123675   4.008   3.833   9.566 -0.7349  1.5039  0.3680
 4071SOL    HW223676   4.122   3.918   9.585  1.2007 -1.2399  0.9132
 4072SOL     OW23677   2.799   0.834   9.963  0.0426  0.3302  0.1435
 4072SOL    HW123678   2.861   0.789   9.905  1.1471  0.9120  0.8620
 4072SOL    HW223679   2.855   0.906   9.993  1.1397 -1.3583  2.1573
 4073SOL     OW23680   2.513   2.066   6.248  0.5370 -0.2758  0.0890
 4073SOL    HW123681   2.422   2.055   6.276  0.4841 -0.1958 -0.0498
 4073SOL    HW223682   2.514   2.108   6.162 -0.5377  1.5611  0.9626
 4074SOL     OW23683   0.447   2.166  14.190  0.0075  0.0821  0.0555
 4074SOL    HW123684   0.521   2.185  14.247  0.4209 -1.2481 -0.0353
 4074SOL    HW223685   0.461   2.071  14.190 -0.6342 -0.0150 -0.0021
 4075SOL     OW23686   2.350   1.644   8.812  0.2569  0.2811 -0.0389
 4075SOL    HW123687   2.401   1.679   8.885  0.8750  0.6410 -0.6419
 4075SOL    HW223688   2.266   1.677   8.843  0.3714  1.6293 -1.1443
 4076SOL     OW23689   4.594   3.722   8.013 -0.5109 -0.0291 -0.2699
 4076SOL    HW123690   4.540   3.660   7.964  0.0253  0.6625 -1.7077
 4076SOL    HW223691   4.625   3.778   7.942 -3.5946 -0.3005 -1.8059
 4077SOL     OW23692   4.299   4.298   1.251 -0.1773  0.4972  0.1982
 4077SOL    HW123693   4.365   4.365   1.233  1.9480 -1.1727  1.7906
 4077SOL    HW223694   4.360   4.224   1.241  0.7854  1.3000  0.1905
 4078SOL     OW23695   0.131   2.058  11.043 -0.4300 -0.0092  0.4823
 4078SOL    HW123696   0.179   2.023  11.118 -2.4005 -2.5901  0.5120
 4078SOL    HW223697   0.042   2.032  11.064 -0.2403 -1.5304 -0.5934
 4079SOL     OW23698   4.231   2.665   4.541 -0.3876 -0.0580  0.0085
 4079SOL    HW123699   4.312   2.613   4.545 -1.3233 -1.4064  1.2399
 4079SOL    HW223700   4.174   2.618   4.601  0.5322  2.3991  2.7951
 4080SOL     OW23701   3.444   4.400   5.051 -0.1369 -0.3003 -0.1847
 4080SOL    HW123702   3.375   4.443   5.000  0.5389 -2.0628 -2.5533
 4080SOL    HW223703   3.527   4.427   5.011  1.0060 -2.3274  0.8914
 4081SOL     OW23704   3.201   4.172   2.260  0.6265  0.4463  0.7218
 4081SOL    HW123705   3.296   4.162   2.262  0.5889 -1.0569 -3.7807
 4081SOL    HW223706   3.197   4.266   2.243 -0.8421  0.6511  2.1462
 4082SOL     OW23707   2.388   4.711   0.302 -0.0290  0.3466  0.4496
 4082SOL    HW123708   2.304   4.703   0.347 -0.8522  2.1409 -0.7944
 4082SOL    HW223709   2.443   0.020   0.372 -2.2920  0.4574  2.1856
 4083SOL     OW23710   2.206   1.509   6.535 -0.0639 -1.0191 -0.3942
 4083SOL    HW123711   2.279   1.562   6.505  0.0910 -1.1520 -0.2554
 4083SOL    HW223712   2.139   1.529   6.469  0.2792 -0.2714 -0.5107
 4084SOL     OW23713   2.344   0.969  15.802 -0.2826 -0.0772  0.3039
 4084SOL    HW123714   2.315   0.880  15.824  1.5351 -0.4498  1.1663
 4084SOL    HW223715   2.257   1.009  15.802 -1.4225 -2.5612  1.3750
 4085SOL     OW23716   0.400   3.938   6.143  0.2421  0.1113  0.1868
 4085SOL    HW123717   0.387   4.005   6.211 -0.2646  1.8094 -1.5916
 4085SOL    HW223718   0.383   3.854   6.186 -1.3522  0.1602 -0.3514
 4086SOL     OW23719   3.150   0.483   9.737  0.0175  0.5873 -0.1552
 4086SOL    HW123720   3.142   0.507   9.645 -1.8323 -0.3391 -0.2302
 4086SOL    HW223721   3.246   0.487   9.740  0.0599  0.4689 -1.5254
 4087SOL     OW23722   3.454   0.166   0.837  0.3548 -0.2433 -0.6036
 4087SOL    HW123723   3.434   0.182   0.929  1.9737  0.6042 -0.4084
 4087SOL    HW223724   3.548   0.183   0.834  0.5096 -0.7931  1.4875
 4088SOL     OW23725   1.772   0.230  11.231 -0.2861 -0.2276 -0.1783
 4088SOL    HW123726   1.713   0.254  11.302  1.9395  0.8162  1.3009
 4088SOL    HW223727   1.844   0.194  11.283 -0.1662 -1.1326 -0.9716
 4089SOL     OW23728   2.521   2.280   2.553  0.1699 -0.1679  0.2450
 4089SOL    HW123729   2.523   2.326   2.637  1.1718 -0.4274  0.3620
 4089SOL    HW223730   2.437   2.304   2.514  0.6921  0.6143 -0.4062
 4090SOL     OW23731   3.265   3.219   8.272  0.3043  0.1172  0.0859
 4090SOL    HW123732   3.357   3.196   8.261 -0.0355 -2.1105  2.0924
 4090SOL    HW223733   3.284   3.312   8.258  0.6897 -0.2882 -2.0555
 4091SOL     OW23734   1.189   0.513  15.605  0.0447  0.6291 -0.1795
 4091SOL    HW123735   1.108   0.551  15.640 -0.2143 -0.5944  0.5623
 4091SOL    HW223736   1.167   0.420  15.595  1.2874  0.1581  1.5163
 4092SOL     OW23737   1.602   1.622   6.200  0.1374  0.3997  0.2182
 4092SOL    HW123738   1.609   1.638   6.106 -0.8921 -1.1127 -0.1071
 4092SOL    HW223739   1.660   1.692   6.230  0.4704  0.6420 -0.9686
 4093SOL     OW23740   4.687   3.650   4.133 -0.4602  0.3859  0.3311
 4093SOL    HW123741   4.719   3.705   4.061 -0.4222  0.3776  0.3413
 4093SOL    HW223742   4.683   3.572   4.078  0.5136 -0.0503  0.8651
 4094SOL     OW23743   2.350   3.886   9.729  0.0227  0.4220 -0.1562
 4094SOL    HW123744   2.278   3.823   9.730  1.6609 -1.4520 -2.7109
 4094SOL    HW223745   2.425   3.829   9.744 -2.0745 -2.2745 -0.0243
 4095SOL     OW23746   2.712   0.185   5.150  0.1125  0.1048  0.2423
 4095SOL    HW123747   2.784   0.213   5.093  1.7080 -3.0734  0.7141
 4095SOL    HW223748   2.732   0.229   5.233 -0.4982  2.6976 -0.9820
 4096SOL     OW23749   1.558   3.965   5.937  0.4680 -0.4843  0.7357
 4096SOL    HW123750   1.484   4.022   5.919  2.4553  1.3208 -1.8503
 4096SOL    HW223751   1.614   4.017   5.994  0.4005  0.3238  0.0621
 4097SOL     OW23752   2.788   1.052   6.308  0.0611  0.8523 -0.1578
 4097SOL    HW123753   2.780   1.024   6.399  0.5254 -1.7674 -0.9172
 4097SOL    HW223754   2.882   1.073   6.304  0.2213  0.1037 -0.3310
 4098SOL     OW23755   2.794   0.294  13.979 -0.2188 -0.7926 -0.0922
 4098SOL    HW123756   2.863   0.333  14.032 -1.1555  0.5296  0.1432
 4098SOL    HW223757   2.728   0.363  13.980  0.6504  0.0322 -0.6286
 4099SOL     OW23758   0.261   1.831   9.482 -0.3199  0.5008  0.6142
 4099SOL    HW123759   0.276   1.789   9.397 -1.0160  1.0511  0.2243
 4099SOL    HW223760   0.253   1.922   9.453  2.4449  0.1431 -1.3524
 4100SOL     OW23761   2.336   2.708   1.745  0.2476  0.2376 -0.4515
 4100SOL    HW123762   2.348   2.674   1.657 -1.3255  0.0624 -0.5971
 4100SOL    HW223763   2.312   2.800   1.734 -0.6633 -0.0607 -0.9435
 4101SOL     OW23764   4.368   1.108  10.580 -0.7495  0.0012 -0.1011
 4101SOL    HW123765   4.365   1.067  10.667 -2.4263  1.1886  0.4002
 4101SOL    HW223766   4.447   1.067  10.545 -0.2215  1.4976 -0.6440
 4102SOL     OW23767   2.484   2.024   4.116  0.4937  0.0543  0.6436
 4102SOL    HW123768   2.447   2.106   4.150 -1.2758  0.3931 -2.0933
 4102SOL    HW223769   2.431   2.007   4.039 -0.5919  0.2873  1.3379
 4103SOL     OW23770   1.248   0.376   3.352 -0.5887 -0.4216  0.0173
 4103SOL    HW123771   1.233   0.286   3.381  1.7799 -1.1407 -0.9692
 4103SOL    HW223772   1.316   0.406   3.412  0.7428 -1.3136 -1.0256
 4104SOL     OW23773   2.798   2.076  11.725 -0.5580  0.4120  0.1293
 4104SOL    HW123774   2.886   2.039  11.731  0.1877  2.3886  1.3757
 4104SOL    HW223775   2.813   2.170  11.736  1.1648  0.2553 -0.8774
 4105SOL     OW23776   2.423   3.589   0.499  0.4487  0.1958 -0.0527
 4105SOL    HW123777   2.327   3.589   0.495  0.4980 -0.4039 -1.1797
 4105SOL    HW223778   2.436   3.615   0.590  1.0215  1.6821 -0.5621
 4106SOL     OW23779   3.621   0.792   0.958 -0.3330 -0.1264  0.0106
 4106SOL    HW123780   3.682   0.761   1.026  1.1404  2.1114 -0.2982
 4106SOL    HW223781   3.615   0.715   0.902 -2.1353 -0.2786  0.4061
 4107SOL     OW23782   4.113   0.054   8.413  0.0302 -0.4149  0.0328
 4107SOL    HW123783   4.070   0.134   8.444 -1.5972 -0.5379 -1.8572
 4107SOL    HW223784   4.126   0.003   8.492 -3.6668 -0.0905  0.8527
 4108SOL     OW23785   3.272   4.492   7.316  0.3185  0.6828  0.7410
 4108SOL    HW123786   3.216   4.477   7.392  0.0230  0.6943  0.5263
 4108SOL    HW223787   3.306   4.581   7.328 -0.3498  1.3028 -1.9578
 4109SOL     OW23788   3.483   2.288   0.035  0.1076 -0.0608  0.4926
 4109SOL    HW123789   3.464   2.223   0.102  2.5516 -1.3136 -0.0095
 4109SOL    HW223790   3.547   2.347   0.074  0.7219 -1.7160  1.9776
 4110SOL     OW23791   3.609   4.683   2.426 -0.4080  0.0492  0.4540
 4110SOL    HW123792   3.677   4.700   2.492  0.0375  1.2977 -0.3198
 4110SOL    HW223793   3.612   0.044   2.381 -0.7208  0.3158  0.9361
 4111SOL     OW23794   3.338   4.542   5.703 -0.1105 -0.5842 -0.1789
 4111SOL    HW123795   3.260   4.493   5.728 -0.3238  0.6455  1.5984
 4111SOL    HW223796   3.337   4.528   5.609  2.3309 -3.2049  0.1740
 4112SOL     OW23797   1.408   4.276   1.723  0.2179 -0.3512 -0.0942
 4112SOL    HW123798   1.495   4.302   1.754 -0.0627  0.6458 -0.1587
 4112SOL    HW223799   1.414   4.183   1.748 -2.0022 -0.6544 -0.7377
 4113SOL     OW23800   0.006   0.284   5.019 -0.2310 -0.0128 -0.8213
 4113SOL    HW123801   4.708   0.377   5.019 -0.1501  0.0124  0.3608
 4113SOL    HW223802   0.003   0.279   5.115 -0.3024  2.1734 -0.6999
 4114SOL     OW23803   3.357   1.248  10.392 -0.3799  0.0769  0.3132
 4114SOL    HW123804   3.370   1.319  10.330  0.7322 -0.1866  0.2408
 4114SOL    HW223805   3.447   1.215  10.395 -0.7808 -0.9678  0.8336
 4115SOL     OW23806   2.132   3.320   8.383 -0.5954 -0.5817 -0.0721
 4115SOL    HW123807   2.072   3.299   8.455  2.7296 -1.6150  2.4297
 4115SOL    HW223808   2.199   3.371   8.428  1.2240 -1.5485 -1.7109
 4116SOL     OW23809   1.547   4.506   0.718  0.2688  0.0674 -0.4495
 4116SOL    HW123810   1.536   4.535   0.628 -0.9262  2.5900  0.4838
 4116SOL    HW223811   1.500   4.423   0.720  0.5938 -0.1230 -0.7893
 4117SOL     OW23812   3.076   1.927   4.886 -0.4670  0.2025 -0.1109
 4117SOL    HW123813   3.058   1.894   4.798  2.0130  1.3461 -1.0394
 4117SOL    HW223814   3.051   1.849   4.936  3.5118 -1.3312 -0.5449
 4118SOL     OW23815   1.780   2.164  13.501 -0.5073  0.2785  0.6779
 4118SOL    HW123816   1.753   2.086  13.451  4.1127 -0.0503 -1.3218
 4118SOL    HW223817   1.791   2.215  13.421 -2.5532 -0.5968 -0.1602
 4119SOL     OW23818   4.341   4.033   2.293  0.0980 -0.6149 -0.1804
 4119SOL    HW123819   4.249   4.026   2.320  0.2806  0.1536  0.6401
 4119SOL    HW223820   4.326   4.031   2.199 -0.4724  2.3921 -0.1425
 4120SOL     OW23821   2.788   0.861   7.751  0.1353 -0.8226  0.3932
 4120SOL    HW123822   2.702   0.893   7.778 -0.5937 -3.1478  0.8044
 4120SOL    HW223823   2.763   0.824   7.667  0.1799 -0.7311  0.3403
 4121SOL     OW23824   2.295   4.619  11.140  0.1266 -0.9029 -0.2713
 4121SOL    HW123825   2.202   4.610  11.161 -0.0995  0.4949 -0.6655
 4121SOL    HW223826   2.331   4.625  11.229 -0.1712  0.0165 -0.2092
 4122SOL     OW23827   4.511   0.757   7.667  0.3070  0.1230  0.1515
 4122SOL    HW123828   4.449   0.821   7.702  0.6372  0.4607  0.1129
 4122SOL    HW223829   4.534   0.800   7.585  1.4602  1.2559  1.0701
 4123SOL     OW23830   3.614   0.237  13.314  0.8009 -0.0435  0.1573
 4123SOL    HW123831   3.620   0.329  13.342  1.5387  0.4107 -1.5051
 4123SOL    HW223832   3.527   0.234  13.275  1.9793  3.1263 -2.7405
 4124SOL     OW23833   2.329   0.306   0.337 -0.2353  0.0874 -0.4823
 4124SOL    HW123834   2.322   0.401   0.341  0.3770  0.0750  0.6616
 4124SOL    HW223835   2.262   0.280   0.400  2.5257 -0.6574  2.1261
 4125SOL     OW23836   1.911   0.597   4.828 -0.1088 -0.4115 -0.1151
 4125SOL    HW123837   1.883   0.684   4.801 -0.8518 -0.3475  0.8374
 4125SOL    HW223838   1.834   0.572   4.879  0.7547  0.7039  1.7601
 4126SOL     OW23839   1.848   1.198   8.158  0.2291  0.1267  0.0618
 4126SOL    HW123840   1.781   1.266   8.161 -2.0432 -2.1525  1.1389
 4126SOL    HW223841   1.926   1.252   8.168  0.7874 -0.8126  0.7973
 4127SOL     OW23842   3.796   0.770   2.226  0.8339 -0.0193 -0.0504
 4127SOL    HW123843   3.754   0.685   2.212  0.3906  0.2562 -0.3877
 4127SOL    HW223844   3.752   0.803   2.304  2.3906  1.4346  0.2080
 4128SOL     OW23845   3.000   4.351  15.177  0.2137  0.3838  0.0075
 4128SOL    HW123846   2.927   4.337  15.118 -0.9682  4.5347  0.4792
 4128SOL    HW223847   2.991   4.280  15.241 -1.0429  0.9770  0.4892
 4129SOL     OW23848   3.753   3.605   3.715 -0.6337 -0.0568  0.1428
 4129SOL    HW123849   3.722   3.617   3.626 -0.3097  1.3262  0.2156
 4129SOL    HW223850   3.686   3.540   3.735  1.8751 -1.7939  3.0192
 4130SOL     OW23851   4.162   1.808   7.244  0.0982 -0.0393 -0.2402
 4130SOL    HW123852   4.145   1.890   7.199 -1.1336 -1.8380 -3.0623
 4130SOL    HW223853   4.090   1.803   7.307  1.0900  2.2639  1.0821
 4131SOL     OW23854   2.318   3.772  13.668 -0.1826 -0.5061 -0.8282
 4131SOL    HW123855   2.244   3.830  13.684  0.4607  0.0225  0.3104
 4131SOL    HW223856   2.295   3.739  13.582 -0.5363  1.1310 -1.3560
 4132SOL     OW23857   1.429   2.368   8.669 -0.3173 -0.2684 -0.4912
 4132SOL    HW123858   1.459   2.277   8.663  2.2054  0.4705  0.8248
 4132SOL    HW223859   1.475   2.395   8.749 -1.3317  0.5644 -0.1928
 4133SOL     OW23860   0.482   4.460   2.352 -0.7052 -0.2686 -0.0903
 4133SOL    HW123861   0.480   4.532   2.416  2.1315 -2.2638  2.2379
 4133SOL    HW223862   0.431   4.396   2.401  1.1918 -0.2133  1.9477
 4134SOL     OW23863   1.362   0.690   5.662  0.2469  1.0373  0.0343
 4134SOL    HW123864   1.340   0.661   5.751  1.9730  2.9484  1.0765
 4134SOL    HW223865   1.286   0.667   5.609  0.5458 -1.4958  0.7015
 4135SOL     OW23866   1.427   3.602   3.595  0.1437 -0.3992 -0.4824
 4135SOL    HW123867   1.391   3.610   3.507 -1.4331  2.3179  0.4007
 4135SOL    HW223868   1.514   3.568   3.572 -0.2210 -2.3847  1.0465
 4136SOL     OW23869   1.871   1.101  17.635  0.0846  0.4623  0.2404
 4136SOL    HW123870   1.783   1.066  17.640  0.8943 -1.3239  2.0667
 4136SOL    HW223871   1.887   1.113   0.031  0.6424  1.8698 -0.0269
 4137SOL     OW23872   0.603   1.049   4.698 -0.7025  0.9064 -0.2995
 4137SOL    HW123873   0.578   0.983   4.763 -1.1053  1.4066  0.0543
 4137SOL    HW223874   0.533   1.113   4.712 -0.6844  0.8140  0.2106
 4138SOL     OW23875   0.654   3.279   7.942  0.5206 -0.2824  0.6143
 4138SOL    HW123876   0.639   3.358   7.994  0.2507 -1.1353  1.8060
 4138SOL    HW223877   0.691   3.312   7.860 -2.1396 -0.6032 -0.6932
 4139SOL     OW23878   3.695   2.170   4.512 -0.0833  0.3748  0.2880
 4139SOL    HW123879   3.749   2.245   4.539  0.3290  0.3779 -0.5239
 4139SOL    HW223880   3.764   2.134   4.456 -1.0446 -0.8251 -0.1195
 4140SOL     OW23881   4.406   4.256   8.233 -0.1096  0.1248 -0.0795
 4140SOL    HW123882   4.450   4.333   8.196 -1.2238  0.4837 -0.6447
 4140SOL    HW223883   4.478   4.193   8.239 -0.7369 -0.5773  0.0152
 4141SOL     OW23884   3.354   2.634   9.690  0.2190  0.6694 -0.2926
 4141SOL    HW123885   3.444   2.667   9.699  0.5090 -0.3605  0.5601
 4141SOL    HW223886   3.316   2.695   9.753 -2.3071 -1.3558  0.1123
 4142SOL     OW23887   4.052   4.112   5.671  0.8062 -0.2167 -0.3783
 4142SOL    HW123888   4.119   4.150   5.614 -0.9863 -0.2940 -2.5891
 4142SOL    HW223889   4.038   4.029   5.626 -2.9494  1.1163 -1.7278
 4143SOL     OW23890   1.858   3.482   7.223  0.0389 -0.0799  0.3680
 4143SOL    HW123891   1.794   3.413   7.244 -0.2202 -0.0656 -0.3715
 4143SOL    HW223892   1.918   3.426   7.173  0.1657 -0.1406  0.5832
 4144SOL     OW23893   4.281   0.909   3.508 -0.6361 -0.4941 -0.4623
 4144SOL    HW123894   4.308   0.935   3.596  0.1868  0.0727 -0.8846
 4144SOL    HW223895   4.287   0.814   3.513  0.8329 -0.2945  1.4412
 4145SOL     OW23896   4.112   3.169   9.286 -0.2718 -0.5361  1.0203
 4145SOL    HW123897   4.177   3.196   9.220 -2.0991  1.2936 -0.0161
 4145SOL    HW223898   4.059   3.248   9.291  0.2778 -0.1469  0.7177
 4146SOL     OW23899   0.362   1.928   0.947 -0.1199 -0.1298 -0.2645
 4146SOL    HW123900   0.330   2.004   0.994 -2.4347  0.0630 -2.1124
 4146SOL    HW223901   0.281   1.877   0.953 -0.1123  0.0881  1.4880
 4147SOL     OW23902   4.002   4.716  12.509  0.4107  0.7316  0.8480
 4147SOL    HW123903   3.987   4.686  12.419  0.2176  0.0991  1.0960
 4147SOL    HW223904   4.024   0.084  12.496  0.4785  0.2984 -2.1620
 4148SOL     OW23905   2.223   3.449  15.771  0.2333 -0.0312  0.0759
 4148SOL    HW123906   2.310   3.411  15.775 -0.4969 -1.7188 -0.0055
 4148SOL    HW223907   2.192   3.394  15.700 -0.7159 -0.0757  0.5139
 4149SOL     OW23908   0.037   3.350   8.163  0.4527 -0.0982  0.1529
 4149SOL    HW123909   4.680   3.312   8.196 -0.4854 -1.2588 -3.4835
 4149SOL    HW223910   0.037   3.296   8.085  0.0356  0.0936  0.0198
 4150SOL     OW23911   0.454   0.367   7.458 -0.1496  0.2531 -0.4652
 4150SOL    HW123912   0.374   0.361   7.510  1.0352  1.9785  1.5713
 4150SOL    HW223913   0.452   0.451   7.414 -0.6694  1.9271  2.7252
 4151SOL     OW23914   4.354   3.288   8.562 -0.0798 -0.2040  0.1335
 4151SOL    HW123915   4.432   3.323   8.519  0.3521 -1.2232  0.0932
 4151SOL    HW223916   4.390   3.238   8.636 -1.7819  1.9485  2.4176
 4152SOL     OW23917   1.685   3.768   3.263  0.4653 -0.8855  0.0790
 4152SOL    HW123918   1.748   3.717   3.211  1.6838  0.6850  0.0117
 4152SOL    HW223919   1.606   3.758   3.210  1.1664 -1.1931 -0.9215
 4153SOL     OW23920   2.659   2.744   5.552 -0.5623  0.0172 -0.1867
 4153SOL    HW123921   2.565   2.729   5.554 -0.5480  0.2256  1.5631
 4153SOL    HW223922   2.685   2.655   5.576 -0.0653 -0.0804 -1.0485
 4154SOL     OW23923   1.391   2.780   2.389  0.1932 -0.0955  0.4102
 4154SOL    HW123924   1.348   2.794   2.473  1.5643  0.3111  1.0378
 4154SOL    HW223925   1.329   2.727   2.339  0.0511  0.9057 -0.4898
 4155SOL     OW23926   3.619   0.764   6.600  0.2606 -0.3224  0.4825
 4155SOL    HW123927   3.567   0.843   6.583 -1.5434 -1.5329  0.4264
 4155SOL    HW223928   3.703   0.779   6.556 -0.4336 -0.3353 -0.8419
 4156SOL     OW23929   2.364   2.315   7.131 -0.1040  0.5515  0.2093
 4156SOL    HW123930   2.411   2.277   7.205 -0.0581  0.9552  0.3872
 4156SOL    HW223931   2.432   2.377   7.103  0.2419 -0.3072 -0.8409
 4157SOL     OW23932   2.410   2.812  14.039 -0.7195  0.7559  0.6081
 4157SOL    HW123933   2.333   2.863  14.018 -0.2945  0.9284 -0.5018
 4157SOL    HW223934   2.361   2.736  14.071  1.9215 -0.7431  1.1558
 4158SOL     OW23935   4.278   4.200   3.327  0.2053 -0.2542 -0.3157
 4158SOL    HW123936   4.267   4.105   3.329 -0.2398 -0.2313 -1.8632
 4158SOL    HW223937   4.257   4.225   3.417 -3.0523 -1.7450 -0.6720
 4159SOL     OW23938   2.584   4.187   4.572  0.2730  0.2536  0.5762
 4159SOL    HW123939   2.579   4.260   4.510  0.4821  0.5437  0.8967
 4159SOL    HW223940   2.494   4.159   4.556 -0.2426  0.9769  2.1410
 4160SOL     OW23941   0.230   3.691   9.319 -0.5828 -0.1434 -0.3963
 4160SOL    HW123942   0.190   3.611   9.283 -2.5272  0.1470  1.0504
 4160SOL    HW223943   0.167   3.714   9.388 -0.4707 -4.6245  1.2089
 4161SOL     OW23944   4.551   3.752   3.702 -0.6303 -0.2509  0.0317
 4161SOL    HW123945   4.456   3.765   3.705 -0.8839 -2.4035  0.6264
 4161SOL    HW223946   4.585   3.829   3.748  0.1768  0.8995 -2.4478
 4162SOL     OW23947   0.989   1.470  11.681 -0.0703 -0.6576  0.0782
 4162SOL    HW123948   0.992   1.375  11.675  1.6929 -0.5748 -0.2162
 4162SOL    HW223949   1.069   1.488  11.631 -0.9925 -0.8822 -1.4939
 4163SOL     OW23950   4.200   2.512   9.470 -0.0743  0.4501 -0.3006
 4163SOL    HW123951   4.266   2.530   9.537  0.8872 -2.1539 -0.5500
 4163SOL    HW223952   4.224   2.575   9.402  2.6845 -0.5294 -0.2670
 4164SOL     OW23953   4.644   0.757  15.575 -0.6601 -0.0267 -0.1126
 4164SOL    HW123954   4.702   0.831  15.596 -2.2230  0.5669  2.1360
 4164SOL    HW223955   4.635   0.702  15.653 -0.6274 -0.8864 -0.7206
 4165SOL     OW23956   4.695   4.037   0.443 -0.5989  0.7170 -0.1173
 4165SOL    HW123957   4.625   4.082   0.491  0.5124  0.3080  1.8843
 4165SOL    HW223958   0.049   4.056   0.494 -2.0195 -1.2873  2.8262
 4166SOL     OW23959   2.216   1.661  14.906 -0.4381  0.0300  0.2719
 4166SOL    HW123960   2.219   1.578  14.954  2.3551  0.1192  0.2814
 4166SOL    HW223961   2.306   1.660  14.872 -0.2759 -1.2044  0.7432
 4167SOL     OW23962   0.532   4.303  17.404 -0.1555 -0.7451  0.1721
 4167SOL    HW123963   0.563   4.212  17.397  1.4632 -0.1248 -0.7892
 4167SOL    HW223964   0.526   4.337  17.315 -0.1321 -0.7689  0.1616
 4168SOL     OW23965   3.323   2.207   8.457  0.1053 -0.0984  0.2144
 4168SOL    HW123966   3.232   2.230   8.479 -0.2316  0.3684 -1.5912
 4168SOL    HW223967   3.361   2.294   8.443 -0.8392  0.4761  1.1655
 4169SOL     OW23968   2.127   0.397   7.765  0.8733 -0.7771 -0.2355
 4169SOL    HW123969   2.080   0.479   7.751  0.1149 -1.4915 -1.8472
 4169SOL    HW223970   2.090   0.368   7.849  0.7577  0.6066  0.1881
 4170SOL     OW23971   4.420   4.275  11.849  0.4317  0.1345  0.5609
 4170SOL    HW123972   4.400   4.187  11.819  0.4552  0.4241 -0.3100
 4170SOL    HW223973   4.356   4.295  11.917  1.0149 -0.6822  1.3558
 4171SOL     OW23974   1.297   2.174  16.279  0.8192  0.1178 -0.1111
 4171SOL    HW123975   1.360   2.134  16.338  0.2038 -1.0351 -0.2343
 4171SOL    HW223976   1.301   2.113  16.205  2.9969 -0.2993  0.3624
 4172SOL     OW23977   2.441   1.330   9.472 -0.4487  0.8218 -0.3973
 4172SOL    HW123978   2.399   1.322   9.557 -1.5376 -0.8936 -1.0962
 4172SOL    HW223979   2.481   1.244   9.469 -1.2805  0.5205 -3.2869
 4173SOL     OW23980   1.333   1.878   0.290 -0.3531  0.6731  0.0245
 4173SOL    HW123981   1.426   1.864   0.270  0.2899  0.6902  3.0356
 4173SOL    HW223982   1.287   1.847   0.212  0.5101 -0.0093 -0.2277
 4174SOL     OW23983   0.640   4.639  13.088  0.1261  0.3603  0.3245
 4174SOL    HW123984   0.728   4.630  13.125 -0.4870  1.6079  2.0919
 4174SOL    HW223985   0.599   4.558  13.118 -0.8345  1.4583  1.9845
 4175SOL     OW23986   2.548   1.702   8.142  0.9197 -0.0548 -0.6315
 4175SOL    HW123987   2.541   1.741   8.230 -1.0941 -0.4108 -0.6233
 4175SOL    HW223988   2.636   1.736   8.126  0.8217  0.8966  0.8181
 4176SOL     OW23989   2.724   3.821   4.585 -0.2863 -0.1732 -0.4871
 4176SOL    HW123990   2.725   3.845   4.677 -0.3114 -0.3932 -0.4304
 4176SOL    HW223991   2.659   3.751   4.589 -0.2618 -0.1433  0.4392
 4177SOL     OW23992   2.150   1.858  10.279 -0.0848 -0.0595 -0.7179
 4177SOL    HW123993   2.215   1.854  10.349 -1.7376 -2.3588  0.7132
 4177SOL    HW223994   2.094   1.788  10.313 -0.6592  0.7184 -0.0306
 4178SOL     OW23995   4.690   3.759   3.448  0.1416 -0.0610  0.3315
 4178SOL    HW123996   4.709   3.851   3.465  0.8716 -0.0757 -0.4006
 4178SOL    HW223997   4.628   3.726   3.513  1.2742  0.1747  1.5233
 4179SOL     OW23998   4.626   2.624   7.375  0.3939  0.1352 -0.1347
 4179SOL    HW123999   4.531   2.624   7.391  0.3462  0.2329 -0.4120
 4179SOL    HW224000   4.639   2.554   7.311  1.5093  0.6204 -0.4318
 4180SOL     OW24001   0.867   2.813   4.424 -0.0143  0.2143  0.0533
 4180SOL    HW124002   0.961   2.821   4.439 -0.1093 -0.0136  0.7937
 4180SOL    HW224003   0.848   2.888   4.368  1.4183 -0.0196 -0.7229
 4181SOL     OW24004   2.140   2.083   0.682 -0.0666  0.6950  0.8328
 4181SOL    HW124005   2.087   2.079   0.761 -0.4424  0.8190  0.5897
 4181SOL    HW224006   2.099   2.160   0.643  0.8165 -0.5887 -2.6697
 4182SOL     OW24007   2.270   2.552  11.127  0.0870  0.4148 -0.0704
 4182SOL    HW124008   2.286   2.528  11.218  0.2658  0.5484 -0.0679
 4182SOL    HW224009   2.184   2.590  11.143  0.6219  0.7792  1.9316
 4183SOL     OW24010   4.162   0.341   5.526 -0.3386  0.2072 -0.4271
 4183SOL    HW124011   4.086   0.394   5.550 -1.4237 -0.7938 -1.6657
 4183SOL    HW224012   4.199   0.334   5.614 -0.5522  1.5231 -0.2290
 4184SOL     OW24013   4.397   1.895  16.437  0.0794  0.3580 -0.1003
 4184SOL    HW124014   4.361   1.940  16.361 -1.8421 -1.4342 -0.2606
 4184SOL    HW224015   4.449   1.835  16.384 -1.3132 -1.4983  0.6215
 4185SOL     OW24016   4.241   1.110   7.548  0.2202  0.9178 -0.1868
 4185SOL    HW124017   4.150   1.125   7.522  0.9374  0.8251 -2.7375
 4185SOL    HW224018   4.272   1.061   7.472  0.7405 -0.8631  1.1638
 4186SOL     OW24019   1.335   1.048  12.936  0.1348 -0.2946  0.4254
 4186SOL    HW124020   1.394   1.010  12.871 -0.3459 -0.5444  0.1446
 4186SOL    HW224021   1.325   1.135  12.897 -2.0782 -0.0740  1.5081
 4187SOL     OW24022   1.276   2.643   2.176 -0.2931  0.5850 -0.3126
 4187SOL    HW124023   1.228   2.577   2.126 -0.7527  0.3842  0.3852
 4187SOL    HW224024   1.309   2.708   2.114  1.2437 -0.2938 -0.4037
 4188SOL     OW24025   1.852   0.464   2.754  0.3144  0.1809 -0.4865
 4188SOL    HW124026   1.893   0.443   2.838  0.9770 -0.6924 -1.0287
 4188SOL    HW224027   1.758   0.464   2.773  0.8862 -0.1274  2.3470
 4189SOL     OW24028   2.006   2.263  15.037 -0.6940  0.2450 -0.1279
 4189SOL    HW124029   1.965   2.213  14.966  3.6398 -1.5275 -1.3868
 4189SOL    HW224030   2.098   2.241  15.024 -0.2415  1.1381  1.6827
 4190SOL     OW24031   2.867   1.175   8.004  0.0686 -0.8577  0.3932
 4190SOL    HW124032   2.944   1.140   7.959 -0.8493 -2.2224 -0.1537
 4190SOL    HW224033   2.903   1.249   8.052  1.0884 -0.9737 -0.2009
 4191SOL     OW24034   2.808   3.399   6.046  0.2601 -0.3360  0.4850
 4191SOL    HW124035   2.838   3.395   5.956 -1.9280  1.3507 -0.3173
 4191SOL    HW224036   2.715   3.421   6.041  0.5428  0.5847 -0.5192
 4192SOL     OW24037   2.425   3.544   3.335 -1.2962  0.3914  0.1097
 4192SOL    HW124038   2.342   3.565   3.291 -1.5607 -0.1693  0.3380
 4192SOL    HW224039   2.466   3.475   3.283  1.2664  0.5756  1.8948
 4193SOL     OW24040   3.481   4.469   9.847 -0.7869 -0.0112 -0.4083
 4193SOL    HW124041   3.505   4.424   9.928  0.1808  0.3367 -0.5064
 4193SOL    HW224042   3.387   4.474   9.866 -0.7433 -0.9429  0.0715
 4194SOL     OW24043   3.811   4.720   9.277 -0.1913 -0.5799 -0.2024
 4194SOL    HW124044   3.819   0.023   9.369 -1.1216  0.9001 -0.5602
 4194SOL    HW224045   3.734   0.043   9.244 -0.9020 -2.5686 -1.4253
 4195SOL     OW24046   0.145   2.396   9.133 -0.3328  0.6835  0.5807
 4195SOL    HW124047   0.190   2.313   9.115 -0.1427  0.7691  0.6616
 4195SOL    HW224048   0.142   2.437   9.046  1.0251 -2.8818 -1.1501
 4196SOL     OW24049   0.912   1.406   6.715 -0.2900  0.0350 -0.0285
 4196SOL    HW124050   0.964   1.418   6.794 -0.0269  1.1198 -0.3611
 4196SOL    HW224051   0.969   1.459   6.659  0.4699 -0.8388 -0.0631
 4197SOL     OW24052   2.110   4.284  15.274 -0.1176  0.4584  0.1969
 4197SOL    HW124053   2.049   4.237  15.217 -1.4232  1.0419  1.1202
 4197SOL    HW224054   2.188   4.230  15.263  1.6953  3.0640  0.4754
 4198SOL     OW24055   2.295   1.699   8.045  0.3207 -0.1899 -0.2739
 4198SOL    HW124056   2.283   1.788   8.080 -1.1039 -0.8794  0.9824
 4198SOL    HW224057   2.386   1.688   8.075  0.2246 -1.3487 -0.4046
 4199SOL     OW24058   3.075   3.613   1.704 -0.6065 -0.1671 -0.2446
 4199SOL    HW124059   3.133   3.597   1.778 -2.6295  0.7133  1.5193
 4199SOL    HW224060   3.039   3.524   1.707  0.8954 -0.7412  1.2626
 4200SOL     OW24061   2.111   0.748   8.278 -0.0114  0.4187 -0.1853
 4200SOL    HW124062   2.054   0.671   8.278 -1.2075  1.3272  0.5074
 4200SOL    HW224063   2.076   0.787   8.199 -1.2801  1.6041  0.9800
 4201SOL     OW24064   3.354   4.667  12.177 -0.3894 -0.4170 -0.3743
 4201SOL    HW124065   3.414   4.612  12.227 -0.2705  0.3895  0.3724
 4201SOL    HW224066   3.278   4.611  12.158 -0.7029  0.9453 -3.1488
 4202SOL     OW24067   2.760   3.827  14.735 -1.0237 -0.3930 -0.2043
 4202SOL    HW124068   2.800   3.911  14.757 -2.0554 -0.2358  1.0777
 4202SOL    HW224069   2.784   3.773  14.811 -0.0860  2.2537  1.4081
 4203SOL     OW24070   0.189   4.518   4.644 -0.6971 -0.4795 -0.6720
 4203SOL    HW124071   0.279   4.516   4.612 -0.7743 -1.6738 -0.7979
 4203SOL    HW224072   0.194   4.440   4.699 -2.1705 -0.8721 -1.0966
 4204SOL     OW24073   1.589   4.296   1.431 -0.1452 -0.5788  0.1113
 4204SOL    HW124074   1.618   4.387   1.420  0.9774 -0.9206  0.2943
 4204SOL    HW224075   1.604   4.270   1.522 -0.4205 -0.0509  0.3091
 4205SOL     OW24076   2.374   4.205   7.779  0.0880  0.0003  0.0543
 4205SOL    HW124077   2.357   4.290   7.820 -2.4365  0.5399 -2.1307
 4205SOL    HW224078   2.294   4.155   7.796  0.0528 -0.9089 -2.7623
 4206SOL     OW24079   3.648   4.074   6.625  0.1827 -0.1814  0.5425
 4206SOL    HW124080   3.652   4.164   6.593 -0.2068  0.8378  3.3402
 4206SOL    HW224081   3.554   4.053   6.621  0.0514  1.0310 -2.8706
 4207SOL     OW24082   2.639   4.337   7.906  0.0091  0.0105 -0.6683
 4207SOL    HW124083   2.641   4.411   7.966 -2.1485  0.7758 -1.5217
 4207SOL    HW224084   2.603   4.268   7.961  0.0225  0.2324 -0.3823
 4208SOL     OW24085   2.217   1.494   7.317  0.3281 -0.6133 -0.0420
 4208SOL    HW124086   2.143   1.451   7.275 -0.2525 -1.0206  1.4052
 4208SOL    HW224087   2.188   1.585   7.314  1.2494 -0.3194 -0.0058
 4209SOL     OW24088   2.464   4.634   2.738 -0.0238  0.4152 -0.1248
 4209SOL    HW124089   2.410   4.571   2.691  1.4076  0.3483 -1.6684
 4209SOL    HW224090   2.539   4.646   2.680 -0.1149  2.0863  0.1038
 4210SOL     OW24091   2.446   2.350   8.970 -0.0219 -0.4140 -0.0485
 4210SOL    HW124092   2.453   2.440   8.937 -1.7353 -0.5241 -0.7495
 4210SOL    HW224093   2.518   2.349   9.032 -2.8685  0.9703  3.2946
 4211SOL     OW24094   2.855   0.395   0.190  0.5309 -0.5981 -0.5117
 4211SOL    HW124095   2.945   0.365   0.184  1.5098  2.2154  0.1291
 4211SOL    HW224096   2.795   0.325   0.216  2.3734 -1.1449  2.2464
 4212SOL     OW24097   0.033   3.620   9.549  0.3111  0.6113 -0.0379
 4212SOL    HW124098   4.670   3.585   9.527 -0.1022  0.9843  0.9925
 4212SOL    HW224099   0.012   3.685   9.616  1.5023  0.6082  0.3362
 4213SOL     OW24100   3.864   1.498   3.579 -0.3155  0.3699 -0.6650
 4213SOL    HW124101   3.929   1.481   3.511  0.9324 -1.5145  1.0061
 4213SOL    HW224102   3.921   1.497   3.655  0.0010 -0.7702 -0.9129
 4214SOL     OW24103   2.053   1.379   3.676  0.3800 -0.1128  0.2576
 4214SOL    HW124104   2.043   1.292   3.640 -1.1298  0.0366  0.3201
 4214SOL    HW224105   1.975   1.427   3.649  0.4522 -0.1999 -0.1011
 4215SOL     OW24106   0.593   1.804   2.282  0.2379  0.2202  0.1355
 4215SOL    HW124107   0.680   1.808   2.321  0.8557  0.3165 -1.2655
 4215SOL    HW224108   0.549   1.733   2.329  0.9078 -0.8007 -0.7912
 4216SOL     OW24109   2.351   3.090   2.982  0.0931 -0.2548 -0.1199
 4216SOL    HW124110   2.280   3.150   3.004  1.3808  0.8518  1.0319
 4216SOL    HW224111   2.396   3.155   2.928  1.1135  0.0058  1.0339
 4217SOL     OW24112   4.579   1.143   2.974  0.2148  0.6272 -0.1271
 4217SOL    HW124113   4.623   1.182   3.049  2.5255 -2.9083  0.3195
 4217SOL    HW224114   4.656   1.108   2.930  0.6496  1.6325 -0.1627
 4218SOL     OW24115   2.330   0.582   0.441 -0.3752  0.1226 -0.0389
 4218SOL    HW124116   2.364   0.627   0.363  1.0469 -0.8729 -0.0014
 4218SOL    HW224117   2.292   0.651   0.495 -2.7804  2.5333 -4.8068
 4219SOL     OW24118   1.430   3.426   9.332  0.3099 -0.2916 -0.2557
 4219SOL    HW124119   1.343   3.455   9.359  0.6697 -1.0681  1.8055
 4219SOL    HW224120   1.466   3.389   9.413 -0.3316  1.6518  0.9119
 4220SOL     OW24121   3.738   0.145  15.487  0.1250  0.0362 -0.1087
 4220SOL    HW124122   3.820   0.144  15.439 -1.0066  0.8211 -2.0296
 4220SOL    HW224123   3.680   0.186  15.423 -0.3206  2.0125  1.5731
 4221SOL     OW24124   2.677   2.356  15.704  0.2006  0.0081  0.1407
 4221SOL    HW124125   2.675   2.374  15.610 -3.1052  1.2910  0.4442
 4221SOL    HW224126   2.771   2.361  15.722  0.3190  0.0523 -0.4946
 4222SOL     OW24127   4.015   1.939  12.408 -0.2820 -0.4144  0.1488
 4222SOL    HW124128   3.962   1.936  12.329 -1.3300 -0.4354  0.8494
 4222SOL    HW224129   4.013   2.030  12.438  0.6762 -0.8903  1.6631
 4223SOL     OW24130   4.033   2.241  11.085 -0.1684 -0.3006  0.1665
 4223SOL    HW124131   4.061   2.300  11.155 -0.8074 -0.5935  0.6684
 4223SOL    HW224132   4.115   2.233  11.036  1.1683  0.1112  2.3324
 4224SOL     OW24133   4.137   2.815   5.618  0.8442  0.1923 -0.0670
 4224SOL    HW124134   4.110   2.773   5.537 -0.7959  1.6287 -0.2750
 4224SOL    HW224135   4.051   2.825   5.661  1.5584  0.0580  1.4083
 4225SOL     OW24136   2.925   1.177   3.249 -0.3224 -0.2067 -0.1260
 4225SOL    HW124137   2.854   1.189   3.185 -0.5627  1.6903  0.5005
 4225SOL    HW224138   2.949   1.269   3.257  0.0916 -0.4606  1.5900
 4226SOL     OW24139   2.570   3.122  15.300 -0.0680 -0.3858 -0.3216
 4226SOL    HW124140   2.544   3.213  15.289 -0.0232 -0.2398  0.7454
 4226SOL    HW224141   2.665   3.131  15.310  0.0960 -2.1210 -0.2818
 4227SOL     OW24142   2.530   2.927   7.566 -0.3409 -0.1641  0.5712
 4227SOL    HW124143   2.527   2.891   7.477 -0.1144 -4.2064  2.2443
 4227SOL    HW224144   2.508   3.020   7.554 -1.0815 -0.5859 -1.4305
 4228SOL     OW24145   2.173   4.607  10.073  0.1530  0.0351  1.0234
 4228SOL    HW124146   2.211   4.673  10.015 -0.0128 -0.7812  0.0029
 4228SOL    HW224147   2.100   4.587  10.015  1.3439  0.5877 -0.6466
 4229SOL     OW24148   4.028   1.784  15.872 -0.0607 -0.2948  0.0480
 4229SOL    HW124149   4.093   1.722  15.906  0.2506 -0.1028 -0.2021
 4229SOL    HW224150   3.983   1.817  15.950 -1.0637 -0.0617 -0.6242
 4230SOL     OW24151   0.670   0.495   0.295  0.2830 -0.1345 -0.2440
 4230SOL    HW124152   0.735   0.563   0.306 -2.5497  2.3033  1.5452
 4230SOL    HW224153   0.711   0.428   0.351  1.2533 -0.4745 -1.3779
 4231SOL     OW24154   0.714   3.688   9.422  0.3432 -0.0166 -0.2343
 4231SOL    HW124155   0.685   3.769   9.380 -0.7857 -0.5354 -0.4524
 4231SOL    HW224156   0.704   3.705   9.515 -1.3590  3.0331 -0.9361
 4232SOL     OW24157   3.379   4.308   9.450  0.4984 -0.2580 -0.9565
 4232SOL    HW124158   3.469   4.303   9.484 -0.1692  0.8803  0.9484
 4232SOL    HW224159   3.362   4.216   9.429 -0.1480  0.0063 -1.5586
 4233SOL     OW24160   2.338   4.567  12.124  0.3534 -0.9103  0.1872
 4233SOL    HW124161   2.262   4.566  12.181 -1.0808 -1.2959 -1.7560
 4233SOL    HW224162   2.298   4.597  12.042  0.2185 -0.9078  0.2546
 4234SOL     OW24163   0.337   4.686   7.180  0.0529  0.0515 -0.2310
 4234SOL    HW124164   0.352   0.025   7.110 -0.9002 -2.4956 -2.7207
 4234SOL    HW224165   0.381   0.007   7.253  0.2973  0.1522 -0.4398
 4235SOL     OW24166   1.696   1.375  16.765 -0.1887  0.5958  0.6188
 4235SOL    HW124167   1.742   1.358  16.847  0.6272  2.0085  0.4573
 4235SOL    HW224168   1.667   1.463  16.789  1.2918  1.3078 -0.1892
 4236SOL     OW24169   1.861   0.724   6.566  0.7085  0.4009 -0.5002
 4236SOL    HW124170   1.944   0.760   6.599  0.0425  3.0512 -1.6929
 4236SOL    HW224171   1.896   0.637   6.546  0.6670  0.7661 -2.0946
 4237SOL     OW24172   1.714   1.830  13.540  0.2479  0.3396  0.3151
 4237SOL    HW124173   1.734   1.739  13.565 -1.8488 -0.8431 -2.3813
 4237SOL    HW224174   1.624   1.828  13.574  0.2168  0.8851  0.2621
 4238SOL     OW24175   0.964   3.993   7.413  0.5592  0.1542 -0.5351
 4238SOL    HW124176   0.974   4.023   7.504 -1.3425 -1.5740  0.2480
 4238SOL    HW224177   1.028   3.921   7.409 -0.4942 -0.9208  1.7310
 4239SOL     OW24178   3.787   1.719   6.854  0.0708 -0.3058 -0.1808
 4239SOL    HW124179   3.781   1.623   6.847  2.2381 -0.3119 -2.1615
 4239SOL    HW224180   3.694   1.739   6.850  0.1984 -0.2198 -2.6934
 4240SOL     OW24181   0.491   3.442   4.914  0.1231 -0.0146 -0.6050
 4240SOL    HW124182   0.425   3.417   4.979  0.6662 -1.7010 -0.7170
 4240SOL    HW224183   0.443   3.518   4.879  0.9081  1.2930  1.1487
 4241SOL     OW24184   3.324   2.075   5.989 -0.4014  0.1077 -0.7234
 4241SOL    HW124185   3.331   2.099   5.896 -0.6835  0.7869 -0.5696
 4241SOL    HW224186   3.412   2.066   6.026  0.3085 -0.4920 -2.5639
 4242SOL     OW24187   0.665   4.319   3.608  0.1304 -0.4269 -0.0310
 4242SOL    HW124188   0.757   4.298   3.591 -0.0546 -0.4518 -0.9893
 4242SOL    HW224189   0.628   4.279   3.530  1.2742 -1.7170  0.0897
 4243SOL     OW24190   4.520   0.406   2.132 -0.2695  0.1860  0.0435
 4243SOL    HW124191   4.560   0.464   2.067 -1.2885 -0.8085 -1.4921
 4243SOL    HW224192   4.521   0.322   2.085 -1.1347 -1.0016  2.1574
 4244SOL     OW24193   4.693   3.051  12.937 -0.1197  1.0727 -0.3793
 4244SOL    HW124194   4.617   3.078  12.988  0.9615 -1.9701  2.8938
 4244SOL    HW224195   4.719   3.133  12.896  0.8268  0.7260 -0.4784
 4245SOL     OW24196   2.385   0.625   2.088  0.7827 -0.2344 -0.4380
 4245SOL    HW124197   2.361   0.716   2.104 -0.7461 -0.6594 -0.2684
 4245SOL    HW224198   2.446   0.627   2.015 -1.0179 -0.3749 -1.9405
 4246SOL     OW24199   4.331   4.020  11.790  0.2822  0.0248  0.9371
 4246SOL    HW124200   4.273   3.977  11.853 -2.4761  3.5080  0.7873
 4246SOL    HW224201   4.353   3.946  11.735  1.1534  1.3321 -0.4784
 4247SOL     OW24202   0.012   1.841   9.645 -0.6878 -0.1216  0.2266
 4247SOL    HW124203   0.049   1.828   9.558  1.9945  0.5471  1.2706
 4247SOL    HW224204   0.055   1.770   9.692 -1.7658 -1.4082 -0.7268
 4248SOL     OW24205   0.430   2.336   7.881 -0.0287 -0.2358  0.2261
 4248SOL    HW124206   0.384   2.356   7.799 -4.7663 -0.7549  2.8110
 4248SOL    HW224207   0.364   2.278   7.918  0.1211  0.3410  1.3961
 4249SOL     OW24208   1.447   2.015   6.080  0.0859  0.5359 -0.5666
 4249SOL    HW124209   1.510   2.086   6.088  1.4393 -0.6218 -0.8509
 4249SOL    HW224210   1.436   1.997   6.173  3.9716 -3.0853 -0.7782
 4250SOL     OW24211   0.861   2.112   3.640 -0.2580  0.3121 -0.3268
 4250SOL    HW124212   0.844   2.073   3.726  2.5189 -0.3775 -0.0865
 4250SOL    HW224213   0.949   2.139   3.663 -0.7292  2.1042 -0.6500
 4251SOL     OW24214   2.003   2.729   1.333 -0.6981 -0.9975 -0.0763
 4251SOL    HW124215   2.018   2.817   1.299 -1.0242 -1.5049 -1.5192
 4251SOL    HW224216   2.028   2.673   1.259  1.0362 -0.8448  0.3956
 4252SOL     OW24217   2.030   2.375  11.099  0.2968  0.3290 -0.8768
 4252SOL    HW124218   2.040   2.360  11.193 -1.8685  0.1391 -0.6644
 4252SOL    HW224219   2.118   2.354  11.069  0.9790  1.6963  0.2066
 4253SOL     OW24220   2.254   3.553   6.962 -0.0616 -0.2687  0.0822
 4253SOL    HW124221   2.271   3.647   6.963 -1.2685 -0.0234 -1.7774
 4253SOL    HW224222   2.285   3.535   7.051  2.3683 -2.9130 -1.2956
 4254SOL     OW24223   2.146   0.227  10.221 -0.1704  0.2229  0.2988
 4254SOL    HW124224   2.148   0.226  10.317 -0.0322  4.5982  0.3630
 4254SOL    HW224225   2.174   0.313  10.189  1.2455 -1.3704 -2.6767
 4255SOL     OW24226   3.238   3.994   8.173 -0.0199  0.5688 -0.2545
 4255SOL    HW124227   3.212   4.083   8.196  0.4922  0.1336  1.9736
 4255SOL    HW224228   3.154   3.960   8.141  0.4841  1.0168 -2.0185
 4256SOL     OW24229   1.339   3.436  13.637 -0.0640  0.0871  0.0654
 4256SOL    HW124230   1.395   3.463  13.564  0.6688 -1.7464 -0.0656
 4256SOL    HW224231   1.298   3.521  13.652 -1.2167 -0.0318 -2.4528
 4257SOL     OW24232   3.154   0.636   3.426 -0.3580  0.1643  0.7985
 4257SOL    HW124233   3.116   0.617   3.341  0.0373 -0.8183  0.8427
 4257SOL    HW224234   3.191   0.723   3.409  0.0257 -0.3077 -0.7422
 4258SOL     OW24235   2.694   3.768  15.760  0.4063 -0.1621 -0.8011
 4258SOL    HW124236   2.736   3.690  15.722  0.0051 -0.5619 -0.4234
 4258SOL    HW224237   2.739   3.781  15.843 -3.6928  4.1152  0.7860
 4259SOL     OW24238   3.917   2.300   8.991  0.6830  0.6608 -0.6643
 4259SOL    HW124239   3.922   2.211   8.956 -0.9579 -0.2886  1.5225
 4259SOL    HW224240   3.885   2.343   8.912  0.5271 -0.5791 -1.2897
 4260SOL     OW24241   2.797   4.346   7.067 -0.0516 -0.0967 -0.1820
 4260SOL    HW124242   2.799   4.301   6.983  0.3134  0.2277 -0.3452
 4260SOL    HW224243   2.718   4.321   7.115  0.4603  0.0805  0.7499
 4261SOL     OW24244   0.572   2.908   6.976 -0.8546 -0.1704 -0.1197
 4261SOL    HW124245   0.667   2.907   6.963 -0.7715  0.7150  0.4325
 4261SOL    HW224246   0.560   2.813   6.983 -0.3368  0.0117  3.4206
 4262SOL     OW24247   0.159   2.451   6.185  0.7697 -0.5197  0.3332
 4262SOL    HW124248   0.085   2.432   6.127  1.1805 -3.6747  0.8069
 4262SOL    HW224249   0.142   2.395   6.261  2.8182  0.1912  1.3076
 4263SOL     OW24250   0.694   2.373  13.678 -0.0222  0.0956  0.4790
 4263SOL    HW124251   0.650   2.337  13.756 -2.1159  1.3744 -0.0957
 4263SOL    HW224252   0.641   2.335  13.607  2.2874  1.1169 -1.7709
 4264SOL     OW24253   3.158   2.117   7.491 -0.3335  0.0085 -0.6869
 4264SOL    HW124254   3.176   2.026   7.512 -0.2574  0.3214  0.6184
 4264SOL    HW224255   3.089   2.108   7.426  0.0404 -2.0354 -0.7697
 4265SOL     OW24256   1.615   4.455   6.635  0.4949  0.1863 -0.3718
 4265SOL    HW124257   1.561   4.522   6.677  0.3584  0.9653 -1.7998
 4265SOL    HW224258   1.632   4.498   6.551 -1.1678 -1.1070 -1.3658
 4266SOL     OW24259   0.154   3.448   7.176 -0.0805 -0.0485 -0.1509
 4266SOL    HW124260   0.212   3.424   7.249 -1.8188  1.0138  1.5677
 4266SOL    HW224261   0.103   3.367   7.170 -0.1926 -0.0703  1.2271
 4267SOL     OW24262   2.212   1.712   8.429 -0.5130  0.5324 -0.7307
 4267SOL    HW124263   2.219   1.758   8.345 -1.4027  1.0749 -0.5094
 4267SOL    HW224264   2.190   1.784   8.487  0.1435  0.7478 -0.7554
 4268SOL     OW24265   0.080   1.433   7.331  0.6833 -0.5792 -0.2299
 4268SOL    HW124266   0.080   1.411   7.424 -1.8638 -1.5773 -0.4586
 4268SOL    HW224267   0.005   1.384   7.296 -1.4327  1.6669  1.1949
 4269SOL     OW24268   1.774   3.642   8.322  0.3867  0.2594 -0.1978
 4269SOL    HW124269   1.680   3.628   8.332  0.6864 -0.9260  0.9137
 4269SOL    HW224270   1.787   3.641   8.227  0.4620 -0.9241 -0.1751
 4270SOL     OW24271   1.960   4.136  14.741  0.3235 -0.1867 -0.1264
 4270SOL    HW124272   1.949   4.194  14.665 -0.0081 -0.4250 -0.2582
 4270SOL    HW224273   2.052   4.113  14.729  1.0967  1.8154  2.0625
 4271SOL     OW24274   1.751   4.585  15.903 -0.1708 -0.0785  0.4278
 4271SOL    HW124275   1.723   4.562  15.991  1.4568 -0.4584  0.8390
 4271SOL    HW224276   1.665   4.586  15.861  0.1582 -1.5732 -0.3057
 4272SOL     OW24277   1.671   3.361   0.480 -0.4275  0.7466 -0.1659
 4272SOL    HW124278   1.613   3.431   0.451 -1.4712  1.0806  2.7920
 4272SOL    HW224279   1.631   3.323   0.558  0.2525 -0.0633 -0.2059
 4273SOL     OW24280   2.792   0.549   1.019  0.9645 -0.1013 -0.0500
 4273SOL    HW124281   2.826   0.639   1.023 -0.6541  0.5949 -1.9097
 4273SOL    HW224282   2.759   0.563   0.931  2.7007  2.0317 -0.3685
 4274SOL     OW24283   2.329   2.665   9.834  0.0150  0.2887  0.0856
 4274SOL    HW124284   2.323   2.686   9.927 -1.6578  0.7895 -0.1435
 4274SOL    HW224285   2.266   2.594   9.834  0.1477  0.1704 -0.7299
 4275SOL     OW24286   1.735   2.549   3.418 -0.1545  0.1405  0.0907
 4275SOL    HW124287   1.692   2.615   3.472 -1.1258  0.8139 -1.5008
 4275SOL    HW224288   1.812   2.525   3.469  1.6684  2.4640 -1.5255
 4276SOL     OW24289   0.364   4.694   7.806 -0.0857 -0.5065  0.0429
 4276SOL    HW124290   0.283   4.724   7.766 -0.3119 -0.5954  0.4428
 4276SOL    HW224291   0.430   4.701   7.737 -0.7820  0.4091 -0.5342
 4277SOL     OW24292   1.938   4.388   3.703  0.1858 -0.0255 -0.0869
 4277SOL    HW124293   1.847   4.365   3.684  0.7499 -0.4574 -2.2157
 4277SOL    HW224294   1.979   4.301   3.711  2.4029  0.9439 -1.0795
 4278SOL     OW24295   3.340   0.594   7.089 -0.2204 -0.1512 -0.2826
 4278SOL    HW124296   3.332   0.689   7.102 -0.0915 -0.0570 -0.8801
 4278SOL    HW224297   3.366   0.573   7.179 -1.2707 -0.5977 -0.0867
 4279SOL     OW24298   1.947   1.831   3.786  0.0447 -0.7748  0.7002
 4279SOL    HW124299   2.019   1.862   3.732 -1.1307 -0.6996 -0.8111
 4279SOL    HW224300   1.880   1.895   3.766 -0.7213 -1.4986  0.9463
 4280SOL     OW24301   2.640   2.427   8.238  0.2419 -0.7737  0.1764
 4280SOL    HW124302   2.606   2.356   8.293 -0.0282  0.3173  1.4264
 4280SOL    HW224303   2.561   2.467   8.201  0.9157  0.3425 -0.0483
 4281SOL     OW24304   4.068   2.835   2.954 -0.2740  0.1330 -0.0302
 4281SOL    HW124305   4.152   2.871   2.926  0.4660 -0.8207  0.9587
 4281SOL    HW224306   4.073   2.766   2.887  1.0683 -0.1893  0.3992
 4282SOL     OW24307   3.530   2.858   7.626  0.7197  0.1996  0.4073
 4282SOL    HW124308   3.524   2.780   7.682 -0.7187 -1.8122 -2.5665
 4282SOL    HW224309   3.574   2.832   7.546  2.5758 -0.3679  1.6132
 4283SOL     OW24310   2.621   1.959   0.343 -0.4839  0.2924  0.1658
 4283SOL    HW124311   2.546   1.941   0.286 -0.1786 -2.0776  0.5180
 4283SOL    HW224312   2.685   1.980   0.274  0.2466  0.5147  0.9159
 4284SOL     OW24313   4.560   0.557   2.995  0.4555  0.2093 -0.1445
 4284SOL    HW124314   4.530   0.647   2.998 -1.2811 -0.3445 -0.6484
 4284SOL    HW224315   4.526   0.532   3.080  0.9788  3.0565  0.8849
 4285SOL     OW24316   4.586   1.395   8.832  0.0643  0.6348  0.6700
 4285SOL    HW124317   4.555   1.341   8.905 -3.1474 -0.2784 -1.3423
 4285SOL    HW224318   4.655   1.445   8.875 -0.2585  0.3617  1.5045
 4286SOL     OW24319   3.299   1.002   4.218  0.2130  0.0433  0.1185
 4286SOL    HW124320   3.283   0.996   4.124  0.0670  2.6098 -0.0392
 4286SOL    HW224321   3.276   0.916   4.251  0.3510 -0.5948 -1.4579
 4287SOL     OW24322   3.092   4.666  10.842 -0.0261  0.5901  0.2488
 4287SOL    HW124323   3.009   4.619  10.850  0.3734 -0.0622  0.6330
 4287SOL    HW224324   3.073   4.720  10.766 -2.3449  0.0111  0.3987
 4288SOL     OW24325   3.711   2.777  13.904  0.5318 -0.0421  0.2323
 4288SOL    HW124326   3.755   2.850  13.861  2.9588 -1.3819  0.4461
 4288SOL    HW224327   3.623   2.792  13.869 -0.7099 -0.2550  3.2252
 4289SOL     OW24328   3.085   1.153   4.781  0.1567 -0.5370 -0.6533
 4289SOL    HW124329   3.005   1.159   4.728  0.2331 -2.0181 -0.9409
 4289SOL    HW224330   3.130   1.234   4.759  0.6469 -0.4305  0.7610
 4290SOL     OW24331   0.486   1.708   4.675  0.2458  0.1430 -0.3312
 4290SOL    HW124332   0.410   1.668   4.634  0.3772 -1.3899  0.9482
 4290SOL    HW224333   0.499   1.656   4.754  2.1779  2.0267  0.5877
 4291SOL     OW24334   2.520   2.196  16.919 -0.2697  0.4051  0.1242
 4291SOL    HW124335   2.473   2.227  16.841  0.4212 -0.7798 -0.7588
 4291SOL    HW224336   2.553   2.283  16.937  0.5162  0.5331 -2.0211
 4292SOL     OW24337   2.905   2.410   5.834 -0.2810  0.3191 -0.0649
 4292SOL    HW124338   2.993   2.375   5.823  0.2251  1.0603  1.5958
 4292SOL    HW224339   2.923   2.474   5.903  0.7191 -3.3206  3.0442
 4293SOL     OW24340   3.442   1.938   3.989  0.1080 -0.1042 -0.0633
 4293SOL    HW124341   3.532   1.908   3.983 -0.4490 -2.1411  1.7352
 4293SOL    HW224342   3.391   1.857   3.988 -1.7371  1.0607 -2.1229
 4294SOL     OW24343   3.675   3.195   9.946 -0.0001  0.6453  0.1089
 4294SOL    HW124344   3.720   3.198   9.861 -0.7076 -1.1091 -0.3422
 4294SOL    HW224345   3.626   3.277   9.943  0.0186  0.6436 -0.3152
 4295SOL     OW24346   0.370   3.941   1.253  0.1134  0.2041  0.4389
 4295SOL    HW124347   0.365   3.903   1.341 -0.1049  0.0602  0.3644
 4295SOL    HW224348   0.337   4.030   1.256 -1.9198 -0.5126 -1.0054
 4296SOL     OW24349   0.247   2.358  10.739  0.4819 -0.1055 -0.0959
 4296SOL    HW124350   0.301   2.398  10.806 -1.7114 -0.1070  1.6925
 4296SOL    HW224351   0.173   2.417  10.721  0.8984  0.3140 -0.4268
 4297SOL     OW24352   2.310   3.570   2.651  0.4723  0.0120 -0.3364
 4297SOL    HW124353   2.250   3.519   2.597 -0.8424  1.0892  0.1141
 4297SOL    HW224354   2.338   3.639   2.591 -1.0372  1.4499  0.5897
 4298SOL     OW24355   3.635   4.544   1.142 -0.0937  0.2210 -0.5450
 4298SOL    HW124356   3.643   4.456   1.178  0.1587 -0.3987 -2.0925
 4298SOL    HW224357   3.543   4.561   1.165 -0.3346 -1.0183 -0.5677
 4299SOL     OW24358   0.701   4.689   7.972 -0.3263  0.0066  0.0097
 4299SOL    HW124359   0.629   4.697   8.035 -2.0078 -0.8313 -1.8129
 4299SOL    HW224360   0.693   0.053   7.935  0.8422  0.9924  2.1225
 4300SOL     OW24361   4.554   0.692   4.434  0.0815 -0.3021 -0.3258
 4300SOL    HW124362   4.556   0.703   4.529  1.2665  0.6360 -0.4617
 4300SOL    HW224363   4.459   0.692   4.421  0.1451 -0.5587 -0.7754
 4301SOL     OW24364   1.838   3.355   9.988 -0.1320 -0.0602  0.0153
 4301SOL    HW124365   1.788   3.349  10.070  0.1688  2.2409  0.3831
 4301SOL    HW224366   1.776   3.401   9.930 -1.1508 -1.0780  0.3044
 4302SOL     OW24367   3.570   4.520   7.102  0.5224 -0.2918  0.0094
 4302SOL    HW124368   3.503   4.588   7.112 -2.3070 -2.8909 -1.3556
 4302SOL    HW224369   3.625   4.535   7.179 -0.0262 -0.9491  0.5311
 4303SOL     OW24370   3.961   1.730   5.027 -0.0733  0.4219 -0.4257
 4303SOL    HW124371   3.946   1.820   5.057 -0.7599  0.0899  0.2156
 4303SOL    HW224372   4.051   1.719   5.058  0.0829  0.0190 -1.0295
 4304SOL     OW24373   0.074   3.353  15.077 -0.0507 -0.4302 -0.2992
 4304SOL    HW124374   0.156   3.304  15.067  0.9704  1.5476 -1.5839
 4304SOL    HW224375   0.058   3.360  14.983  0.0738 -0.8948 -0.3560
 4305SOL     OW24376   2.922   2.687   9.801 -0.1830 -0.1998  0.1943
 4305SOL    HW124377   2.842   2.680   9.854 -1.2917  1.1998 -1.2988
 4305SOL    HW224378   2.901   2.637   9.722 -4.0521  3.3234 -0.9645
 4306SOL     OW24379   1.076   4.664   0.918  0.0674 -0.1601 -0.1249
 4306SOL    HW124380   1.158   4.663   0.867  0.3076 -2.6863  0.3280
 4306SOL    HW224381   1.115   4.701   0.997 -0.3306  0.4216 -0.2001
 4307SOL     OW24382   2.722   3.814   5.819 -0.6554 -0.6813 -0.0642
 4307SOL    HW124383   2.790   3.797   5.884 -0.8719 -0.8688  0.1153
 4307SOL    HW224384   2.649   3.837   5.878 -0.6988  0.7853 -0.6663
 4308SOL     OW24385   2.914   3.839  16.065  0.2184 -0.1396  0.3178
 4308SOL    HW124386   2.953   3.822  15.979  1.0177  2.4353  0.1616
 4308SOL    HW224387   2.995   3.858  16.113  0.8834  0.1325 -0.8872
 4309SOL     OW24388   1.807   0.056   7.323  1.1192  0.0202  0.5471
 4309SOL    HW124389   1.790   0.002   7.245  0.6548 -0.1854  0.7965
 4309SOL    HW224390   1.837   0.140   7.286  1.8612  0.2831  1.7564
 4310SOL     OW24391   3.740   1.719   4.040  0.1019  0.6405 -0.1340
 4310SOL    HW124392   3.831   1.692   4.024  0.0326 -0.4597  1.3107
 4310SOL    HW224393   3.717   1.736   3.949 -1.9769  1.4728  0.5576
 4311SOL     OW24394   1.463   3.759   8.667  0.1269 -0.2001  0.2482
 4311SOL    HW124395   1.457   3.719   8.754  0.9693  1.5419  1.1333
 4311SOL    HW224396   1.518   3.833   8.695  1.1971 -1.3855  1.2826
 4312SOL     OW24397   1.058   2.132  12.439 -0.0423  0.5420  0.0593
 4312SOL    HW124398   1.148   2.105  12.458 -1.0985 -2.7964  0.1896
 4312SOL    HW224399   1.004   2.087  12.503  0.3340 -1.7072 -1.2023
 4313SOL     OW24400   1.028   2.494   8.837 -0.0948 -0.0016  0.1449
 4313SOL    HW124401   0.973   2.416   8.831 -0.2173  0.0319  0.8021
 4313SOL    HW224402   0.994   2.547   8.765 -1.5647  0.3504  1.0903
 4314SOL     OW24403   0.326   3.553   8.509 -0.2602  0.1756  0.2301
 4314SOL    HW124404   0.315   3.472   8.459 -1.5843 -0.7267  1.9389
 4314SOL    HW224405   0.342   3.515   8.596  0.0160  1.7700  0.8645
 4315SOL     OW24406   0.698   2.443   0.725  0.7904 -0.3586 -0.3722
 4315SOL    HW124407   0.638   2.396   0.783  0.5295 -0.9091 -1.0951
 4315SOL    HW224408   0.780   2.412   0.765  0.7857 -0.5356 -0.5010
 4316SOL     OW24409   0.852   3.108   6.405  0.0614 -0.1747  0.7508
 4316SOL    HW124410   0.799   3.044   6.357 -1.8505  2.2043 -0.2514
 4316SOL    HW224411   0.908   3.049   6.457 -0.9124 -0.5091  1.4098
 4317SOL     OW24412   1.569   3.754   2.654  0.3012  0.2476  0.8672
 4317SOL    HW124413   1.503   3.799   2.706  0.1311  0.2050  0.6872
 4317SOL    HW224414   1.606   3.822   2.598 -0.9293  0.3235  0.1405
 4318SOL     OW24415   2.974   3.575   8.309 -0.3542  0.4027 -0.3727
 4318SOL    HW124416   3.060   3.537   8.326 -0.0721  1.1016 -0.2305
 4318SOL    HW224417   2.983   3.580   8.214  1.0930 -3.4568 -0.4294
 4319SOL     OW24418   4.682   4.305   7.336  0.1431 -0.1159 -0.0957
 4319SOL    HW124419   0.031   4.356   7.300 -0.1164 -0.7441 -1.5027
 4319SOL    HW224420   4.612   4.339   7.281  0.8084 -1.0985 -1.5465
 4320SOL     OW24421   2.329   2.979   0.161 -0.0684 -0.3317 -0.2210
 4320SOL    HW124422   2.261   2.914   0.145 -0.8340  0.0654  1.4004
 4320SOL    HW224423   2.287   3.065   0.159 -1.2698 -0.8742  1.3013
 4321SOL     OW24424   2.006   3.188   5.233  0.1754  0.0866 -0.0450
 4321SOL    HW124425   1.912   3.175   5.228  0.1461 -0.3287  1.3903
 4321SOL    HW224426   2.017   3.237   5.315  1.8604 -1.8681  0.9059
 4322SOL     OW24427   0.034   1.750  11.622 -0.0204  0.0331 -0.0383
 4322SOL    HW124428   0.085   1.738  11.703  1.2985 -1.0534 -1.0390
 4322SOL    HW224429   0.027   1.845  11.624  0.7066  0.1036 -1.0228
 4323SOL     OW24430   0.775   1.825  13.099  0.1570  0.2731  0.0988
 4323SOL    HW124431   0.799   1.737  13.072  0.3774 -0.1273  1.5724
 4323SOL    HW224432   0.798   1.876  13.021 -1.8592  0.2478 -0.4886
 4324SOL     OW24433   4.574   0.450  14.026  0.2698 -0.3781 -0.3166
 4324SOL    HW124434   4.657   0.434  14.069 -0.7153 -0.8219  1.4210
 4324SOL    HW224435   4.607   0.482  13.942  1.5115  0.6153  0.5430
 4325SOL     OW24436   0.970   1.805  16.425 -0.4178 -0.0570 -0.1903
 4325SOL    HW124437   0.912   1.752  16.480 -1.2160  0.9710 -0.0341
 4325SOL    HW224438   0.918   1.879  16.395  1.7312  0.5304 -2.4715
 4326SOL     OW24439   1.523   0.821   9.487 -0.4140 -0.3820 -0.3558
 4326SOL    HW124440   1.495   0.848   9.574  0.5931 -1.0376  0.1757
 4326SOL    HW224441   1.544   0.907   9.451 -0.9749  0.2489  0.8269
 4327SOL     OW24442   2.894   3.292   0.362 -0.5526 -0.0034  0.1361
 4327SOL    HW124443   2.875   3.214   0.414  0.8320 -1.1624 -1.0878
 4327SOL    HW224444   2.961   3.349   0.400  0.6281  0.1141 -2.1465
 4328SOL     OW24445   1.187   2.816   0.343 -0.2071 -0.6845  0.4530
 4328SOL    HW124446   1.197   2.743   0.281  0.3457  0.2930 -0.6145
 4328SOL    HW224447   1.180   2.894   0.288 -1.4306 -0.5995  0.7356
 4329SOL     OW24448   2.807   4.438  13.819  0.1164  0.3056  0.1950
 4329SOL    HW124449   2.773   4.348  13.816  2.1677 -0.5528  2.4143
 4329SOL    HW224450   2.816   4.444  13.914  1.0309  0.6543  0.0882
 4330SOL     OW24451   2.698   3.961   0.385 -0.1549  0.2708 -0.3654
 4330SOL    HW124452   2.763   4.007   0.333 -0.0838  0.9507  0.3278
 4330SOL    HW224453   2.754   3.935   0.459 -0.5291 -0.0265 -0.1824
 4331SOL     OW24454   1.597   0.991  12.220 -0.1966  0.8467  0.8520
 4331SOL    HW124455   1.618   1.057  12.286  1.7406 -1.3874  2.5112
 4331SOL    HW224456   1.680   0.996  12.171 -0.3104  1.0391  0.6818
 4332SOL     OW24457   2.519   0.244   4.794  0.1729  0.0553  0.5751
 4332SOL    HW124458   2.492   0.243   4.702  1.3075 -0.3118  0.2418
 4332SOL    HW224459   2.610   0.222   4.774  0.2023 -0.8594  1.7020
 4333SOL     OW24460   4.072   3.060   1.288 -0.3734 -0.7735 -0.3375
 4333SOL    HW124461   4.150   3.018   1.323 -0.7942 -0.3807  1.0934
 4333SOL    HW224462   4.092   3.145   1.329 -0.5907 -0.9590  0.1536
 4334SOL     OW24463   0.882   2.750  17.592 -0.2050  0.0571 -0.3410
 4334SOL    HW124464   0.917   2.697  17.664 -1.0982  0.7881  0.6320
 4334SOL    HW224465   0.905   2.701  17.513 -0.3212  1.2399 -1.1154
 4335SOL     OW24466   4.078   3.955   2.367  0.0598  0.0460  0.2111
 4335SOL    HW124467   4.045   3.952   2.457  1.0447 -0.8743  0.5395
 4335SOL    HW224468   4.005   3.926   2.313  1.2460  0.5917 -1.6729
 4336SOL     OW24469   0.122   0.331  17.046  0.3956 -0.0211 -0.2443
 4336SOL    HW124470   0.034   0.310  17.079 -0.2587  0.7309 -1.5346
 4336SOL    HW224471   0.135   0.426  17.051  1.4375 -0.1883  0.1065
 4337SOL     OW24472   3.475   1.027   1.132  0.1847  0.6363  0.2290
 4337SOL    HW124473   3.450   0.943   1.170  0.5723  0.6599  0.5390
 4337SOL    HW224474   3.570   1.014   1.138 -0.1169 -0.1075  3.1512
 4338SOL     OW24475   2.061   3.498   1.179 -0.0309 -0.4178  0.0136
 4338SOL    HW124476   2.044   3.550   1.258  0.0588 -0.0062 -0.2341
 4338SOL    HW224477   2.154   3.478   1.171  0.1948 -0.4230  2.5154
 4339SOL     OW24478   2.300   4.508   3.988  0.3961 -0.3596 -0.5465
 4339SOL    HW124479   2.300   4.418   3.955 -0.0812  0.2583 -2.2267
 4339SOL    HW224480   2.384   4.533   4.026 -0.2930  0.0653  0.7139
 4340SOL     OW24481   3.151   1.171  10.904 -0.4606  0.4528  0.1223
 4340SOL    HW124482   3.098   1.247  10.926  0.6288  1.1037  0.5029
 4340SOL    HW224483   3.082   1.105  10.907  0.9526 -1.1378 -2.1439
 4341SOL     OW24484   1.445   3.470   4.693 -0.2586 -0.1997 -0.3725
 4341SOL    HW124485   1.353   3.473   4.719 -0.0937 -1.8764  0.4272
 4341SOL    HW224486   1.469   3.378   4.710  1.2534  0.7642  2.7829
 4342SOL     OW24487   3.812   0.324   9.456 -0.1178  0.8946 -0.5038
 4342SOL    HW124488   3.903   0.315   9.431 -0.5546 -0.3995 -1.6058
 4342SOL    HW224489   3.762   0.299   9.378  0.8186 -0.7954 -0.5675
 4343SOL     OW24490   3.730   3.933   8.853 -0.0821 -0.3280  0.2766
 4343SOL    HW124491   3.660   3.880   8.890 -0.6926  0.9350  0.9125
 4343SOL    HW224492   3.713   4.023   8.881  1.4565  0.4942 -1.4262
 4344SOL     OW24493   4.610   1.292   2.651  0.1134  0.6270 -0.1956
 4344SOL    HW124494   4.531   1.242   2.670  0.9381  0.2069  2.1654
 4344SOL    HW224495   4.587   1.347   2.577  0.1302  2.0082  0.8285
 4345SOL     OW24496   1.740   0.624   8.944  0.0917  0.3422 -0.0812
 4345SOL    HW124497   1.742   0.582   8.859 -0.2177 -0.0979  0.1328
 4345SOL    HW224498   1.674   0.575   8.993  0.7949  1.8915  2.4519
 4346SOL     OW24499   3.596   4.046  12.612  0.2151 -0.1076  0.3428
 4346SOL    HW124500   3.611   3.985  12.684 -0.5482 -1.9904 -1.0511
 4346SOL    HW224501   3.670   4.037  12.552 -0.8236  1.5324 -1.1877
 4347SOL     OW24502   4.581   0.774  16.177  0.3789  0.8473 -0.4375
 4347SOL    HW124503   4.584   0.844  16.112 -0.9509  0.9591 -0.3822
 4347SOL    HW224504   4.503   0.806  16.223  1.6845  2.2234  0.8227
 4348SOL     OW24505   2.639   4.425   7.506 -0.4450 -0.0632  0.2415
 4348SOL    HW124506   2.597   4.339   7.517 -2.2227  0.7013 -0.5101
 4348SOL    HW224507   2.708   4.400   7.566  0.6025 -0.8952 -1.2931
 4349SOL     OW24508   1.461   1.574  10.821  0.2626  0.0024  0.1857
 4349SOL    HW124509   1.409   1.618  10.754  1.1661  1.5910  0.5161
 4349SOL    HW224510   1.398   1.512  10.857  0.0192 -0.9952 -1.9858
 4350SOL     OW24511   2.996   4.247   7.521  0.2768  0.2652  0.5082
 4350SOL    HW124512   2.930   4.269   7.588  1.3655 -2.2880  2.4477
 4350SOL    HW224513   2.930   4.243   7.452  3.2073 -2.9348 -2.0849
 4351SOL     OW24514   0.346   3.240   3.988 -0.1410  0.0655 -0.0407
 4351SOL    HW124515   0.354   3.286   3.904 -0.7592  1.6540  0.7574
 4351SOL    HW224516   0.252   3.247   4.004 -0.3805 -1.3832 -0.8383
 4352SOL     OW24517   1.680   2.187   4.892 -0.4011 -0.2622  0.5782
 4352SOL    HW124518   1.693   2.212   4.983 -1.8985 -1.1497  1.0406
 4352SOL    HW224519   1.648   2.270   4.859  1.8054  0.5891  0.5556
 4353SOL     OW24520   3.354   4.435   7.740 -0.3241  0.1219 -0.7452
 4353SOL    HW124521   3.437   4.395   7.765 -0.4339 -0.2083 -0.9129
 4353SOL    HW224522   3.329   4.382   7.664  0.5608 -0.7081 -0.4600
 4354SOL     OW24523   3.585   3.051  15.051  0.2294 -0.1210 -0.0391
 4354SOL    HW124524   3.586   2.959  15.077  0.2342  0.9780  3.7308
 4354SOL    HW224525   3.595   3.088  15.138 -1.0917  1.5574 -0.5875
 4355SOL     OW24526   3.948   4.045   0.880  0.1118  0.3067 -0.1391
 4355SOL    HW124527   3.982   4.134   0.891  0.9567  0.2738 -2.6148
 4355SOL    HW224528   3.890   4.042   0.956 -0.6590 -0.1585 -0.7447
 4356SOL     OW24529   0.215   2.311  14.114 -0.0781  0.0837  0.4545
 4356SOL    HW124530   0.303   2.277  14.132 -0.2993 -0.5713  0.3024
 4356SOL    HW224531   0.167   2.237  14.078  2.0578 -1.2181  0.2541
 4357SOL     OW24532   3.913   0.227   6.851 -0.3284  0.5674 -0.4566
 4357SOL    HW124533   4.007   0.213   6.859 -0.5320 -0.6169 -0.1054
 4357SOL    HW224534   3.916   0.217   6.755 -2.1242  3.1882 -0.7889
 4358SOL     OW24535   2.190   2.928  16.945 -0.4323  0.5929 -0.1286
 4358SOL    HW124536   2.282   2.921  16.919 -0.0851 -1.6582  1.7016
 4358SOL    HW224537   2.141   2.967  16.873  1.4587  0.7210 -1.3545
 4359SOL     OW24538   2.750   3.257   1.829 -0.1062 -0.3386 -0.2684
 4359SOL    HW124539   2.766   3.202   1.752 -0.3490 -0.0696 -0.5071
 4359SOL    HW224540   2.704   3.329   1.786 -0.6478 -0.3885  0.2139
 4360SOL     OW24541   1.059   4.244  11.186 -0.8229  0.7813  0.2334
 4360SOL    HW124542   1.047   4.153  11.213  1.3612  0.1143 -1.1112
 4360SOL    HW224543   1.051   4.250  11.091 -2.2731 -1.2007  0.2408
 4361SOL     OW24544   0.003   3.260   8.912 -0.4070 -0.1987 -0.3239
 4361SOL    HW124545   0.064   3.308   8.856  0.0873 -0.2106  0.1938
 4361SOL    HW224546   0.017   3.174   8.873  0.0995 -1.1210  1.9129
 4362SOL     OW24547   2.821   4.619   4.935 -0.4330 -0.3156 -0.9729
 4362SOL    HW124548   2.818   4.683   4.863 -0.1849  2.1067  1.1524
 4362SOL    HW224549   2.913   4.594   4.947  0.1031  1.9756 -0.2748
 4363SOL     OW24550   4.122   0.039  14.193 -0.3100 -0.8793  0.1577
 4363SOL    HW124551   4.072   4.704  14.249 -1.3881 -0.5070 -0.4195
 4363SOL    HW224552   4.070   0.067  14.118 -1.6586 -2.3680  0.5314
 4364SOL     OW24553   2.613   0.047   4.525 -0.0246 -0.3233  1.0905
 4364SOL    HW124554   2.636   0.137   4.547 -0.8775  0.4864 -1.3510
 4364SOL    HW224555   2.613   0.048   4.429  1.4250  0.5784  1.1138
 4365SOL     OW24556   0.727   2.027  17.654  0.0126  0.6383 -0.1992
 4365SOL    HW124557   0.703   2.117  17.677 -3.5339  0.0606 -1.6903
 4365SOL    HW224558   0.728   2.025  17.559  0.5066 -0.1052 -0.1866
 4366SOL     OW24559   3.058   3.792  12.088  0.3808 -0.2229  0.0058
 4366SOL    HW124560   3.006   3.834  12.157  1.3485  0.6236  0.2216
 4366SOL    HW224561   3.145   3.809  12.124  0.1801 -2.7166  1.6867
 4367SOL     OW24562   0.382   2.198  16.348  0.3863 -0.4221  0.2550
 4367SOL    HW124563   0.319   2.244  16.293  0.8591 -0.6339 -0.4601
 4367SOL    HW224564   0.359   2.243  16.429 -0.6804  0.5135 -0.5728
 4368SOL     OW24565   2.075   0.425   4.029 -0.0531  0.0529  0.2957
 4368SOL    HW124566   2.009   0.384   3.972 -0.0765  0.9338 -0.3047
 4368SOL    HW224567   2.075   0.361   4.101 -0.9487 -0.2906 -0.0148
 4369SOL     OW24568   0.141   1.432   2.633  0.1977 -0.2999 -0.5433
 4369SOL    HW124569   0.202   1.407   2.564 -0.3343  0.4558 -1.2942
 4369SOL    HW224570   0.064   1.385   2.601  0.3752 -0.1452 -1.1927
 4370SOL     OW24571   4.543   4.627   9.445  0.0642 -0.6258 -0.4697
 4370SOL    HW124572   4.544   4.648   9.351 -1.9894 -0.3938 -0.4248
 4370SOL    HW224573   4.499   4.699   9.489  0.7334  0.0350 -0.8735
 4371SOL     OW24574   1.554   2.993   8.644  0.1245  0.7658  0.6891
 4371SOL    HW124575   1.483   2.952   8.693  0.2659  0.1514  0.3909
 4371SOL    HW224576   1.597   2.915   8.607 -1.2534  0.4839 -0.3227
 4372SOL     OW24577   1.988   0.599  14.428  0.4323  0.1713  0.1948
 4372SOL    HW124578   1.938   0.681  14.425  0.1153 -0.0707 -1.3371
 4372SOL    HW224579   1.942   0.556  14.500  2.7527 -1.2091  0.8383
 4373SOL     OW24580   0.641   0.596   6.695  0.2938 -0.0943  0.0764
 4373SOL    HW124581   0.598   0.559   6.772  0.0362 -1.3032 -0.6545
 4373SOL    HW224582   0.731   0.593   6.726  0.9199  2.2443 -1.5305
 4374SOL     OW24583   1.229   0.354  10.143 -0.0312  0.1392  0.1637
 4374SOL    HW124584   1.300   0.354  10.079 -0.7410 -1.3973 -0.6363
 4374SOL    HW224585   1.271   0.327  10.225 -0.6094 -0.3617  0.2962
 4375SOL     OW24586   1.571   4.242   7.555  0.4793 -0.0399 -0.2529
 4375SOL    HW124587   1.622   4.168   7.587 -1.2704 -2.0684 -2.0914
 4375SOL    HW224588   1.635   4.306   7.585 -0.1198  0.3828  0.1284
 4376SOL     OW24589   0.403   2.945   4.092 -0.1097 -0.1836  0.1146
 4376SOL    HW124590   0.396   3.031   4.050  0.7624 -0.3237 -0.3032
 4376SOL    HW224591   0.470   2.899   4.041 -0.0353 -1.0630  1.0023
 4377SOL     OW24592   4.194   0.081   6.737  0.5433 -0.6566  0.0179
 4377SOL    HW124593   4.260   0.143   6.767  1.3567 -1.9428  0.8616
 4377SOL    HW224594   4.211   0.006   6.793  1.9544  0.7636  1.4972
 4378SOL     OW24595   2.123   3.593   8.958 -0.1127  0.3902  0.3398
 4378SOL    HW124596   2.214   3.616   8.978  0.0011 -0.9738  1.3836
 4378SOL    HW224597   2.099   3.672   8.910 -1.2276  0.5266  1.1245
 4379SOL     OW24598   0.849   0.099  13.927  0.2392 -0.4116 -0.4865
 4379SOL    HW124599   0.850   0.194  13.916  0.0211 -0.4649 -0.9518
 4379SOL    HW224600   0.881   0.097  14.017 -0.4357  2.6704 -0.1625
 4380SOL     OW24601   2.326   2.580   7.325  0.4566 -0.1892  0.6011
 4380SOL    HW124602   2.313   2.527   7.403 -0.4274 -0.3280  0.3611
 4380SOL    HW224603   2.312   2.664   7.370  0.9293 -0.2159  0.8019
 4381SOL     OW24604   0.190   4.519  15.125 -0.1458 -0.2593 -0.5076
 4381SOL    HW124605   0.221   4.597  15.080  2.1342 -1.5171 -1.1226
 4381SOL    HW224606   0.118   4.486  15.072  0.2151 -0.0405 -1.1370
 4382SOL     OW24607   0.122   3.940   8.830  0.7522  0.1778  0.5729
 4382SOL    HW124608   0.173   3.867   8.794  0.3388  0.2334 -0.1263
 4382SOL    HW224609   0.064   3.949   8.755 -0.2217 -0.1697  1.2959
 4383SOL     OW24610   3.534   0.079  16.616 -0.4002 -0.7885 -0.0219
 4383SOL    HW124611   3.592   0.026  16.670  0.6566  0.5735  0.1909
 4383SOL    HW224612   3.569   0.060  16.528 -1.1380 -0.3299 -0.4153
 4384SOL     OW24613   3.688   3.671   6.530  0.3376 -0.3397  0.4352
 4384SOL    HW124614   3.705   3.645   6.621  1.1290  0.9982  0.6777
 4384SOL    HW224615   3.621   3.739   6.535 -0.8538 -1.6947  2.7234
 4385SOL     OW24616   4.000   3.906   2.615  0.3243  0.1759  0.4818
 4385SOL    HW124617   4.062   3.835   2.630  0.3257 -0.1894 -1.2324
 4385SOL    HW224618   3.925   3.874   2.665 -1.2390 -0.7217 -2.4119
 4386SOL     OW24619   4.028   1.399   2.543  0.2624 -0.4760 -0.1422
 4386SOL    HW124620   4.107   1.423   2.593  0.3956 -3.0302  0.8446
 4386SOL    HW224621   3.961   1.460   2.575 -0.0880 -1.0124  0.1457
 4387SOL     OW24622   3.981   1.795  10.003  0.3026 -0.3382  0.3160
 4387SOL    HW124623   3.935   1.854   9.944 -0.1599 -1.0339 -0.0227
 4387SOL    HW224624   3.975   1.851  10.080 -3.4675 -0.5527  0.1628
 4388SOL     OW24625   4.327   1.298   7.306 -0.0778 -0.3801 -0.5718
 4388SOL    HW124626   4.241   1.268   7.278 -0.1320 -0.6135 -0.1565
 4388SOL    HW224627   4.302   1.390   7.313  0.0266 -0.4199  0.2906
 4389SOL     OW24628   2.925   1.605   0.521 -0.0567 -0.1130  0.1532
 4389SOL    HW124629   2.881   1.596   0.606  1.0853  1.5103  0.9333
 4389SOL    HW224630   2.856   1.651   0.474  2.6709  1.8624 -1.9058
 4390SOL     OW24631   4.438   0.641   5.609  0.1369 -0.0311 -0.1987
 4390SOL    HW124632   4.503   0.667   5.674 -2.6287  2.3853  1.5949
 4390SOL    HW224633   4.492   0.592   5.547 -1.2493 -1.7512 -0.0451
 4391SOL     OW24634   2.264   0.931  17.419 -0.2901 -0.3755 -0.2370
 4391SOL    HW124635   2.248   0.994  17.349  1.2528  0.6744  0.3363
 4391SOL    HW224636   2.272   0.983  17.498  1.2243  0.4625 -0.9341
 4392SOL     OW24637   1.674   0.522   6.437  0.1700  0.5250 -0.3556
 4392SOL    HW124638   1.635   0.609   6.446 -0.1999  0.7660 -4.1537
 4392SOL    HW224639   1.595   0.471   6.417 -0.7114  1.2581  1.2873
 4393SOL     OW24640   0.947   3.227   8.328 -0.1135 -0.9252 -0.4999
 4393SOL    HW124641   1.005   3.201   8.400  0.1350 -1.7313 -0.9813
 4393SOL    HW224642   0.871   3.172   8.345 -0.4701 -0.6025 -1.0794
 4394SOL     OW24643   0.093   2.284   6.397 -0.1345  0.6915 -1.0159
 4394SOL    HW124644   0.017   2.264   6.451 -1.0294  1.2466 -2.0630
 4394SOL    HW224645   0.078   2.219   6.328 -0.9810  0.7102 -0.8441
 4395SOL     OW24646   3.564   3.229  14.461  0.2924 -0.2325  0.2950
 4395SOL    HW124647   3.492   3.211  14.521 -0.9381  0.5642 -0.9394
 4395SOL    HW224648   3.637   3.190  14.509  0.3738  0.8241  1.0252
 4396SOL     OW24649   0.419   2.651   2.293 -0.1165 -0.5704 -0.3608
 4396SOL    HW124650   0.457   2.679   2.377 -0.9507 -2.1188  0.5471
 4396SOL    HW224651   0.443   2.727   2.241 -0.7905  0.2021  0.4570
 4397SOL     OW24652   4.447   4.622  16.857  0.1265  0.0704  0.0648
 4397SOL    HW124653   4.361   4.616  16.898  0.0147 -0.8290 -0.2818
 4397SOL    HW224654   4.429   4.695  16.798 -0.8781 -1.0134 -0.9746
 4398SOL     OW24655   2.892   3.312  11.011  0.5685 -0.0683 -0.1524
 4398SOL    HW124656   2.822   3.286  11.071 -1.1918  0.3754 -2.0004
 4398SOL    HW224657   2.892   3.404  11.037 -0.4016 -0.3429  0.8127
 4399SOL     OW24658   2.142   0.601   5.528  0.3711  0.1556 -0.3989
 4399SOL    HW124659   2.051   0.584   5.507 -0.5459  1.7824  2.2526
 4399SOL    HW224660   2.174   0.596   5.438  1.4966  0.4200 -0.0235
 4400SOL     OW24661   3.334   3.681   9.756 -0.2956  0.1892 -0.1356
 4400SOL    HW124662   3.416   3.689   9.804 -0.8928 -0.8987  1.0599
 4400SOL    HW224663   3.295   3.629   9.827 -0.8964  1.1566  0.2379
 4401SOL     OW24664   1.511   2.862  12.352 -0.8745 -0.5584 -0.6484
 4401SOL    HW124665   1.422   2.896  12.340 -0.6671  0.2558  0.0894
 4401SOL    HW224666   1.491   2.789  12.411 -0.3422 -0.1120  0.0786
 4402SOL     OW24667   4.114   4.714   5.854  0.4812  0.1381 -0.3838
 4402SOL    HW124668   4.084   0.060   5.911 -1.9122 -1.6517  0.5504
 4402SOL    HW224669   4.190   4.684   5.904  0.1252 -1.7350 -0.9617
 4403SOL     OW24670   3.779   2.338   6.578  0.1744 -0.1527  0.2414
 4403SOL    HW124671   3.785   2.428   6.545  2.3126 -0.6987 -0.8202
 4403SOL    HW224672   3.847   2.295   6.528  0.3974  0.5701 -0.0831
 4404SOL     OW24673   3.423   4.137  14.633  0.4017 -0.1425 -0.8022
 4404SOL    HW124674   3.368   4.073  14.678  0.8676 -0.2600 -0.3951
 4404SOL    HW224675   3.363   4.196  14.589  1.9599  2.9692  1.2103
 4405SOL     OW24676   3.527   1.761   6.824  0.3029  0.4539 -0.9810
 4405SOL    HW124677   3.510   1.814   6.902 -0.4925 -1.2656  0.0218
 4405SOL    HW224678   3.438   1.746   6.791  0.0240  0.9650 -0.4813
 4406SOL     OW24679   0.870   2.342   9.774 -0.5663 -0.3895  0.0178
 4406SOL    HW124680   0.784   2.378   9.795 -0.1348  2.1159 -2.5654
 4406SOL    HW224681   0.857   2.253   9.808  0.6751 -0.7434 -0.4314
 4407SOL     OW24682   3.357   3.842   1.082  0.0035 -0.1746 -0.0224
 4407SOL    HW124683   3.377   3.824   0.990 -2.0304  1.0823 -0.7119
 4407SOL    HW224684   3.383   3.933   1.094  1.5798 -0.6465  0.1450
 4408SOL     OW24685   3.164   3.295   2.176 -0.5299  0.1798 -0.0281
 4408SOL    HW124686   3.122   3.324   2.257 -1.6150  0.6271 -0.7521
 4408SOL    HW224687   3.093   3.305   2.113  0.5881  2.1111 -0.9839
 4409SOL     OW24688   2.194   1.957   9.169  0.2312  0.3911 -0.2898
 4409SOL    HW124689   2.226   2.044   9.193  1.6318 -0.3612  0.5227
 4409SOL    HW224690   2.099   1.961   9.185  0.3360 -0.2594  0.5229
 4410SOL     OW24691   0.929   1.710   6.657 -0.3115 -0.2712  0.2419
 4410SOL    HW124692   0.969   1.647   6.596  0.3212 -0.6617  1.0605
 4410SOL    HW224693   0.845   1.665   6.660  0.0604 -0.7519  3.7867
 4411SOL     OW24694   3.235   1.815   6.329  0.1689  0.4245  0.0532
 4411SOL    HW124695   3.173   1.774   6.269 -1.6493  0.5400  1.8619
 4411SOL    HW224696   3.312   1.767   6.300 -0.3681  0.3517 -1.2643
 4412SOL     OW24697   2.031   1.580   8.009  0.3825  0.1947  0.3143
 4412SOL    HW124698   1.980   1.660   8.001 -0.1211 -0.0424  1.1555
 4412SOL    HW224699   2.120   1.606   8.030  0.4174  1.7460 -1.7421
 4413SOL     OW24700   2.346   1.157   4.831  0.2034  0.0353 -0.2728
 4413SOL    HW124701   2.398   1.151   4.751 -0.9927 -1.4598 -0.9301
 4413SOL    HW224702   2.339   1.253   4.833 -0.3977 -0.0944  3.6146
 4414SOL     OW24703   0.342   4.013  12.204  0.1705 -0.5503 -0.4403
 4414SOL    HW124704   0.406   4.064  12.154 -0.8269  1.3829  0.2336
 4414SOL    HW224705   0.274   3.996  12.138  0.7280  0.8106 -1.3656
 4415SOL     OW24706   1.990   0.103  11.366  0.2476  0.0679  0.0333
 4415SOL    HW124707   1.983   0.021  11.415  1.7343 -1.3782 -2.1459
 4415SOL    HW224708   2.041   0.155  11.428 -0.7867 -0.0232  0.9578
 4416SOL     OW24709   0.559   0.013   5.232 -0.3968  0.3917 -0.6273
 4416SOL    HW124710   0.494   0.048   5.171 -1.4013 -0.6430 -0.1389
 4416SOL    HW224711   0.528   4.648   5.248  2.7874 -1.0153 -2.4010
 4417SOL     OW24712   3.446   0.334   6.596 -0.0724  0.1793  0.1150
 4417SOL    HW124713   3.388   0.378   6.658  1.1191  0.3017  1.1564
 4417SOL    HW224714   3.508   0.283   6.648  0.8230 -0.0798 -1.2091
 4418SOL     OW24715   3.945   3.969   5.425  0.3977 -0.1971 -0.0085
 4418SOL    HW124716   3.941   3.910   5.500  0.8132  0.6659  0.6991
 4418SOL    HW224717   3.853   3.996   5.421 -0.0517 -1.6404  0.6974
 4419SOL     OW24718   0.549   0.243   3.992  0.2320  0.5656  0.4019
 4419SOL    HW124719   0.645   0.245   3.992  0.2597 -0.9830 -0.2090
 4419SOL    HW224720   0.527   0.215   4.081  0.8660  1.6585  0.9145
 4420SOL     OW24721   1.481   3.531   6.117  0.5150 -0.5498  0.2088
 4420SOL    HW124722   1.484   3.613   6.166  0.6586 -1.3891  1.6045
 4420SOL    HW224723   1.420   3.550   6.046  1.0388 -2.0776 -0.6624
 4421SOL     OW24724   1.589   1.541   3.526  0.1339  0.0415  0.1043
 4421SOL    HW124725   1.657   1.542   3.459  1.3361 -2.2808  1.2910
 4421SOL    HW224726   1.643   1.503   3.595  0.8131  1.3038  0.2790
 4422SOL     OW24727   4.555   2.441   5.532 -0.0288  0.2887  0.2057
 4422SOL    HW124728   4.486   2.425   5.467  1.5754 -1.0172 -1.1617
 4422SOL    HW224729   4.553   2.537   5.535  2.2960  0.2546  1.8985
 4423SOL     OW24730   0.539   0.507   5.706 -0.4207  0.0603  0.3756
 4423SOL    HW124731   0.483   0.454   5.650  0.4444 -0.0960 -0.3388
 4423SOL    HW224732   0.599   0.531   5.636 -0.4444 -2.7837 -0.6015
 4424SOL     OW24733   1.599   1.241   4.189  0.5388  0.5850 -0.0402
 4424SOL    HW124734   1.534   1.277   4.249  0.7647  1.8316 -0.5448
 4424SOL    HW224735   1.642   1.326   4.192  0.5277  0.6348 -1.6257
 4425SOL     OW24736   3.884   1.548  11.658 -0.5586  0.2309  0.7134
 4425SOL    HW124737   3.910   1.605  11.731  3.6127 -0.1428 -0.4892
 4425SOL    HW224738   3.824   1.610  11.615  0.8751  0.5530 -0.8314
 4426SOL     OW24739   4.166   0.741   4.056 -0.3082 -0.5963  0.6871
 4426SOL    HW124740   4.233   0.746   4.123  0.3153 -1.3250  0.1109
 4426SOL    HW224741   4.193   0.816   4.004  2.1666 -1.1446  1.2001
 4427SOL     OW24742   1.507   2.502   2.890 -0.2104  0.2063  0.4096
 4427SOL    HW124743   1.476   2.492   2.800  1.5681 -1.9835  0.0293
 4427SOL    HW224744   1.560   2.581   2.887 -0.3200  0.2369 -0.8708
 4428SOL     OW24745   1.541   3.638   6.894 -0.0146  0.1153 -0.2959
 4428SOL    HW124746   1.446   3.635   6.886 -0.0529 -0.9928  0.5530
 4428SOL    HW224747   1.565   3.548   6.919  0.7030  0.1858 -0.7443
 4429SOL     OW24748   1.707   3.066   7.009  0.3947  0.6125  0.4199
 4429SOL    HW124749   1.736   2.977   7.029  0.6223 -0.0870 -3.1033
 4429SOL    HW224750   1.630   3.066   7.065  1.0616  1.0942  1.3533
 4430SOL     OW24751   3.755   2.209   3.113  0.2249 -0.4545 -0.0079
 4430SOL    HW124752   3.753   2.184   3.205  2.0442  4.2123  1.2995
 4430SOL    HW224753   3.670   2.190   3.074  0.3625  0.9066 -0.9814
 4431SOL     OW24754   0.791   4.329   1.679 -0.3768  0.5503 -0.0810
 4431SOL    HW124755   0.772   4.286   1.762 -0.5787 -0.8075 -0.8254
 4431SOL    HW224756   0.878   4.291   1.661 -0.5215  1.0140 -1.7844
 4432SOL     OW24757   2.389   2.022   0.722 -0.4336  0.3925  0.2283
 4432SOL    HW124758   2.381   2.057   0.811  0.8339  1.2457  0.0041
 4432SOL    HW224759   2.296   2.028   0.703  0.0919 -0.7612 -2.7063
 4433SOL     OW24760   3.130   4.304   7.184  0.2099  0.4953 -0.4097
 4433SOL    HW124761   3.172   4.219   7.172  0.1967  0.2805  1.1122
 4433SOL    HW224762   3.202   4.352   7.225 -0.3336 -0.1967  1.3486
 4434SOL     OW24763   1.878   0.271   7.183 -0.4229  0.2167 -0.4065
 4434SOL    HW124764   1.834   0.352   7.209 -0.4912 -0.2022  0.7967
 4434SOL    HW224765   1.820   0.236   7.116 -1.9748 -0.4344  1.2837
 4435SOL     OW24766   2.409   2.557   8.471  0.0295  0.5141 -0.6366
 4435SOL    HW124767   2.432   2.640   8.429 -0.0123  0.3836 -0.9173
 4435SOL    HW224768   2.398   2.585   8.561 -0.3480  1.3965 -0.9540
 4436SOL     OW24769   1.646   2.700  16.803  0.3833 -0.0120 -0.7799
 4436SOL    HW124770   1.591   2.745  16.739 -1.1656 -2.1249 -0.9446
 4436SOL    HW224771   1.708   2.652  16.748  1.6413  0.2002  0.4532
 4437SOL     OW24772   4.299   3.584   3.530  0.0998  0.3085 -0.1435
 4437SOL    HW124773   4.245   3.505   3.539  1.2199 -0.4371  0.1070
 4437SOL    HW224774   4.312   3.578   3.435  0.0391  0.0029 -0.1338
 4438SOL     OW24775   3.200   1.681   5.774 -0.5194  0.1354 -0.4929
 4438SOL    HW124776   3.109   1.680   5.805 -0.8828  0.8063 -1.5465
 4438SOL    HW224777   3.204   1.756   5.714  0.8784  2.2649  2.2348
 4439SOL     OW24778   4.682   0.417   0.767  0.2124 -0.0780 -0.3575
 4439SOL    HW124779   4.609   0.458   0.721 -1.3278 -0.4657  1.7534
 4439SOL    HW224780   4.678   0.329   0.729  0.3144 -0.8363  1.3787
 4440SOL     OW24781   0.501   4.679   8.179  0.3607 -0.0452 -0.2896
 4440SOL    HW124782   0.448   4.638   8.247  1.6067 -0.5414  0.3832
 4440SOL    HW224783   0.490   0.047   8.202 -0.6520 -0.5939  1.4467
 4441SOL     OW24784   3.414   1.193   7.655 -0.7561  0.0579 -0.3066
 4441SOL    HW124785   3.336   1.246   7.639 -0.0905  1.0883 -0.0842
 4441SOL    HW224786   3.458   1.229   7.731 -0.3670 -2.4944  0.6668
 4442SOL     OW24787   0.589   0.541   3.962  0.0692 -0.0640 -0.3504
 4442SOL    HW124788   0.545   0.458   3.943 -0.5107 -0.2588  1.8346
 4442SOL    HW224789   0.539   0.597   3.902  0.5666  1.4497  0.6493
 4443SOL     OW24790   0.830   2.926  12.752  0.4867 -0.1194 -0.0050
 4443SOL    HW124791   0.855   3.003  12.701  0.3296 -0.5566 -0.7399
 4443SOL    HW224792   0.867   2.948  12.838 -0.8214  2.7902 -0.1741
 4444SOL     OW24793   1.773   1.057  13.044 -0.5011  0.1342 -0.0562
 4444SOL    HW124794   1.867   1.041  13.051 -0.8034 -2.3164 -1.4013
 4444SOL    HW224795   1.776   1.146  13.079 -2.6293  0.9115 -1.8662
 4445SOL     OW24796   3.139   1.429  16.523  0.0032 -0.3144 -0.0340
 4445SOL    HW124797   3.220   1.446  16.474 -0.5093 -1.0566 -1.1334
 4445SOL    HW224798   3.110   1.513  16.558 -0.3841  0.7545 -2.8688
 4446SOL     OW24799   1.161   0.979  10.704  0.6725  0.5677  0.4291
 4446SOL    HW124800   1.252   0.966  10.678  0.4633  3.1504 -1.6546
 4446SOL    HW224801   1.124   0.904  10.657  0.4387  1.4670 -0.8304
 4447SOL     OW24802   1.259   3.394   5.496  0.6691  0.0535  0.7514
 4447SOL    HW124803   1.190   3.376   5.431  1.1109  2.5041 -0.4064
 4447SOL    HW224804   1.308   3.313   5.484  0.8871  0.4060 -0.7841
 4448SOL     OW24805   4.374   2.901   1.666 -0.1943 -0.3622  0.1044
 4448SOL    HW124806   4.378   2.847   1.587  1.4709 -0.4372  0.2231
 4448SOL    HW224807   4.289   2.876   1.701  0.7477 -3.9765 -0.1610
 4449SOL     OW24808   0.242   3.982   6.567  0.2541  0.0701 -0.2122
 4449SOL    HW124809   0.153   4.017   6.574 -0.5131 -1.5610 -1.8029
 4449SOL    HW224810   0.278   4.046   6.505  1.8843  0.3647  1.0532
 4450SOL     OW24811   2.299   1.998   7.746  0.6895  0.5975  0.2532
 4450SOL    HW124812   2.370   2.044   7.791  0.0563  0.3196  1.5378
 4450SOL    HW224813   2.268   2.065   7.686  0.5364 -0.2047 -0.5653
 4451SOL     OW24814   3.455   1.292   7.409  0.0891 -0.0770  0.1612
 4451SOL    HW124815   3.444   1.256   7.497 -0.9662  1.6761  0.7387
 4451SOL    HW224816   3.451   1.387   7.423  0.3897  0.2092 -1.6918
 4452SOL     OW24817   1.591   3.780   5.373  0.0958 -0.1629 -0.2453
 4452SOL    HW124818   1.533   3.746   5.441 -2.5954  1.6283 -1.6303
 4452SOL    HW224819   1.561   3.739   5.292 -0.3848 -1.2342  0.4786
 4453SOL     OW24820   2.444   3.851   4.301  0.0800  0.1803 -0.0042
 4453SOL    HW124821   2.431   3.807   4.385 -1.6337  0.5742 -0.0531
 4453SOL    HW224822   2.522   3.901   4.323 -0.7938  0.8197  1.6525
 4454SOL     OW24823   3.228   1.393  12.358 -0.5179 -0.0188 -0.0445
 4454SOL    HW124824   3.207   1.480  12.392  0.9489  0.5960 -0.6999
 4454SOL    HW224825   3.215   1.412  12.265 -0.2625  1.9532  0.3225
 4455SOL     OW24826   1.682   3.757   5.020 -0.1940  0.4633 -0.2057
 4455SOL    HW124827   1.622   3.689   5.051 -0.7354  0.5108 -1.1763
 4455SOL    HW224828   1.729   3.714   4.948  1.3581  0.5276  0.7481
 4456SOL     OW24829   2.993   3.385   4.631 -0.0813 -0.4090 -0.5792
 4456SOL    HW124830   3.059   3.338   4.580  0.9594  0.0491  0.3617
 4456SOL    HW224831   3.039   3.455   4.676 -0.3739  0.1026 -1.0845
 4457SOL     OW24832   2.694   1.620   3.438 -0.5135  0.3006 -0.2418
 4457SOL    HW124833   2.765   1.622   3.373 -0.1386 -1.1798  0.1245
 4457SOL    HW224834   2.620   1.581   3.393 -0.0346 -0.4988 -0.3331
 4458SOL     OW24835   0.951   4.557   4.753 -0.4930  0.3507  0.0514
 4458SOL    HW124836   0.860   4.575   4.777 -0.7596 -0.6176 -0.2294
 4458SOL    HW224837   1.003   4.601   4.820 -1.5170  1.5086  0.0895
 4459SOL     OW24838   1.883   1.485  14.116 -0.8649  0.5336 -0.2149
 4459SOL    HW124839   1.871   1.488  14.021 -0.6067  0.8993 -0.2370
 4459SOL    HW224840   1.952   1.419  14.126 -1.4150 -0.0102  0.0004
 4460SOL     OW24841   2.233   4.459  15.442 -0.0128 -0.2404  0.0848
 4460SOL    HW124842   2.168   4.389  15.444 -0.1247 -0.0747  2.3625
 4460SOL    HW224843   2.228   4.500  15.528 -1.1268  0.9811 -0.5545
 4461SOL     OW24844   3.866   0.758   8.516 -0.1409  0.2036 -0.2319
 4461SOL    HW124845   3.842   0.669   8.543  0.2275  0.3196  0.4708
 4461SOL    HW224846   3.862   0.798   8.603  0.3379 -2.0755  0.8409
 4462SOL     OW24847   2.816   0.337  15.940  0.5632 -0.0076 -0.3229
 4462SOL    HW124848   2.745   0.400  15.928 -0.2554 -0.5988  1.4693
 4462SOL    HW224849   2.867   0.334  15.859 -1.2529 -0.3507 -1.4598
 4463SOL     OW24850   1.545   2.569  10.273  0.1204  0.1653 -0.6718
 4463SOL    HW124851   1.546   2.583  10.179 -1.0768  0.6017 -0.6227
 4463SOL    HW224852   1.504   2.483  10.280  1.4553 -0.5236 -1.4405
 4464SOL     OW24853   4.562   2.236  10.154 -0.4874 -0.4150  0.3864
 4464SOL    HW124854   4.509   2.199  10.225  0.5568 -0.7808  0.9798
 4464SOL    HW224855   4.560   2.329  10.177  0.3996  0.2221 -2.2002
 4465SOL     OW24856   0.001   2.779   1.930  0.8714 -0.0611  0.3464
 4465SOL    HW124857   4.682   2.756   1.847  0.0888  0.9898  0.4631
 4465SOL    HW224858   4.664   2.848   1.955  1.0301  0.2319 -0.0722
 4466SOL     OW24859   1.157   1.575  14.452 -0.3439  0.5638  0.3452
 4466SOL    HW124860   1.069   1.547  14.425 -1.0294  1.4924  1.6084
 4466SOL    HW224861   1.160   1.664  14.417  0.7554  0.2161 -0.4350
 4467SOL     OW24862   2.794   2.471  13.654 -0.2254 -0.1308 -0.4559
 4467SOL    HW124863   2.746   2.547  13.619  0.1192  0.7601  1.0223
 4467SOL    HW224864   2.840   2.506  13.730  1.2889  1.3174 -2.0024
 4468SOL     OW24865   3.928   1.108  13.963 -0.1405 -0.4982  0.4053
 4468SOL    HW124866   3.840   1.142  13.980 -0.2764 -0.4577 -0.3757
 4468SOL    HW224867   3.978   1.149  14.033 -0.2183 -0.0341  0.1872
 4469SOL     OW24868   0.133   3.151  15.403  0.5695 -0.2715 -0.6629
 4469SOL    HW124869   0.112   3.058  15.409 -2.0368  0.2374 -1.8211
 4469SOL    HW224870   0.150   3.164  15.310 -2.6623  2.5427 -0.8701
 4470SOL     OW24871   3.523   4.329   4.227 -0.6128 -0.2728  0.0731
 4470SOL    HW124872   3.434   4.298   4.212 -0.8812  0.5646 -0.0892
 4470SOL    HW224873   3.534   4.294   4.315  0.6640  0.9521  0.4183
 4471SOL     OW24874   3.867   1.812   7.909  0.5021 -0.4858  0.3927
 4471SOL    HW124875   3.824   1.898   7.912  1.1077 -0.2283  1.8337
 4471SOL    HW224876   3.839   1.768   7.989  0.6059  0.3867  0.9132
 4472SOL     OW24877   3.596   3.501   5.399  0.7487 -0.2982  0.0227
 4472SOL    HW124878   3.630   3.586   5.425 -3.2465  1.5523 -0.8440
 4472SOL    HW224879   3.518   3.514   5.345  0.7346 -1.1967 -0.1803
 4473SOL     OW24880   0.016   1.714   1.483 -0.3209  0.3472  0.8452
 4473SOL    HW124881   0.012   1.788   1.423 -1.0126 -0.9549 -0.7061
 4473SOL    HW224882   0.101   1.672   1.472 -0.5206 -0.4731  2.3031
 4474SOL     OW24883   3.013   4.257  16.466 -0.5060  0.3827  0.3652
 4474SOL    HW124884   2.959   4.310  16.525 -0.2943 -0.5674  1.4112
 4474SOL    HW224885   3.098   4.299  16.471 -1.1216  1.7920 -1.1987
 4475SOL     OW24886   2.569   0.508   9.100 -0.0651  0.2068  0.2560
 4475SOL    HW124887   2.612   0.560   9.167 -1.4176  1.4377  0.1899
 4475SOL    HW224888   2.641   0.449   9.078 -0.8581 -0.1743 -1.3005
 4476SOL     OW24889   1.214   0.162   4.737 -0.8710 -0.4599  0.6988
 4476SOL    HW124890   1.298   0.144   4.779  0.3296 -1.1308 -2.0489
 4476SOL    HW224891   1.238   0.225   4.669  0.5401 -1.4879  0.2551
 4477SOL     OW24892   1.081   4.594   9.382 -0.0982  0.2003 -0.1222
 4477SOL    HW124893   1.070   4.660   9.451  4.5916  0.8477  0.0125
 4477SOL    HW224894   1.176   4.585   9.379 -0.2828 -1.1849 -2.1247
 4478SOL     OW24895   1.702   1.559  12.479  0.0841 -0.1902 -0.6668
 4478SOL    HW124896   1.744   1.501  12.416  0.6735 -0.1254 -0.3382
 4478SOL    HW224897   1.611   1.541  12.455 -0.4621 -0.2155  1.4223
 4479SOL     OW24898   3.906   1.596  17.133 -0.1611 -0.1474 -0.5684
 4479SOL    HW124899   3.970   1.657  17.095 -1.9244  1.1169 -1.4829
 4479SOL    HW224900   3.921   1.515  17.085  0.9497  1.3260 -2.7413
 4480SOL     OW24901   2.478   2.906  16.865 -0.6629 -0.1687  0.3829
 4480SOL    HW124902   2.561   2.915  16.818 -1.2558  1.7309 -0.2848
 4480SOL    HW224903   2.506   2.896  16.956  1.4091  1.1611 -0.1232
 4481SOL     OW24904   1.791   2.194  11.033  0.2541  0.3391 -0.7254
 4481SOL    HW124905   1.851   2.269  11.035 -0.0914  0.6587 -2.3671
 4481SOL    HW224906   1.728   2.231  11.094 -0.8764 -0.9663 -1.0821
 4482SOL     OW24907   4.708   4.636   5.306  0.2878  0.1439  0.6427
 4482SOL    HW124908   4.632   4.686   5.277 -0.0977 -1.4895 -1.1966
 4482SOL    HW224909   4.710   4.578   5.230 -2.7172  0.9143 -0.0285
 4483SOL     OW24910   3.870   0.264   6.211  0.6763 -0.0387  0.3210
 4483SOL    HW124911   3.929   0.219   6.149 -0.2983  0.6299 -1.1027
 4483SOL    HW224912   3.811   0.306   6.149 -0.1168  0.7798  1.6555
 4484SOL     OW24913   1.033   3.219  11.122  0.0279 -0.4553 -0.4443
 4484SOL    HW124914   0.943   3.249  11.125 -0.7201 -2.6790 -0.8001
 4484SOL    HW224915   1.059   3.202  11.213 -2.7017  2.1392  0.8138
 4485SOL     OW24916   3.939   3.501   0.811 -0.2296 -0.0827  0.3783
 4485SOL    HW124917   3.924   3.546   0.894  0.7448 -0.2742  0.6628
 4485SOL    HW224918   4.027   3.465   0.822 -0.7740 -1.5044  0.0441
 4486SOL     OW24919   1.435   1.444   2.540 -0.1570 -0.3472  0.9135
 4486SOL    HW124920   1.358   1.410   2.584 -0.4435 -0.5114  0.2708
 4486SOL    HW224921   1.471   1.502   2.608 -0.7625 -1.6960  2.3675
 4487SOL     OW24922   2.474   1.370   8.425  0.2236  0.5020 -0.4764
 4487SOL    HW124923   2.392   1.367   8.377 -0.1955 -1.9103  0.3628
 4487SOL    HW224924   2.468   1.449   8.479  2.6418  0.6674 -0.4421
 4488SOL     OW24925   2.106   4.529   5.270 -0.3993 -0.0144 -0.9295
 4488SOL    HW124926   2.148   4.615   5.277  1.1878 -0.7408 -1.4699
 4488SOL    HW224927   2.175   4.490   5.217 -1.3697  0.6129 -2.6744
 4489SOL     OW24928   4.142   2.887   9.826  0.4871 -0.4533  0.0064
 4489SOL    HW124929   4.061   2.918   9.785  0.2721 -0.0610  0.7317
 4489SOL    HW224930   4.148   2.967   9.877 -0.4351  0.2130 -0.9228
 4490SOL     OW24931   0.393   2.089   1.972 -0.3823  0.3921  0.9477
 4490SOL    HW124932   0.441   2.143   1.909  2.0024 -0.8326  1.7134
 4490SOL    HW224933   0.452   2.086   2.047  0.0724  1.1148  0.6223
 4491SOL     OW24934   4.349   3.740   1.367  0.6134  0.2368 -0.1704
 4491SOL    HW124935   4.363   3.826   1.405  1.5128  0.2454 -0.5296
 4491SOL    HW224936   4.409   3.742   1.293  2.2897 -1.5621  1.1255
 4492SOL     OW24937   1.611   3.925   8.043  0.4149 -0.4209 -0.2495
 4492SOL    HW124938   1.604   3.829   8.041  1.1234 -0.4515 -1.7083
 4492SOL    HW224939   1.523   3.950   8.015  1.6293  2.8727 -1.0538
 4493SOL     OW24940   0.601   0.606   3.576  0.3259 -0.3892 -0.5213
 4493SOL    HW124941   0.675   0.572   3.626 -1.0573  0.5557  2.1857
 4493SOL    HW224942   0.624   0.584   3.486  1.5688 -3.1737  0.4766
 4494SOL     OW24943   2.835   3.287   8.872 -0.7595  0.4409 -0.0633
 4494SOL    HW124944   2.918   3.252   8.838 -1.2753 -1.6355  0.8449
 4494SOL    HW224945   2.871   3.331   8.949 -1.2465  0.4634  0.1464
 4495SOL     OW24946   1.379   4.200   3.244 -0.0069  0.4462 -0.1217
 4495SOL    HW124947   1.386   4.138   3.317 -0.7153 -0.2449 -0.6497
 4495SOL    HW224948   1.429   4.154   3.177 -0.7676 -0.4663 -0.0623
 4496SOL     OW24949   3.922   2.246   0.246 -0.2151  0.0580 -0.1024
 4496SOL    HW124950   3.879   2.254   0.161 -0.2112  4.6960  0.3517
 4496SOL    HW224951   3.970   2.328   0.254 -0.5190  0.3349 -1.0879
 4497SOL     OW24952   0.945   3.690   8.842  0.0375  0.1151  0.3189
 4497SOL    HW124953   0.950   3.781   8.870 -2.1971  0.4963 -0.5194
 4497SOL    HW224954   0.881   3.659   8.907 -0.5440 -1.9276 -1.2090
 4498SOL     OW24955   3.662   4.366   2.958  0.4040  0.0212 -0.0997
 4498SOL    HW124956   3.588   4.402   2.910  0.3991 -0.2600 -0.3068
 4498SOL    HW224957   3.722   4.329   2.894 -1.4887  1.1971 -2.5457
 4499SOL     OW24958   0.199   2.687  15.930  0.6280 -0.1491  0.7480
 4499SOL    HW124959   0.111   2.724  15.930  1.4838  1.8782 -1.4404
 4499SOL    HW224960   0.214   2.726  16.017  0.7305  1.9275 -0.1983
 4500SOL     OW24961   1.152   2.908   8.078  0.4636  0.1775  0.2527
 4500SOL    HW124962   1.148   2.862   8.162  0.1348  0.3881  0.3511
 4500SOL    HW224963   1.061   2.903   8.050  1.0385  1.0743 -1.7487
 4501SOL     OW24964   2.991   3.364  13.156  0.0369  0.0091 -0.3084
 4501SOL    HW124965   3.066   3.309  13.133  1.2181  1.5013 -0.0580
 4501SOL    HW224966   3.020   3.438  13.209 -2.2642  1.5901 -1.2778
 4502SOL     OW24967   1.316   1.977  14.085 -0.4642  0.4656 -0.4694
 4502SOL    HW124968   1.291   1.965  14.176  0.5069  1.3504 -0.0896
 4502SOL    HW224969   1.272   1.903  14.043 -1.3816  0.5270  0.3966
 4503SOL     OW24970   0.949   2.596   2.151  0.1999 -0.1188  0.2250
 4503SOL    HW124971   1.007   2.529   2.117  0.4896  0.9670 -1.4242
 4503SOL    HW224972   0.953   2.663   2.083  0.5344 -1.4161 -1.0219
 4504SOL     OW24973   1.032   1.370   6.961 -0.3564 -0.4073  0.2237
 4504SOL    HW124974   1.082   1.430   7.017 -1.6933  0.1839  0.7871
 4504SOL    HW224975   1.092   1.310   6.918 -0.2999  0.0578 -0.3454
 4505SOL     OW24976   3.208   2.114   7.117  0.0991 -0.2854  0.0281
 4505SOL    HW124977   3.272   2.134   7.186 -0.3980 -0.1939  0.4644
 4505SOL    HW224978   3.170   2.038   7.161 -1.5399  1.7365  2.1133
 4506SOL     OW24979   0.477   1.878  13.116 -0.4230 -0.2001 -0.5816
 4506SOL    HW124980   0.525   1.855  13.196  0.3679 -1.1850 -1.3413
 4506SOL    HW224981   0.553   1.895  13.060  0.7726 -0.2951  0.9914
 4507SOL     OW24982   3.191   2.386   3.005  0.0075 -0.5195  0.4779
 4507SOL    HW124983   3.207   2.466   3.055 -0.4025 -0.4387  0.4817
 4507SOL    HW224984   3.097   2.399   2.991 -0.2245 -2.7114  0.0919
 4508SOL     OW24985   4.058   1.583   5.468  0.0197 -0.3633  0.6964
 4508SOL    HW124986   4.105   1.599   5.551  1.3196 -0.6241  0.0158
 4508SOL    HW224987   3.986   1.645   5.473 -0.4236 -0.7893 -0.5849
 4509SOL     OW24988   2.633   3.145   8.361 -0.2956  0.8453  0.0941
 4509SOL    HW124989   2.699   3.172   8.298  1.1609 -3.6653 -0.2867
 4509SOL    HW224990   2.550   3.150   8.313 -0.1173 -0.6229 -0.3623
 4510SOL     OW24991   0.221   2.200   0.789 -0.2694 -0.9476  0.1214
 4510SOL    HW124992   0.197   2.236   0.703  0.6229  0.2220  0.3624
 4510SOL    HW224993   0.145   2.150   0.817 -0.3126 -0.7495  0.3568
 4511SOL     OW24994   4.346   1.921   2.976 -0.4814  0.6173 -0.2605
 4511SOL    HW124995   4.382   1.845   2.929 -0.2356  1.6203 -1.7077
 4511SOL    HW224996   4.275   1.933   2.913 -0.3019 -3.2493 -1.2069
 4512SOL     OW24997   0.978   1.087   4.035 -0.1210  0.0100 -0.1035
 4512SOL    HW124998   0.978   1.152   4.105 -1.5065  0.6243 -0.6680
 4512SOL    HW224999   0.883   1.090   4.030 -0.2535 -0.7256  1.9395
 4513SOL     OW25000   2.995   1.457   6.209 -0.3089 -0.1785  0.1857
 4513SOL    HW125001   3.035   1.540   6.184 -1.4398  0.7641  1.4813
 4513SOL    HW225002   2.916   1.459   6.156 -0.8347 -0.5319  0.9457
 4514SOL     OW25003   1.006   4.531   8.468  0.5687 -0.2081 -0.2899
 4514SOL    HW125004   0.956   4.524   8.387  0.6156  1.3130 -0.4566
 4514SOL    HW225005   0.988   4.450   8.514 -0.2689  0.4658  0.5741
 4515SOL     OW25006   2.317   0.586   5.314  0.1837 -0.6036 -0.1751
 4515SOL    HW125007   2.333   0.589   5.220 -1.8063 -1.4065 -0.5350
 4515SOL    HW225008   2.371   0.515   5.350  0.9232 -1.0084 -2.0813
 4516SOL     OW25009   3.856   3.849   9.684  0.0282  0.1437 -0.4503
 4516SOL    HW125010   3.882   3.901   9.760  1.2776  1.7790 -1.9968
 4516SOL    HW225011   3.843   3.922   9.623 -1.3621 -0.7013 -1.1597
 4517SOL     OW25012   2.039   0.453   0.557  0.1734 -0.0158 -0.1435
 4517SOL    HW125013   2.130   0.481   0.558  0.6096 -1.4130 -0.9657
 4517SOL    HW225014   2.052   0.369   0.514  2.4491 -0.5273  1.5485
 4518SOL     OW25015   4.439   1.846  17.018  0.2666  0.4601 -0.2142
 4518SOL    HW125016   4.414   1.871  17.107  0.1001  0.2376 -0.1976
 4518SOL    HW225017   4.523   1.801  17.021 -0.1553 -0.3792 -1.1794
 4519SOL     OW25018   0.725   4.676   7.339  1.1428 -0.1123 -0.0346
 4519SOL    HW125019   0.793   0.016   7.359  0.9747 -0.6664  2.3210
 4519SOL    HW225020   0.662   0.004   7.289  1.4934 -1.8680 -2.2807
 4520SOL     OW25021   1.120   3.926   2.110 -0.5931  0.2749 -0.2385
 4520SOL    HW125022   1.175   3.990   2.154  0.9565 -0.3973 -1.2203
 4520SOL    HW225023   1.151   3.941   2.021 -1.3451 -0.2684 -0.5917
 4521SOL     OW25024   0.667   4.034  11.316  0.5256 -0.0383  0.0762
 4521SOL    HW125025   0.761   4.025  11.298  0.4411  0.1945 -0.4713
 4521SOL    HW225026   0.648   4.103  11.253 -0.3556  0.5095  0.9663
 4522SOL     OW25027   3.542   3.168  15.323  0.1422 -0.5198  0.4091
 4522SOL    HW125028   3.455   3.159  15.283 -0.1426 -2.1275  1.3868
 4522SOL    HW225029   3.531   3.137  15.413 -0.4976  1.6081  1.0722
 4523SOL     OW25030   0.910   2.367   7.890 -0.0377 -0.2035 -0.6663
 4523SOL    HW125031   0.874   2.451   7.860 -1.1540 -0.8444 -1.1159
 4523SOL    HW225032   0.828   2.317   7.899  0.8652 -0.9519  3.0593
 4524SOL     OW25033   4.602   0.375   1.732  0.0348 -0.1698  0.9003
 4524SOL    HW125034   4.613   0.323   1.812  0.6345  2.8287  2.7786
 4524SOL    HW225035   4.617   0.318   1.658 -1.4041 -2.2728  2.2345
 4525SOL     OW25036   1.728   3.569  17.008 -0.1358 -0.0499 -0.1765
 4525SOL    HW125037   1.763   3.545  16.922 -0.8988 -0.5350 -0.3505
 4525SOL    HW225038   1.674   3.490  17.017 -0.6924  0.0773 -2.4209
 4526SOL     OW25039   2.307   2.126  13.994 -0.5239  0.3226  0.7775
 4526SOL    HW125040   2.220   2.150  14.023 -0.9465  0.1716 -0.3496
 4526SOL    HW225041   2.292   2.032  13.977 -4.0589  1.1869 -0.7816
 4527SOL     OW25042   1.867   4.208   2.335  0.3356 -0.5953 -0.3952
 4527SOL    HW125043   1.933   4.146   2.366 -0.5416 -2.1598 -1.6118
 4527SOL    HW225044   1.809   4.200   2.411  3.4811 -1.6420  1.9093
 4528SOL     OW25045   4.633   2.400   3.205  0.1914  0.0808 -0.7152
 4528SOL    HW125046   4.620   2.330   3.141 -1.0376  0.0582 -0.4351
 4528SOL    HW225047   4.711   2.374   3.254 -2.6877 -0.1626  3.7925
 4529SOL     OW25048   2.070   1.318   5.322  0.0002  0.6435 -0.3128
 4529SOL    HW125049   1.982   1.310   5.359  0.9293 -2.0098  1.3095
 4529SOL    HW225050   2.059   1.273   5.238  1.6480  0.8608 -0.6279
 4530SOL     OW25051   0.969   3.269   8.680 -0.1423  0.0560 -0.5333
 4530SOL    HW125052   0.880   3.253   8.710 -0.2960 -2.3607 -2.3000
 4530SOL    HW225053   1.012   3.215   8.746 -0.2745 -0.2057 -0.6631
 4531SOL     OW25054   1.597   2.431  11.828 -0.4985  0.1187 -0.3862
 4531SOL    HW125055   1.608   2.380  11.908  1.2065 -0.1574 -0.7971
 4531SOL    HW225056   1.523   2.381  11.791 -0.2883 -0.8334  0.4711
 4532SOL     OW25057   3.614   2.279  16.948 -0.2414 -0.5890 -0.8060
 4532SOL    HW125058   3.540   2.252  17.002  0.1380 -1.3298 -0.6637
 4532SOL    HW225059   3.687   2.282  17.010 -2.6383  0.2950  1.9635
 4533SOL     OW25060   3.232   2.817   4.337 -0.3791  0.7748  0.5021
 4533SOL    HW125061   3.210   2.856   4.421 -0.9847 -0.0609  0.7270
 4533SOL    HW225062   3.156   2.846   4.287  0.8429  1.6447 -0.8549
 4534SOL     OW25063   3.192   4.240   3.602  0.3142 -0.3477  0.0787
 4534SOL    HW125064   3.182   4.155   3.560 -0.0458  0.1102 -0.7422
 4534SOL    HW225065   3.275   4.230   3.649  0.2754  0.3661  0.2984
 4535SOL     OW25066   0.210   0.904   3.418 -0.1239 -0.0180  0.0330
 4535SOL    HW125067   0.185   0.951   3.338 -0.6624  0.8274  0.6957
 4535SOL    HW225068   0.297   0.869   3.400 -0.8198 -2.5479  1.4781
 4536SOL     OW25069   2.873   3.688   1.976 -0.7177 -0.1263  0.0019
 4536SOL    HW125070   2.902   3.769   1.934 -1.0305  0.3270  0.6609
 4536SOL    HW225071   2.836   3.660   1.893 -1.2960 -0.0573  0.2415
 4537SOL     OW25072   4.191   1.991   6.150 -0.0210 -0.0715 -0.1229
 4537SOL    HW125073   4.258   2.027   6.207  0.9281 -0.5188 -0.9436
 4537SOL    HW225074   4.150   2.070   6.116  2.8350 -0.0622 -3.6038
 4538SOL     OW25075   2.626   3.288   8.075  0.2085  0.2974  0.1013
 4538SOL    HW125076   2.705   3.262   8.124  1.1844  0.7005 -1.2456
 4538SOL    HW225077   2.652   3.380   8.069  2.6415 -0.4164 -0.4546
 4539SOL     OW25078   2.558   1.670   3.885 -0.1496  0.1001 -1.0918
 4539SOL    HW125079   2.608   1.592   3.909  0.0572  0.3930 -0.5561
 4539SOL    HW225080   2.553   1.723   3.965  0.3457 -0.7832 -0.4770
 4540SOL     OW25081   3.770   4.024   9.471  0.3609  0.3520  0.3750
 4540SOL    HW125082   3.693   4.013   9.526  1.7831  2.0974  2.7198
 4540SOL    HW225083   3.777   4.119   9.466  0.8645  0.2509 -0.8165
 4541SOL     OW25084   4.651   1.983  10.054  0.2159  0.5119  0.1672
 4541SOL    HW125085   4.648   2.064  10.105 -0.5173 -0.1013  1.1019
 4541SOL    HW225086   4.723   1.998   9.993  1.1792 -1.9486  0.6885
 4542SOL     OW25087   2.195   0.834   5.649  0.1682  0.0628 -0.0918
 4542SOL    HW125088   2.183   0.742   5.625  2.0492 -0.1191 -0.3298
 4542SOL    HW225089   2.216   0.869   5.562 -0.6454  0.7494 -0.0111
 4543SOL     OW25090   3.929   1.291   4.820 -0.7539 -0.3742 -0.3678
 4543SOL    HW125091   3.897   1.226   4.758 -1.1526  0.0938 -0.6564
 4543SOL    HW225092   3.976   1.352   4.764  0.3056 -0.6115  0.2740
 4544SOL     OW25093   3.766   3.625   6.781 -0.7082 -0.1275 -0.3350
 4544SOL    HW125094   3.815   3.599   6.859  0.0039  0.0624 -0.7244
 4544SOL    HW225095   3.698   3.679   6.822  0.0860  0.0646  0.7147
 4545SOL     OW25096   0.061   1.499   5.610  0.4256 -0.2059 -0.0200
 4545SOL    HW125097   0.084   1.406   5.613 -1.8371 -0.7473  1.2006
 4545SOL    HW225098   0.111   1.522   5.688 -1.0927  0.0435  0.8801
 4546SOL     OW25099   2.773   2.297  10.804 -0.2439 -0.2581  0.0978
 4546SOL    HW125100   2.818   2.280  10.722 -0.4566 -0.9209  0.1142
 4546SOL    HW225101   2.845   2.329  10.858  0.0281 -1.7074  0.6098
 4547SOL     OW25102   0.775   1.993  13.332 -0.2452  0.2812  0.5369
 4547SOL    HW125103   0.815   1.952  13.256 -1.6255 -0.4195  0.1772
 4547SOL    HW225104   0.734   2.072  13.298  2.4883  0.5397 -2.0983
 4548SOL     OW25105   0.476   2.631  17.133 -0.7693  0.8143 -0.3895
 4548SOL    HW125106   0.507   2.586  17.054 -1.4505 -0.7703  0.2684
 4548SOL    HW225107   0.548   2.694  17.143 -0.6293  0.9322 -2.1192
 4549SOL     OW25108   0.531   2.262  10.797 -0.4158 -0.1184  0.1715
 4549SOL    HW125109   0.522   2.167  10.792 -0.4242 -0.2174  2.0541
 4549SOL    HW225110   0.445   2.283  10.834 -0.0188  0.1387  0.9250
 4550SOL     OW25111   3.338   0.026  12.476 -0.0190 -0.4047 -0.0208
 4550SOL    HW125112   3.385   4.667  12.486  0.3839 -0.4517 -2.3945
 4550SOL    HW225113   3.311   0.051  12.565  1.8150 -1.4081  0.8281
 4551SOL     OW25114   3.046   4.083   9.117  0.0927  0.0579  0.7256
 4551SOL    HW125115   3.015   4.055   9.203  1.5139  1.0321  1.5573
 4551SOL    HW225116   3.081   4.169   9.137  1.2663  0.2441 -2.1086
 4552SOL     OW25117   3.149   4.365   2.922  0.9170 -0.6523 -0.4153
 4552SOL    HW125118   3.109   4.284   2.892  1.2022 -0.5718 -1.0012
 4552SOL    HW225119   3.087   4.426   2.881  0.7414 -0.4388  0.1606
 4553SOL     OW25120   3.349   0.810  16.735 -0.4847  0.1157  0.3394
 4553SOL    HW125121   3.291   0.867  16.786 -0.5985  0.4055 -0.1089
 4553SOL    HW225122   3.319   0.722  16.755  2.0312 -0.9163 -0.3827
 4554SOL     OW25123   1.989   3.638   8.489 -0.1257  0.3591  0.7018
 4554SOL    HW125124   1.913   3.616   8.435  0.5867  2.1801 -1.0327
 4554SOL    HW225125   2.058   3.597   8.437  0.3382  0.9898  0.8098
 4555SOL     OW25126   0.515   0.809   3.724 -0.3121  0.2779 -0.1822
 4555SOL    HW125127   0.529   0.738   3.662  1.0736  0.7856 -0.4553
 4555SOL    HW225128   0.605   0.843   3.733  1.2888 -4.0889 -0.0178
 4556SOL     OW25129   2.513   3.622   5.875  0.3675  0.6462  0.3270
 4556SOL    HW125130   2.501   3.716   5.857  0.1450  0.3084 -1.2841
 4556SOL    HW225131   2.426   3.583   5.872  1.1332 -1.0594  0.6148
 4557SOL     OW25132   0.467   1.639   8.139 -0.0757 -0.2218  0.2614
 4557SOL    HW125133   0.530   1.596   8.082 -1.7095 -0.7694 -1.1341
 4557SOL    HW225134   0.501   1.618   8.226 -0.0509  0.3482  0.3918
 4558SOL     OW25135   4.232   3.498  17.152 -0.2347 -0.5610  0.1202
 4558SOL    HW125136   4.269   3.414  17.179 -0.4023 -1.2700 -1.8284
 4558SOL    HW225137   4.138   3.489  17.164 -0.5332  1.0732 -0.9853
 4559SOL     OW25138   1.313   3.138   7.600 -0.2039 -0.4289  0.0084
 4559SOL    HW125139   1.394   3.094   7.573 -0.1442 -1.1756  1.3974
 4559SOL    HW225140   1.347   3.176   7.681  0.7162 -0.2574 -0.4583
 4560SOL     OW25141   4.422   0.122   7.566 -0.1842 -0.6111 -0.3680
 4560SOL    HW125142   4.329   0.134   7.543 -0.4550 -0.3883  0.8633
 4560SOL    HW225143   4.408   0.090   7.655  0.8420 -0.8331 -0.2867
 4561SOL     OW25144   4.491   0.949   8.244  0.3857 -0.1608  0.0641
 4561SOL    HW125145   4.574   0.972   8.203  0.3219 -1.9015 -1.0270
 4561SOL    HW225146   4.491   0.996   8.328  0.8414 -0.8432  0.4467
 4562SOL     OW25147   0.397   2.638   9.441 -0.1427 -0.3180  0.0291
 4562SOL    HW125148   0.304   2.633   9.420 -0.4253  3.1187  0.4007
 4562SOL    HW225149   0.434   2.551   9.424 -2.5028 -1.4058  0.4717
 4563SOL     OW25150   1.007   4.536   7.625 -0.1793 -0.4402 -0.4406
 4563SOL    HW125151   1.037   4.626   7.617  0.3629 -0.5629  0.2306
 4563SOL    HW225152   1.052   4.489   7.555  0.2225 -1.9336  0.8204
 4564SOL     OW25153   1.047   4.633   6.136  0.1619  0.1687 -0.1112
 4564SOL    HW125154   1.086   4.668   6.056 -1.1385  0.0791 -0.7969
 4564SOL    HW225155   1.009   4.559   6.088 -1.6758  0.0204  1.5650
 4565SOL     OW25156   3.291   3.216  15.162 -0.3689  0.2265  0.2861
 4565SOL    HW125157   3.249   3.132  15.139  2.4514 -0.8203 -1.1342
 4565SOL    HW225158   3.220   3.276  15.140  0.6395  0.7635 -1.4854
 4566SOL     OW25159   1.078   3.806   0.673  0.0323  0.4144  0.3312
 4566SOL    HW125160   1.025   3.837   0.746 -0.6854  2.0976 -0.8923
 4566SOL    HW225161   1.038   3.856   0.602  1.7698  2.2881  0.6661
 4567SOL     OW25162   2.992   0.387  15.458 -0.4520  0.0943 -0.2426
 4567SOL    HW125163   3.082   0.419  15.457 -1.3115  2.5921  1.6550
 4567SOL    HW225164   3.004   0.349  15.371  0.8378 -0.4193  0.1640
 4568SOL     OW25165   1.826   1.235   5.447 -0.0336 -0.6560  0.0124
 4568SOL    HW125166   1.731   1.238   5.432  0.0814 -2.6595 -1.1910
 4568SOL    HW225167   1.832   1.181   5.526 -1.0968 -0.9175 -0.0888
 4569SOL     OW25168   0.733   0.857   5.623 -0.4197 -0.0945  0.0428
 4569SOL    HW125169   0.710   0.882   5.533  0.2099  0.2096 -0.0318
 4569SOL    HW225170   0.824   0.832   5.610 -0.2729 -0.6705  2.1852
 4570SOL     OW25171   0.843   2.495  14.339 -0.3574  0.4386  0.7542
 4570SOL    HW125172   0.848   2.543  14.422  0.6765  0.3500  0.7443
 4570SOL    HW225173   0.750   2.492  14.315  0.2481 -1.7118 -1.3425
 4571SOL     OW25174   1.426   2.097  16.526  0.0683  0.0983 -0.0714
 4571SOL    HW125175   1.349   2.041  16.535  0.8717 -0.9481  0.2838
 4571SOL    HW225176   1.497   2.035  16.511  0.4229  0.5607 -0.3317
 4572SOL     OW25177   4.484   0.297   8.405  0.0416  0.0932  0.2077
 4572SOL    HW125178   4.523   0.320   8.490  1.0640  2.1088 -0.7816
 4572SOL    HW225179   4.405   0.351   8.403 -0.0007 -0.0653 -1.7073
 4573SOL     OW25180   2.749   1.637   8.606 -0.7663 -0.7282 -0.6635
 4573SOL    HW125181   2.659   1.607   8.612 -1.2300  1.0194  1.0271
 4573SOL    HW225182   2.732   1.722   8.564  0.5503  0.5573  1.4062
 4574SOL     OW25183   0.694   1.290   2.888 -0.7008 -0.1537  0.0879
 4574SOL    HW125184   0.719   1.208   2.845  1.5645  0.1590  0.8224
 4574SOL    HW225185   0.745   1.346   2.829 -0.6988 -0.6098 -0.3515
 4575SOL     OW25186   1.851   2.756   1.991 -0.9727 -0.1263 -0.2392
 4575SOL    HW125187   1.920   2.809   2.032 -0.8498 -0.7448  0.3688
 4575SOL    HW225188   1.903   2.699   1.934 -0.5703  0.0884 -0.0880
 4576SOL     OW25189   1.554   0.040   5.810  0.9314 -0.1162 -0.3148
 4576SOL    HW125190   1.525   0.002   5.727 -2.9875  0.3843  0.8694
 4576SOL    HW225191   1.497   0.113   5.834  2.7529  1.5501 -1.0834
 4577SOL     OW25192   0.921   0.473  14.157  0.0799  0.2591 -0.2521
 4577SOL    HW125193   0.910   0.527  14.236 -1.0897 -1.2326  0.5977
 4577SOL    HW225194   1.013   0.448  14.166  0.0162 -0.7593 -2.5037
 4578SOL     OW25195   3.930   2.810   8.239 -0.1785 -0.2965  0.1177
 4578SOL    HW125196   3.893   2.882   8.188 -1.2109 -1.5250 -0.8697
 4578SOL    HW225197   3.896   2.840   8.323 -0.2325  1.4134 -0.5018
 4579SOL     OW25198   3.886   3.244  16.556  0.1333 -0.1872 -0.2757
 4579SOL    HW125199   3.976   3.264  16.527  0.8234 -1.4984  0.9754
 4579SOL    HW225200   3.904   3.239  16.650 -1.0141 -0.2458 -0.0638
 4580SOL     OW25201   2.279   1.825   4.918  0.0520 -0.5308 -0.3104
 4580SOL    HW125202   2.227   1.877   4.979 -0.4664 -2.5695  1.0094
 4580SOL    HW225203   2.354   1.816   4.977  0.2946 -0.3023 -0.5878
 4581SOL     OW25204   4.593   2.731   4.171  0.0640  0.8708  0.2755
 4581SOL    HW125205   4.503   2.719   4.203  1.1571 -3.6577  1.6544
 4581SOL    HW225206   4.595   2.827   4.167 -0.6868  0.9206  0.8758
 4582SOL     OW25207   2.905   4.640  10.463  0.7282  0.1289 -0.0851
 4582SOL    HW125208   2.899   4.569  10.400  0.5652 -0.6958  0.8493
 4582SOL    HW225209   2.833   4.621  10.524  0.7932 -1.7101 -0.5919
 4583SOL     OW25210   0.455   0.274   4.293  0.4467  0.6408  0.1137
 4583SOL    HW125211   0.401   0.195   4.292  0.7396  0.4831 -3.2123
 4583SOL    HW225212   0.402   0.325   4.354 -2.4290  0.5575 -2.3504
 4584SOL     OW25213   0.672   4.394   6.696  0.3321 -0.2359 -0.0157
 4584SOL    HW125214   0.670   4.456   6.769 -1.4096  0.6670 -0.8358
 4584SOL    HW225215   0.737   4.435   6.639 -0.8582  1.8811  0.1625
 4585SOL     OW25216   0.314   3.877   5.698 -0.9701  0.4042  0.2135
 4585SOL    HW125217   0.358   3.960   5.682  0.8591 -0.1378  2.4125
 4585SOL    HW225218   0.236   3.897   5.646  0.3277  0.5990 -1.6333
 4586SOL     OW25219   1.674   0.169   6.235 -0.4746  0.7538  0.7770
 4586SOL    HW125220   1.742   0.102   6.226 -0.1684  1.3625 -1.5633
 4586SOL    HW225221   1.712   0.235   6.293 -1.0624  0.0023  2.0087
 4587SOL     OW25222   0.012   0.783   2.159  0.7347 -0.8147 -0.5970
 4587SOL    HW125223   4.665   0.745   2.107  1.7060 -2.3987 -0.7400
 4587SOL    HW225224   0.062   0.709   2.192  1.6282 -0.0199 -0.1615
 4588SOL     OW25225   1.442   0.374   6.054 -0.3629  0.0799 -0.3109
 4588SOL    HW125226   1.511   0.432   6.022 -0.5932  0.8089  0.5029
 4588SOL    HW225227   1.435   0.394   6.147  2.0529 -0.5737 -0.0024
 4589SOL     OW25228   2.849   4.696   1.321 -0.6035  0.3105 -0.0111
 4589SOL    HW125229   2.795   0.050   1.316 -0.8137  0.2217  0.7525
 4589SOL    HW225230   2.787   4.628   1.348 -1.5145 -0.7071 -4.6706
 4590SOL     OW25231   2.858   3.859   4.216  0.1683  0.1225 -0.0849
 4590SOL    HW125232   2.788   3.911   4.256 -0.2709 -0.4652 -0.0835
 4590SOL    HW225233   2.825   3.826   4.132 -1.3596  2.2740 -0.3298
 4591SOL     OW25234   0.129   1.456   6.087 -0.6315  0.3356  0.6795
 4591SOL    HW125235   0.054   1.408   6.052  0.7887  0.5063 -2.6022
 4591SOL    HW225236   0.186   1.384   6.113  0.1976  0.2495 -1.3335
 4592SOL     OW25237   0.892   3.672   4.413 -0.0632  0.6015 -0.4272
 4592SOL    HW125238   0.830   3.603   4.392 -0.1254  1.2048 -2.2398
 4592SOL    HW225239   0.841   3.733   4.467  0.3687  1.3427 -0.8550
 4593SOL     OW25240   0.603   2.150   4.102 -0.1051 -0.1053 -0.4245
 4593SOL    HW125241   0.621   2.080   4.165 -0.8590 -0.8885 -1.0729
 4593SOL    HW225242   0.509   2.141   4.086 -0.0067  0.9751 -1.6098
 4594SOL     OW25243   3.540   0.615   2.253  0.1486 -0.2899 -0.4325
 4594SOL    HW125244   3.513   0.679   2.187 -0.6601 -0.5862 -0.3931
 4594SOL    HW225245   3.487   0.648   2.326 -0.4352 -2.3241  0.0734
 4595SOL     OW25246   1.601   2.701  11.928  0.1540 -0.4766  0.2080
 4595SOL    HW125247   1.529   2.684  11.989 -0.8740  1.8246 -0.3716
 4595SOL    HW225248   1.598   2.611  11.895  1.3425 -0.1467 -0.7916
 4596SOL     OW25249   2.586   3.367  15.959 -0.0092 -0.7490 -0.3873
 4596SOL    HW125250   2.608   3.283  15.998 -0.7073 -0.4497  0.6570
 4596SOL    HW225251   2.513   3.343  15.903  1.1893  0.2660 -2.3780
 4597SOL     OW25252   0.591   4.250   1.073 -0.0133  0.7523  0.8450
 4597SOL    HW125253   0.499   4.274   1.060 -0.2657 -0.2652  0.7909
 4597SOL    HW225254   0.636   4.322   1.028  0.3540  0.2073  0.3473
 4598SOL     OW25255   3.855   1.564   7.585  0.4499  0.5172 -0.3204
 4598SOL    HW125256   3.842   1.612   7.503 -0.5311  1.3692  0.3343
 4598SOL    HW225257   3.909   1.496   7.545 -0.3481  0.1093 -0.6865
 4599SOL     OW25258   2.632   0.492  14.096 -0.6628 -0.7433  0.2470
 4599SOL    HW125259   2.635   0.584  14.072  0.5774 -1.4764 -2.4861
 4599SOL    HW225260   2.651   0.509  14.188 -2.1328 -1.1679  0.6316
 4600SOL     OW25261   0.117   1.658   6.268 -0.1829  0.5396 -0.2322
 4600SOL    HW125262   0.125   1.601   6.192  0.9694 -1.8608  1.7212
 4600SOL    HW225263   0.103   1.587   6.330  1.9016 -1.3564 -1.9506
 4601SOL     OW25264   3.102   1.552   7.764  0.8594 -0.2699  0.5679
 4601SOL    HW125265   3.016   1.580   7.794  0.7250  1.3126 -1.2554
 4601SOL    HW225266   3.145   1.523   7.844  0.5662  1.3560  1.3198
 4602SOL     OW25267   2.948   2.542   2.175 -0.0509 -0.2212  0.2617
 4602SOL    HW125268   2.900   2.618   2.208 -1.2388 -0.9942  0.2731
 4602SOL    HW225269   2.899   2.523   2.095  0.0473  3.8385 -0.7989
 4603SOL     OW25270   0.331   3.967   7.361 -0.2505  0.6444 -0.2598
 4603SOL    HW125271   0.252   3.989   7.411 -1.1809 -2.7107 -0.2401
 4603SOL    HW225272   0.385   4.043   7.382 -1.1362  1.2519 -0.1885
 4604SOL     OW25273   2.481   3.524  12.330  0.7746 -0.1307  0.1827
 4604SOL    HW125274   2.511   3.603  12.375 -2.6653 -0.1157  2.4022
 4604SOL    HW225275   2.567   3.500  12.295  0.6086 -1.6731  0.8288
 4605SOL     OW25276   1.040   4.218   1.606 -0.2395  0.3509  0.9875
 4605SOL    HW125277   1.071   4.130   1.585 -0.5182  0.4814  0.0335
 4605SOL    HW225278   1.116   4.268   1.576 -0.1622  0.7638  1.8715
 4606SOL     OW25279   1.832   0.272  10.486  0.1251  0.6730 -0.2642
 4606SOL    HW125280   1.903   0.331  10.510  1.2521  0.0031 -1.9253
 4606SOL    HW225281   1.878   0.190  10.504 -1.3333  0.0476  0.5132
 4607SOL     OW25282   0.775   3.383  13.371 -0.0254  0.2805 -0.1601
 4607SOL    HW125283   0.830   3.327  13.316  0.9958  2.7265 -1.6340
 4607SOL    HW225284   0.722   3.426  13.304  2.0423  1.5761 -0.9714
 4608SOL     OW25285   3.870   2.890  15.721 -0.5528  0.1164 -0.1258
 4608SOL    HW125286   3.922   2.821  15.761  1.6801  2.4098  0.9501
 4608SOL    HW225287   3.911   2.964  15.766  1.4587 -0.4827 -0.9977
 4609SOL     OW25288   2.170   1.161  17.289  0.2354 -0.3596  1.0139
 4609SOL    HW125289   2.215   1.229  17.239  2.2925 -0.6428  2.4695
 4609SOL    HW225290   2.106   1.219  17.331  0.2596  1.7676 -1.9229
 4610SOL     OW25291   2.168   2.432   9.850  0.0536 -0.5181  0.1948
 4610SOL    HW125292   2.168   2.434   9.945  1.1314 -2.2166  0.2246
 4610SOL    HW225293   2.144   2.341   9.832 -0.2100 -0.0704 -1.8177
 4611SOL     OW25294   1.952   1.819   4.803  0.1156 -0.3669 -0.3171
 4611SOL    HW125295   1.971   1.791   4.892  1.8455  0.6404 -0.3649
 4611SOL    HW225296   1.877   1.877   4.804  0.1374 -0.2709 -3.8503
 4612SOL     OW25297   2.098   0.428  11.871  0.4675 -0.3335 -0.4309
 4612SOL    HW125298   2.022   0.386  11.912 -0.5572 -0.0354 -2.0353
 4612SOL    HW225299   2.174   0.399  11.921  1.4069  0.8509 -1.1815
 4613SOL     OW25300   1.143   3.688  15.947  0.0197  0.4605  0.4412
 4613SOL    HW125301   1.110   3.602  15.974 -1.1821  0.1755 -1.8676
 4613SOL    HW225302   1.128   3.733  16.030 -1.1077  1.1595 -0.1360
 4614SOL     OW25303   1.593   0.574   5.960 -0.7055  0.5683 -0.2127
 4614SOL    HW125304   1.650   0.609   5.891 -0.0908  1.3486  0.6862
 4614SOL    HW225305   1.622   0.635   6.028 -0.5667 -0.5848  0.7586
 4615SOL     OW25306   2.692   0.407   3.559  0.4203  0.7659 -0.2958
 4615SOL    HW125307   2.706   0.404   3.464  0.6338 -1.7457 -0.2007
 4615SOL    HW225308   2.601   0.437   3.562  0.1406 -0.4306  2.9295
 4616SOL     OW25309   2.601   0.595  17.055  0.2688 -0.2396  0.4404
 4616SOL    HW125310   2.581   0.659  17.124 -0.0611  1.1879 -0.9923
 4616SOL    HW225311   2.562   0.515  17.089  1.0908 -0.8909 -0.1636
 4617SOL     OW25312   2.997   1.667   5.019 -0.2683 -0.1959 -0.5266
 4617SOL    HW125313   2.963   1.644   5.105  1.2850  3.8902  1.1711
 4617SOL    HW225314   3.077   1.616   5.012 -1.1761 -1.6439 -0.4038
 4618SOL     OW25315   1.156   2.925   8.604  0.3793  0.1293  0.1063
 4618SOL    HW125316   1.233   2.885   8.564  1.2368  0.8431  1.0256
 4618SOL    HW225317   1.140   3.008   8.561  0.4761 -1.0211 -2.1485
 4619SOL     OW25318   0.670   3.847  13.481 -0.5158 -0.5802 -0.0047
 4619SOL    HW125319   0.682   3.905  13.556 -2.4157  0.3365 -0.4034
 4619SOL    HW225320   0.583   3.878  13.457  0.2065  0.4523 -1.3328
 4620SOL     OW25321   0.212   2.324  16.174 -0.2347  0.3986 -0.0620
 4620SOL    HW125322   0.210   2.343  16.080 -0.7101 -0.3593 -0.2029
 4620SOL    HW225323   0.158   2.396  16.208 -0.8198 -0.9463  1.8451
 4621SOL     OW25324   4.037   1.426   6.996 -0.1427 -0.2824  0.6651
 4621SOL    HW125325   3.953   1.425   6.952  0.2901 -0.8242 -0.1458
 4621SOL    HW225326   4.064   1.335   7.000 -1.2312 -0.5930  0.8271
 4622SOL     OW25327   2.594   3.596   7.303  0.3316  0.4512  0.4235
 4622SOL    HW125328   2.686   3.591   7.278  0.4030  0.3087  0.7068
 4622SOL    HW225329   2.613   3.581   7.396  1.5362  1.0677  0.2756
 4623SOL     OW25330   1.135   3.581   0.864 -0.2093  0.3069  0.3153
 4623SOL    HW125331   1.121   3.631   0.784  0.0522  0.5707  0.4340
 4623SOL    HW225332   1.181   3.506   0.826  0.5521  1.0471 -0.2068
 4624SOL     OW25333   3.797   1.985   5.934  0.6363 -0.4338 -0.6260
 4624SOL    HW125334   3.774   2.061   5.881 -1.6792 -1.6825 -1.3953
 4624SOL    HW225335   3.823   1.925   5.864 -0.4263 -0.6090 -0.8621
 4625SOL     OW25336   1.729   3.627  17.447  0.2523  0.1213  0.0535
 4625SOL    HW125337   1.652   3.682  17.460  0.7282  0.2498  2.2057
 4625SOL    HW225338   1.683   3.543  17.453  0.6098 -0.0342  0.5947
 4626SOL     OW25339   4.606   0.323   7.843 -0.0619 -0.0718  0.1378
 4626SOL    HW125340   4.597   0.413   7.873 -0.0431  0.2691 -0.8536
 4626SOL    HW225341   4.647   0.279   7.917 -0.8278  0.4160  0.8368
 4627SOL     OW25342   3.344   4.096   7.710 -0.1493  0.0254  0.1990
 4627SOL    HW125343   3.258   4.058   7.728  0.8538 -1.1941  2.4421
 4627SOL    HW225344   3.353   4.144   7.792 -1.9051  1.2727 -0.3512
 4628SOL     OW25345   3.811   3.077   4.980 -0.3643  0.6283 -0.7103
 4628SOL    HW125346   3.904   3.071   5.004 -0.6758  2.1600  0.8255
 4628SOL    HW225347   3.794   3.170   4.994 -0.6337  0.2590  1.3919
 4629SOL     OW25348   0.310   0.393   4.486  0.2712 -0.5340  0.2701
 4629SOL    HW125349   0.359   0.470   4.513 -0.2551  1.0318 -3.3115
 4629SOL    HW225350   0.221   0.405   4.520  0.6300 -1.0457  1.3720
 4630SOL     OW25351   2.200   3.953   6.787  0.2678  0.4979 -0.4019
 4630SOL    HW125352   2.173   3.865   6.763 -0.1188  0.7652 -0.9452
 4630SOL    HW225353   2.234   3.939   6.876  0.0788  1.8695 -0.1049
 4631SOL     OW25354   3.921   1.207   6.781  0.5631 -0.4169  0.0783
 4631SOL    HW125355   3.849   1.186   6.721 -0.4912 -0.7802  1.4651
 4631SOL    HW225356   3.863   1.245   6.848  0.8601  1.0694 -0.5221
 4632SOL     OW25357   0.524   4.161   1.654  0.2584  0.3472  0.4212
 4632SOL    HW125358   0.532   4.213   1.574 -0.2944  0.9028  0.7234
 4632SOL    HW225359   0.431   4.138   1.651  0.8071 -2.4418  4.2845
 4633SOL     OW25360   1.170   0.793   6.777 -0.6603 -0.1931  0.2381
 4633SOL    HW125361   1.179   0.718   6.837  2.1194  0.4844  0.6777
 4633SOL    HW225362   1.115   0.849   6.832 -0.8495  1.2406 -1.4163
 4634SOL     OW25363   2.050   0.729   3.511  0.3800 -0.4923  0.4128
 4634SOL    HW125364   2.093   0.800   3.462  0.7706  0.7822  2.6014
 4634SOL    HW225365   2.029   0.773   3.594 -0.1041 -0.9021  0.5024
 4635SOL     OW25366   0.733   2.459  10.886  0.2132 -0.4607  0.5080
 4635SOL    HW125367   0.824   2.444  10.858  0.2513  0.3145  0.2064
 4635SOL    HW225368   0.687   2.388  10.842 -0.2911  0.4881 -0.4752
 4636SOL     OW25369   0.423   3.198   0.487  0.3726 -0.4495  0.2380
 4636SOL    HW125370   0.331   3.218   0.503  0.0573 -0.1005 -1.9484
 4636SOL    HW225371   0.423   3.272   0.426 -1.7330 -2.2774 -1.9680
 4637SOL     OW25372   0.562   3.900   1.003 -0.2026 -0.4858 -0.6161
 4637SOL    HW125373   0.514   3.918   1.084 -1.3937 -1.8946 -1.0137
 4637SOL    HW225374   0.584   3.807   1.004  0.9995 -0.2071  0.5139
 4638SOL     OW25375   0.767   2.971  10.904 -0.4695 -0.2877  0.2785
 4638SOL    HW125376   0.753   3.064  10.886  0.8617 -0.5373 -2.0290
 4638SOL    HW225377   0.862   2.968  10.904 -0.4549  0.0750 -0.1507
 4639SOL     OW25378   2.498   2.928   6.253 -0.3181  0.1963  0.0487
 4639SOL    HW125379   2.422   2.929   6.195 -1.2446  1.0131  1.2927
 4639SOL    HW225380   2.510   3.018   6.282  0.6638  0.4588 -1.1450
 4640SOL     OW25381   4.374   3.510   4.897  0.1908  0.3035 -0.6865
 4640SOL    HW125382   4.441   3.443   4.884  0.9040  0.2486  3.1079
 4640SOL    HW225383   4.378   3.507   4.993 -0.3599  1.2203 -0.6383
 4641SOL     OW25384   0.722   0.148   8.496  0.3242  0.1175 -0.2829
 4641SOL    HW125385   0.640   0.111   8.528 -0.5380  0.9642 -1.5230
 4641SOL    HW225386   0.721   0.241   8.520  2.3816 -0.0150  0.3332
 4642SOL     OW25387   4.411   4.014  13.380 -0.2151  0.0920 -0.5383
 4642SOL    HW125388   4.477   4.059  13.432 -0.7770 -0.0092  0.2719
 4642SOL    HW225389   4.379   4.086  13.326 -0.2291  1.3805  1.1965
 4643SOL     OW25390   0.809   1.774  14.595 -0.1154  0.1623  0.3018
 4643SOL    HW125391   0.773   1.740  14.514  0.0701 -0.2687  0.4009
 4643SOL    HW225392   0.876   1.706  14.602  0.2255  0.4364 -0.3617
 4644SOL     OW25393   2.883   3.795   6.055  0.7174 -0.0098  0.0761
 4644SOL    HW125394   2.822   3.742   6.106  1.8284  0.9185  2.3786
 4644SOL    HW225395   2.957   3.811   6.113 -0.2079  0.8858  1.0208
 4645SOL     OW25396   0.958   0.019   6.975 -0.1085  0.0667 -0.3597
 4645SOL    HW125397   0.870   0.056   6.967 -0.8249 -1.3143  1.3771
 4645SOL    HW225398   1.001   0.100   7.003  2.5265 -1.1666 -0.8196
 4646SOL     OW25399   3.695   2.576   8.545  0.3886  0.3397  0.1459
 4646SOL    HW125400   3.788   2.566   8.522 -0.4317 -1.5613 -2.3329
 4646SOL    HW225401   3.700   2.651   8.604  5.0877 -0.2252  0.4775
 4647SOL     OW25402   1.247   0.643   3.716 -0.9926  0.8040  0.3813
 4647SOL    HW125403   1.271   0.664   3.806  0.9456 -1.0039  0.2840
 4647SOL    HW225404   1.197   0.719   3.688  0.6256  0.3014 -3.9203
 4648SOL     OW25405   2.536   0.270   3.781 -0.6955 -0.1984  0.6804
 4648SOL    HW125406   2.529   0.176   3.794 -2.3656 -0.2312 -0.2948
 4648SOL    HW225407   2.444   0.286   3.802 -1.1580 -1.3512 -0.4786
 4649SOL     OW25408   2.541   3.181  16.287  0.4581  0.3146 -0.2934
 4649SOL    HW125409   2.605   3.166  16.357  0.6932 -1.9281 -0.9728
 4649SOL    HW225410   2.599   3.244  16.244  1.3150  0.7588  1.4940
 4650SOL     OW25411   3.894   2.389   5.960 -0.2322 -0.0462 -0.2210
 4650SOL    HW125412   3.921   2.478   5.939  2.4191 -1.3728 -2.4757
 4650SOL    HW225413   3.869   2.404   6.051  0.0856 -0.6716 -0.0258
 4651SOL     OW25414   3.938   4.194   6.529 -0.1312 -0.1244 -0.0046
 4651SOL    HW125415   3.918   4.285   6.550  2.1566  0.2051  0.6522
 4651SOL    HW225416   3.859   4.150   6.496 -0.0059  1.1086 -1.8935
 4652SOL     OW25417   3.939   3.585   2.413  0.4032 -0.0353 -0.3064
 4652SOL    HW125418   3.936   3.500   2.368  1.5152 -0.5756  0.6379
 4652SOL    HW225419   4.032   3.597   2.429 -0.2251  0.5346  2.8803
 4653SOL     OW25420   0.289   2.303   2.467 -0.3478  0.1300  0.3358
 4653SOL    HW125421   0.303   2.389   2.506  0.4739 -0.4776  1.3670
 4653SOL    HW225422   0.337   2.311   2.385 -3.5828 -1.4160 -1.7545
 4654SOL     OW25423   2.197   0.159   2.348  0.0223 -0.1610  0.1566
 4654SOL    HW125424   2.154   0.237   2.313 -0.1967 -0.1893  0.3648
 4654SOL    HW225425   2.129   0.095   2.327  0.3227 -1.0451  1.9838
 4655SOL     OW25426   1.896   4.219  13.364  0.0255 -0.1426  0.4629
 4655SOL    HW125427   1.840   4.194  13.290  0.0905 -0.2913  0.4653
 4655SOL    HW225428   1.837   4.275  13.415 -0.5087 -0.8260  0.5948
 4656SOL     OW25429   0.857   0.063   0.782  0.3742  0.5561 -0.1026
 4656SOL    HW125430   0.915   4.723   0.824  0.5325  0.9756  0.3258
 4656SOL    HW225431   0.882   0.052   0.691  2.9763  1.4007  0.5273
 4657SOL     OW25432   4.143   0.210   4.110  0.1982  0.1693  0.0695
 4657SOL    HW125433   4.202   0.253   4.172  2.2321 -0.4344 -1.4269
 4657SOL    HW225434   4.190   0.207   4.026  1.1457 -0.2914  0.6256
 4658SOL     OW25435   1.624   2.513   2.226 -0.0018 -0.2539 -0.3264
 4658SOL    HW125436   1.654   2.423   2.214  1.1094 -0.0479  0.8926
 4658SOL    HW225437   1.620   2.542   2.135  0.9385 -1.0798 -0.6295
 4659SOL     OW25438   0.123   1.192   8.354  0.2558 -0.3121  0.2137
 4659SOL    HW125439   0.126   1.248   8.432  0.2225  1.0547 -0.7717
 4659SOL    HW225440   0.031   1.187   8.326  0.3912 -0.5905 -0.1829
 4660SOL     OW25441   0.992   2.422   5.422  0.6468  0.0049 -0.4727
 4660SOL    HW125442   0.933   2.477   5.475 -0.8672 -0.5253 -1.5886
 4660SOL    HW225443   0.937   2.344   5.407  1.0777 -0.9679  2.9583
 4661SOL     OW25444   0.014   2.861   7.393  0.0842  0.0906 -0.5890
 4661SOL    HW125445   4.683   2.783   7.397 -0.2351  0.4094  1.5030
 4661SOL    HW225446   0.082   2.837   7.330  1.6306  0.4667  0.9050
 4662SOL     OW25447   1.189   3.894   5.444 -0.1811 -0.2211  0.1281
 4662SOL    HW125448   1.239   3.813   5.437  0.0702  0.0110 -0.7974
 4662SOL    HW225449   1.196   3.912   5.537 -0.8393  1.7141 -0.1837
 4663SOL     OW25450   2.905   2.785   1.926  0.2498 -0.2227 -0.5791
 4663SOL    HW125451   2.872   2.772   2.015 -0.0463  3.0800 -0.2134
 4663SOL    HW225452   2.839   2.743   1.871  0.4274 -1.8628  0.4718
 4664SOL     OW25453   1.557   3.322   3.134  0.2483  0.2151 -0.3176
 4664SOL    HW125454   1.471   3.282   3.151  0.2372  0.7410  0.8213
 4664SOL    HW225455   1.601   3.310   3.218  0.2858 -0.7324 -0.4739
 4665SOL     OW25456   0.152   3.259   1.596 -0.4226  0.3297 -0.3620
 4665SOL    HW125457   0.162   3.243   1.689  0.7257  0.1766 -0.5121
 4665SOL    HW225458   0.067   3.217   1.583 -1.0721  2.2375 -2.2181
 4666SOL     OW25459   1.083   0.257   5.062 -0.4053 -0.4780 -0.2382
 4666SOL    HW125460   1.005   0.206   5.042 -0.7088  0.6197 -1.8592
 4666SOL    HW225461   1.110   0.272   4.971  0.2426  2.1828  0.3904
 4667SOL     OW25462   2.389   4.141   0.317  0.1629  0.2546  0.3163
 4667SOL    HW125463   2.299   4.139   0.286  1.3820 -0.9924 -3.2120
 4667SOL    HW225464   2.362   4.179   0.400 -1.9238 -1.3779  0.3639
 4668SOL     OW25465   2.575   3.009   3.648 -0.2575 -0.2387  0.1663
 4668SOL    HW125466   2.551   2.963   3.568 -0.4139  0.6682 -0.3047
 4668SOL    HW225467   2.661   3.046   3.626  0.5146 -2.1335  0.0165
 4669SOL     OW25468   2.694   0.673   9.535  0.0619 -0.1030  0.0315
 4669SOL    HW125469   2.604   0.705   9.526 -0.2752 -1.2543 -0.6346
 4669SOL    HW225470   2.686   0.578   9.526 -3.3339  0.2642 -0.9594
 4670SOL     OW25471   2.913   4.261   9.711  0.3210  0.1190  0.2187
 4670SOL    HW125472   2.835   4.294   9.757  0.3030 -0.5707  0.6755
 4670SOL    HW225473   2.943   4.334   9.657 -1.7002  0.7793 -0.0212
 4671SOL     OW25474   1.167   4.314   5.984  0.1363 -0.3981 -0.1956
 4671SOL    HW125475   1.176   4.363   5.902 -2.6183 -0.7349 -0.6719
 4671SOL    HW225476   1.074   4.293   5.976 -0.2169  1.3200 -0.4396
 4672SOL     OW25477   0.178   2.045   8.755 -0.1215 -0.3220 -0.0047
 4672SOL    HW125478   0.100   2.078   8.710 -0.4618  1.8492  2.1377
 4672SOL    HW225479   0.237   2.065   8.682 -0.7535  1.2376 -0.0849
 4673SOL     OW25480   2.315   0.072   9.834  0.6840  0.1858 -0.1911
 4673SOL    HW125481   2.385   0.112   9.782 -0.3920  2.2741 -0.0753
 4673SOL    HW225482   2.252   0.041   9.769 -0.6450 -0.5692  1.4647
 4674SOL     OW25483   0.184   1.885   5.040 -0.1953  0.2010 -0.2330
 4674SOL    HW125484   0.259   1.829   5.019  0.6545  0.6363  1.5972
 4674SOL    HW225485   0.222   1.963   5.080  1.6458 -1.6198  1.5517
 4675SOL     OW25486   4.599   1.826   8.581 -0.1014  0.2460 -0.0015
 4675SOL    HW125487   4.603   1.731   8.590  1.8330  0.2562 -0.7159
 4675SOL    HW225488   4.637   1.855   8.664  0.1928 -2.7454  0.9100
 4676SOL     OW25489   0.008   1.426  11.920 -0.4571  0.3270  0.4984
 4676SOL    HW125490   4.674   1.359  11.882 -0.5231  2.0369 -2.3922
 4676SOL    HW225491   0.094   1.405  11.884  0.2224 -0.1257  2.3926
 4677SOL     OW25492   2.973   0.477   4.570  0.5383 -0.0847 -0.6265
 4677SOL    HW125493   3.028   0.415   4.521 -1.0120 -0.3866 -1.9617
 4677SOL    HW225494   2.943   0.537   4.502 -1.6810 -0.1643  0.3040
 4678SOL     OW25495   2.507   3.995   3.489  0.5157 -0.7402  0.1063
 4678SOL    HW125496   2.514   3.906   3.454  0.9566 -0.0203 -1.6668
 4678SOL    HW225497   2.439   4.037   3.436  1.3848  1.0977  0.4564
 4679SOL     OW25498   1.619   2.590   1.956  0.6548 -0.0398  0.2454
 4679SOL    HW125499   1.687   2.657   1.960 -1.4134  2.1356 -0.4176
 4679SOL    HW225500   1.658   2.511   1.920 -0.3182 -0.1626 -0.5452
 4680SOL     OW25501   2.813   3.252   7.429  0.0017 -0.1533 -0.0691
 4680SOL    HW125502   2.879   3.315   7.457  1.7243 -1.6476 -0.6981
 4680SOL    HW225503   2.782   3.231   7.517  2.0307  0.2399  0.7577
 4681SOL     OW25504   4.026   2.285   3.540 -0.3405  0.1510 -0.1623
 4681SOL    HW125505   4.101   2.343   3.555 -1.0220  0.6356  1.2857
 4681SOL    HW225506   4.068   2.227   3.475 -2.3921 -1.6344  0.0928
 4682SOL     OW25507   2.445   3.919   0.619  0.5448 -0.4096 -0.5530
 4682SOL    HW125508   2.491   3.997   0.588 -0.2727 -0.5101 -1.9838
 4682SOL    HW225509   2.418   3.882   0.535  3.0131 -1.0011 -1.0924
 4683SOL     OW25510   3.457   2.497  14.151  0.2589 -0.0131 -0.3818
 4683SOL    HW125511   3.535   2.459  14.109  0.5266 -1.1580  1.1713
 4683SOL    HW225512   3.487   2.588  14.157  0.1264 -0.0130  0.2283
 4684SOL     OW25513   3.715   4.044   5.931  0.1603 -0.0153 -1.3321
 4684SOL    HW125514   3.784   4.107   5.914 -1.3519  2.3638  1.2425
 4684SOL    HW225515   3.650   4.069   5.866 -0.7151  1.8707  0.2575
 4685SOL     OW25516   2.326   0.079   5.938 -0.4908  0.0888 -0.2784
 4685SOL    HW125517   2.420   0.089   5.952 -0.2229 -0.0370 -1.9916
 4685SOL    HW225518   2.300   4.717   5.968  1.0988  0.1127  1.1514
 4686SOL     OW25519   3.261   2.376  15.590  0.3908 -0.3264  0.1121
 4686SOL    HW125520   3.267   2.281  15.601 -2.4315 -0.5267 -0.0555
 4686SOL    HW225521   3.243   2.382  15.497  1.6405  0.1353 -0.0980
 4687SOL     OW25522   1.785   2.196  16.655  0.0089 -0.4021  0.1475
 4687SOL    HW125523   1.690   2.196  16.662 -0.0424  1.5396 -0.6530
 4687SOL    HW225524   1.809   2.268  16.713  0.6204 -0.6410  0.1897
 4688SOL     OW25525   0.919   1.427  12.779  0.1014  0.4836 -0.1380
 4688SOL    HW125526   0.966   1.447  12.698  0.7234  0.3482  0.1917
 4688SOL    HW225527   0.961   1.345  12.805 -0.9827 -0.0218  0.0261
 4689SOL     OW25528   4.356   3.598   1.892 -0.4940  0.0667  0.8526
 4689SOL    HW125529   4.322   3.626   1.977  0.5872  2.8690  0.3490
 4689SOL    HW225530   4.312   3.664   1.839  0.3789 -0.4514 -0.5069
 4690SOL     OW25531   4.433   3.369   3.708 -0.7118 -0.5473  0.4466
 4690SOL    HW125532   4.341   3.360   3.734 -0.0166  0.8090  3.3530
 4690SOL    HW225533   4.428   3.434   3.638  3.0999 -2.0857 -1.2578
 4691SOL     OW25534   0.206   0.072   8.602 -0.1086  0.2460 -0.0941
 4691SOL    HW125535   0.164   0.134   8.662  0.4827 -0.4002  0.9959
 4691SOL    HW225536   0.127   0.022   8.583 -0.7327  0.9174  0.6878
 4692SOL     OW25537   0.575   1.082   6.712  0.3084 -0.4645  0.1205
 4692SOL    HW125538   0.569   1.128   6.628 -1.6926  0.5504  0.8336
 4692SOL    HW225539   0.483   1.080   6.737  0.7460 -2.1441  1.5709
 4693SOL     OW25540   1.275   3.055  16.827 -0.2434 -0.0561  0.4986
 4693SOL    HW125541   1.199   3.005  16.858 -0.0958  0.0672  1.0651
 4693SOL    HW225542   1.253   3.085  16.739 -3.4797  0.7992  1.5888
 4694SOL     OW25543   0.330   3.898   0.840  0.0518  0.1079 -0.3949
 4694SOL    HW125544   0.416   3.920   0.878  0.1204  0.6149 -0.8442
 4694SOL    HW225545   0.287   3.882   0.924 -0.1748  2.6248 -0.0253
 4695SOL     OW25546   3.863   1.992   9.313  0.3102  0.7187  0.7988
 4695SOL    HW125547   3.934   1.979   9.376 -0.0720  0.9730  1.2788
 4695SOL    HW225548   3.791   1.960   9.368 -1.9132 -0.8264 -3.0155
 4696SOL     OW25549   4.076   3.798   1.188 -0.6134  0.0734 -0.1098
 4696SOL    HW125550   4.078   3.731   1.257 -2.9148 -0.8779 -0.9387
 4696SOL    HW225551   4.047   3.875   1.236  0.0830 -1.5247  2.9205
 4697SOL     OW25552   0.708   4.163   9.981 -0.7210 -0.4102  0.1366
 4697SOL    HW125553   0.795   4.125   9.968 -0.8216 -0.1183 -1.3795
 4697SOL    HW225554   0.665   4.148   9.897  2.8223 -0.9707 -1.5916
 4698SOL     OW25555   4.433   1.506   1.159  0.1903  0.7252  0.1188
 4698SOL    HW125556   4.388   1.429   1.194 -1.0434  0.3439 -2.2973
 4698SOL    HW225557   4.377   1.560   1.102 -1.1088 -0.3648  0.3549
 4699SOL     OW25558   4.469   2.485   9.640 -0.1422 -0.6326 -0.1603
 4699SOL    HW125559   4.446   2.396   9.667  0.3548 -0.6411  0.2351
 4699SOL    HW225560   4.536   2.458   9.577 -0.5962 -0.8439 -0.5509
 4700SOL     OW25561   3.484   4.684   4.154  0.0439 -0.1245  0.7819
 4700SOL    HW125562   3.401   4.653   4.192 -0.8688 -0.2849 -1.3464
 4700SOL    HW225563   3.541   4.666   4.229  2.5201 -0.1644 -1.1160
 4701SOL     OW25564   1.319   2.044   5.848  0.0337 -0.3959  0.7087
 4701SOL    HW125565   1.368   2.029   5.928  0.0141 -1.0365  0.6046
 4701SOL    HW225566   1.388   2.071   5.787  0.8205 -0.2226  1.6831
 4702SOL     OW25567   2.441   1.343   2.735 -0.1450  0.2024 -0.8496
 4702SOL    HW125568   2.384   1.418   2.721 -1.6395 -0.5559  1.0893
 4702SOL    HW225569   2.517   1.384   2.776 -0.4566  1.1769 -1.2697
 4703SOL     OW25570   1.919   1.137   9.121 -0.1844 -0.1017 -0.3575
 4703SOL    HW125571   1.918   1.180   9.207  0.5212  0.3086 -0.5576
 4703SOL    HW225572   1.863   1.060   9.136  2.8302 -2.1658  0.1727
 4704SOL     OW25573   0.533   3.504   7.301 -0.2249  0.3446  0.2987
 4704SOL    HW125574   0.561   3.595   7.312  2.9741 -0.5692 -0.1626
 4704SOL    HW225575   0.510   3.482   7.392 -0.3284  0.5935  0.3325
 4705SOL     OW25576   3.875   2.337  14.935 -0.3719  0.3806 -0.5450
 4705SOL    HW125577   3.940   2.293  14.990 -0.0458  2.6918  0.9167
 4705SOL    HW225578   3.930   2.399  14.888 -1.0481  0.4475 -1.2458
 4706SOL     OW25579   3.139   4.261   8.194  0.2101  0.2151 -0.0432
 4706SOL    HW125580   3.044   4.266   8.194  0.1396 -0.8991 -3.0411
 4706SOL    HW225581   3.152   4.342   8.145 -2.9149  0.1447 -0.9873
 4707SOL     OW25582   0.668   0.099   3.082 -0.0501  0.7065 -0.2438
 4707SOL    HW125583   0.726   0.053   3.022 -0.0605  3.2242 -2.2046
 4707SOL    HW225584   0.709   0.083   3.167 -1.0453  2.1143  0.5131
 4708SOL     OW25585   1.027   1.302   8.035  0.2887 -0.1684 -0.2029
 4708SOL    HW125586   0.996   1.251   8.110  0.3273  1.6613  1.0381
 4708SOL    HW225587   1.032   1.391   8.068  1.4314 -0.3432  0.1046
 4709SOL     OW25588   1.951   3.121   2.022 -0.3085  0.1094  0.4536
 4709SOL    HW125589   1.902   3.183   2.076 -0.8462 -0.1574  0.2740
 4709SOL    HW225590   1.884   3.080   1.968  1.5338 -0.9753 -1.0319
 4710SOL     OW25591   2.527   1.156  15.727 -0.8287 -0.7107  0.3135
 4710SOL    HW125592   2.470   1.082  15.748 -0.6281 -0.5128  1.5654
 4710SOL    HW225593   2.474   1.230  15.759 -0.9818 -0.9102  0.5175
 4711SOL     OW25594   3.345   2.464  13.396 -0.3163  0.6208  0.1812
 4711SOL    HW125595   3.322   2.371  13.394  0.6990  0.4211 -1.7417
 4711SOL    HW225596   3.415   2.467  13.462  0.0999 -1.5876 -0.1541
 4712SOL     OW25597   2.889   0.418   3.073 -0.3267  0.1951 -0.6884
 4712SOL    HW125598   2.891   0.446   2.981 -0.5550 -3.9285 -1.9642
 4712SOL    HW225599   2.796   0.413   3.093 -0.1416 -0.4773 -0.0258
 4713SOL     OW25600   1.833   0.867   2.531  0.2866 -0.1260 -0.2233
 4713SOL    HW125601   1.847   0.961   2.521  0.6678 -0.0380  1.1538
 4713SOL    HW225602   1.921   0.840   2.504 -0.6585 -2.9626 -0.4692
 4714SOL     OW25603   4.290   4.371   6.633  0.1184 -0.4156  0.1423
 4714SOL    HW125604   4.220   4.431   6.607 -1.2477 -1.5169  1.3133
 4714SOL    HW225605   4.276   4.387   6.727 -0.3666  0.6228 -0.1012
 4715SOL     OW25606   4.265   1.582   7.378  0.1042  0.5194 -0.2000
 4715SOL    HW125607   4.244   1.655   7.319  2.6303  1.5148  0.1511
 4715SOL    HW225608   4.292   1.637   7.451  1.7439 -1.4825  0.7027
 4716SOL     OW25609   0.692   1.704   7.251  0.4498  0.0581 -0.4394
 4716SOL    HW125610   0.659   1.622   7.287  0.2957 -0.1639 -1.0941
 4716SOL    HW225611   0.787   1.690   7.248  0.2631 -2.0341  3.1282
 4717SOL     OW25612   2.145   3.384  13.438  0.3317  0.0644 -0.0010
 4717SOL    HW125613   2.200   3.458  13.413  1.4565 -0.2985  1.3513
 4717SOL    HW225614   2.183   3.375  13.526  0.4538 -1.1072 -0.1630
 4718SOL     OW25615   3.519   3.876   2.952  0.6552  0.4536  0.6288
 4718SOL    HW125616   3.438   3.825   2.962  0.7917 -0.1589 -1.3016
 4718SOL    HW225617   3.481   3.955   2.914  0.6192 -1.1684 -2.7768
 4719SOL     OW25618   2.538   1.294   7.086  0.3163 -0.2614  0.1715
 4719SOL    HW125619   2.573   1.229   7.025 -0.1607 -2.6936  2.4995
 4719SOL    HW225620   2.470   1.247   7.135 -0.4679  0.9615  0.2792
 4720SOL     OW25621   3.171   0.849  17.220 -0.5024  0.4693 -0.0227
 4720SOL    HW125622   3.148   0.768  17.265  0.3395  0.2316 -0.0236
 4720SOL    HW225623   3.215   0.811  17.144 -1.5619 -1.4709  0.3482
 4721SOL     OW25624   0.416   0.340   5.527 -0.2142  0.0052  0.6383
 4721SOL    HW125625   0.484   0.274   5.511  0.8888  0.4766  3.3138
 4721SOL    HW225626   0.331   0.297   5.525  0.9219 -2.1470 -0.7410
 4722SOL     OW25627   3.816   2.782  13.289  0.2145  0.4909  0.4362
 4722SOL    HW125628   3.876   2.708  13.290  1.3414  1.4137  1.4607
 4722SOL    HW225629   3.761   2.770  13.212  0.9712 -4.6246  0.6870
 4723SOL     OW25630   1.416   2.114   3.283  0.1395 -0.0576 -0.3727
 4723SOL    HW125631   1.447   2.176   3.217  0.7358 -0.3500 -0.3666
 4723SOL    HW225632   1.382   2.049   3.221  0.6568 -0.4213 -0.2734
 4724SOL     OW25633   0.855   1.601  12.968  0.5435  0.1313  0.1381
 4724SOL    HW125634   0.898   1.566  13.047 -0.3937  0.8030  0.9447
 4724SOL    HW225635   0.843   1.521  12.917 -2.3206 -0.1182  1.2269
 4725SOL     OW25636   2.572   2.444  16.677  0.6689 -0.2912  0.4683
 4725SOL    HW125637   2.547   2.498  16.752 -0.9309 -2.6847  1.6896
 4725SOL    HW225638   2.666   2.434  16.689  1.2950  1.4041 -3.0676
 4726SOL     OW25639   3.602   1.184   3.788  0.2690 -0.0273 -0.1760
 4726SOL    HW125640   3.620   1.219   3.700 -0.2380 -1.8411 -0.9873
 4726SOL    HW225641   3.670   1.117   3.791 -0.6242 -0.9214 -0.1551
 4727SOL     OW25642   0.897   3.237  16.254 -0.0720 -0.2464  0.3681
 4727SOL    HW125643   0.856   3.323  16.252  0.8191  0.1487 -1.1801
 4727SOL    HW225644   0.962   3.243  16.324 -1.4810  1.8902  1.4657
 4728SOL     OW25645   2.648   0.649   8.355  0.0296 -0.2040 -0.0402
 4728SOL    HW125646   2.729   0.598   8.360  0.6274  0.6055 -1.4288
 4728SOL    HW225647   2.578   0.587   8.376 -0.5825  0.4422 -0.1557
 4729SOL     OW25648   3.759   1.734   3.263 -0.3005 -0.5335  0.1506
 4729SOL    HW125649   3.824   1.664   3.267 -0.4172 -0.7833 -2.8849
 4729SOL    HW225650   3.714   1.702   3.185 -3.4645  1.1159  1.2774
 4730SOL     OW25651   2.527   3.211   1.439  0.3881  0.1329  0.2357
 4730SOL    HW125652   2.506   3.128   1.481 -1.6989  0.4431 -0.2114
 4730SOL    HW225653   2.493   3.194   1.351  1.0115  0.5157 -0.0800
 4731SOL     OW25654   2.131   1.199  15.268 -0.0742  0.0888 -0.2761
 4731SOL    HW125655   2.135   1.144  15.346  1.5062  0.2872 -0.2195
 4731SOL    HW225656   2.038   1.222  15.275 -0.6635 -2.5343  0.5880
 4732SOL     OW25657   0.713   4.355   9.604 -0.4687  0.5173 -0.3279
 4732SOL    HW125658   0.682   4.404   9.528  2.8265  0.3774 -1.7777
 4732SOL    HW225659   0.754   4.280   9.559  0.3224 -0.6730  2.3572
 4733SOL     OW25660   1.792   3.710   4.044 -0.7879 -0.1264 -0.0337
 4733SOL    HW125661   1.748   3.748   3.968 -1.1305  0.8192  0.6371
 4733SOL    HW225662   1.752   3.762   4.114 -0.4292  0.0279  0.0601
 4734SOL     OW25663   2.462   3.923   1.585 -0.3537  0.6876 -0.0241
 4734SOL    HW125664   2.526   3.926   1.657  1.6410 -0.2277 -1.7493
 4734SOL    HW225665   2.446   4.016   1.578 -0.1885  0.6433 -0.9491
 4735SOL     OW25666   2.878   1.551   9.006  0.2431 -0.2595  0.4778
 4735SOL    HW125667   2.801   1.605   9.022  1.6626  1.5203  1.2762
 4735SOL    HW225668   2.892   1.536   9.099 -1.4143 -1.3337  0.5648
 4736SOL     OW25669   1.180   4.368   8.208 -0.2264 -0.4565  0.4323
 4736SOL    HW125670   1.121   4.345   8.137  0.8331 -0.8095 -0.3425
 4736SOL    HW225671   1.140   4.315   8.277 -0.6596  1.9096  1.9763
 4737SOL     OW25672   1.764   1.525  11.706 -0.4255 -0.0476 -0.0966
 4737SOL    HW125673   1.814   1.577  11.769  0.1320 -0.8062  0.0867
 4737SOL    HW225674   1.794   1.571  11.628  0.1754  1.3632  0.9593
 4738SOL     OW25675   4.011   3.130  11.124 -0.0625 -0.4103  0.1267
 4738SOL    HW125676   3.970   3.117  11.038 -2.7803  3.1906  0.9076
 4738SOL    HW225677   4.103   3.128  11.098  0.4077 -0.2592  1.7843
 4739SOL     OW25678   3.752   0.792  17.504 -0.4167 -0.0022 -0.6623
 4739SOL    HW125679   3.695   0.819  17.575  1.7803 -0.5475  1.3065
 4739SOL    HW225680   3.720   0.844  17.430  0.2822  1.9866  0.4401
 4740SOL     OW25681   4.270   0.951   2.938 -0.2695 -0.0934 -0.3357
 4740SOL    HW125682   4.285   1.045   2.927 -1.7087  0.1482 -0.2377
 4740SOL    HW225683   4.175   0.951   2.949 -0.4618 -1.0776 -1.8616
 4741SOL     OW25684   4.351   4.166   6.918 -0.2337 -0.0980 -0.4773
 4741SOL    HW125685   4.332   4.103   6.847 -0.8414  0.9783 -1.2694
 4741SOL    HW225686   4.294   4.124   6.982  1.4639 -0.4037  0.8184
 4742SOL     OW25687   1.480   1.673  16.042  0.4163 -0.6688 -0.4817
 4742SOL    HW125688   1.425   1.698  15.967 -0.6118  2.4104  1.2846
 4742SOL    HW225689   1.566   1.712  16.026 -0.4516  1.1525 -0.6890
 4743SOL     OW25690   1.858   0.930   8.235  0.1263  0.2873 -0.5561
 4743SOL    HW125691   1.846   1.021   8.208 -0.9326  0.4708  0.4940
 4743SOL    HW225692   1.834   0.883   8.155  1.6925 -0.3606 -0.6376
 4744SOL     OW25693   0.727   3.899   2.330  0.2964 -0.2735  0.2982
 4744SOL    HW125694   0.783   3.860   2.263 -1.6148 -0.6250 -1.0979
 4744SOL    HW225695   0.740   3.826   2.391 -1.1640  0.4426  1.4737
 4745SOL     OW25696   4.601   3.440   3.973 -0.0587  0.1218  0.1711
 4745SOL    HW125697   4.550   3.428   3.892  1.1534  3.5346 -1.1089
 4745SOL    HW225698   4.525   3.457   4.029 -0.3404  0.3786 -0.2753
 4746SOL     OW25699   3.655   2.896   5.087  0.2382 -0.1815 -0.6356
 4746SOL    HW125700   3.704   2.963   5.040 -0.0800  0.3720 -0.1702
 4746SOL    HW225701   3.589   2.871   5.022 -0.2402  0.9121 -0.5615
 4747SOL     OW25702   2.394   3.168   1.198  0.0685 -0.6193  0.3210
 4747SOL    HW125703   2.354   3.254   1.184  0.9928 -0.3234 -0.5395
 4747SOL    HW225704   2.394   3.126   1.113  2.5510 -0.0352  0.0337
 4748SOL     OW25705   1.763   1.446   9.212 -0.1936  0.5495 -0.8322
 4748SOL    HW125706   1.855   1.470   9.207  0.5912 -2.2612  0.3832
 4748SOL    HW225707   1.784   1.394   9.289 -1.7008 -0.2028 -0.9258
 4749SOL     OW25708   3.043   0.818  13.178  0.4424  0.7020  0.5344
 4749SOL    HW125709   3.020   0.727  13.194  1.5358  0.3592  0.1057
 4749SOL    HW225710   3.138   0.807  13.183  0.0801 -1.8574  1.5762
 4750SOL     OW25711   2.508   4.140   6.002  0.0281 -0.2079  0.3432
 4750SOL    HW125712   2.430   4.194   5.993  0.4784  0.4949  0.6068
 4750SOL    HW225713   2.578   4.199   5.974 -0.6696  0.8283  0.7995
 4751SOL     OW25714   2.605   1.101   2.560  0.3130 -0.0957  0.1807
 4751SOL    HW125715   2.545   1.171   2.585 -0.0272 -0.9196  1.6632
 4751SOL    HW225716   2.618   1.120   2.467  0.6892 -3.0223 -0.3562
 4752SOL     OW25717   3.107   3.123   7.436 -0.3061  0.1798 -0.2751
 4752SOL    HW125718   3.032   3.176   7.464 -0.1624 -0.1676  0.7633
 4752SOL    HW225719   3.105   3.050   7.498  1.1121  1.2830  1.0464
 4753SOL     OW25720   1.652   0.956   5.233 -0.0653  0.1396  0.3332
 4753SOL    HW125721   1.572   0.904   5.231 -0.0070  0.0176  1.3283
 4753SOL    HW225722   1.670   0.945   5.326  0.5468  0.5530  0.2666
 4754SOL     OW25723   2.264   4.030  15.485  0.2432 -0.1225  0.0872
 4754SOL    HW125724   2.268   3.939  15.455  2.7953  0.0546 -0.0502
 4754SOL    HW225725   2.257   4.065  15.396 -1.1949 -0.2858  0.1277
 4755SOL     OW25726   0.700   2.715   0.707  0.5130  0.1614 -0.5952
 4755SOL    HW125727   0.689   2.623   0.732 -1.5730  1.1118  1.9379
 4755SOL    HW225728   0.790   2.722   0.739 -0.4131  1.8090  1.6630
 4756SOL     OW25729   1.251   4.603  16.618  0.1409  0.0196 -0.3442
 4756SOL    HW125730   1.329   4.623  16.567  0.9658 -0.3024  0.7872
 4756SOL    HW225731   1.245   4.695  16.644  0.9780 -0.4323  1.4715
 4757SOL     OW25732   0.177   4.229  11.628  0.2547  0.2155  0.1155
 4757SOL    HW125733   0.221   4.205  11.546 -0.7324 -2.7260  0.4243
 4757SOL    HW225734   0.213   4.164  11.689 -0.4301 -0.2506  0.0301
 4758SOL     OW25735   0.818   1.663   8.862  0.0992 -0.1857  0.8648
 4758SOL    HW125736   0.774   1.603   8.923 -2.8705  1.6610  0.5700
 4758SOL    HW225737   0.788   1.749   8.890 -0.3039  0.2512 -0.9321
 4759SOL     OW25738   3.446   3.475   8.174 -0.6116 -0.2078  0.3713
 4759SOL    HW125739   3.423   3.522   8.094  0.1405 -4.4756 -2.3550
 4759SOL    HW225740   3.532   3.451   8.141 -0.2998  0.4236  0.7194
 4760SOL     OW25741   4.307   3.356   2.696  0.1972  0.4362 -0.1223
 4760SOL    HW125742   4.261   3.318   2.620  1.0164  1.2024 -1.0007
 4760SOL    HW225743   4.336   3.443   2.670 -0.6043  0.7152 -0.1014
 4761SOL     OW25744   3.118   2.540   7.919  0.1448 -0.3421  0.0944
 4761SOL    HW125745   3.059   2.497   7.980 -2.4076  1.2180 -1.2598
 4761SOL    HW225746   3.143   2.614   7.974 -0.2099  1.4108 -2.1042
 4762SOL     OW25747   3.343   1.034  17.658 -0.4857  0.2441 -0.0768
 4762SOL    HW125748   3.370   1.124  17.644  0.8185 -0.0958  0.2281
 4762SOL    HW225749   3.257   1.041   0.002  0.4621  2.4781  1.5470
 4763SOL     OW25750   0.016   1.050   8.100  0.2025 -0.0619 -0.3029
 4763SOL    HW125751   4.687   1.102   8.039  0.8759  1.8214  0.6989
 4763SOL    HW225752   0.095   1.104   8.100 -0.4937  0.9691 -0.7621
 4764SOL     OW25753   2.273   2.035   8.849  0.2060 -0.4651 -0.2733
 4764SOL    HW125754   2.232   1.972   8.790  3.4529 -0.7990 -2.1574
 4764SOL    HW225755   2.196   2.047   8.905  0.8495 -3.0326  1.1311
 4765SOL     OW25756   2.864   2.813  16.144 -0.2612 -0.1000  0.0557
 4765SOL    HW125757   2.888   2.892  16.097 -1.3205 -0.0691 -0.4177
 4765SOL    HW225758   2.770   2.819  16.163 -0.2489  0.3457 -0.0461
 4766SOL     OW25759   0.615   1.798   5.704 -0.5918 -0.0148 -0.3252
 4766SOL    HW125760   0.607   1.842   5.619 -1.7919 -0.3944 -0.4110
 4766SOL    HW225761   0.549   1.730   5.697 -0.7129 -0.0549  1.2256
 4767SOL     OW25762   0.926   1.594   3.130  0.2231  0.0003  0.1667
 4767SOL    HW125763   0.867   1.519   3.136 -1.5769  1.4858  1.2550
 4767SOL    HW225764   0.895   1.632   3.213  4.4340  2.5648  0.5537
 4768SOL     OW25765   4.033   4.705   0.642 -0.3517  0.3903  0.2753
 4768SOL    HW125766   3.975   0.056   0.653 -1.2187 -0.5928  2.4717
 4768SOL    HW225767   4.082   4.721   0.562 -1.5964  1.6499 -0.2363
 4769SOL     OW25768   1.611   1.711   6.747 -0.4859  0.4783 -0.1472
 4769SOL    HW125769   1.633   1.780   6.809 -0.4294  1.1214 -0.8877
 4769SOL    HW225770   1.681   1.705   6.682 -0.1656 -1.6153  0.3787
 4770SOL     OW25771   2.654   2.689   3.301  0.3764  0.0459  0.7910
 4770SOL    HW125772   2.614   2.741   3.231  3.0186  1.6976  0.5302
 4770SOL    HW225773   2.728   2.643   3.262  1.6886  2.7387  0.1496
 4771SOL     OW25774   3.842   0.494   9.893 -0.0879  0.4170 -0.3909
 4771SOL    HW125775   3.775   0.551   9.932 -2.0956 -1.2419 -1.4046
 4771SOL    HW225776   3.878   0.552   9.826  1.5378  0.0998  0.2110
 4772SOL     OW25777   4.449   2.509   0.715  0.1907  0.3481  0.1920
 4772SOL    HW125778   4.483   2.421   0.737 -4.0569 -1.2884  0.1193
 4772SOL    HW225779   4.509   2.561   0.769 -1.5574 -1.8199  4.2810
 4773SOL     OW25780   1.490   2.722   7.676 -0.2241 -0.1229  0.0873
 4773SOL    HW125781   1.439   2.641   7.680  0.1655 -0.3183  0.8977
 4773SOL    HW225782   1.576   2.681   7.663 -0.0739  0.3797 -0.5042
 4774SOL     OW25783   3.925   4.139   3.472 -0.2712 -0.4848 -0.4529
 4774SOL    HW125784   3.963   4.097   3.549 -1.6973 -0.0568  0.4972
 4774SOL    HW225785   3.938   4.079   3.399  0.9329 -0.2287 -0.4498
 4775SOL     OW25786   4.108   3.054   4.611  0.2588  0.1364 -0.0480
 4775SOL    HW125787   4.100   3.147   4.633  0.4252  0.1067  0.1383
 4775SOL    HW225788   4.141   3.025   4.696  1.0893  0.5157 -0.2379
 4776SOL     OW25789   2.125   0.266   1.418  0.0846  0.2635 -0.1181
 4776SOL    HW125790   2.220   0.260   1.409  0.1517  2.8619 -1.0853
 4776SOL    HW225791   2.099   0.265   1.325  1.5236 -0.9525 -0.5041
 4777SOL     OW25792   4.386   2.241  17.249  0.1376 -0.0974 -0.4503
 4777SOL    HW125793   4.450   2.269  17.184  0.3733 -0.4827 -0.3812
 4777SOL    HW225794   4.377   2.325  17.296  0.8789  0.6330 -1.6287
 4778SOL     OW25795   2.956   4.098   2.505 -0.1769 -0.5179  0.1228
 4778SOL    HW125796   3.049   4.078   2.496 -0.2472 -0.3997 -0.9105
 4778SOL    HW225797   2.960   4.194   2.512  0.6915 -0.5980  0.6219
 4779SOL     OW25798   2.716   0.349   8.380  0.4357  0.6569 -0.2110
 4779SOL    HW125799   2.807   0.345   8.353  0.9096  3.3489  1.0552
 4779SOL    HW225800   2.671   0.287   8.322  0.8753  1.1697 -1.0833
 4780SOL     OW25801   0.887   3.712  10.278 -0.1149  0.2007 -0.2435
 4780SOL    HW125802   0.930   3.797  10.269  0.9479 -0.2761  0.3140
 4780SOL    HW225803   0.946   3.659  10.225  3.0615  1.5381  1.8903
 4781SOL     OW25804   0.187   1.170  12.435 -0.6718 -0.2997 -0.3658
 4781SOL    HW125805   0.252   1.236  12.456  1.6222 -1.1095 -4.9395
 4781SOL    HW225806   0.237   1.102  12.389 -0.4858 -0.4705  0.0892
 4782SOL     OW25807   3.784   4.306   9.421 -0.0876  0.4731 -0.2623
 4782SOL    HW125808   3.831   4.382   9.387  1.1881  0.4138  1.3784
 4782SOL    HW225809   3.718   4.341   9.480 -0.6552 -0.8038 -0.1378
 4783SOL     OW25810   1.392   3.538   0.074  0.1197 -0.2240 -0.5651
 4783SOL    HW125811   1.478   3.516   0.039  0.5209  1.1948 -0.4807
 4783SOL    HW225812   1.353   3.452   0.088 -0.7919  0.4807  1.1835
 4784SOL     OW25813   3.770   3.834   0.792  0.8552  0.0020  0.5726
 4784SOL    HW125814   3.742   3.776   0.863 -1.2957  0.3018 -0.0509
 4784SOL    HW225815   3.810   3.905   0.842 -2.6786  1.7414  0.9076
 4785SOL     OW25816   2.359   3.162   7.467 -0.0378  0.1144  0.0078
 4785SOL    HW125817   2.269   3.194   7.472  0.1284  0.5269  0.3429
 4785SOL    HW225818   2.400   3.237   7.424  1.2332 -0.6021 -0.0456
 4786SOL     OW25819   2.407   4.429   9.161  0.2723  0.1684  0.4555
 4786SOL    HW125820   2.337   4.464   9.217 -0.0885 -0.7766  0.6079
 4786SOL    HW225821   2.395   4.479   9.081  0.1469  1.0682  1.0299
 4787SOL     OW25822   4.453   1.377   4.119 -0.1358  0.3240  0.0732
 4787SOL    HW125823   4.370   1.330   4.118  0.4172 -0.5557 -3.3311
 4787SOL    HW225824   4.507   1.333   4.184  1.1643  1.6879 -0.0745
 4788SOL     OW25825   4.335   3.543   4.482 -0.3901 -0.2739 -0.1454
 4788SOL    HW125826   4.260   3.498   4.443 -0.7726  0.4615 -0.2604
 4788SOL    HW225827   4.361   3.597   4.408 -0.9956  1.1128  0.6495
 4789SOL     OW25828   1.711   1.969   3.693 -0.4757  0.0095  0.1682
 4789SOL    HW125829   1.655   1.930   3.760 -1.1936 -0.6600 -0.8209
 4789SOL    HW225830   1.645   1.973   3.624 -0.7576 -0.2413  0.4215
 4790SOL     OW25831   0.465   2.643   5.922 -0.0778 -0.0925  0.2114
 4790SOL    HW125832   0.534   2.578   5.934  0.0358  0.1967  1.1318
 4790SOL    HW225833   0.496   2.690   5.844 -1.6568  2.2429  0.9850
 4791SOL     OW25834   3.126   2.945   6.903 -0.3095 -0.4238  0.5182
 4791SOL    HW125835   3.078   2.992   6.835  0.4719 -1.5758 -0.8057
 4791SOL    HW225836   3.179   2.889   6.847 -0.1458 -1.1342  1.3802
 4792SOL     OW25837   4.266   1.297  11.527  0.2122 -0.0840  0.3099
 4792SOL    HW125838   4.330   1.364  11.503 -1.7966  1.7987  0.2229
 4792SOL    HW225839   4.326   1.235  11.569  0.8690 -0.5437 -1.3017
 4793SOL     OW25840   0.579   3.469  16.237 -0.3653 -0.7164  0.4508
 4793SOL    HW125841   0.492   3.429  16.240 -0.1859 -1.1075  0.3304
 4793SOL    HW225842   0.550   3.550  16.195 -1.3430 -1.8747 -1.1147
 4794SOL     OW25843   1.414   0.576   3.517  0.4911 -0.0794 -0.3054
 4794SOL    HW125844   1.494   0.600   3.564  0.0629  0.4038  0.1851
 4794SOL    HW225845   1.354   0.556   3.589  1.0092  0.9912  0.4339
 4795SOL     OW25846   4.417   1.711   2.567  0.2596 -0.1698  0.5505
 4795SOL    HW125847   4.463   1.630   2.545 -0.1259  0.2746 -1.9030
 4795SOL    HW225848   4.335   1.704   2.518  0.2139  1.2865  0.4100
 4796SOL     OW25849   2.133   0.181  15.838 -0.5399  0.2207 -0.2079
 4796SOL    HW125850   2.110   0.253  15.780 -0.0923  0.1967 -0.4172
 4796SOL    HW225851   2.083   0.110  15.798  0.9452 -0.2102 -1.2997
 4797SOL     OW25852   3.034   3.016   1.914  0.2068  0.0321 -0.2260
 4797SOL    HW125853   3.014   3.034   1.822 -0.3329  2.8709  0.4537
 4797SOL    HW225854   2.998   2.928   1.926 -2.2111  1.3133  1.8721
 4798SOL     OW25855   1.068   3.088  16.641 -0.1619 -0.1379  0.4208
 4798SOL    HW125856   1.077   3.040  16.558 -0.3577 -1.7019  1.3025
 4798SOL    HW225857   0.974   3.104  16.637 -0.1038  0.0721 -0.1673
 4799SOL     OW25858   4.251   4.469   9.803  0.0034 -0.1645  0.3119
 4799SOL    HW125859   4.188   4.409   9.761 -0.9245  0.5387  0.7065
 4799SOL    HW225860   4.310   4.465   9.727  0.2305 -1.1614  0.5281
 4800SOL     OW25861   0.775   3.098   9.016 -0.0510 -0.1628 -0.0987
 4800SOL    HW125862   0.840   3.136   9.076  2.5271  0.7734 -3.4534
 4800SOL    HW225863   0.692   3.124   9.055  0.6866  0.0578  1.3371
 4801SOL     OW25864   2.829   3.398   8.581  0.0109 -0.5336  0.3553
 4801SOL    HW125865   2.880   3.319   8.562 -0.3050 -0.6471 -0.0246
 4801SOL    HW225866   2.822   3.388   8.676  1.7164 -0.3519  0.4948
 4802SOL     OW25867   0.557   3.913   6.612  0.3515  0.7960  0.1676
 4802SOL    HW125868   0.568   3.854   6.537 -2.4775 -0.7526  0.9764
 4802SOL    HW225869   0.642   3.906   6.655 -0.1521  0.3900  1.1087
 4803SOL     OW25870   0.520   1.417   5.478  0.7939 -0.5091 -0.2093
 4803SOL    HW125871   0.485   1.493   5.526  0.7696 -1.3580  1.1132
 4803SOL    HW225872   0.578   1.468   5.421 -0.3875  1.0067 -0.0906
 4804SOL     OW25873   3.620   1.270   5.250  0.5944  0.2718 -0.3942
 4804SOL    HW125874   3.692   1.293   5.309  0.7965  2.7496 -1.6190
 4804SOL    HW225875   3.556   1.258   5.321 -0.2393 -1.1751 -1.4019
 4805SOL     OW25876   3.770   3.767   9.367  0.1203 -0.4034  0.4156
 4805SOL    HW125877   3.761   3.853   9.408  0.1716  0.5470 -1.5481
 4805SOL    HW225878   3.849   3.746   9.417  1.5054  0.8152 -1.2634
 4806SOL     OW25879   0.903   0.687   8.881  0.0473 -0.1918 -0.3513
 4806SOL    HW125880   0.821   0.657   8.842 -0.8915 -0.2553  1.6490
 4806SOL    HW225881   0.890   0.640   8.964 -1.1874  1.4838  0.3903
 4807SOL     OW25882   3.720   4.150   1.835  0.0359 -0.4394  0.0639
 4807SOL    HW125883   3.685   4.063   1.815  1.2979 -0.9699  0.1318
 4807SOL    HW225884   3.646   4.210   1.824 -3.0174 -4.1766  0.1545
 4808SOL     OW25885   0.635   4.268   2.227 -0.3312 -0.2403  0.4527
 4808SOL    HW125886   0.565   4.206   2.246  0.8561 -1.9341 -0.7916
 4808SOL    HW225887   0.599   4.354   2.251 -0.7126  0.2424 -1.8720
 4809SOL     OW25888   0.072   2.003   6.546  0.4784  0.0985 -0.0170
 4809SOL    HW125889   0.128   1.927   6.530  0.7384 -0.2158  2.4264
 4809SOL    HW225890   0.127   2.076   6.575 -1.5592  0.8410  1.9459
 4810SOL     OW25891   3.427   4.472   6.291 -0.0213 -0.2251  0.0151
 4810SOL    HW125892   3.368   4.446   6.361  2.2422  0.4606  2.1686
 4810SOL    HW225893   3.442   4.564   6.313  1.5703 -0.8456  1.5651
 4811SOL     OW25894   3.673   2.396   5.609 -0.5741 -0.1556 -0.2728
 4811SOL    HW125895   3.668   2.484   5.647  1.2159 -0.4413  0.6452
 4811SOL    HW225896   3.734   2.412   5.537  0.3393 -0.8395  0.3565
 4812SOL     OW25897   2.414   0.470   4.315  0.1671  0.2441  0.1724
 4812SOL    HW125898   2.360   0.545   4.291 -0.5785 -0.1726  0.5644
 4812SOL    HW225899   2.497   0.519   4.315 -0.3238  1.0815  2.2058
 4813SOL     OW25900   0.438   1.746  10.405 -0.0560  0.1601 -0.1844
 4813SOL    HW125901   0.383   1.788  10.471 -0.5645  0.9233 -1.0890
 4813SOL    HW225902   0.516   1.802  10.395  0.1268  0.1220  1.0015
 4814SOL     OW25903   3.933   0.270   2.953  0.4525 -0.7561 -0.0555
 4814SOL    HW125904   4.013   0.223   2.978  1.2934  2.2819  2.8292
 4814SOL    HW225905   3.906   0.303   3.039  0.9208 -0.9929  0.1805
 4815SOL     OW25906   2.559   4.171   8.108 -0.8544 -0.0102  0.1917
 4815SOL    HW125907   2.520   4.087   8.083  0.9119 -0.0759 -2.3396
 4815SOL    HW225908   2.481   4.216   8.141  0.2495  1.2288  1.0956
 4816SOL     OW25909   0.259   4.559   8.359 -0.8388 -0.4163 -0.4248
 4816SOL    HW125910   0.185   4.513   8.319 -0.4905 -0.7482 -0.6952
 4816SOL    HW225911   0.266   4.502   8.436  1.7434 -1.5568 -1.4968
 4817SOL     OW25912   0.216   4.274   9.141 -0.0361  0.5449  0.1089
 4817SOL    HW125913   0.263   4.245   9.064 -0.8662 -0.9495  0.1555
 4817SOL    HW225914   0.213   4.370   9.142  1.2416  0.5785 -0.0688
 4818SOL     OW25915   1.453   4.685  16.453 -0.0629 -0.5265  0.0296
 4818SOL    HW125916   1.542   4.702  16.484 -1.1827  2.7892  1.4591
 4818SOL    HW225917   1.455   0.026  16.382 -0.0428 -1.6386 -0.9965
 4819SOL     OW25918   3.107   4.184   9.918  0.2864  0.1671 -0.0095
 4819SOL    HW125919   3.191   4.195   9.872  0.7562 -2.2667  0.2737
 4819SOL    HW225920   3.052   4.195   9.840 -1.3240  0.8945  1.2519
 4820SOL     OW25921   2.655   0.704   6.337 -0.6106 -0.0444 -0.1701
 4820SOL    HW125922   2.714   0.687   6.263 -0.1117  0.2029  0.1712
 4820SOL    HW225923   2.721   0.740   6.396  1.0908  0.6865 -2.5031
 4821SOL     OW25924   3.512   3.186   7.032 -0.4599  0.5064  0.1669
 4821SOL    HW125925   3.580   3.181   6.965  1.3556 -2.3386  2.2163
 4821SOL    HW225926   3.425   3.196   6.993 -0.8699 -1.0517  0.6719
 4822SOL     OW25927   4.017   0.476   8.752 -0.7094 -0.0305 -0.3132
 4822SOL    HW125928   3.922   0.483   8.745 -1.0435 -2.5755  1.8599
 4822SOL    HW225929   4.026   0.402   8.692  1.0818 -1.6564  1.9674
 4823SOL     OW25930   1.851   0.078   5.748  0.1805  0.2834 -0.1805
 4823SOL    HW125931   1.872   0.165   5.782 -0.2237  0.4894 -0.4485
 4823SOL    HW225932   1.766   0.052   5.784 -0.4034  0.0263 -1.7350
 4824SOL     OW25933   2.693   3.054   0.358  0.1568  0.1710  0.1420
 4824SOL    HW125934   2.694   2.987   0.427  1.4482 -0.3680 -0.3935
 4824SOL    HW225935   2.780   3.046   0.318  0.4569 -1.9475  1.1832
 4825SOL     OW25936   1.542   3.651   8.049 -0.3355 -0.1631 -0.6609
 4825SOL    HW125937   1.555   3.563   8.085 -1.7586  0.6534  1.8596
 4825SOL    HW225938   1.483   3.639   7.975  0.8878 -0.6508 -1.5459
 4826SOL     OW25939   1.894   4.335   6.936  0.0056 -0.2706 -0.3479
 4826SOL    HW125940   1.805   4.314   6.909 -1.0804  1.7139  1.6352
 4826SOL    HW225941   1.917   4.363   6.848  0.1165  0.8908  0.0524
 4827SOL     OW25942   2.280   0.713  16.305  0.2336  0.8028  0.4792
 4827SOL    HW125943   2.224   0.780  16.345 -1.8022  0.0096 -1.0616
 4827SOL    HW225944   2.328   0.770  16.245 -0.7514  1.2721  0.1341
 4828SOL     OW25945   3.053   1.701   4.645 -0.7576 -0.3287 -0.5307
 4828SOL    HW125946   3.074   1.649   4.568  0.0581 -0.3955 -0.2695
 4828SOL    HW225947   3.139   1.740   4.665 -1.0090  0.3107 -0.7192
 4829SOL     OW25948   2.013   1.376   0.516  0.1641  0.2686 -0.1107
 4829SOL    HW125949   1.989   1.457   0.560 -1.8283 -0.6893  0.5512
 4829SOL    HW225950   2.087   1.348   0.570  2.2988  0.3345 -2.9883
 4830SOL     OW25951   0.793   3.903   4.666 -0.3198 -0.0587 -0.4957
 4830SOL    HW125952   0.760   3.814   4.656  0.1858 -0.3271  0.3113
 4830SOL    HW225953   0.717   3.953   4.696 -1.1070  0.1448 -2.8024
 4831SOL     OW25954   4.385   2.737   5.722 -0.0220  0.5773 -0.4910
 4831SOL    HW125955   4.353   2.803   5.784 -2.0918  0.3175 -1.2871
 4831SOL    HW225956   4.314   2.732   5.657  0.0753  0.1951 -0.5659
 4832SOL     OW25957   0.236   1.545   5.823 -0.4334 -0.1897  0.6979
 4832SOL    HW125958   0.218   1.469   5.878 -0.6642 -0.1284  0.7044
 4832SOL    HW225959   0.272   1.606   5.887 -1.0144 -1.0891  1.8696
 4833SOL     OW25960   1.608   1.107   5.857  0.0088 -0.2957  0.1364
 4833SOL    HW125961   1.559   1.041   5.807 -0.5022  0.1904 -0.0036
 4833SOL    HW225962   1.619   1.047   5.931  2.0449 -1.1735 -0.8935
 4834SOL     OW25963   4.464   1.777   5.964  0.0150  0.2587  0.2547
 4834SOL    HW125964   4.504   1.718   5.900 -2.0856 -2.0619  1.0654
 4834SOL    HW225965   4.535   1.800   6.024 -0.5837  0.6558  0.8173
 4835SOL     OW25966   1.226   4.598   2.075  0.3640  0.5439 -0.4646
 4835SOL    HW125967   1.284   4.673   2.069  0.7122  0.3243  0.1433
 4835SOL    HW225968   1.142   4.643   2.087 -0.6459 -0.7767 -2.6844
 4836SOL     OW25969   1.544   1.180  12.664 -0.3768 -0.1714  0.0431
 4836SOL    HW125970   1.612   1.195  12.599  1.2463  0.0540  1.7955
 4836SOL    HW225971   1.591   1.120  12.721 -0.7944 -1.5428 -1.0606
 4837SOL     OW25972   4.191   2.746  13.872 -0.3802 -0.2588  0.1471
 4837SOL    HW125973   4.166   2.796  13.950 -0.5836  0.7815 -0.5920
 4837SOL    HW225974   4.225   2.821  13.824 -0.6936  0.2823  0.7734
 4838SOL     OW25975   4.220   1.722   6.081 -0.2506 -0.1954  0.4754
 4838SOL    HW125976   4.207   1.803   6.131  0.2893 -0.1335  0.5142
 4838SOL    HW225977   4.310   1.716   6.050 -0.3626  0.8687 -0.0782
 4839SOL     OW25978   3.035   3.696   6.766  0.0328  0.2903  0.4121
 4839SOL    HW125979   2.948   3.687   6.804  1.0124 -2.2572  2.0170
 4839SOL    HW225980   3.079   3.616   6.796  1.0028  0.4620 -0.5531
 4840SOL     OW25981   3.315   1.509   9.113 -0.5418  0.1032 -0.0303
 4840SOL    HW125982   3.220   1.518   9.118 -0.5372 -0.7730  1.3965
 4840SOL    HW225983   3.322   1.422   9.151 -0.7399 -0.1106 -0.4816
 4841SOL     OW25984   1.756   3.320   4.881 -0.1145  0.1098  0.3064
 4841SOL    HW125985   1.710   3.293   4.960 -0.0905 -0.4248  0.1381
 4841SOL    HW225986   1.844   3.291   4.906 -0.4193 -0.7989  0.3454
 4842SOL     OW25987   3.504   2.544  16.795 -0.2542  0.3778  0.1401
 4842SOL    HW125988   3.425   2.522  16.745 -0.4415  0.0570  0.5771
 4842SOL    HW225989   3.505   2.473  16.860  0.0713 -1.2249 -1.6064
 4843SOL     OW25990   1.672   2.241  16.968 -0.1105  0.3498 -0.8868
 4843SOL    HW125991   1.678   2.337  16.968  1.6965  0.2215  1.0936
 4843SOL    HW225992   1.619   2.228  16.889  1.9748  0.2726 -2.2985
 4844SOL     OW25993   4.506   3.451   7.983  0.1445 -0.0691 -0.3679
 4844SOL    HW125994   4.594   3.483   8.005 -1.1214  2.7193  0.5281
 4844SOL    HW225995   4.526   3.386   7.915 -0.2803  1.0385 -1.5510
 4845SOL     OW25996   1.295   2.020   8.185 -0.0114  0.5754 -0.4075
 4845SOL    HW125997   1.341   1.937   8.173 -1.8652 -0.3056 -1.3979
 4845SOL    HW225998   1.203   2.005   8.159 -0.3948  2.0892  0.0798
 4846SOL     OW25999   1.412   0.364   9.942 -0.5117 -0.4600  0.1542
 4846SOL    HW126000   1.505   0.383   9.949 -0.8600  1.3390 -0.1017
 4846SOL    HW226001   1.421   0.269   9.947 -0.3091 -0.4081  0.8757
 4847SOL     OW26002   4.043   0.748   7.800 -0.1420 -0.1816  0.5415
 4847SOL    HW126003   3.994   0.791   7.729 -0.5648 -2.6084 -0.6327
 4847SOL    HW226004   4.102   0.693   7.749  1.5792  0.3195  2.0146
 4848SOL     OW26005   0.336   0.808  17.013 -0.0477 -0.0477 -0.1587
 4848SOL    HW126006   0.258   0.841  17.058 -0.9021 -2.6210  0.2244
 4848SOL    HW226007   0.364   0.749  17.082  0.0172  0.2134  0.0392
 4849SOL     OW26008   4.111   2.243   5.671  0.3965 -0.4165 -0.0656
 4849SOL    HW126009   4.052   2.263   5.599  1.7622 -0.5467 -1.2019
 4849SOL    HW226010   4.169   2.175   5.638  1.4006  0.5441 -0.2715
 4850SOL     OW26011   0.182   1.801   9.185  0.0281  0.5316  0.1089
 4850SOL    HW126012   0.143   1.875   9.138  0.0622 -0.1031 -0.9281
 4850SOL    HW226013   0.274   1.804   9.158  0.0968  0.3437  0.3176
 4851SOL     OW26014   3.760   2.508   0.391  0.3690  0.3217  0.3178
 4851SOL    HW126015   3.849   2.542   0.402  1.1670 -1.7610  0.3056
 4851SOL    HW226016   3.747   2.446   0.463 -3.1658 -0.1462 -0.7403
 4852SOL     OW26017   2.348   3.368   5.022 -0.1269  0.5262 -0.1752
 4852SOL    HW126018   2.302   3.451   5.011 -2.1528 -0.4625  0.7427
 4852SOL    HW226019   2.390   3.364   4.936 -0.0518 -0.1861 -0.1060
 4853SOL     OW26020   3.002   3.894   8.081  0.4357 -0.1293  0.0697
 4853SOL    HW126021   3.006   3.802   8.055 -0.3543 -0.2132  0.2301
 4853SOL    HW226022   2.909   3.918   8.080  0.2785 -0.9372 -2.8105
 4854SOL     OW26023   0.349   0.081   6.810 -0.0964 -0.7724  0.2371
 4854SOL    HW126024   0.440   0.055   6.793  0.8553  1.5943  1.7068
 4854SOL    HW226025   0.296   0.005   6.789  0.9145 -1.3179 -0.3278
 4855SOL     OW26026   4.057   4.135   5.260  0.3586  0.8189 -0.4710
 4855SOL    HW126027   4.021   4.070   5.321 -1.3561  0.2625 -2.0717
 4855SOL    HW226028   4.118   4.177   5.321  0.8997 -0.8664  0.1605
 4856SOL     OW26029   0.090   2.157   6.112  0.5028  0.4825 -0.2481
 4856SOL    HW126030   0.019   2.092   6.114  1.7155 -0.8365  0.2544
 4856SOL    HW226031   0.051   2.235   6.073  1.5641  0.3177 -1.6615
 4857SOL     OW26032   3.130   1.231   7.398  0.4471  0.3102 -0.2517
 4857SOL    HW126033   3.175   1.250   7.481 -0.8232 -3.6068  1.3727
 4857SOL    HW226034   3.054   1.192   7.441 -0.7556  3.2589  0.2441
 4858SOL     OW26035   1.701   1.323  17.218  0.0985 -0.1687  0.2594
 4858SOL    HW126036   1.622   1.301  17.169  0.1535 -0.5792  0.3531
 4858SOL    HW226037   1.670   1.400  17.265 -2.4732 -0.8659 -0.3141
 4859SOL     OW26038   3.255   3.194   6.909 -0.0929 -0.4505 -0.1014
 4859SOL    HW126039   3.260   3.194   6.813  2.5008  0.4018  0.0433
 4859SOL    HW226040   3.237   3.103   6.930  0.4514 -0.9508 -1.7933
 4860SOL     OW26041   1.673   3.118   8.992  0.4889 -0.6051  0.1744
 4860SOL    HW126042   1.764   3.108   9.018  0.2189  1.9466  2.2148
 4860SOL    HW226043   1.636   3.158   9.071  0.8914 -0.5446  0.3307
 4861SOL     OW26044   1.934   2.401  13.757  0.1020 -0.7667  0.2518
 4861SOL    HW126045   1.998   2.340  13.795  1.7697  1.4816  1.0892
 4861SOL    HW226046   1.972   2.415  13.670  0.0765  1.3964  0.6032
 4862SOL     OW26047   2.564   2.654  11.021  0.2797 -0.2536  0.3757
 4862SOL    HW126048   2.572   2.686  11.111 -1.6630  0.2657  0.3583
 4862SOL    HW226049   2.473   2.622  11.018  0.2175 -0.2102  1.9765
 4863SOL     OW26050   1.887   0.015   6.478 -0.7145  0.4081 -0.2209
 4863SOL    HW126051   1.873   0.108   6.463 -1.7001 -0.1155 -2.5310
 4863SOL    HW226052   1.934   4.713   6.399 -0.3207  1.5427 -0.3573
 4864SOL     OW26053   3.434   0.044   8.243 -0.3012 -0.5712 -0.3351
 4864SOL    HW126054   3.431   0.138   8.222 -1.2324 -0.5463 -0.1342
 4864SOL    HW226055   3.505   0.007   8.192 -0.5887  0.4305 -1.4551
 4865SOL     OW26056   3.521   4.424  16.524  0.4669  0.0297  0.3701
 4865SOL    HW126057   3.573   4.365  16.470 -2.2173 -2.7134  0.7318
 4865SOL    HW226058   3.562   4.509  16.508  0.2547 -0.1740 -1.2704
 4866SOL     OW26059   4.187   3.233   7.734 -0.3833  0.2092  0.5399
 4866SOL    HW126060   4.267   3.202   7.776  0.4828 -1.4408 -2.3208
 4866SOL    HW226061   4.175   3.323   7.765 -1.4983  0.4356 -0.5380
 4867SOL     OW26062   4.174   4.096  15.359 -0.1380 -0.1383  0.3735
 4867SOL    HW126063   4.214   4.097  15.272  0.7485 -0.2996  0.7874
 4867SOL    HW226064   4.249   4.066  15.411  0.8310  1.1601 -0.2857
 4868SOL     OW26065   3.695   0.859   8.936 -0.0668  0.1334 -0.2134
 4868SOL    HW126066   3.690   0.946   8.975  3.3951  0.3936 -0.3205
 4868SOL    HW226067   3.629   0.855   8.867 -1.3846 -1.1515  1.1173
 4869SOL     OW26068   2.861   2.760   3.482  0.4891 -0.0993 -0.3219
 4869SOL    HW126069   2.933   2.739   3.423  1.2295 -0.7156  0.8109
 4869SOL    HW226070   2.783   2.757   3.426  0.6229 -1.6138 -0.4257
 4870SOL     OW26071   1.112   0.035   9.576  0.1692  0.4872 -0.6472
 4870SOL    HW126072   1.162   0.008   9.653 -2.0561 -2.4643 -0.2198
 4870SOL    HW226073   1.090   0.122   9.610  0.9373 -0.2311  1.7107
 4871SOL     OW26074   4.324   0.553  14.766  0.3810 -0.3440 -0.2451
 4871SOL    HW126075   4.415   0.583  14.762  0.7003 -1.4272 -1.2122
 4871SOL    HW226076   4.319   0.497  14.688  0.3631 -1.0544  0.2628
 4872SOL     OW26077   2.416   0.771  11.149 -0.1663 -0.0736  0.0615
 4872SOL    HW126078   2.396   0.760  11.056  1.9246  0.5478 -0.4489
 4872SOL    HW226079   2.415   0.867  11.141  3.1124 -0.0191  0.1555
 4873SOL     OW26080   0.475   4.400   9.404 -0.1499 -0.3084 -0.3565
 4873SOL    HW126081   0.379   4.406   9.410 -0.1382 -0.8539  0.4750
 4873SOL    HW226082   0.502   4.490   9.389  0.0820  0.0085  1.9773
 4874SOL     OW26083   4.153   3.845  13.523 -0.3460 -0.2118  0.6547
 4874SOL    HW126084   4.143   3.937  13.499 -1.4137 -0.4353  0.2088
 4874SOL    HW226085   4.069   3.814  13.488  0.8805 -2.0458 -0.6249
 4875SOL     OW26086   3.033   4.513   6.131 -0.0750 -0.0524  0.4081
 4875SOL    HW126087   2.945   4.477   6.143 -0.6917  0.9167 -1.1481
 4875SOL    HW226088   3.086   4.436   6.110  0.4513  0.5980 -0.6736
 4876SOL     OW26089   0.132   1.725   2.795 -0.1362 -0.7450 -0.1051
 4876SOL    HW126090   0.194   1.797   2.787  0.2733 -0.8974  1.5896
 4876SOL    HW226091   0.130   1.697   2.704  0.8136  2.6221 -1.1275
 4877SOL     OW26092   4.277   1.198  11.852  1.1821 -0.0819  0.0538
 4877SOL    HW126093   4.311   1.159  11.771  0.1148 -2.0390  0.5283
 4877SOL    HW226094   4.206   1.136  11.874 -0.5340  0.8782 -2.7899
 4878SOL     OW26095   2.118   2.185  13.771 -0.1317  0.1578  0.5291
 4878SOL    HW126096   2.127   2.189  13.866  0.1738 -2.2356  0.5879
 4878SOL    HW226097   2.184   2.119  13.749 -0.2121  0.4024 -0.4526
 4879SOL     OW26098   2.015   3.456   3.000  0.2994  0.4016  0.6237
 4879SOL    HW126099   1.965   3.379   3.028 -0.5674 -0.1755 -2.4761
 4879SOL    HW226100   2.051   3.432   2.914  0.2539 -0.0213  0.7191
 4880SOL     OW26101   0.550   4.707   1.979  0.1768  0.0046 -0.1301
 4880SOL    HW126102   0.542   4.687   1.886  4.3877 -0.5560 -0.3464
 4880SOL    HW226103   0.608   4.636   2.006  1.4627  0.7103 -1.0874
 4881SOL     OW26104   0.070   0.480   4.590 -0.3522 -0.0000  0.2405
 4881SOL    HW126105   0.071   0.531   4.509  2.8966 -1.5691 -0.6962
 4881SOL    HW226106   0.009   0.536   4.638 -0.6800 -0.8253  0.7904
 4882SOL     OW26107   4.388   1.012   5.920 -0.9968 -0.4537  0.3769
 4882SOL    HW126108   4.358   0.923   5.935 -0.8090 -0.5818 -0.0129
 4882SOL    HW226109   4.428   0.993   5.835  0.9921  0.0322  1.2148
 4883SOL     OW26110   3.721   2.075   3.574 -0.2844  0.1537  0.3008
 4883SOL    HW126111   3.633   2.107   3.558 -1.0610 -1.3850  1.4600
 4883SOL    HW226112   3.726   2.106   3.665  0.3665 -2.4498  1.1655
 4884SOL     OW26113   2.543   2.644   6.557  0.4682  0.4993 -0.3942
 4884SOL    HW126114   2.619   2.611   6.606 -0.3798 -0.2698  0.4099
 4884SOL    HW226115   2.591   2.687   6.487  0.7555  0.8520  0.0199
 4885SOL     OW26116   3.797   4.143   2.767  0.6523 -0.7088  0.3827
 4885SOL    HW126117   3.799   4.202   2.692  3.8004  1.6794  2.3355
 4885SOL    HW226118   3.712   4.104   2.748  0.4328  0.1378 -0.3681
 4886SOL     OW26119   1.954   0.632  14.777  0.0720  0.4129  0.0555
 4886SOL    HW126120   1.980   0.540  14.776 -1.9344 -0.1481  1.0248
 4886SOL    HW226121   2.040   0.674  14.764  0.1806  0.5201  1.1538
 4887SOL     OW26122   1.689   2.301   8.444  0.1793 -0.2122 -0.4592
 4887SOL    HW126123   1.720   2.330   8.530  0.9801  0.0372 -0.8312
 4887SOL    HW226124   1.669   2.209   8.460  0.1376 -0.5431 -2.4740
 4888SOL     OW26125   3.977   3.826   5.198  0.2951 -0.1344 -0.0830
 4888SOL    HW126126   3.949   3.899   5.253 -0.0153  0.8165 -1.4797
 4888SOL    HW226127   3.958   3.864   5.112 -0.1862 -1.3323 -0.5075
 4889SOL     OW26128   0.022   2.577  15.574  0.2097 -0.7681  0.3542
 4889SOL    HW126129   0.004   2.515  15.644  0.0425 -0.4911  0.5552
 4889SOL    HW226130   0.109   2.605  15.604  0.4257 -0.4559 -0.5692
 4890SOL     OW26131   3.663   1.228   3.522 -0.5992  0.3151 -1.0715
 4890SOL    HW126132   3.750   1.192   3.510 -0.8861 -1.5041  2.3164
 4890SOL    HW226133   3.617   1.206   3.440 -1.9636  0.8613 -0.4637
 4891SOL     OW26134   3.840   2.542  15.890 -0.2685  0.1419 -0.3962
 4891SOL    HW126135   3.907   2.527  15.823  0.6464 -0.3346  0.6370
 4891SOL    HW226136   3.771   2.567  15.828  0.3337  1.4143 -0.5459
 4892SOL     OW26137   1.974   2.759   5.070  0.0018  0.1620 -0.8009
 4892SOL    HW126138   1.909   2.825   5.046 -0.1017  0.8819  1.4475
 4892SOL    HW226139   2.013   2.734   4.986 -0.2150 -0.0424 -0.8416
 4893SOL     OW26140   1.383   1.110   4.930 -0.2997  0.6504  0.3377
 4893SOL    HW126141   1.446   1.094   4.860  0.9886  2.4076  1.0857
 4893SOL    HW226142   1.375   1.205   4.937  0.6602  0.6865  0.9639
 4894SOL     OW26143   1.680   3.301   7.264  0.1683  0.0481  0.2450
 4894SOL    HW126144   1.696   3.207   7.273 -1.4021 -0.3328 -0.9333
 4894SOL    HW226145   1.610   3.308   7.329 -0.6688  2.0524 -0.8688
 4895SOL     OW26146   0.930   2.752   3.137  0.5336  0.4928 -0.0995
 4895SOL    HW126147   0.878   2.674   3.158  1.6034 -0.1722  0.0719
 4895SOL    HW226148   0.980   2.750   3.218 -1.4141 -0.7101  1.0857
 4896SOL     OW26149   4.676   0.033   4.915  0.3143  0.1833  0.1534
 4896SOL    HW126150   0.033   4.708   4.928  0.1185  0.2677  1.6414
 4896SOL    HW226151   4.687   0.111   4.970 -1.2735  0.9976 -0.6754
 4897SOL     OW26152   4.053   0.527  15.634  0.1854 -1.1105  0.7870
 4897SOL    HW126153   4.140   0.545  15.599 -1.0603  1.5416 -0.9101
 4897SOL    HW226154   4.000   0.607  15.635  0.6034 -0.8355  0.9293
 4898SOL     OW26155   1.979   1.347  13.625  0.2165 -0.3008  0.1783
 4898SOL    HW126156   2.060   1.397  13.633  0.0397  0.4511 -3.0205
 4898SOL    HW226157   1.985   1.296  13.706  0.9052  0.1817  0.4333
 4899SOL     OW26158   3.420   3.959   2.428  0.2242  0.1256 -0.6869
 4899SOL    HW126159   3.423   3.891   2.360  0.6112 -0.4635 -0.0702
 4899SOL    HW226160   3.437   4.036   2.373  1.3131  0.2460 -0.1830
 4900SOL     OW26161   3.696   2.835   4.164 -0.1196 -0.2439 -0.3131
 4900SOL    HW126162   3.608   2.812   4.195  0.3913  0.9270  2.0478
 4900SOL    HW226163   3.680   2.895   4.092  0.0391  0.4466  0.2325
 4901SOL     OW26164   0.759   1.382   3.122  0.7888  0.0097 -0.1629
 4901SOL    HW126165   0.757   1.311   3.186  1.7005  0.1832  0.0645
 4901SOL    HW226166   0.730   1.338   3.042 -1.7217 -1.5885  1.6479
 4902SOL     OW26167   1.068   1.723   8.383 -0.1655 -0.2889 -0.3318
 4902SOL    HW126168   1.021   1.771   8.452  2.9122 -0.5123  1.8827
 4902SOL    HW226169   1.057   1.630   8.403 -0.3657  0.5595  3.3485
 4903SOL     OW26170   0.769   0.954   6.178  0.4475  1.0191  0.0231
 4903SOL    HW126171   0.822   0.880   6.208 -2.6498 -0.9920  0.4657
 4903SOL    HW226172   0.835   1.003   6.128 -0.9823  3.0402  0.1370
 4904SOL     OW26173   1.638   1.373   8.221  0.4068 -0.6631  0.5056
 4904SOL    HW126174   1.667   1.367   8.311 -2.4937  1.4025  1.6038
 4904SOL    HW226175   1.553   1.330   8.234 -0.5112  1.3839  1.2782
 4905SOL     OW26176   4.218   3.222  12.020  0.2723 -0.1042 -0.3911
 4905SOL    HW126177   4.247   3.270  11.943  1.0449 -0.0625 -0.0703
 4905SOL    HW226178   4.282   3.151  12.030 -1.1660 -1.0016  2.4338
 4906SOL     OW26179   1.136   2.840  12.774 -0.1260 -0.2877 -0.0718
 4906SOL    HW126180   1.168   2.918  12.729 -0.0945  0.3102  0.9849
 4906SOL    HW226181   1.081   2.876  12.843  1.6361  1.2284  0.5517
 4907SOL     OW26182   1.932   3.660   5.575 -0.5665 -0.3561  0.1772
 4907SOL    HW126183   2.020   3.647   5.610 -0.4449 -2.4046 -0.8840
 4907SOL    HW226184   1.939   3.714   5.496 -1.6246  1.0255  1.0223
 4908SOL     OW26185   1.683   1.976   2.575  0.2439 -0.1869  0.3612
 4908SOL    HW126186   1.629   1.973   2.496  0.5788 -2.7687  0.2364
 4908SOL    HW226187   1.774   1.972   2.545 -0.6773  0.0906 -2.4863
 4909SOL     OW26188   2.710   4.290   8.378 -0.0497  0.4229  0.1843
 4909SOL    HW126189   2.651   4.290   8.454 -0.5650  0.5275 -0.2197
 4909SOL    HW226190   2.786   4.241   8.410 -0.4193  1.2339  2.3277
 4910SOL     OW26191   1.334   1.829   7.567 -0.8843 -0.8514  0.0836
 4910SOL    HW126192   1.347   1.812   7.660  1.4153  1.4082  0.1817
 4910SOL    HW226193   1.306   1.921   7.563 -0.6685 -0.8167 -0.6197
 4911SOL     OW26194   2.480   1.130   3.547 -0.2333  0.2014 -0.2995
 4911SOL    HW126195   2.436   1.077   3.481  1.4002 -2.3775  0.6872
 4911SOL    HW226196   2.542   1.068   3.585  0.4288 -0.0566 -1.8025
 4912SOL     OW26197   4.292   1.947   9.876  0.2220 -0.5536 -0.4321
 4912SOL    HW126198   4.357   1.886   9.841  1.8832 -0.0157  1.7792
 4912SOL    HW226199   4.307   1.958   9.969 -3.2900  2.0227 -0.1803
 4913SOL     OW26200   0.586   0.119   5.471 -0.2615 -0.2819  0.4846
 4913SOL    HW126201   0.671   0.110   5.429  0.5680  0.9014  1.9214
 4913SOL    HW226202   0.527   0.061   5.422 -0.7893  1.6495 -1.1618
 4914SOL     OW26203   0.283   1.693  11.442 -0.5089  0.2074  0.3164
 4914SOL    HW126204   0.190   1.676  11.456 -0.1790 -0.3025  1.8257
 4914SOL    HW226205   0.322   1.640  11.511  1.8207 -0.2841 -1.3942
 4915SOL     OW26206   4.433   3.511   0.063 -0.0090  0.1964  0.2059
 4915SOL    HW126207   4.438   3.588   0.119 -1.5282  0.0417  0.5681
 4915SOL    HW226208   4.345   3.477   0.077  0.9824 -2.2891  0.3750
 4916SOL     OW26209   2.018   1.901   7.138  0.0875  0.8305 -0.0273
 4916SOL    HW126210   2.106   1.937   7.152  1.2160 -0.8196 -2.8475
 4916SOL    HW226211   2.032   1.870   7.049 -2.5221  1.4805 -0.6545
 4917SOL     OW26212   4.605   0.634   4.711  0.4074  0.5605  0.2890
 4917SOL    HW126213   4.562   0.704   4.759  1.1436  2.2451 -1.5104
 4917SOL    HW226214   4.560   0.552   4.733  2.6148 -1.0792 -1.2857
 4918SOL     OW26215   4.244   1.202  14.249 -0.5158  0.4721 -0.1663
 4918SOL    HW126216   4.244   1.237  14.338 -0.9330 -0.0523  0.0442
 4918SOL    HW226217   4.157   1.231  14.220 -1.2416 -1.3765  0.0951
 4919SOL     OW26218   2.762   3.428  12.152 -0.1968  0.5133  0.6631
 4919SOL    HW126219   2.831   3.416  12.087 -2.5150 -1.7882 -1.3731
 4919SOL    HW226220   2.807   3.447  12.234  2.0810  0.5136 -0.5740
 4920SOL     OW26221   2.756   0.002   6.122 -0.1325 -0.2638 -0.4859
 4920SOL    HW126222   2.825   4.660   6.113  1.2942  1.2125 -0.4374
 4920SOL    HW226223   2.785   0.053   6.198  1.5864 -1.7986 -0.0969
 4921SOL     OW26224   0.404   3.887   4.211  0.3589  0.4772  0.2382
 4921SOL    HW126225   0.428   3.871   4.119  0.3439  0.9021  0.1587
 4921SOL    HW226226   0.429   3.980   4.213 -1.8941  1.0857 -0.0590
 4922SOL     OW26227   4.389   0.284   5.368  0.3959 -0.2821 -0.1098
 4922SOL    HW126228   4.343   0.330   5.299 -2.6663 -2.5731  0.3865
 4922SOL    HW226229   4.316   0.276   5.430  0.5916  3.0108  0.5005
 4923SOL     OW26230   1.204   4.275   3.020 -0.4590 -0.2504  0.2879
 4923SOL    HW126231   1.259   4.264   3.097  1.9089  0.0171 -1.3543
 4923SOL    HW226232   1.162   4.357   3.045  2.9268  1.8636 -0.9158
 4924SOL     OW26233   2.250   4.388   5.082  0.2864  0.1247 -0.3470
 4924SOL    HW126234   2.273   4.422   4.996 -2.1992  1.8504 -0.3095
 4924SOL    HW226235   2.220   4.300   5.057 -0.1237  0.5812 -1.4203
 4925SOL     OW26236   2.326   3.567   5.239 -0.1518  0.7721 -0.0322
 4925SOL    HW126237   2.348   3.485   5.197  0.4253  0.9085  0.0030
 4925SOL    HW226238   2.305   3.530   5.325 -0.4769  1.6571  0.2810
 4926SOL     OW26239   3.822   2.860   3.664 -0.1986 -0.1766  0.1045
 4926SOL    HW126240   3.915   2.861   3.641 -0.5356  2.8841 -1.1242
 4926SOL    HW226241   3.819   2.791   3.730 -1.0663  0.2399  0.5059
 4927SOL     OW26242   3.013   1.562   6.665 -0.6210  0.4667 -0.3403
 4927SOL    HW126243   3.018   1.480   6.615 -0.7894  0.2248  0.0359
 4927SOL    HW226244   2.976   1.621   6.600  0.6918 -0.2208 -1.7110
 4928SOL     OW26245   0.586   2.465   7.259  0.5422 -0.0975  0.0897
 4928SOL    HW126246   0.656   2.518   7.219 -0.2086  1.3095  0.6280
 4928SOL    HW226247   0.571   2.394   7.196  1.5036  0.6477 -0.9922
 4929SOL     OW26248   3.235   2.656   7.301 -0.1740 -0.1720  0.3690
 4929SOL    HW126249   3.293   2.722   7.263  0.5947 -1.4818 -0.7476
 4929SOL    HW226250   3.158   2.673   7.246 -0.4063 -0.3144  0.6504
 4930SOL     OW26251   2.915   2.677  13.463 -0.4796 -0.0245  0.8315
 4930SOL    HW126252   2.888   2.621  13.390 -0.2211  1.5394 -0.4817
 4930SOL    HW226253   3.004   2.645  13.474 -0.3637  0.2350  0.6755
 4931SOL     OW26254   1.202   4.573  10.378  0.1763 -0.2442  0.3605
 4931SOL    HW126255   1.274   4.632  10.399  0.4456 -0.1513 -0.8433
 4931SOL    HW226256   1.159   4.564  10.463 -0.6487  1.8839  0.1675
 4932SOL     OW26257   1.758   3.171   2.927 -0.0749  0.1194  0.4247
 4932SOL    HW126258   1.788   3.190   2.838 -0.1252 -1.5306  0.0620
 4932SOL    HW226259   1.671   3.138   2.904  0.1610  0.3218 -0.7182
 4933SOL     OW26260   0.734   0.152   9.910  0.0025  0.1606  0.3549
 4933SOL    HW126261   0.770   0.180   9.994  1.0933 -0.4480  0.0906
 4933SOL    HW226262   0.670   0.219   9.884  0.4871  0.2424 -0.6270
 4934SOL     OW26263   3.635   4.327  16.160  0.2323 -0.0945  0.4773
 4934SOL    HW126264   3.542   4.347  16.167  0.2542  0.2365 -0.1881
 4934SOL    HW226265   3.641   4.328  16.256 -2.3487  1.0976  0.6266
 4935SOL     OW26266   3.519   3.604   2.740 -0.4044  0.0490  0.1217
 4935SOL    HW126267   3.525   3.509   2.748 -0.9631  0.1040  1.1910
 4935SOL    HW226268   3.594   3.628   2.794  0.4376  0.3709 -1.1872
 4936SOL     OW26269   4.088   4.506   8.200 -0.5535 -0.1933  0.0049
 4936SOL    HW126270   4.154   4.455   8.248  0.1534 -0.4465 -1.2515
 4936SOL    HW226271   4.027   4.508   8.274  2.5076 -0.4124  2.5441
 4937SOL     OW26272   2.418   3.337   5.628  1.0443 -0.7487  0.3995
 4937SOL    HW126273   2.376   3.274   5.570 -1.8228  0.0210  1.6516
 4937SOL    HW226274   2.476   3.379   5.564 -1.0875 -1.1804 -1.7927
 4938SOL     OW26275   1.746   1.198   7.743 -0.2780 -0.0713 -0.3044
 4938SOL    HW126276   1.719   1.107   7.733  0.9642 -0.0908 -3.3100
 4938SOL    HW226277   1.836   1.193   7.710  0.4135  4.0995  0.8208
 4939SOL     OW26278   2.421   0.890   3.974 -0.0127  0.5529 -0.0265
 4939SOL    HW126279   2.511   0.864   3.955  0.3206  0.9479  0.9975
 4939SOL    HW226280   2.410   0.950   3.899 -0.8633  0.8140  0.3053
 4940SOL     OW26281   0.792   1.879   5.002  0.7051 -0.4100  0.2258
 4940SOL    HW126282   0.779   1.969   5.033 -0.2157  0.2777 -2.1285
 4940SOL    HW226283   0.702   1.847   5.002  1.1703 -1.6902  0.0090
 4941SOL     OW26284   4.417   0.182   3.240 -0.1042  0.4875 -0.0213
 4941SOL    HW126285   4.356   0.206   3.171 -0.9831  0.5237  0.7763
 4941SOL    HW226286   4.355   0.139   3.298  1.1765 -1.9660 -0.4663
 4942SOL     OW26287   2.277   1.029   1.531  0.2337 -0.0111  0.4145
 4942SOL    HW126288   2.329   1.091   1.480 -0.2856 -0.6072 -0.8484
 4942SOL    HW226289   2.350   0.968   1.544 -2.4731 -3.0792  1.0361
 4943SOL     OW26290   0.032   3.926  13.067 -0.1652  0.3705  0.2301
 4943SOL    HW126291   4.663   3.931  13.043  0.2284 -1.1656 -1.5479
 4943SOL    HW226292   0.050   3.850  13.012 -0.5374  1.2000 -1.0371
 4944SOL     OW26293   0.952   1.456  16.515  0.4340  0.2445  0.0482
 4944SOL    HW126294   0.865   1.436  16.548  0.6287  0.9703  1.0007
 4944SOL    HW226295   0.943   1.433  16.422  3.4532  0.5994 -0.3414
 4945SOL     OW26296   1.120   4.461   0.210 -0.5229 -0.4807 -0.1523
 4945SOL    HW126297   1.153   4.518   0.141  2.0491 -1.0438  0.6334
 4945SOL    HW226298   1.188   4.395   0.202  1.2185  1.2040  0.8810
 4946SOL     OW26299   4.107   3.918   6.185 -0.0858 -0.0711 -0.0245
 4946SOL    HW126300   4.120   3.828   6.155 -0.6247  0.0537 -0.6242
 4946SOL    HW226301   4.023   3.902   6.229  0.0734 -2.1423 -0.4834
 4947SOL     OW26302   3.119   3.529  16.174  0.0473 -0.0713 -0.1431
 4947SOL    HW126303   3.076   3.576  16.245 -2.0161  1.2880 -2.2805
 4947SOL    HW226304   3.212   3.528  16.198  0.0846  0.9365 -0.2311
 4948SOL     OW26305   0.235   3.146   3.207  0.2274 -0.2470 -0.2316
 4948SOL    HW126306   0.178   3.221   3.224  0.3726 -0.2825  0.4376
 4948SOL    HW226307   0.200   3.115   3.124 -1.8225 -1.6690  1.1565
 4949SOL     OW26308   2.858   0.755  16.724 -0.1248 -0.3130 -0.2946
 4949SOL    HW126309   2.884   0.847  16.713  0.3026 -0.3905  0.0755
 4949SOL    HW226310   2.942   0.711  16.714 -0.0822  0.2561 -2.2684
 4950SOL     OW26311   1.065   4.095  10.459  0.1444 -0.1926  0.3925
 4950SOL    HW126312   0.975   4.121  10.481  0.3165 -0.2039  1.1006
 4950SOL    HW226313   1.055   4.097  10.364  1.9369  1.1145  0.2309
 4951SOL     OW26314   1.726   4.006   3.393  0.5452  0.2757  0.0359
 4951SOL    HW126315   1.717   3.931   3.335  1.1142  0.0258  0.2695
 4951SOL    HW226316   1.818   4.027   3.374  1.0353 -1.2170  0.7891
 4952SOL     OW26317   0.698   3.862  11.536  0.3696 -0.5251 -0.2830
 4952SOL    HW126318   0.671   3.910  11.458 -3.5044 -0.8728  0.8307
 4952SOL    HW226319   0.760   3.926  11.570 -0.9449  1.3017 -1.3610
 4953SOL     OW26320   0.635   2.246   8.640 -0.5060  0.0954  0.1433
 4953SOL    HW126321   0.642   2.312   8.572  3.4600 -1.8635 -1.3883
 4953SOL    HW226322   0.594   2.179   8.584 -0.4373  2.0804 -2.2721
 4954SOL     OW26323   1.601   1.679  13.880 -0.6770  0.2470 -0.2803
 4954SOL    HW126324   1.663   1.614  13.848 -2.6955 -0.4133 -2.8138
 4954SOL    HW226325   1.628   1.693  13.971  0.1547 -0.3503 -0.4326
 4955SOL     OW26326   2.505   0.183   3.493 -0.3794  0.1877 -0.1701
 4955SOL    HW126327   2.564   0.199   3.567  0.6985  0.1383 -1.0094
 4955SOL    HW226328   2.541   0.099   3.465  0.4863  1.0155 -1.5369
 4956SOL     OW26329   1.816   1.228   6.926  0.4009  0.0699  0.0166
 4956SOL    HW126330   1.818   1.167   6.853  1.8553 -1.3736  1.2678
 4956SOL    HW226331   1.908   1.249   6.941 -0.2522  2.3478  0.7495
 4957SOL     OW26332   1.834   2.124   7.192 -0.3091  0.2925  0.0058
 4957SOL    HW126333   1.901   2.085   7.248  0.4135  1.4712 -0.0505
 4957SOL    HW226334   1.773   2.145   7.262 -0.4179  2.3681 -0.7154
 4958SOL     OW26335   3.357   2.443   6.459 -0.5445  0.6543 -0.1775
 4958SOL    HW126336   3.389   2.359   6.493 -0.0605  0.6341 -0.6768
 4958SOL    HW226337   3.284   2.455   6.520 -0.7620  0.4427 -0.4002
 4959SOL     OW26338   4.581   1.204  13.067 -0.2752 -0.0902 -0.3951
 4959SOL    HW126339   4.622   1.283  13.101  1.4838 -1.1682 -0.0427
 4959SOL    HW226340   4.654   1.143  13.054  0.2811  0.3774  0.5587
 4960SOL     OW26341   4.615   1.514   2.483  0.4679 -0.3392  0.0613
 4960SOL    HW126342   4.597   1.514   2.389 -0.0615 -1.6987  0.1590
 4960SOL    HW226343   4.711   1.511   2.484  0.4606 -0.6291 -0.3253
 4961SOL     OW26344   4.184   2.047   7.150  0.3863  0.0877 -0.0828
 4961SOL    HW126345   4.246   2.120   7.147  2.1285 -1.3945  0.2073
 4961SOL    HW226346   4.101   2.087   7.177  0.0242 -1.4683  1.1429
 4962SOL     OW26347   1.628   4.570   1.429 -0.4197 -0.0264  0.5599
 4962SOL    HW126348   1.551   4.605   1.473  0.3985  1.3804  0.8773
 4962SOL    HW226349   1.662   4.642   1.376 -1.1293 -0.3950 -0.4150
 4963SOL     OW26350   4.626   2.741   9.594  0.4999 -0.3479  0.6230
 4963SOL    HW126351   4.554   2.690   9.630 -2.5235  3.2901 -0.2641
 4963SOL    HW226352   4.584   2.817   9.553  2.0766  0.5511  0.6710
 4964SOL     OW26353   0.544   0.843   2.299 -0.1294  0.3090  0.8317
 4964SOL    HW126354   0.454   0.869   2.281  1.2542  1.7482 -3.9084
 4964SOL    HW226355   0.588   0.882   2.224 -3.3579  2.2620 -0.0471
 4965SOL     OW26356   2.416   2.699  12.667 -0.4514  0.1623 -0.2566
 4965SOL    HW126357   2.499   2.660  12.695  0.9956  3.8882  0.6150
 4965SOL    HW226358   2.454   2.761  12.606  0.4513 -0.8908 -0.7732
 4966SOL     OW26359   1.306   3.840   4.151 -0.8742 -0.2990 -0.1806
 4966SOL    HW126360   1.305   3.894   4.231  1.2540 -0.9975  0.3132
 4966SOL    HW226361   1.232   3.872   4.099 -0.9436 -0.2963 -0.0820
 4967SOL     OW26362   3.352   1.106   3.455  0.4844  0.1666  0.2519
 4967SOL    HW126363   3.297   1.184   3.459 -0.3340 -0.4654  1.1817
 4967SOL    HW226364   3.411   1.128   3.383 -0.0838 -1.0031 -0.5788
 4968SOL     OW26365   3.696   0.684  16.478 -0.7587  0.3600  0.2214
 4968SOL    HW126366   3.667   0.738  16.404 -0.7593 -0.1775 -0.1690
 4968SOL    HW226367   3.709   0.598  16.440  0.5253  0.2571  0.8738
 4969SOL     OW26368   1.385   4.283   0.683 -0.1055 -0.1401 -0.1085
 4969SOL    HW126369   1.310   4.234   0.649 -0.7092 -0.0931  1.1412
 4969SOL    HW226370   1.459   4.226   0.664  0.1794  0.8236 -1.9446
 4970SOL     OW26371   4.595   3.325   2.660 -0.4457  0.2083  0.3672
 4970SOL    HW126372   4.673   3.270   2.668 -0.0176  0.6046 -1.1349
 4970SOL    HW226373   4.523   3.264   2.642  0.3811 -0.9693  1.0484
 4971SOL     OW26374   0.536   2.285  13.491  0.3488 -0.3158  0.1449
 4971SOL    HW126375   0.447   2.259  13.469  1.1729 -1.7640 -1.5210
 4971SOL    HW226376   0.603   2.234  13.446  0.0208 -2.6850  2.2964
 4972SOL     OW26377   0.629   4.435  15.321 -0.3460  0.8837  0.0917
 4972SOL    HW126378   0.670   4.478  15.246  1.1323 -1.1972 -0.3000
 4972SOL    HW226379   0.712   4.417  15.365  0.0222  0.9946 -0.5557
 4973SOL     OW26380   4.308   1.554  14.402  0.2156 -0.8635  0.1767
 4973SOL    HW126381   4.263   1.632  14.369  0.5497 -0.6856  0.1423
 4973SOL    HW226382   4.348   1.584  14.484  1.2115  0.0536 -0.6444
 4974SOL     OW26383   2.939   3.526   4.112  0.3315  0.0981 -0.3604
 4974SOL    HW126384   2.873   3.593   4.094  0.7922 -0.2661 -3.3923
 4974SOL    HW226385   2.970   3.501   4.025  0.3653  1.4887 -0.7564
 4975SOL     OW26386   1.162   0.573   6.367  0.7223 -0.2591 -0.5235
 4975SOL    HW126387   1.186   0.650   6.418 -1.0596 -0.4261  0.5669
 4975SOL    HW226388   1.070   0.594   6.353  0.4543 -0.5274  0.8225
 4976SOL     OW26389   0.140   0.802   0.667 -0.5574 -0.2683 -0.5043
 4976SOL    HW126390   0.093   0.750   0.601 -0.5053  0.0899 -0.8235
 4976SOL    HW226391   0.122   0.889   0.631 -1.3545  0.3166  1.3074
 4977SOL     OW26392   2.256   1.067   2.354 -0.2063 -0.0447  0.5136
 4977SOL    HW126393   2.288   1.152   2.324 -1.8593  0.2590 -0.3385
 4977SOL    HW226394   2.197   1.109   2.416 -1.0274 -1.1917  0.5035
 4978SOL     OW26395   2.026   1.651  12.290 -0.4215  0.1378 -0.3667
 4978SOL    HW126396   2.109   1.680  12.254  0.7919 -1.4158  1.1820
 4978SOL    HW226397   2.026   1.562  12.254  2.0658  0.4817 -1.2193
 4979SOL     OW26398   1.029   0.894   5.765  0.3896 -0.4193  0.3310
 4979SOL    HW126399   1.040   0.858   5.677  0.4230 -1.6573  0.8466
 4979SOL    HW226400   1.011   0.821   5.824  0.0941  0.9142  1.8900
 4980SOL     OW26401   3.876   1.345  10.163 -0.4568  0.5028 -0.1953
 4980SOL    HW126402   3.898   1.434  10.190  1.6356 -0.3544  0.9176
 4980SOL    HW226403   3.795   1.363  10.115  0.9202  1.6864 -2.0539
 4981SOL     OW26404   4.337   3.063   9.382  1.0951 -0.3072 -0.3985
 4981SOL    HW126405   4.248   3.083   9.354  1.1215 -0.2101 -0.4116
 4981SOL    HW226406   4.375   3.143   9.418  0.1329 -0.1932  0.3829
 4982SOL     OW26407   4.370   1.222   1.565 -0.1542  0.3101 -0.3278
 4982SOL    HW126408   4.377   1.169   1.486 -1.5215  0.0654 -0.2749
 4982SOL    HW226409   4.441   1.286   1.556 -0.3591  0.6105  0.1927
 4983SOL     OW26410   2.955   4.517   7.302 -0.1419 -0.2644 -0.6083
 4983SOL    HW126411   2.980   4.516   7.394 -0.9006 -3.0354 -0.4197
 4983SOL    HW226412   2.993   4.436   7.267  0.3766  1.1320 -3.2977
 4984SOL     OW26413   2.766   0.933   8.670  0.4511 -0.1499 -0.0449
 4984SOL    HW126414   2.727   0.968   8.750  0.9000  0.4358 -0.0816
 4984SOL    HW226415   2.690   0.917   8.613 -1.0132  1.5587  1.4525
 4985SOL     OW26416   1.012   4.385   3.802 -0.0153 -0.2806  0.0119
 4985SOL    HW126417   1.023   4.432   3.719 -0.1104 -2.5457 -1.2685
 4985SOL    HW226418   0.926   4.416   3.830 -0.6710 -2.4018  0.3236
 4986SOL     OW26419   4.074   1.671   8.969 -0.3627 -0.0008  1.1558
 4986SOL    HW126420   4.004   1.658   9.034 -0.2736 -3.1848  0.6026
 4986SOL    HW226421   4.021   1.673   8.889  1.8993  1.2028 -0.3177
 4987SOL     OW26422   4.025   4.067  13.355  0.2903 -0.0998 -0.0114
 4987SOL    HW126423   3.969   4.142  13.335 -0.5508 -0.7684 -0.1841
 4987SOL    HW226424   4.099   4.079  13.296  1.6146  1.5799  1.9673
 4988SOL     OW26425   3.990   4.422   8.897 -0.1242  0.1445  0.2317
 4988SOL    HW126426   3.993   4.513   8.868 -0.3664 -0.5579 -1.9471
 4988SOL    HW226427   3.901   4.414   8.931  0.3388 -1.4200  1.0575
 4989SOL     OW26428   2.824   2.154   5.899 -0.7440 -0.8548  0.5592
 4989SOL    HW126429   2.862   2.238   5.873 -1.2871 -0.3711  1.3674
 4989SOL    HW226430   2.753   2.168   5.836  0.7547  2.7716 -0.3385
 4990SOL     OW26431   0.818   1.473   9.759 -0.0259  0.2538 -0.2631
 4990SOL    HW126432   0.734   1.511   9.786 -1.1014 -1.9133 -0.5615
 4990SOL    HW226433   0.806   1.473   9.664 -1.3085  0.6897 -0.1072
 4991SOL     OW26434   0.367   3.846  12.986  0.3375  0.4581  0.9526
 4991SOL    HW126435   0.379   3.832  12.892  0.8255  3.1553  0.5976
 4991SOL    HW226436   0.383   3.941  12.988  0.7168  0.4471 -2.0256
 4992SOL     OW26437   1.278   0.404  15.142 -0.0190  0.3614  0.2125
 4992SOL    HW126438   1.237   0.488  15.119 -0.0663  0.2433 -0.1245
 4992SOL    HW226439   1.263   0.404  15.237 -1.8074 -3.5486 -0.1113
 4993SOL     OW26440   2.068   3.519   4.753  0.4555 -0.0617 -0.3212
 4993SOL    HW126441   2.076   3.448   4.689  0.6143  0.0029 -0.3747
 4993SOL    HW226442   2.108   3.487   4.834 -1.3389  0.6253  0.8204
 4994SOL     OW26443   1.362   2.390   2.364  0.0741  0.8158  0.4287
 4994SOL    HW126444   1.298   2.344   2.311  0.3987 -2.3544  2.7743
 4994SOL    HW226445   1.372   2.476   2.324 -1.0659  1.1227  0.8157
 4995SOL     OW26446   3.936   4.480   8.434  0.3567  0.4867 -0.5673
 4995SOL    HW126447   3.885   4.411   8.391  1.0474  0.2216 -0.9617
 4995SOL    HW226448   4.020   4.439   8.455 -0.0785 -0.0080  0.2343
 4996SOL     OW26449   1.570   2.271  12.110  0.3294 -0.0941  0.4025
 4996SOL    HW126450   1.572   2.239  12.200 -0.7192 -1.8912 -0.2228
 4996SOL    HW226451   1.498   2.221  12.071 -1.7977  1.7529  1.9701
 4997SOL     OW26452   4.092   1.875   2.863 -0.3106  0.2587 -0.0793
 4997SOL    HW126453   4.021   1.890   2.926 -0.0051 -0.9376  0.5563
 4997SOL    HW226454   4.058   1.927   2.791 -1.9253 -0.2733  0.2907
 4998SOL     OW26455   2.276   3.265   4.679 -0.5006 -0.2840  0.2897
 4998SOL    HW126456   2.371   3.254   4.677 -0.6667 -1.7651  0.3145
 4998SOL    HW226457   2.247   3.180   4.712  2.1895 -1.7636 -1.1080
 4999SOL     OW26458   4.532   4.266   0.922  0.1834  0.2644 -0.4960
 4999SOL    HW126459   4.484   4.339   0.962 -0.1415 -0.1900 -0.0608
 4999SOL    HW226460   4.454   4.213   0.904  0.0280 -0.5837  2.6789
 5000SOL     OW26461   1.380   1.785   7.005  0.0576  0.3677 -0.0785
 5000SOL    HW126462   1.444   1.716   7.022 -2.4414 -1.5821  1.4847
 5000SOL    HW226463   1.340   1.757   6.923  0.9501  2.3362 -1.1727
 5001SOL     OW26464   1.149   4.646   1.472 -0.5765 -1.0137 -0.5709
 5001SOL    HW126465   1.117   4.556   1.478  1.0085 -1.5403 -0.0140
 5001SOL    HW226466   1.102   4.681   1.548  0.2602 -0.3290 -0.3775
 5002SOL     OW26467   3.657   2.133   7.188  0.2037 -0.0220 -0.4839
 5002SOL    HW126468   3.606   2.137   7.107 -1.3018  1.0349  0.5259
 5002SOL    HW226469   3.593   2.123   7.259  0.5043 -0.5100 -0.2777
 5003SOL     OW26470   0.601   2.092   8.370 -0.5282  0.2432  0.1135
 5003SOL    HW126471   0.658   2.015   8.371 -3.4927 -1.9141  0.5621
 5003SOL    HW226472   0.630   2.147   8.297  2.4611 -2.4228 -0.7225
 5004SOL     OW26473   0.215   3.534  13.401 -0.4533 -0.4126  0.1420
 5004SOL    HW126474   0.137   3.587  13.416  0.1727  1.3937 -2.8296
 5004SOL    HW226475   0.196   3.453  13.448 -0.2712 -0.9558 -0.7275
 5005SOL     OW26476   2.089   2.361  11.375 -0.6869 -0.2010  0.3480
 5005SOL    HW126477   2.041   2.278  11.374  0.7871 -0.9943 -1.9299
 5005SOL    HW226478   2.034   2.402  11.442 -0.0025  0.2860  0.6020
 5006SOL     OW26479   4.283   3.383   1.097  0.2140 -0.6486  0.4738
 5006SOL    HW126480   4.272   3.477   1.086  0.1508 -0.9859 -2.3074
 5006SOL    HW226481   4.220   3.362   1.165 -0.5516 -2.2576 -0.7295
 5007SOL     OW26482   4.607   3.539  15.693  0.3747  0.5212  0.3312
 5007SOL    HW126483   4.634   3.485  15.618 -0.8165  0.0560  0.2421
 5007SOL    HW226484   4.540   3.476  15.720 -1.4722  2.4757  0.2516
 5008SOL     OW26485   4.339   0.810   6.820 -0.1207  0.5568 -0.1727
 5008SOL    HW126486   4.341   0.725   6.776 -1.3738  0.1955  0.4645
 5008SOL    HW226487   4.347   0.870   6.745 -1.9263  3.1674  1.7275
 5009SOL     OW26488   4.164   2.670   6.967  0.6431  0.6423 -0.4943
 5009SOL    HW126489   4.215   2.705   7.039  0.3124 -1.7226  0.9000
 5009SOL    HW226490   4.084   2.721   6.978  1.1437  1.0923  1.0702
 5010SOL     OW26491   2.972   3.098  13.634  0.0671 -0.3218  0.0444
 5010SOL    HW126492   3.062   3.075  13.612  0.7348  1.2723  1.1433
 5010SOL    HW226493   2.927   3.017  13.659 -1.2441  0.2596 -0.4134
 5011SOL     OW26494   3.682   0.190  13.928 -0.3942  0.0856  0.3905
 5011SOL    HW126495   3.600   0.233  13.952 -1.1756 -0.5630 -1.0556
 5011SOL    HW226496   3.652   0.149  13.846 -0.1273 -1.7675  1.2184
 5012SOL     OW26497   4.569   2.273   9.134  0.1759 -0.5281 -0.5899
 5012SOL    HW126498   4.479   2.305   9.131  0.0836 -0.6749  0.5169
 5012SOL    HW226499   4.606   2.320   9.059 -0.2084  1.4668  0.4849
 5013SOL     OW26500   1.583   3.410   2.864  0.2875  0.5015 -0.4284
 5013SOL    HW126501   1.560   3.387   2.953 -0.4315  1.0513 -0.4699
 5013SOL    HW226502   1.593   3.321   2.831 -0.6824 -0.9387  3.2833
 5014SOL     OW26503   1.084   2.625   6.119  0.7594 -0.0217  0.3872
 5014SOL    HW126504   1.177   2.610   6.105  0.1349 -1.8618 -1.8819
 5014SOL    HW226505   1.067   2.534   6.145  0.4682 -0.0594  0.0642
 5015SOL     OW26506   4.517   1.836  16.681 -0.0853  0.4187 -0.1397
 5015SOL    HW126507   4.489   1.745  16.681 -0.7727  0.6330  0.1304
 5015SOL    HW226508   4.463   1.863  16.607 -0.2522  0.8259  0.1312
 5016SOL     OW26509   3.543   3.032  12.827  0.3664  0.0656 -0.2560
 5016SOL    HW126510   3.566   3.123  12.810 -1.2083  0.5789  0.4046
 5016SOL    HW226511   3.602   2.987  12.766  0.0956  0.2417 -0.6434
 5017SOL     OW26512   1.155   2.519   2.727  0.1290 -0.0201  0.2255
 5017SOL    HW126513   1.248   2.508   2.705 -0.1049 -1.9513  0.1467
 5017SOL    HW226514   1.128   2.428   2.717 -0.3593  0.3236 -1.5473
 5018SOL     OW26515   4.485   3.290   2.985 -0.1729  0.0552  0.2416
 5018SOL    HW126516   4.567   3.250   3.013  0.0965  0.4158 -0.0372
 5018SOL    HW226517   4.462   3.234   2.910 -1.2501  0.2198  0.4432
 5019SOL     OW26518   0.252   3.052  15.763 -0.2337  0.0861 -0.4234
 5019SOL    HW126519   0.332   3.101  15.778 -0.6548  0.4745  0.5197
 5019SOL    HW226520   0.188   3.122  15.753  0.2103  0.7819  1.7874
 5020SOL     OW26521   0.503   2.849   9.230 -0.0002 -0.1891  0.2137
 5020SOL    HW126522   0.486   2.804   9.147  3.8254 -0.9531 -0.1360
 5020SOL    HW226523   0.511   2.768   9.280 -2.2759 -0.2314  0.4933
 5021SOL     OW26524   1.738   3.155   8.721 -0.3645  0.3455  0.4938
 5021SOL    HW126525   1.735   3.157   8.817  0.9155  0.9445  0.5270
 5021SOL    HW226526   1.669   3.093   8.698  0.2974 -0.0768 -0.3313
 5022SOL     OW26527   2.936   0.731   5.568  0.3152  0.7717  0.9565
 5022SOL    HW126528   2.861   0.707   5.514  0.1547 -2.6304  2.6473
 5022SOL    HW226529   2.917   0.818   5.602  1.5298  0.9833  1.1045
 5023SOL     OW26530   0.306   0.565   6.526  0.1063  0.0505  1.1103
 5023SOL    HW126531   0.218   0.602   6.527 -0.1260 -0.4919  0.7306
 5023SOL    HW226532   0.347   0.636   6.577 -0.3267  1.8990 -1.1313
 5024SOL     OW26533   2.488   2.797   6.776  0.0221 -0.1343 -0.1210
 5024SOL    HW126534   2.401   2.837   6.774 -0.8203 -1.9657  0.0405
 5024SOL    HW226535   2.497   2.742   6.698  0.5728  0.9321 -0.8146
 5025SOL     OW26536   4.464   3.568   2.592  0.3092 -0.6454 -0.2357
 5025SOL    HW126537   4.517   3.600   2.518  1.7283  0.1253  1.0960
 5025SOL    HW226538   4.515   3.489   2.611  1.6060 -0.0826 -1.2896
 5026SOL     OW26539   3.476   3.256   5.927  0.4486 -0.0449 -0.5108
 5026SOL    HW126540   3.513   3.247   5.839  1.0644  0.9281 -0.3605
 5026SOL    HW226541   3.520   3.336   5.957  2.8081 -2.2324  1.8746
 5027SOL     OW26542   3.181   0.674  15.100  0.0466 -0.2035  0.6731
 5027SOL    HW126543   3.237   0.609  15.143  1.0469 -0.3205 -0.7986
 5027SOL    HW226544   3.158   0.726  15.177 -0.5536  0.5312 -0.0056
 5028SOL     OW26545   4.283   3.981   3.101 -0.3416  0.0399  0.3594
 5028SOL    HW126546   4.248   3.901   3.061 -0.3880 -0.8461  2.1474
 5028SOL    HW226547   4.203   4.000   3.151  0.4858  1.2265  1.2211
 5029SOL     OW26548   1.826   2.732   8.369  0.6441  0.2148 -0.1559
 5029SOL    HW126549   1.908   2.698   8.405 -0.4394 -1.9388  0.2999
 5029SOL    HW226550   1.852   2.822   8.349 -0.2105  0.4940 -0.0176
 5030SOL     OW26551   0.375   1.012   7.014 -0.2812 -0.2583 -0.2515
 5030SOL    HW126552   0.312   1.077   7.045 -1.4583 -0.7815 -1.5634
 5030SOL    HW226553   0.352   1.022   6.922  3.0293 -0.1679 -1.0651
 5031SOL     OW26554   2.453   4.514   5.649 -0.0049  0.4412  0.5357
 5031SOL    HW126555   2.476   4.575   5.578  1.6644  0.0013  0.6963
 5031SOL    HW226556   2.503   4.555   5.719  0.3451  2.2668 -0.7771
 5032SOL     OW26557   0.620   1.439   8.668  0.3472  0.0847 -0.5928
 5032SOL    HW126558   0.561   1.485   8.728  1.1754  0.8687 -0.3725
 5032SOL    HW226559   0.613   1.488   8.586 -0.2374 -0.0383 -0.6112
 5033SOL     OW26560   2.654   1.162   7.828 -0.5123 -0.1017 -0.0101
 5033SOL    HW126561   2.727   1.163   7.890 -0.1918 -0.4985 -0.3750
 5033SOL    HW226562   2.577   1.173   7.883  0.0243  1.3807  0.4210
 5034SOL     OW26563   3.325   0.238   1.903 -0.9720  0.4384 -0.0377
 5034SOL    HW126564   3.300   0.292   1.977  1.5209  1.0376  0.3497
 5034SOL    HW226565   3.395   0.185   1.942 -2.4660 -0.3856  1.5272
 5035SOL     OW26566   0.801   3.760   1.595  0.3980 -0.1895  0.1332
 5035SOL    HW126567   0.837   3.778   1.508 -2.3140  1.0666 -0.7255
 5035SOL    HW226568   0.726   3.819   1.592  1.7236  1.4099 -1.5825
 5036SOL     OW26569   0.275   1.383   3.127 -0.1407  0.3715 -0.4202
 5036SOL    HW126570   0.281   1.439   3.050 -0.5154  1.3960  0.2920
 5036SOL    HW226571   0.318   1.307   3.088  0.6262  0.4716  0.2241
 5037SOL     OW26572   4.456   4.039   6.630 -0.2447 -0.2912  0.1981
 5037SOL    HW126573   4.428   3.950   6.655 -0.0780 -0.0158  1.3573
 5037SOL    HW226574   4.376   4.083   6.604  0.2076  0.7043  0.5135
 5038SOL     OW26575   1.087   2.284  13.676  0.5082 -0.3218 -0.0927
 5038SOL    HW126576   1.035   2.301  13.597  1.3110 -4.2784 -1.4833
 5038SOL    HW226577   1.014   2.242  13.721  0.4952  0.9322  1.0517
 5039SOL     OW26578   0.117   4.650  15.582 -0.5321 -0.2919  0.1464
 5039SOL    HW126579   0.104   4.574  15.639  0.4186 -1.7107 -1.5282
 5039SOL    HW226580   0.028   4.686  15.581 -1.2015 -2.0041 -1.2483
 5040SOL     OW26581   1.589   4.666  11.747  0.4824 -0.5597  0.1078
 5040SOL    HW126582   1.557   0.009  11.807 -0.7996 -0.8605 -0.2542
 5040SOL    HW226583   1.670   4.646  11.794  0.9644  0.8935 -0.1163
 5041SOL     OW26584   0.243   3.410   7.428  0.1008  0.1162  0.0940
 5041SOL    HW126585   0.327   3.395   7.471 -0.1770 -1.2185  0.1715
 5041SOL    HW226586   0.229   3.504   7.426 -0.6666 -0.0143 -1.0631
 5042SOL     OW26587   2.979   1.401   9.444  0.2779 -0.3420 -0.5789
 5042SOL    HW126588   2.908   1.420   9.505 -1.1235  0.6444 -2.5303
 5042SOL    HW226589   2.993   1.307   9.435 -0.1271 -0.3094 -1.4932
 5043SOL     OW26590   2.737   1.676   4.413 -0.2841  0.0641  0.3899
 5043SOL    HW126591   2.812   1.707   4.362 -1.3792  1.2113 -0.4955
 5043SOL    HW226592   2.719   1.749   4.472  0.7099  1.2386 -0.7581
 5044SOL     OW26593   2.493   3.230  13.474  0.0237  0.3660  0.2255
 5044SOL    HW126594   2.535   3.283  13.541 -0.2530 -0.2296  0.8654
 5044SOL    HW226595   2.417   3.203  13.526 -0.1751  1.2241  0.3693
 5045SOL     OW26596   3.189   4.210   4.989 -0.6052  0.0395  0.6507
 5045SOL    HW126597   3.189   4.244   5.079  0.2874  2.3193 -0.2034
 5045SOL    HW226598   3.220   4.280   4.932 -0.0837 -0.4459  0.3459
 5046SOL     OW26599   2.173   3.350   7.518  0.0878 -0.3126 -0.0775
 5046SOL    HW126600   2.151   3.419   7.581 -0.4020 -0.8274  0.3207
 5046SOL    HW226601   2.084   3.333   7.486 -0.0240  0.0395  0.0428
 5047SOL     OW26602   3.689   4.514   4.959 -0.1199  0.1830  0.0418
 5047SOL    HW126603   3.756   4.456   4.922  0.4077  0.4059  0.6642
 5047SOL    HW226604   3.651   4.558   4.882 -2.2093 -0.8400  0.4784
 5048SOL     OW26605   4.213   1.722  15.396 -0.1559 -0.1521 -0.4510
 5048SOL    HW126606   4.227   1.635  15.358  1.1467  0.2835 -0.9548
 5048SOL    HW226607   4.299   1.734  15.437  0.8552 -0.1021 -2.6069
 5049SOL     OW26608   2.253   4.288   6.045 -0.3344 -0.0313 -0.2261
 5049SOL    HW126609   2.242   4.235   6.125 -0.3818 -0.3674 -0.4555
 5049SOL    HW226610   2.176   4.256   5.999  0.4332 -0.5079 -1.1753
 5050SOL     OW26611   3.343   4.470   1.296 -0.2139 -0.0455  0.1884
 5050SOL    HW126612   3.396   4.525   1.354 -1.2516 -0.9269  1.9911
 5050SOL    HW226613   3.259   4.486   1.340 -0.8010  2.0035 -1.6449
 5051SOL     OW26614   1.896   1.985  13.720 -0.0154  0.0276 -0.7185
 5051SOL    HW126615   1.893   2.070  13.677 -2.0038 -0.2321 -1.0921
 5051SOL    HW226616   1.807   1.951  13.711  0.0452 -0.6613  1.0723
 5052SOL     OW26617   4.691   1.892   4.536 -0.2319 -0.2199  0.8322
 5052SOL    HW126618   0.021   1.856   4.606  0.3755 -2.0869 -0.5756
 5052SOL    HW226619   4.692   1.986   4.551  1.8014 -0.0751 -0.1726
 5053SOL     OW26620   2.804   4.095   3.079  0.1460 -0.1195 -0.3456
 5053SOL    HW126621   2.740   4.164   3.062 -1.0871 -1.4201 -0.9913
 5053SOL    HW226622   2.877   4.153   3.101 -0.0793 -0.8666  2.3154
 5054SOL     OW26623   0.917   3.766   9.869  0.3227  0.1485  1.0584
 5054SOL    HW126624   0.987   3.749   9.933  0.2544 -3.0618  0.3004
 5054SOL    HW226625   0.903   3.861   9.873  1.2000  0.3556 -0.8703
 5055SOL     OW26626   0.221   3.910   6.921  0.5333  0.1996  0.1585
 5055SOL    HW126627   0.183   3.925   7.007  1.1575 -0.4078  0.5409
 5055SOL    HW226628   0.140   3.885   6.877  0.5829 -3.0417  1.9004
 5056SOL     OW26629   4.109   4.674   2.876 -0.6749  0.2195 -0.4639
 5056SOL    HW126630   4.022   4.646   2.846 -0.1785 -1.6261 -0.2252
 5056SOL    HW226631   4.125   0.005   2.799 -1.9701  1.0980 -0.1086
 5057SOL     OW26632   4.666   4.474   3.857  0.8171  0.3366  0.3189
 5057SOL    HW126633   4.609   4.482   3.933 -0.0190  2.1434 -0.5000
 5057SOL    HW226634   4.710   4.559   3.863  1.5272 -0.0745  0.9816
 5058SOL     OW26635   4.594   3.205   1.523  0.4808  0.0812 -0.3652
 5058SOL    HW126636   4.534   3.280   1.525 -1.2287 -1.3154  0.2244
 5058SOL    HW226637   4.581   3.175   1.433 -0.3121  1.3439 -0.6747
 5059SOL     OW26638   1.451   4.110   5.113  0.5292  0.2043 -0.2142
 5059SOL    HW126639   1.497   4.071   5.188  1.0500  0.9285 -0.1639
 5059SOL    HW226640   1.498   4.077   5.036  0.9296 -0.2352  0.2116
 5060SOL     OW26641   3.719   2.997   8.730  0.2077  0.1410  0.6173
 5060SOL    HW126642   3.669   2.916   8.732  3.6341 -2.0163 -1.4963
 5060SOL    HW226643   3.689   3.035   8.813 -0.7383 -1.4525  0.9899
 5061SOL     OW26644   3.110   0.015   8.580  0.5522  0.2064  0.7619
 5061SOL    HW126645   3.015   0.009   8.571  0.5924 -0.8919  1.0666
 5061SOL    HW226646   3.124   0.065   8.661  0.7494  0.7196  0.4087
 5062SOL     OW26647   0.003   2.277   6.776  0.1742 -0.0790  0.5192
 5062SOL    HW126648   0.004   2.193   6.821 -1.8808 -0.3891 -0.0231
 5062SOL    HW226649   4.639   2.287   6.741  0.3470 -1.4628 -0.3210
 5063SOL     OW26650   1.640   2.232   2.694  0.0734  0.4335  0.2843
 5063SOL    HW126651   1.640   2.262   2.603 -2.9712 -0.1970  0.0736
 5063SOL    HW226652   1.654   2.138   2.686  0.4037  0.5333 -0.3034
 5064SOL     OW26653   0.651   2.415   5.119  0.2541 -0.6385  0.2056
 5064SOL    HW126654   0.693   2.490   5.077 -0.0481  0.4409  1.8309
 5064SOL    HW226655   0.688   2.348   5.061  3.3031  0.7830  0.5461
 5065SOL     OW26656   3.135   0.592  16.793 -0.2539 -0.5237  0.5597
 5065SOL    HW126657   3.080   0.586  16.871  0.0816  1.8914  0.9832
 5065SOL    HW226658   3.090   0.560  16.715 -1.0229 -0.7839  1.1117
 5066SOL     OW26659   1.379   3.257   6.174  0.0438 -0.3993  0.8846
 5066SOL    HW126660   1.290   3.275   6.202 -0.3414 -0.5953 -0.2378
 5066SOL    HW226661   1.419   3.342   6.195  1.0453 -0.3553 -1.1501
 5067SOL     OW26662   3.787   3.378   5.239  0.1862 -0.2288  0.3142
 5067SOL    HW126663   3.722   3.406   5.303  1.7300  1.5143  1.0988
 5067SOL    HW226664   3.851   3.345   5.301  1.2214 -0.6731 -0.9970
 5068SOL     OW26665   1.590   4.192   2.386 -0.5011  0.4565 -0.1879
 5068SOL    HW126666   1.525   4.192   2.316  0.4153 -2.9009 -1.0653
 5068SOL    HW226667   1.576   4.276   2.430 -0.5615  1.0626 -1.3775
 5069SOL     OW26668   4.638   0.902   5.863  0.2495 -0.4029 -0.9316
 5069SOL    HW126669   4.652   0.825   5.918 -0.6129 -0.4230 -0.7365
 5069SOL    HW226670   4.716   0.954   5.886 -2.0109  1.7953  1.7233
 5070SOL     OW26671   3.820   3.116   1.774 -0.1418  0.4826 -0.0622
 5070SOL    HW126672   3.845   3.204   1.744  1.2135  0.1111 -0.0189
 5070SOL    HW226673   3.727   3.120   1.797 -0.6220 -3.3989 -1.4703
 5071SOL     OW26674   1.449   3.327   6.506 -0.1814  0.1116  0.7840
 5071SOL    HW126675   1.372   3.381   6.487 -0.2828 -1.0129 -2.0109
 5071SOL    HW226676   1.419   3.273   6.579 -2.2480  0.6709  0.3463
 5072SOL     OW26677   3.567   2.894   8.410 -0.2456  0.4686 -0.3975
 5072SOL    HW126678   3.658   2.872   8.432 -0.1641  0.3695 -0.8411
 5072SOL    HW226679   3.529   2.859   8.491  2.5272 -1.6882 -0.0264
 5073SOL     OW26680   2.462   0.707   8.650  0.2217 -0.3411  0.5129
 5073SOL    HW126681   2.383   0.739   8.694 -0.3875  1.1920 -1.6961
 5073SOL    HW226682   2.494   0.780   8.597  0.0566  0.3573  1.3651
 5074SOL     OW26683   1.659   1.144   0.340 -0.5018  0.0832 -0.7729
 5074SOL    HW126684   1.630   1.068   0.289  0.9141 -0.6189 -0.5331
 5074SOL    HW226685   1.580   1.180   0.379 -0.0610 -0.4382  0.5910
 5075SOL     OW26686   2.441   3.713   2.438 -0.1471 -0.7105 -0.2886
 5075SOL    HW126687   2.472   3.709   2.348 -0.0858 -1.0703 -0.2532
 5075SOL    HW226688   2.452   3.801   2.473 -1.3165 -1.9199  3.1918
 5076SOL     OW26689   3.633   1.027  13.391  0.5068  0.2700  0.0166
 5076SOL    HW126690   3.710   0.981  13.359 -0.9189 -1.3615 -1.0580
 5076SOL    HW226691   3.631   1.015  13.486  0.4827 -0.1758 -0.0407
 5077SOL     OW26692   3.482   0.361  14.001  0.5761 -0.0720 -0.5124
 5077SOL    HW126693   3.513   0.440  13.959  2.0880  0.0576  0.8472
 5077SOL    HW226694   3.537   0.346  14.078 -0.3070 -1.6478 -0.1769
 5078SOL     OW26695   3.420   2.838  13.880  0.0367 -0.2746  0.5144
 5078SOL    HW126696   3.368   2.759  13.896 -1.9218  1.0330  0.6079
 5078SOL    HW226697   3.403   2.836  13.786 -4.3721 -2.6949  1.3683
 5079SOL     OW26698   3.675   2.342   7.964  0.5021  0.4994 -0.3463
 5079SOL    HW126699   3.653   2.410   8.028  1.5858  0.5054  0.0209
 5079SOL    HW226700   3.619   2.276   8.004  1.0156  0.9746  1.1458
 5080SOL     OW26701   2.939   1.307  13.859  0.2883  0.1019 -0.4692
 5080SOL    HW126702   3.001   1.325  13.788  1.8544 -0.9315  0.6471
 5080SOL    HW226703   2.874   1.248  13.822 -0.5949  0.5889  0.3189
 5081SOL     OW26704   4.059   0.698   9.155  0.1030 -0.4846 -0.4078
 5081SOL    HW126705   4.129   0.646   9.193  0.7650 -1.1329 -2.4980
 5081SOL    HW226706   3.980   0.648   9.177  0.5737 -0.5659  1.0910
 5082SOL     OW26707   0.598   1.342  11.780 -0.0167  0.0931 -0.0860
 5082SOL    HW126708   0.605   1.255  11.740 -1.0196 -0.5366  1.0974
 5082SOL    HW226709   0.570   1.322  11.870  1.5092 -1.7582 -0.0104
 5083SOL     OW26710   1.131   1.320  12.982  0.2435 -0.2724  0.3788
 5083SOL    HW126711   1.199   1.294  12.920  1.1232 -0.1977  1.3170
 5083SOL    HW226712   1.069   1.249  12.973 -0.3199  0.4468 -1.4175
 5084SOL     OW26713   3.979   1.866  10.279 -0.7798  0.2689 -0.2409
 5084SOL    HW126714   3.919   1.939  10.266  1.3229  1.7113 -1.8041
 5084SOL    HW226715   4.028   1.909  10.349  1.1987 -3.1909  0.4856
 5085SOL     OW26716   1.002   4.098   9.945 -0.1622 -0.0536  0.1792
 5085SOL    HW126717   0.945   4.151   9.890 -0.1727 -0.3576 -0.1021
 5085SOL    HW226718   1.087   4.123   9.908 -0.4610  0.8086  0.0896
 5086SOL     OW26719   4.080   1.732   3.392 -0.0202  0.0961 -0.7021
 5086SOL    HW126720   4.135   1.765   3.321  0.1452 -0.8411 -1.0039
 5086SOL    HW226721   4.021   1.675   3.343 -0.9241  0.2351  0.2283
 5087SOL     OW26722   3.165   0.749   2.511 -0.3045 -0.0934  0.2072
 5087SOL    HW126723   3.154   0.681   2.577 -0.1753 -0.3291 -0.0117
 5087SOL    HW226724   3.085   0.796   2.533 -0.6858 -1.2956  1.3581
 5088SOL     OW26725   4.624   3.065   9.826  0.0998 -0.0204  0.1094
 5088SOL    HW126726   4.660   2.982   9.858 -1.9551  0.1594  2.8593
 5088SOL    HW226727   4.577   3.046   9.746 -0.4424  0.8194  0.2281
 5089SOL     OW26728   2.694   3.488   4.321 -0.0742  0.2377  0.1731
 5089SOL    HW126729   2.738   3.549   4.263  0.4711  0.9802  1.3674
 5089SOL    HW226730   2.662   3.426   4.255 -1.3922  0.7187  0.3614
 5090SOL     OW26731   2.540   0.834   4.455 -0.4465  0.2239 -0.1954
 5090SOL    HW126732   2.568   0.787   4.377  0.5308  0.0279  0.2751
 5090SOL    HW226733   2.459   0.876   4.426 -0.2496  1.1502  0.5624
 5091SOL     OW26734   1.513   2.407   4.869  0.0431  0.1470 -0.1468
 5091SOL    HW126735   1.514   2.501   4.889 -1.2015  0.6778 -2.4807
 5091SOL    HW226736   1.445   2.372   4.927  0.4665  0.3971  0.4997
 5092SOL     OW26737   4.505   3.426   6.529 -0.1286 -0.1467 -0.2347
 5092SOL    HW126738   4.574   3.437   6.464 -0.8443 -1.6192 -1.2503
 5092SOL    HW226739   4.542   3.364   6.592  1.6840  1.1590 -0.0045
 5093SOL     OW26740   0.057   2.179  13.909 -0.5885  0.1869  0.1147
 5093SOL    HW126741   4.713   2.115  13.929 -0.3078 -0.5037 -1.1643
 5093SOL    HW226742   0.010   2.247  13.860  1.8722  0.7926 -1.3954
 5094SOL     OW26743   3.051   3.471  16.615  0.2965 -0.5040  0.2324
 5094SOL    HW126744   3.055   3.383  16.653 -0.2069 -0.0228  1.3998
 5094SOL    HW226745   3.136   3.481  16.572 -1.4685  0.6649 -2.8929
 5095SOL     OW26746   3.600   4.203   8.059  0.2496 -0.1791 -0.1795
 5095SOL    HW126747   3.608   4.188   8.153  1.0767  2.7962  0.2255
 5095SOL    HW226748   3.505   4.209   8.049  0.4565 -0.1315 -2.0178
 5096SOL     OW26749   4.488   3.881  12.984  0.2228  0.7948  0.1390
 5096SOL    HW126750   4.466   3.854  13.073  2.9389  1.9669  1.1695
 5096SOL    HW226751   4.478   3.800  12.933 -1.3327  0.4635  0.9606
 5097SOL     OW26752   1.983   0.118   4.050 -0.1516  0.6486  0.3068
 5097SOL    HW126753   2.063   0.081   4.011  0.8429  1.7822  1.2485
 5097SOL    HW226754   2.016   0.122   4.140 -2.7315  1.1318  1.2149
 5098SOL     OW26755   4.484   1.969  17.256  0.1808  0.0526 -0.6235
 5098SOL    HW126756   4.508   1.972  17.349 -1.4309 -2.0965 -0.1334
 5098SOL    HW226757   4.489   2.063  17.242 -2.5556  0.6106  2.1173
 5099SOL     OW26758   3.256   4.045   3.928 -0.0941  0.4309 -0.3892
 5099SOL    HW126759   3.273   3.957   3.963  0.4840 -0.0600 -1.8524
 5099SOL    HW226760   3.180   4.029   3.872 -2.3261  0.4436  2.6646
 5100SOL     OW26761   3.242   4.698  10.235 -0.0641  0.2824  0.2175
 5100SOL    HW126762   3.243   0.043  10.301  1.8217  0.4056  0.0420
 5100SOL    HW226763   3.293   0.012  10.164  0.5401  0.8514  0.9607
 5101SOL     OW26764   4.002   4.620   5.629  0.0657  0.2655 -0.6843
 5101SOL    HW126765   4.006   4.696   5.572  0.0400 -0.9233 -2.2539
 5101SOL    HW226766   4.024   4.660   5.714 -0.3069 -0.3138 -0.3137
 5102SOL     OW26767   2.636   4.405  16.991  0.3010  0.1135  0.0238
 5102SOL    HW126768   2.584   4.478  16.957  0.0566 -0.0193  0.1127
 5102SOL    HW226769   2.580   4.363  17.056 -0.4457  2.1251  0.6673
 5103SOL     OW26770   2.252   0.316   3.802 -0.3053  0.4794 -0.3229
 5103SOL    HW126771   2.166   0.298   3.840  0.4995 -1.5099  0.5337
 5103SOL    HW226772   2.228   0.339   3.712  0.6800  2.1228 -0.1742
 5104SOL     OW26773   2.064   3.985  13.757  0.5477  0.0384 -0.2788
 5104SOL    HW126774   2.007   3.934  13.815 -1.3034  1.3870 -0.8735
 5104SOL    HW226775   1.999   4.048  13.725  2.7983  2.0813 -0.8384
 5105SOL     OW26776   4.031   0.457   2.151  0.7063 -0.5638  0.3661
 5105SOL    HW126777   4.046   0.541   2.106  1.8873 -0.8053  0.2994
 5105SOL    HW226778   4.085   0.406   2.090 -1.1761 -0.3001 -1.5270
 5106SOL     OW26779   2.995   1.172   4.498 -0.5206  0.1431 -0.6709
 5106SOL    HW126780   3.080   1.209   4.473 -0.8255  0.0390 -1.8372
 5106SOL    HW226781   2.944   1.253   4.498 -0.4412  0.2059  0.5650
 5107SOL     OW26782   4.030   2.559   7.409  1.0519  0.1520 -0.3944
 5107SOL    HW126783   4.081   2.624   7.458 -0.3836  0.5794  0.5226
 5107SOL    HW226784   4.025   2.496   7.481 -0.6187 -1.4583 -1.9212
 5108SOL     OW26785   3.437   0.120  17.520  0.1521 -1.0915 -0.0349
 5108SOL    HW126786   3.467   0.160  17.439 -0.2679  0.4006  0.5504
 5108SOL    HW226787   3.426   0.031  17.487 -0.1477 -1.1175  0.1317
 5109SOL     OW26788   3.426   3.702   8.445 -0.5595 -0.0091 -0.3926
 5109SOL    HW126789   3.473   3.745   8.516 -1.6772 -3.2111  2.2944
 5109SOL    HW226790   3.476   3.708   8.364  2.0293  0.3837  1.2569
 5110SOL     OW26791   0.512   4.695   2.523 -0.1953 -0.0136 -0.3143
 5110SOL    HW126792   0.492   0.050   2.473 -1.2702  0.3097  0.6169
 5110SOL    HW226793   0.515   0.003   2.612 -2.0810  2.8633 -1.2919
 5111SOL     OW26794   3.394   1.747  13.109  0.0137 -0.0185  0.6369
 5111SOL    HW126795   3.408   1.652  13.108  2.5095  0.3592  0.0824
 5111SOL    HW226796   3.376   1.758  13.202  0.5689  2.6089  0.4333
 5112SOL     OW26797   3.971   1.207  11.648  0.6247 -0.5370  0.2641
 5112SOL    HW126798   4.058   1.169  11.664  1.0768  0.8450  1.0542
 5112SOL    HW226799   3.914   1.138  11.681  0.8763 -0.2202  1.3427
 5113SOL     OW26800   3.582   4.101  11.414  0.1897  0.0357  0.2400
 5113SOL    HW126801   3.675   4.089  11.392 -1.0308 -2.0838 -3.8062
 5113SOL    HW226802   3.572   4.174  11.475 -0.3670  0.8509 -0.8237
 5114SOL     OW26803   4.542   4.434   6.531  0.0892  0.1213  0.1884
 5114SOL    HW126804   4.528   4.457   6.439 -2.4357  0.5782  0.6661
 5114SOL    HW226805   4.466   4.382   6.556 -1.4357  2.8346  1.2232
 5115SOL     OW26806   2.883   4.642   9.328  0.0919  0.2703  0.0875
 5115SOL    HW126807   2.974   4.615   9.342 -0.9918 -3.0566  0.8686
 5115SOL    HW226808   2.882   4.723   9.379 -0.0444  0.1681  0.2477
 5116SOL     OW26809   0.472   2.238   8.850 -0.3973  0.0920 -0.3067
 5116SOL    HW126810   0.414   2.283   8.789 -2.3547 -0.5921  1.0458
 5116SOL    HW226811   0.541   2.243   8.784 -1.2199 -4.0587 -1.5103
 5117SOL     OW26812   3.028   3.972   9.366 -0.7992 -0.0896 -0.1144
 5117SOL    HW126813   2.952   4.028   9.387  0.1618  0.8957  0.7582
 5117SOL    HW226814   3.063   3.958   9.454 -1.0376  0.4796  0.0768
 5118SOL     OW26815   2.629   4.606   5.810 -0.6055  0.1797 -0.0075
 5118SOL    HW126816   2.691   4.649   5.752  0.6745 -1.5660  0.0600
 5118SOL    HW226817   2.623   4.685   5.865  2.9076  1.4694 -1.4961
 5119SOL     OW26818   0.353   2.067  13.669  0.3103 -0.5804 -0.3821
 5119SOL    HW126819   0.398   2.068  13.584 -0.5508  0.6256 -0.8190
 5119SOL    HW226820   0.332   2.159  13.684 -2.1199 -1.2820  0.5102
 5120SOL     OW26821   2.716   2.205   8.520 -0.2559 -0.7368  0.0980
 5120SOL    HW126822   2.624   2.217   8.546 -0.3738  0.1895 -0.7845
 5120SOL    HW226823   2.753   2.250   8.597  1.0024 -1.1519 -0.2719
 5121SOL     OW26824   1.775   3.859   6.202  0.0617  0.4166 -0.1651
 5121SOL    HW126825   1.801   3.856   6.294  1.2782  0.6054 -0.5067
 5121SOL    HW226826   1.829   3.790   6.163 -0.4528  0.7021 -1.3817
 5122SOL     OW26827   0.264   3.743   1.105  0.3549  0.3468  0.0178
 5122SOL    HW126828   0.216   3.696   1.173 -1.3076  0.6768 -0.9357
 5122SOL    HW226829   0.307   3.821   1.141 -0.7355 -0.3415  2.7756
 5123SOL     OW26830   2.831   1.923   5.360 -0.5022 -0.4561  0.1824
 5123SOL    HW126831   2.884   1.969   5.295 -0.0029 -0.7981  0.3491
 5123SOL    HW226832   2.850   1.830   5.348 -0.2605 -0.3452 -0.2995
 5124SOL     OW26833   2.658   3.914   9.864 -0.5341  0.3835  0.0312
 5124SOL    HW126834   2.618   3.828   9.852 -0.4561  0.7596 -2.8106
 5124SOL    HW226835   2.725   3.885   9.926 -0.0849  0.2616 -0.5085
 5125SOL     OW26836   2.946   1.714   3.901  0.4449  0.2728 -0.1587
 5125SOL    HW126837   2.880   1.725   3.833 -0.9804 -0.9176  1.0318
 5125SOL    HW226838   3.000   1.645   3.864 -0.6308 -0.5470 -0.2119
 5126SOL     OW26839   3.301   3.341   3.338 -0.4949 -0.3023  0.4349
 5126SOL    HW126840   3.261   3.269   3.290  0.3120 -0.9856  0.7867
 5126SOL    HW226841   3.294   3.416   3.279 -0.5023 -0.1511  0.6255
 5127SOL     OW26842   3.973   4.321  16.531 -0.2166 -0.1168 -0.6828
 5127SOL    HW126843   4.012   4.242  16.567  1.4314  0.4972 -1.1356
 5127SOL    HW226844   4.014   4.322  16.445 -0.1857  0.2683 -0.6671
 5128SOL     OW26845   2.959   4.098   1.825  0.1968 -0.1446 -0.2022
 5128SOL    HW126846   2.976   4.033   1.758 -2.5066  0.6166 -1.6467
 5128SOL    HW226847   2.867   4.077   1.842  0.9143 -0.5206  3.3494
 5129SOL     OW26848   2.823   2.879   3.073  1.0659 -0.3060  0.2330
 5129SOL    HW126849   2.890   2.888   3.005  2.5100 -3.1113  1.2782
 5129SOL    HW226850   2.829   2.788   3.103  0.8706 -0.6454 -0.7463
 5130SOL     OW26851   1.216   4.456  11.164  0.4321  0.0550 -0.0995
 5130SOL    HW126852   1.151   4.401  11.207  2.9556 -0.5734  2.9192
 5130SOL    HW226853   1.286   4.472  11.227  0.8995 -0.2585 -0.5442
 5131SOL     OW26854   3.052   3.574   8.029  0.0259  0.3007 -0.2819
 5131SOL    HW126855   3.148   3.565   8.034 -0.1560 -1.8336 -0.6749
 5131SOL    HW226856   3.053   3.598   7.936 -1.8841 -1.4999 -0.7761
 5132SOL     OW26857   3.438   2.234   4.578 -0.7189  0.3047 -0.3777
 5132SOL    HW126858   3.528   2.237   4.546  0.2351 -2.7185  2.0510
 5132SOL    HW226859   3.419   2.325   4.557 -1.1808  0.1558 -0.5895
 5133SOL     OW26860   1.522   0.599   2.118 -0.0693 -0.0552  0.0681
 5133SOL    HW126861   1.478   0.677   2.085  1.3528  1.0925  0.8783
 5133SOL    HW226862   1.613   0.625   2.105 -0.6709  1.4708 -1.1138
 5134SOL     OW26863   0.412   3.422   2.333 -0.2463  0.8829 -0.1440
 5134SOL    HW126864   0.487   3.471   2.299  1.4777 -1.7584 -0.1874
 5134SOL    HW226865   0.370   3.387   2.255 -0.7680  3.5979 -1.0638
 5135SOL     OW26866   1.400   0.894   2.664  0.3377 -0.4683  0.3723
 5135SOL    HW126867   1.431   0.912   2.575 -1.3132  0.9588  0.0934
 5135SOL    HW226868   1.454   0.958   2.709 -1.0871  1.9736 -1.4152
 5136SOL     OW26869   3.050   0.614   5.004  0.2611 -0.0345  0.3399
 5136SOL    HW126870   3.009   0.642   5.086 -2.0158  0.9218 -1.1364
 5136SOL    HW226871   3.141   0.594   5.028 -0.1226  0.2330  2.0309
 5137SOL     OW26872   2.932   0.877   3.625  0.2708 -0.1524  0.7048
 5137SOL    HW126873   2.912   0.792   3.663  1.1765 -1.2947 -1.3669
 5137SOL    HW226874   2.919   0.845   3.536  1.0031 -2.1703  1.3296
 5138SOL     OW26875   1.313   4.483  16.074  0.5316 -0.0342  0.1152
 5138SOL    HW126876   1.271   4.539  16.008 -3.3249 -2.2091  0.6949
 5138SOL    HW226877   1.239   4.439  16.115 -0.8258  0.6232 -1.5987
 5139SOL     OW26878   1.723   0.854   2.814 -0.4208  0.2303 -0.5284
 5139SOL    HW126879   1.730   0.860   2.719  1.0548 -2.2177 -0.5826
 5139SOL    HW226880   1.662   0.781   2.823 -0.6654  0.6060  0.9267
 5140SOL     OW26881   1.317   3.573   4.481  0.6836  0.1185 -0.0903
 5140SOL    HW126882   1.372   3.548   4.555  0.9921 -0.7262 -0.6130
 5140SOL    HW226883   1.376   3.580   4.406 -0.1056  1.1374 -0.6236
 5141SOL     OW26884   0.378   3.841   4.502  0.5277 -0.8801 -0.4274
 5141SOL    HW126885   0.386   3.747   4.513 -1.2443 -0.8349  1.3853
 5141SOL    HW226886   0.371   3.860   4.409 -0.0967  0.3183 -0.1452
 5142SOL     OW26887   0.454   1.805   7.323  0.3194 -0.1735  0.1649
 5142SOL    HW126888   0.425   1.748   7.395 -0.8503 -0.6636 -0.6964
 5142SOL    HW226889   0.538   1.761   7.309 -0.1989 -0.3967 -2.2632
 5143SOL     OW26890   0.514   2.561  13.782 -0.9278 -0.2725 -0.4312
 5143SOL    HW126891   0.547   2.558  13.872 -2.0744 -0.9514 -0.0340
 5143SOL    HW226892   0.587   2.518  13.738 -0.4486  0.6113 -0.4942
 5144SOL     OW26893   1.585   4.446   7.173 -0.1251  0.3976  0.2035
 5144SOL    HW126894   1.555   4.355   7.170 -2.0769  1.0411  0.0677
 5144SOL    HW226895   1.571   4.469   7.264  0.6565 -1.6555  0.8541
 5145SOL     OW26896   4.398   0.518   4.064  0.1914 -0.3293  0.0550
 5145SOL    HW126897   4.454   0.570   4.007  0.2916 -0.2949  0.1845
 5145SOL    HW226898   4.307   0.518   4.034  0.8834 -0.6500 -2.0589
 5146SOL     OW26899   3.363   0.820  14.038  0.2068  0.3873 -0.6928
 5146SOL    HW126900   3.294   0.803  13.974 -1.7706  1.4943  1.1258
 5146SOL    HW226901   3.368   0.737  14.087 -1.3595  0.2393 -0.7595
 5147SOL     OW26902   1.742   1.473   4.237  0.0123  0.3009 -0.2394
 5147SOL    HW126903   1.803   1.501   4.304 -1.7312  3.1813  0.1308
 5147SOL    HW226904   1.798   1.409   4.193 -2.4694 -3.2841  1.7362
 5148SOL     OW26905   2.563   1.352  16.611 -0.1411 -0.8915 -0.3300
 5148SOL    HW126906   2.501   1.383  16.678 -3.4194 -1.2888 -3.1865
 5148SOL    HW226907   2.647   1.389  16.638 -1.6611 -0.7403  4.2122
 5149SOL     OW26908   1.813   3.416   5.521  0.1870  0.5103  1.1590
 5149SOL    HW126909   1.824   3.506   5.554  1.3620  0.8188 -0.0588
 5149SOL    HW226910   1.728   3.388   5.555 -0.2508  0.4248 -0.0157
 5150SOL     OW26911   3.594   0.736  13.392 -0.0736  0.1040 -0.2955
 5150SOL    HW126912   3.528   0.765  13.329 -0.1466 -0.1862 -0.3567
 5150SOL    HW226913   3.683   0.758  13.364  0.6795 -0.5360  1.5502
 5151SOL     OW26914   3.317   1.030  13.643 -0.1360  0.0964 -0.3095
 5151SOL    HW126915   3.243   0.975  13.671  0.8700 -0.6697  0.8208
 5151SOL    HW226916   3.274   1.116  13.646  0.8799  0.4609  3.6294
 5152SOL     OW26917   0.782   2.366   0.970  0.4890 -0.0149 -0.5461
 5152SOL    HW126918   0.703   2.346   1.021  0.1268  0.1976 -1.0192
 5152SOL    HW226919   0.820   2.448   0.999  0.0758 -0.5834  1.5992
 5153SOL     OW26920   1.838   2.423   0.909 -0.7294  0.4254  0.3173
 5153SOL    HW126921   1.746   2.434   0.886 -0.1660  1.0643 -1.7191
 5153SOL    HW226922   1.867   2.354   0.848  0.4018 -0.2382  1.6059
 5154SOL     OW26923   3.175   4.038   7.138 -0.1581  0.0978 -0.1029
 5154SOL    HW126924   3.219   3.967   7.091  2.1749 -0.5518  3.0840
 5154SOL    HW226925   3.102   4.040   7.075 -1.1761 -0.7767  1.0512
 5155SOL     OW26926   1.898   3.757  11.804  0.0351  0.8687 -0.0174
 5155SOL    HW126927   1.914   3.677  11.753  2.7536  0.6762  1.1873
 5155SOL    HW226928   1.806   3.770  11.781 -0.1391  0.5262  0.4864
 5156SOL     OW26929   1.853   2.521   6.708 -0.1722  0.5780  0.3891
 5156SOL    HW126930   1.907   2.596   6.686 -0.3230  0.4933 -0.2611
 5156SOL    HW226931   1.833   2.559   6.794 -1.4645 -0.8239  0.7285
 5157SOL     OW26932   3.865   2.909   5.262  0.2838  0.4868 -0.1729
 5157SOL    HW126933   3.802   2.865   5.205  1.3461 -0.3438 -0.6917
 5157SOL    HW226934   3.827   2.997   5.261  1.1075  0.8536  1.5175
 5158SOL     OW26935   1.030   1.931   4.870  0.1955  0.2987  0.1666
 5158SOL    HW126936   0.944   1.898   4.896  1.1713 -1.4348  1.1379
 5158SOL    HW226937   1.036   1.903   4.778  0.9280 -2.6034  1.1153
 5159SOL     OW26938   2.701   3.705   4.035 -0.3205 -0.3869 -0.3938
 5159SOL    HW126939   2.623   3.656   4.062  0.1653  0.3758  2.4208
 5159SOL    HW226940   2.686   3.711   3.941  0.9523 -0.6904 -0.6268
 5160SOL     OW26941   2.054   3.376  15.177 -0.2241 -1.2890 -0.3649
 5160SOL    HW126942   2.099   3.352  15.095  0.8256  0.3821 -0.2826
 5160SOL    HW226943   1.975   3.326  15.158 -1.7783  0.8954  0.3186
 5161SOL     OW26944   0.491   1.820   5.004  0.1342  0.1139  0.4741
 5161SOL    HW126945   0.446   1.810   5.088  1.0504  1.6697  1.1404
 5161SOL    HW226946   0.513   1.727   4.996 -1.1373 -0.2192  0.8239
 5162SOL     OW26947   0.326   4.405   1.379  0.0952 -0.1194 -0.1646
 5162SOL    HW126948   0.402   4.427   1.326 -0.0856 -0.8843 -0.7420
 5162SOL    HW226949   0.337   4.475   1.443 -0.7468 -0.8958  0.8434
 5163SOL     OW26950   3.495   4.157   4.449 -0.3803 -0.0428  0.4639
 5163SOL    HW126951   3.473   4.200   4.532  0.1350 -4.1861  2.7701
 5163SOL    HW226952   3.457   4.071   4.469 -1.7603  0.6537  0.8469
 5164SOL     OW26953   3.569   1.639   8.410 -0.1229 -0.3507 -0.4649
 5164SOL    HW126954   3.538   1.628   8.500  1.7275  1.4673  0.3852
 5164SOL    HW226955   3.514   1.576   8.363  0.5547 -0.4482 -1.1099
 5165SOL     OW26956   3.952   1.336   6.274 -0.0069 -0.5736  0.2626
 5165SOL    HW126957   4.025   1.316   6.333 -0.3789 -2.0635  0.2132
 5165SOL    HW226958   3.961   1.260   6.217  0.4190 -1.3189  1.3077
 5166SOL     OW26959   2.221   3.918   7.587  0.4555 -0.2419  0.3763
 5166SOL    HW126960   2.133   3.898   7.616  0.4153  0.8599  1.0074
 5166SOL    HW226961   2.240   3.850   7.522 -1.4436 -1.0133  0.6502
 5167SOL     OW26962   3.319   3.166   2.863 -0.5174  0.1616 -0.2695
 5167SOL    HW126963   3.238   3.191   2.908 -0.3098 -0.6413  0.5566
 5167SOL    HW226964   3.377   3.148   2.937  2.4823 -1.0243 -2.9495
 5168SOL     OW26965   0.769   1.684   4.601  0.1523 -0.5445  0.5102
 5168SOL    HW126966   0.690   1.672   4.654  0.0144 -3.1634 -0.2729
 5168SOL    HW226967   0.753   1.771   4.565 -1.5006 -1.3393 -0.7067
 5169SOL     OW26968   3.144   1.303   7.671 -0.1902  0.0275  0.5040
 5169SOL    HW126969   3.122   1.396   7.680 -1.3644 -0.3817  1.9543
 5169SOL    HW226970   3.070   1.262   7.715  0.0734 -0.9080  0.0771
 5170SOL     OW26971   3.918   4.593  16.598  0.2473 -0.2042  0.1375
 5170SOL    HW126972   3.924   4.501  16.572 -1.6630  0.1912 -1.5975
 5170SOL    HW226973   3.840   4.622  16.552  1.1805 -1.4350 -2.2186
 5171SOL     OW26974   4.071   1.670   4.274  0.1715  0.4579 -0.1902
 5171SOL    HW126975   4.056   1.654   4.368  1.4478 -0.5839 -0.1696
 5171SOL    HW226976   4.088   1.764   4.274  2.4087  0.0629  0.0648
 5172SOL     OW26977   0.184   3.359   8.691  0.4202  0.4303 -0.2365
 5172SOL    HW126978   0.247   3.288   8.692 -0.9223 -0.7553  0.4692
 5172SOL    HW226979   0.112   3.315   8.644  0.0130  0.2829  0.5299
 5173SOL     OW26980   0.461   1.985   4.744  0.3848 -0.8764 -0.1407
 5173SOL    HW126981   0.479   1.905   4.695 -2.5437  0.0539 -2.6598
 5173SOL    HW226982   0.443   1.955   4.833 -0.4259  0.8535  0.2771
 5174SOL     OW26983   1.892   4.476  15.266 -0.7505  0.4586  0.3687
 5174SOL    HW126984   1.887   4.410  15.196 -0.7861  1.1705 -0.2951
 5174SOL    HW226985   1.959   4.540  15.243 -0.0806 -0.7963 -1.2151
 5175SOL     OW26986   2.540   3.945  15.643 -0.2788  0.3904  0.0469
 5175SOL    HW126987   2.607   3.911  15.702  0.7990 -2.4323 -2.7970
 5175SOL    HW226988   2.532   3.873  15.580 -0.4139  3.1818 -3.1757
 5176SOL     OW26989   0.102   3.976  10.338  0.1383  0.2855  0.1132
 5176SOL    HW126990   0.097   3.987  10.433 -0.5815 -1.9970  0.3334
 5176SOL    HW226991   0.161   4.051  10.331  0.7795 -0.1628  0.7063
 5177SOL     OW26992   2.773   2.154   9.279  0.0836 -0.1207 -0.1323
 5177SOL    HW126993   2.827   2.187   9.207  0.9070  0.9982  1.0129
 5177SOL    HW226994   2.708   2.225   9.284  1.7447  1.2929  1.0740
 5178SOL     OW26995   2.225   2.147   4.356 -0.3754 -0.1905 -0.1949
 5178SOL    HW126996   2.255   2.103   4.276 -1.3654  0.7250 -1.0747
 5178SOL    HW226997   2.162   2.087   4.394 -0.3861  0.5849  1.0129
 5179SOL     OW26998   4.296   2.597   8.721  0.2706  0.2805  0.2191
 5179SOL    HW126999   4.217   2.632   8.763 -0.4273 -1.7708  0.6131
 5179SOL    HW227000   4.298   2.506   8.748 -2.2639  0.3037  0.5262
 5180SOL     OW27001   3.313   2.104  15.623  0.5491  0.2216 -0.3445
 5180SOL    HW127002   3.407   2.119  15.624  0.8613 -1.7312 -1.6436
 5180SOL    HW227003   3.300   2.046  15.549 -2.0692 -0.2614  0.4641
 5181SOL     OW27004   1.988   1.165  13.876  0.0781  0.0078 -0.1190
 5181SOL    HW127005   1.893   1.151  13.873  0.0952  0.3515 -2.3768
 5181SOL    HW227006   2.004   1.179  13.969  1.2088  1.5960 -0.5497
 5182SOL     OW27007   3.962   4.670  12.230  0.2205 -0.0441 -0.1610
 5182SOL    HW127008   3.945   4.584  12.192  0.9566  0.0734 -0.7521
 5182SOL    HW227009   4.055   4.675  12.210  0.4938 -1.5310  0.7808
 5183SOL     OW27010   0.182   1.326  11.385  0.2154  0.2781  0.4226
 5183SOL    HW127011   0.187   1.397  11.448 -0.1747 -0.0471  0.8194
 5183SOL    HW227012   0.235   1.367  11.318 -0.0026 -0.2849 -0.1002
 5184SOL     OW27013   4.509   2.159   2.143 -0.6632  0.0062 -0.1703
 5184SOL    HW127014   4.481   2.070   2.120  0.0246 -0.6715  1.6205
 5184SOL    HW227015   4.595   2.130   2.175 -0.2440  3.4405  1.7564
 5185SOL     OW27016   2.781   1.258   2.988  0.3731  0.4839 -0.0647
 5185SOL    HW127017   2.741   1.214   2.913 -0.2820 -1.6648  1.5645
 5185SOL    HW227018   2.867   1.281   2.952  0.9172 -1.0433  0.2560
 5186SOL     OW27019   2.005   1.776   7.383  0.7603 -0.0489 -0.2674
 5186SOL    HW127020   2.017   1.802   7.291  1.6036  3.6269  0.8975
 5186SOL    HW227021   1.940   1.706   7.385 -0.8494  1.4284 -1.8927
 5187SOL     OW27022   2.138   1.158   2.592  0.1602 -0.0203 -0.1770
 5187SOL    HW127023   2.058   1.108   2.572  0.0105  0.6167 -1.1894
 5187SOL    HW227024   2.101   1.219   2.656 -1.9279  0.0489 -1.4275
 5188SOL     OW27025   0.866   0.368   7.382  0.1470  0.0272 -0.2448
 5188SOL    HW127026   0.943   0.407   7.423  0.5010 -0.4607 -0.4545
 5188SOL    HW227027   0.810   0.405   7.450 -0.8326  2.5352 -2.4071
 5189SOL     OW27028   2.619   4.560   4.087  0.3340  0.0270  0.1594
 5189SOL    HW127029   2.696   4.518   4.127  0.9549 -0.6628 -1.7563
 5189SOL    HW227030   2.630   4.541   3.994  1.2299  2.5747 -0.2467
 5190SOL     OW27031   3.044   0.715   7.146  0.3740  0.0332 -0.3273
 5190SOL    HW127032   3.128   0.760   7.138 -0.2513  1.1450 -0.6551
 5190SOL    HW227033   3.021   0.711   7.053 -0.0506 -0.5740 -0.1896
 5191SOL     OW27034   0.005   2.764   4.675  0.0517  0.0516 -0.2278
 5191SOL    HW127035   0.061   2.755   4.598 -1.5535 -0.1923 -1.3646
 5191SOL    HW227036   4.638   2.768   4.647 -0.4780  1.8199  1.7642
 5192SOL     OW27037   2.103   2.372   6.801 -0.3186 -0.2081 -0.3805
 5192SOL    HW127038   2.010   2.380   6.822  0.7241  0.6474  4.0157
 5192SOL    HW227039   2.131   2.288   6.837  2.0248  0.3700 -0.8710
 5193SOL     OW27040   2.529   0.142   6.547 -0.5764  0.2852  0.2674
 5193SOL    HW127041   2.607   0.196   6.562  0.6951 -1.8170  1.2961
 5193SOL    HW227042   2.523   0.146   6.452  1.5685 -2.2689  0.0192
 5194SOL     OW27043   3.035   2.146  12.991 -0.0317  0.3037 -0.2274
 5194SOL    HW127044   3.046   2.240  13.009  0.3733 -0.1699  1.9928
 5194SOL    HW227045   3.084   2.101  13.059 -0.8134 -0.3329 -0.0859
 5195SOL     OW27046   2.977   2.415   1.026  0.0842  0.3715 -0.9528
 5195SOL    HW127047   3.065   2.411   0.987  0.7340 -0.3554  0.5906
 5195SOL    HW227048   2.987   2.383   1.115  2.9249  0.3344 -1.2693
 5196SOL     OW27049   2.035   2.318  10.600 -0.2345  0.0344 -0.4844
 5196SOL    HW127050   2.026   2.322  10.505  0.5815  2.1811 -0.4622
 5196SOL    HW227051   2.122   2.357  10.602  0.2966 -1.0362 -2.2739
 5197SOL     OW27052   2.154   0.465   2.550 -0.0499  0.7659 -0.0018
 5197SOL    HW127053   2.223   0.491   2.489  0.8973 -1.8457 -0.0705
 5197SOL    HW227054   2.081   0.446   2.490  0.2268  0.6913 -0.3178
 5198SOL     OW27055   0.120   0.277   8.777 -0.1530  0.3159 -0.2276
 5198SOL    HW127056   0.127   0.289   8.872  2.9749  0.8926 -0.5594
 5198SOL    HW227057   0.040   0.329   8.765 -1.8220 -2.3375 -0.5971
 5199SOL     OW27058   4.325   1.991   7.613  0.5514  0.0059  0.4134
 5199SOL    HW127059   4.245   2.038   7.636 -0.5286 -0.3947 -2.5524
 5199SOL    HW227060   4.295   1.902   7.600  0.4387  0.4988 -2.9202
 5200SOL     OW27061   3.124   4.625   5.269 -0.5230  0.0531  0.3104
 5200SOL    HW127062   3.034   4.601   5.250  0.1274 -1.2970 -1.0791
 5200SOL    HW227063   3.113   4.719   5.259 -1.0831 -0.2375 -1.6596
 5201SOL     OW27064   4.085   2.418  11.346 -0.0781 -0.1804  0.4019
 5201SOL    HW127065   4.008   2.468  11.320  0.0094  0.4812  1.4189
 5201SOL    HW227066   4.141   2.459  11.280  0.5350 -1.0377  0.3859
 5202SOL     OW27067   1.132   2.043   3.808  0.0977 -0.0600  0.1949
 5202SOL    HW127068   1.172   2.023   3.893  1.4770  1.6554 -0.0524
 5202SOL    HW227069   1.201   2.054   3.742  1.1691  0.6183  1.4153
 5203SOL     OW27070   0.793   1.434   2.608 -0.0362 -0.7830 -0.7702
 5203SOL    HW127071   0.829   1.348   2.589  0.5093 -0.1495 -2.5718
 5203SOL    HW227072   0.728   1.442   2.538  0.0146 -2.4717 -0.9913
 5204SOL     OW27073   0.357   2.827  15.697 -0.3564 -0.0750  0.0556
 5204SOL    HW127074   0.353   2.778  15.778 -1.4017  1.9748  1.2553
 5204SOL    HW227075   0.313   2.908  15.724  0.6065  0.4729  0.0098
 5205SOL     OW27076   3.118   1.518   4.448  0.7447 -0.4732 -0.3636
 5205SOL    HW127077   3.045   1.530   4.387 -0.5988  0.0295  1.3424
 5205SOL    HW227078   3.188   1.526   4.382 -0.7522  3.5006 -1.4571
 5206SOL     OW27079   3.479   3.766   6.210 -0.1094  0.5135 -0.3444
 5206SOL    HW127080   3.527   3.849   6.198 -0.0104  0.4101 -0.6697
 5206SOL    HW227081   3.549   3.701   6.216 -0.4688  0.1502 -0.1508
 5207SOL     OW27082   3.991   1.456   2.245  0.2156 -0.2124 -0.0811
 5207SOL    HW127083   3.985   1.362   2.261 -1.8160 -0.1083 -0.1347
 5207SOL    HW227084   4.046   1.463   2.167 -1.4999 -0.0136 -1.2859
 5208SOL     OW27085   3.455   3.441  10.770 -0.2779  0.4068  0.4025
 5208SOL    HW127086   3.540   3.440  10.815  0.2635 -0.0930 -0.6443
 5208SOL    HW227087   3.431   3.353  10.800  2.4761 -0.8443 -1.0478
 5209SOL     OW27088   4.644   3.566   6.850  0.0144 -0.2509 -0.3634
 5209SOL    HW127089   0.008   3.553   6.814 -0.0534  1.6766 -1.2021
 5209SOL    HW227090   4.622   3.482   6.890 -0.0338  0.1641  0.4838
 5210SOL     OW27091   2.895   2.109   2.011  0.0195 -0.2401 -0.0797
 5210SOL    HW127092   2.950   2.187   2.017 -0.8048  0.4538 -1.4238
 5210SOL    HW227093   2.817   2.159   1.986  1.2317  1.2030 -1.0103
 5211SOL     OW27094   0.801   1.745   9.296 -0.0645 -0.1741 -0.1258
 5211SOL    HW127095   0.855   1.817   9.263  0.1072 -0.7052 -0.9903
 5211SOL    HW227096   0.797   1.755   9.391 -1.7894  2.2984 -0.4625
 5212SOL     OW27097   2.439   2.576   8.142 -0.4511  0.1058  0.2769
 5212SOL    HW127098   2.458   2.642   8.208  0.7933  0.6272 -0.6153
 5212SOL    HW227099   2.343   2.573   8.145 -0.4315  0.3719  1.2282
 5213SOL     OW27100   2.482   2.949   1.560  0.8138  0.5256  0.0854
 5213SOL    HW127101   2.391   2.938   1.585  0.4569  0.7001 -1.1253
 5213SOL    HW227102   2.507   2.859   1.539  0.4461  0.5843 -0.6062
 5214SOL     OW27103   0.019   3.303  10.603 -0.0655  0.6561 -0.5749
 5214SOL    HW127104   4.712   3.296  10.512 -1.3911  1.3024 -0.1750
 5214SOL    HW227105   0.082   3.374  10.592  0.1495  0.6119  0.3742
 5215SOL     OW27106   3.872   4.287   7.977  0.3508 -0.1444 -0.1999
 5215SOL    HW127107   3.871   4.328   7.891  0.8414  1.4167  0.5450
 5215SOL    HW227108   3.909   4.202   7.952  2.1097  0.6096 -0.1665
 5216SOL     OW27109   0.057   2.721   8.101 -0.3960  0.5191 -0.0443
 5216SOL    HW127110   0.051   2.630   8.071  0.0631  1.0571 -1.7794
 5216SOL    HW227111   0.152   2.720   8.093 -0.3875 -3.5364  0.4908
 5217SOL     OW27112   0.065   2.983  15.022 -0.0933 -0.5136 -0.5725
 5217SOL    HW127113   0.133   3.043  14.990  0.4577 -0.9270 -0.1722
 5217SOL    HW227114   0.036   2.952  14.936 -0.1745  1.3561 -1.2175
 5218SOL     OW27115   2.856   3.370  16.445 -0.2596 -0.0424  0.0434
 5218SOL    HW127116   2.801   3.304  16.489 -1.7207  1.5014  0.5023
 5218SOL    HW227117   2.897   3.414  16.519 -1.7191  1.7634 -0.2118
 5219SOL     OW27118   4.582   0.093  17.535  0.1913 -0.0798 -0.4277
 5219SOL    HW127119   4.638   0.016  17.540 -0.3750 -0.4393  0.3151
 5219SOL    HW227120   4.645   0.160  17.507 -0.2875  0.8567  0.7374
 5220SOL     OW27121   2.741   1.087   8.241  0.3026  0.7220  0.2198
 5220SOL    HW127122   2.755   1.105   8.148 -1.0408 -2.1915 -0.5609
 5220SOL    HW227123   2.670   1.024   8.228 -2.5252  3.6561  1.6813
 5221SOL     OW27124   4.633   0.584  16.931 -0.5528  0.0551  0.2509
 5221SOL    HW127125   4.615   0.591  16.837  1.5820  1.3114 -0.0610
 5221SOL    HW227126   4.559   0.616  16.983 -1.3516 -2.4282  0.6339
 5222SOL     OW27127   3.941   0.492   2.400  1.0352 -0.1750  0.0318
 5222SOL    HW127128   3.937   0.397   2.410 -0.5086  0.0888  1.8871
 5222SOL    HW227129   3.959   0.495   2.306 -0.5853  2.6284 -0.1758
 5223SOL     OW27130   0.636   3.794   7.905 -0.3200 -0.4483 -0.2618
 5223SOL    HW127131   0.674   3.743   7.977 -2.5124 -0.5763  0.8277
 5223SOL    HW227132   0.564   3.835   7.954 -0.5214  0.1402 -1.0642
 5224SOL     OW27133   0.201   2.927   0.502  0.4732  0.2643 -0.3953
 5224SOL    HW127134   0.237   3.009   0.466  2.1560  0.5250  1.8674
 5224SOL    HW227135   0.261   2.865   0.461 -1.5441 -0.9098 -1.5916
 5225SOL     OW27136   2.570   0.073   1.791  0.1946  0.3231 -0.3668
 5225SOL    HW127137   2.495   0.067   1.732  0.7639  0.2192 -1.0641
 5225SOL    HW227138   2.640   0.089   1.729  1.0693  1.1676  0.8300
 5226SOL     OW27139   4.617   2.392   1.698 -0.4126 -0.0626 -0.6058
 5226SOL    HW127140   4.673   2.363   1.625  1.7090 -1.1035  1.4269
 5226SOL    HW227141   4.627   2.485   1.677  0.6181 -0.2329 -0.8867
 5227SOL     OW27142   2.018   1.215   1.151  0.1754 -0.0350  0.0340
 5227SOL    HW127143   2.019   1.165   1.232 -0.2909 -0.4694 -0.2311
 5227SOL    HW227144   2.112   1.231   1.150  0.2128 -0.2255  1.1468
 5228SOL     OW27145   2.909   0.143   7.631  0.0532  0.2239  0.2003
 5228SOL    HW127146   2.837   0.205   7.640 -0.7744 -1.2558  3.7522
 5228SOL    HW227147   2.857   0.067   7.607 -0.1723  0.7298 -0.9113
 5229SOL     OW27148   1.503   4.011   2.052 -0.0147 -0.3221 -0.5793
 5229SOL    HW127149   1.477   4.040   1.965 -4.0212  1.6161  1.2483
 5229SOL    HW227150   1.464   3.925   2.066 -0.9719  0.0193 -1.1211
 5230SOL     OW27151   2.001   3.913   8.590 -0.0809 -0.2243 -0.1410
 5230SOL    HW127152   2.009   3.819   8.576 -4.0626 -0.7841  1.4882
 5230SOL    HW227153   1.965   3.932   8.503  0.1831 -0.9902 -0.4208
 5231SOL     OW27154   1.005   3.699   7.029  0.2012 -0.5689 -0.2383
 5231SOL    HW127155   0.974   3.782   6.991 -0.0450 -0.8412 -0.6358
 5231SOL    HW227156   1.095   3.724   7.050 -0.1608  0.3218  0.2730
 5232SOL     OW27157   4.216   3.935   8.709  0.2330  0.5116  0.3933
 5232SOL    HW127158   4.198   3.934   8.803 -0.4128 -0.2155  0.2659
 5232SOL    HW227159   4.305   3.900   8.705  0.2674  0.8060 -1.4361
 5233SOL     OW27160   2.584   2.168   2.205 -0.7394  0.6600 -0.4792
 5233SOL    HW127161   2.519   2.235   2.185 -0.3092  0.5947 -2.1016
 5233SOL    HW227162   2.658   2.225   2.227  1.8862 -2.1973 -1.8154
 5234SOL     OW27163   0.100   0.180   9.410 -0.6949  0.2091  0.0243
 5234SOL    HW127164   0.052   0.215   9.485 -0.1112 -1.0801  0.9811
 5234SOL    HW227165   0.173   0.240   9.394 -0.2605  0.1838  1.8759
 5235SOL     OW27166   3.638   3.287   1.125 -0.4857 -0.6280 -0.4842
 5235SOL    HW127167   3.590   3.214   1.162 -1.0917  0.1793  0.3232
 5235SOL    HW227168   3.576   3.334   1.069 -1.1766 -0.0835  0.7387
 5236SOL     OW27169   3.060   1.995  11.710 -0.3270 -0.5538  0.6146
 5236SOL    HW127170   3.153   1.972  11.708  0.0236  0.8148  1.3059
 5236SOL    HW227171   3.067   2.087  11.734  2.6494 -0.2318 -1.5177
 5237SOL     OW27172   2.820   0.796   4.964  0.2102  0.0779  0.6214
 5237SOL    HW127173   2.774   0.737   4.905 -1.2580 -0.6244  2.4656
 5237SOL    HW227174   2.905   0.753   4.964 -0.3009 -0.9137  0.9860
 5238SOL     OW27175   3.682   0.780   3.373 -0.1227 -0.5168 -0.9235
 5238SOL    HW127176   3.635   0.792   3.455  1.6337  0.8632 -0.1255
 5238SOL    HW227177   3.765   0.815   3.404  0.5495 -2.5800 -0.3568
 5239SOL     OW27178   3.488   1.820  13.777 -0.1972 -0.6512 -0.3896
 5239SOL    HW127179   3.503   1.738  13.823 -0.3423 -0.4918 -0.0644
 5239SOL    HW227180   3.489   1.777  13.691 -1.2018  1.3632 -1.4146
 5240SOL     OW27181   0.384   0.124   5.911  0.1360  0.1095 -0.1845
 5240SOL    HW127182   0.450   0.178   5.867 -1.9879  2.4405 -0.4625
 5240SOL    HW227183   0.392   0.145   6.004  1.1717  1.4113 -0.5623
 5241SOL     OW27184   3.544   0.216  12.225 -0.3235  0.0013  0.0270
 5241SOL    HW127185   3.537   0.299  12.179  2.2232 -0.1818 -0.7362
 5241SOL    HW227186   3.639   0.214  12.238 -0.3038 -1.4911 -0.2578
 5242SOL     OW27187   0.419   1.495   6.355  0.2051  0.0939 -0.2718
 5242SOL    HW127188   0.350   1.435   6.328 -0.2957  0.1513  0.9163
 5242SOL    HW227189   0.430   1.537   6.269 -3.0960  0.9896 -0.2521
 5243SOL     OW27190   4.668   1.833   6.715 -0.2402 -0.1676 -0.3985
 5243SOL    HW127191   4.708   1.908   6.670 -0.7999 -0.5298 -1.5059
 5243SOL    HW227192   4.584   1.864   6.749  0.4223  2.2718 -0.9518
 5244SOL     OW27193   3.224   0.201  15.630 -0.5597  0.4135 -0.1670
 5244SOL    HW127194   3.248   0.283  15.586 -1.6223  0.7724 -0.0683
 5244SOL    HW227195   3.232   0.136  15.560 -0.9671  0.3864 -0.1908
 5245SOL     OW27196   4.118   0.554  12.263  0.1414 -0.5986  0.0102
 5245SOL    HW127197   4.132   0.572  12.170 -0.6420  1.7190  0.3359
 5245SOL    HW227198   4.105   0.460  12.268  1.7544 -0.7523  1.3816
 5246SOL     OW27199   3.149   2.940   1.133  0.1228 -0.6685  0.0683
 5246SOL    HW127200   3.090   2.867   1.111 -0.9315 -0.0233  0.7461
 5246SOL    HW227201   3.184   2.912   1.218 -0.4918 -1.5747  0.0280
 5247SOL     OW27202   4.218   3.734   4.096 -0.2050 -0.2245 -0.7641
 5247SOL    HW127203   4.132   3.702   4.067 -0.3167  0.0259 -0.7096
 5247SOL    HW227204   4.211   3.821   4.056 -0.1390 -0.4951 -1.3724
 5248SOL     OW27205   4.570   4.261   2.525  0.1209  0.0914 -0.2801
 5248SOL    HW127206   4.512   4.249   2.601  0.4556 -0.5969 -0.1266
 5248SOL    HW227207   4.657   4.268   2.565 -0.6751 -1.5573  1.7882
 5249SOL     OW27208   0.202   1.724   2.524  0.0306  0.1614 -0.2207
 5249SOL    HW127209   0.191   1.652   2.462  2.1482 -1.0633  0.8179
 5249SOL    HW227210   0.162   1.794   2.473  0.4488  0.4810 -0.1132
 5250SOL     OW27211   1.179   1.187  15.038  0.5188 -0.1116 -0.4011
 5250SOL    HW127212   1.252   1.132  15.011  0.6928  1.0100 -2.2334
 5250SOL    HW227213   1.224   1.252  15.092 -0.8817 -0.3380  1.0366
 5251SOL     OW27214   2.919   1.699   3.294  0.3206  0.4353  0.2861
 5251SOL    HW127215   2.928   1.754   3.371  1.8423 -0.4254  0.7114
 5251SOL    HW227216   2.882   1.764   3.234  0.1908 -1.2361 -1.4851
 5252SOL     OW27217   4.238   4.233   5.447  0.1182  0.1116 -0.0993
 5252SOL    HW127218   4.279   4.239   5.361  1.9927 -0.8575  0.7215
 5252SOL    HW227219   4.291   4.302   5.487 -2.0441  0.8142  1.5453
 5253SOL     OW27220   2.037   4.317   8.845 -0.1087  0.3702 -0.2721
 5253SOL    HW127221   2.100   4.267   8.897 -1.4472 -1.6227 -0.5376
 5253SOL    HW227222   1.987   4.243   8.810 -1.3780  1.4397 -0.6883
 5254SOL     OW27223   3.640   0.015   5.473 -0.0043 -0.6568 -0.2130
 5254SOL    HW127224   3.624   4.701   5.559  0.2776  0.0459  0.1429
 5254SOL    HW227225   3.625   4.656   5.426 -0.8761 -0.8816  0.4592
 5255SOL     OW27226   0.823   3.603   7.216 -0.2804  0.9280  0.1759
 5255SOL    HW127227   0.809   3.514   7.182  3.1374  0.1444  0.7908
 5255SOL    HW227228   0.883   3.642   7.152  1.0225  1.9945  2.0256
 5256SOL     OW27229   1.480   2.520  12.760  0.0354 -0.1358 -0.2733
 5256SOL    HW127230   1.465   2.436  12.718  2.5745 -0.0782 -1.2931
 5256SOL    HW227231   1.523   2.487  12.839 -1.4435  0.2588  0.6913
 5257SOL     OW27232   1.987   3.352   3.415  0.2664 -0.2345  0.1439
 5257SOL    HW127233   2.015   3.416   3.350  0.0949 -0.9806 -0.6606
 5257SOL    HW227234   1.916   3.306   3.371  1.3269  1.1704 -3.0240
 5258SOL     OW27235   0.255   1.970   3.214 -0.1110 -0.0879 -0.4400
 5258SOL    HW127236   0.216   1.950   3.299 -1.3268 -2.0478 -1.4343
 5258SOL    HW227237   0.236   1.889   3.166 -1.4565 -1.5300  2.5781
 5259SOL     OW27238   1.044   3.889   7.819  0.3419  0.1814  0.0902
 5259SOL    HW127239   0.994   3.964   7.787  1.4613  1.0071  0.2703
 5259SOL    HW227240   1.101   3.935   7.882 -0.0064 -0.6824  1.0253
 5260SOL     OW27241   1.824   2.316   8.689 -0.1206 -0.1627  0.2999
 5260SOL    HW127242   1.878   2.387   8.725  1.6352 -0.2849 -2.1619
 5260SOL    HW227243   1.872   2.235   8.700  0.5935  0.0471 -1.4120
 5261SOL     OW27244   2.239   2.410   1.244 -0.5935  0.6294  0.1226
 5261SOL    HW127245   2.164   2.462   1.214 -0.2388 -0.3820 -2.5084
 5261SOL    HW227246   2.307   2.425   1.179  0.4090  0.9522  1.2371
 5262SOL     OW27247   1.107   0.471   7.722  0.1533  0.1665  0.3347
 5262SOL    HW127248   1.105   0.508   7.810 -0.0730  1.3288 -0.1563
 5262SOL    HW227249   1.139   0.384   7.745  0.2346  0.1479  0.1525
 5263SOL     OW27250   3.988   1.180   7.459 -0.1847 -0.6642 -0.3114
 5263SOL    HW127251   3.987   1.271   7.429  1.6808  0.0897  1.8843
 5263SOL    HW227252   3.918   1.184   7.524  0.4690 -0.0340  0.3572
 5264SOL     OW27253   4.404   1.966   1.764  0.6499 -0.4228 -0.1362
 5264SOL    HW127254   4.480   1.917   1.732  0.6631 -0.8078  0.4718
 5264SOL    HW227255   4.344   1.899   1.732 -0.9912  0.4388  1.1194
 5265SOL     OW27256   0.862   2.256   9.506 -0.1833  0.2754 -0.7777
 5265SOL    HW127257   0.951   2.269   9.472  1.6112 -3.3657  2.4387
 5265SOL    HW227258   0.863   2.307   9.586 -0.4647  0.0516 -0.6324
 5266SOL     OW27259   0.387   0.782   8.691  0.0186 -0.3167  0.3869
 5266SOL    HW127260   0.374   0.828   8.608 -2.4243 -0.2545  0.8081
 5266SOL    HW227261   0.301   0.746   8.714 -0.1779  0.0763  0.2524
 5267SOL     OW27262   4.588   3.086   9.288 -0.4410  0.0026 -0.4997
 5267SOL    HW127263   4.497   3.056   9.290  0.0945 -1.5467  1.2380
 5267SOL    HW227264   4.630   3.005   9.259 -0.3082  0.4899 -1.6500
 5268SOL     OW27265   1.095   1.933   5.970  0.2314 -0.2124  0.0121
 5268SOL    HW127266   1.170   1.987   5.947  0.8377 -1.3042 -0.5727
 5268SOL    HW227267   1.020   1.980   5.933  1.3228  0.6120 -1.1582
 5269SOL     OW27268   2.908   2.953   9.229 -0.2361 -0.4461 -0.1794
 5269SOL    HW127269   2.871   2.942   9.316  0.6855  0.4569  0.3197
 5269SOL    HW227270   2.857   2.891   9.177  0.0540 -1.4983  0.8076
 5270SOL     OW27271   4.446   3.752   0.246  0.2197  0.5170  0.2542
 5270SOL    HW127272   4.448   3.843   0.275  0.1759 -0.3042  2.8446
 5270SOL    HW227273   4.357   3.719   0.260  0.1491  0.2431 -0.8972
 5271SOL     OW27274   2.521   1.236  13.500 -0.4190 -0.3422  0.2233
 5271SOL    HW127275   2.460   1.290  13.451  1.6931  0.8067 -1.1775
 5271SOL    HW227276   2.507   1.147  13.469  3.4371 -1.5947  2.0387
 5272SOL     OW27277   2.911   4.300   9.422  0.3270 -0.0009 -0.2470
 5272SOL    HW127278   2.892   4.367   9.488  1.3404  0.2067 -0.1632
 5272SOL    HW227279   2.821   4.268   9.421  0.1685  0.4546 -0.2065
 5273SOL     OW27280   3.734   0.191   5.281 -0.4202  0.0311  0.1697
 5273SOL    HW127281   3.682   0.150   5.350 -1.7704  3.8596  1.4300
 5273SOL    HW227282   3.762   0.112   5.234 -1.6546 -0.0488 -0.4381
 5274SOL     OW27283   2.648   2.641  17.107 -0.0763  0.3426  0.0818
 5274SOL    HW127284   2.557   2.636  17.136  0.4622 -0.4767  1.6430
 5274SOL    HW227285   2.689   2.707  17.164  1.4463 -1.7156  1.3837
 5275SOL     OW27286   1.166   4.046   1.866 -0.1346 -0.4398  0.1451
 5275SOL    HW127287   1.255   4.034   1.832 -0.7595 -0.6019 -1.4493
 5275SOL    HW227288   1.113   4.032   1.788 -1.6044  0.2418  1.0379
 5276SOL     OW27289   4.532   0.792  15.070 -0.2604 -0.8307 -0.4605
 5276SOL    HW127290   4.483   0.830  15.143 -0.6707  1.7791 -2.0976
 5276SOL    HW227291   4.596   0.732  15.108 -0.8181 -1.5638 -0.6938
 5277SOL     OW27292   2.093   2.431   9.053 -0.8007  0.3643  0.9257
 5277SOL    HW127293   2.121   2.503   9.108  1.9335 -0.6304  0.8392
 5277SOL    HW227294   2.142   2.355   9.085 -0.3842  0.2745  0.0885
 5278SOL     OW27295   0.431   3.757  15.490  0.4820 -0.0799 -0.2807
 5278SOL    HW127296   0.363   3.694  15.513 -1.3538  2.4070  1.2068
 5278SOL    HW227297   0.500   3.724  15.548  0.0796  1.3371  1.0068
 5279SOL     OW27298   2.933   3.104   4.414 -0.0810 -0.1329  0.3997
 5279SOL    HW127299   2.912   3.137   4.326 -2.4323  1.2819  1.4788
 5279SOL    HW227300   2.963   3.189   4.445  1.8014 -0.6052 -0.1306
 5280SOL     OW27301   1.087   3.639   7.923 -0.3127 -0.5807 -0.3682
 5280SOL    HW127302   0.999   3.674   7.939  0.2400  1.3721 -1.5900
 5280SOL    HW227303   1.125   3.716   7.879  1.6090 -0.6011  1.2373
 5281SOL     OW27304   2.683   4.451   3.784  0.0270 -0.8043 -0.3129
 5281SOL    HW127305   2.774   4.419   3.787 -0.1364 -1.3599 -1.4507
 5281SOL    HW227306   2.662   4.414   3.698 -1.8355  0.4367 -0.3714
 5282SOL     OW27307   1.354   2.343   9.294  0.1135 -0.1168  0.2756
 5282SOL    HW127308   1.349   2.427   9.249  0.3246 -2.2125 -3.6622
 5282SOL    HW227309   1.323   2.283   9.226 -0.4364  0.0334  0.3890
 5283SOL     OW27310   3.502   0.050   7.044 -1.0786 -0.0197  0.0243
 5283SOL    HW127311   3.484   0.077   7.134  2.6634 -0.2825  0.8787
 5283SOL    HW227312   3.581   0.102   7.030 -1.2758  0.3230  0.1832
 5284SOL     OW27313   4.312   4.623  10.053 -0.2299 -0.8282  0.0600
 5284SOL    HW127314   4.266   4.598   9.972  0.7188  2.2886 -1.4383
 5284SOL    HW227315   4.352   4.541  10.083 -0.6535 -0.4768  1.5969
 5285SOL     OW27316   1.987   3.400  17.206 -0.2791 -0.7337 -0.2870
 5285SOL    HW127317   1.974   3.305  17.194 -1.3964 -0.6857  0.6365
 5285SOL    HW227318   2.034   3.419  17.124  1.6957  1.8405  1.4686
 5286SOL     OW27319   2.016   0.313  13.416  0.1134 -0.1234 -0.3170
 5286SOL    HW127320   2.109   0.303  13.399  0.1602 -0.1691 -0.0348
 5286SOL    HW227321   2.024   0.310  13.511  0.3871  2.5480 -0.2747
 5287SOL     OW27322   1.685   2.324   9.045 -0.1989  0.0584  0.0871
 5287SOL    HW127323   1.599   2.328   9.085  0.4812  0.5020  1.5170
 5287SOL    HW227324   1.698   2.419   9.041 -0.8995  0.1488 -0.0114
 5288SOL     OW27325   1.171   3.091   0.224  0.4078  0.0786 -0.3088
 5288SOL    HW127326   1.178   3.178   0.186  0.3066 -0.0417 -0.6101
 5288SOL    HW227327   1.119   3.099   0.304 -1.1481  1.9950 -1.5330
 5289SOL     OW27328   2.289   2.934   6.085  0.3006 -0.6632  0.1290
 5289SOL    HW127329   2.214   2.888   6.123  0.1311 -0.6862 -0.2359
 5289SOL    HW227330   2.281   2.920   5.991  1.7021  1.5567 -0.3156
 5290SOL     OW27331   0.816   3.621   5.365 -0.2105 -0.6923  0.3074
 5290SOL    HW127332   0.797   3.588   5.277  0.0247  0.1306 -0.0480
 5290SOL    HW227333   0.862   3.702   5.345 -0.5353 -0.7593 -0.6944
 5291SOL     OW27334   0.826   0.248   0.975  0.1576  0.4285 -0.0743
 5291SOL    HW127335   0.849   0.172   0.922  1.4770  1.0867 -0.4625
 5291SOL    HW227336   0.733   0.228   0.973  0.9178 -2.7523 -3.3358
 5292SOL     OW27337   2.664   3.997  13.977  0.1946 -0.7080  0.0953
 5292SOL    HW127338   2.725   4.010  13.905 -0.1540  0.9193  0.0815
 5292SOL    HW227339   2.578   3.999  13.936 -0.1895 -3.6255  0.7903
 5293SOL     OW27340   1.356   0.412   7.372  0.5213 -0.6298 -0.7717
 5293SOL    HW127341   1.414   0.337   7.382 -0.0145 -0.7319  1.5010
 5293SOL    HW227342   1.381   0.437   7.283 -0.8119  0.8581 -0.7475
 5294SOL     OW27343   4.677   4.015   3.231 -0.1212 -0.4014  0.3185
 5294SOL    HW127344   0.013   4.018   3.305 -1.2343 -1.3282  1.2479
 5294SOL    HW227345   4.643   4.104   3.232 -1.3355 -0.8594 -0.2537
 5295SOL     OW27346   0.020   1.251   3.175  0.1426  0.3536  0.0014
 5295SOL    HW127347   4.703   1.336   3.161 -0.1129  0.3135  0.5017
 5295SOL    HW227348   0.111   1.280   3.172 -0.5645  2.5807 -0.3524
 5296SOL     OW27349   0.168   3.136   1.826  0.0716  0.0150  0.0541
 5296SOL    HW127350   0.090   3.102   1.781  1.0810  1.2437 -2.6578
 5296SOL    HW227351   0.207   3.054   1.855 -0.7138 -0.6208 -0.6623
 5297SOL     OW27352   4.691   2.337   1.977  0.3547  0.2436  0.2217
 5297SOL    HW127353   4.632   2.357   1.904 -0.3212  1.3384  1.0730
 5297SOL    HW227354   4.635   2.294   2.042  1.5463 -1.6201  0.0087
 5298SOL     OW27355   0.696   1.197   5.160  0.0400  0.2263  0.4083
 5298SOL    HW127356   0.725   1.118   5.204 -2.8369 -0.8732  0.3298
 5298SOL    HW227357   0.769   1.258   5.166  1.8051 -1.8312 -0.3495
 5299SOL     OW27358   2.037   1.086   1.391 -0.4604 -0.0162  0.3889
 5299SOL    HW127359   2.008   0.995   1.386  1.0884 -0.4249 -1.1570
 5299SOL    HW227360   2.095   1.091   1.467 -0.1757 -0.2950  0.1889
 5300SOL     OW27361   1.821   1.807  11.119 -0.0132 -0.2167 -0.0456
 5300SOL    HW127362   1.853   1.861  11.047 -3.8119 -0.7047 -2.1112
 5300SOL    HW227363   1.813   1.725  11.070 -1.1728 -0.6466  0.8759
 5301SOL     OW27364   2.163   2.518   8.144  0.3667 -0.2545  0.1017
 5301SOL    HW127365   2.121   2.582   8.087 -2.3299 -1.7658  0.3899
 5301SOL    HW227366   2.134   2.543   8.231 -1.5697  0.2693 -0.7028
 5302SOL     OW27367   2.319   3.558   1.383  0.2480 -0.1956  0.1123
 5302SOL    HW127368   2.266   3.608   1.445  2.0496  1.5225  0.2830
 5302SOL    HW227369   2.371   3.514   1.451  1.4572  2.6517  1.0522
 5303SOL     OW27370   2.301   4.168   2.377 -0.1571 -0.1306 -0.3920
 5303SOL    HW127371   2.214   4.131   2.360  0.4158 -1.7958  0.3708
 5303SOL    HW227372   2.354   4.093   2.403 -1.1210 -0.2301  1.2814
 5304SOL     OW27373   0.705   0.607   3.310 -0.0232 -0.1027  0.2022
 5304SOL    HW127374   0.777   0.548   3.291 -0.3156  0.0261 -1.3220
 5304SOL    HW227375   0.682   0.638   3.223  1.5835  0.3801 -0.0403
 5305SOL     OW27376   2.320   0.115  16.327 -0.2449  0.2394 -0.3252
 5305SOL    HW127377   2.372   0.125  16.406  0.4480 -1.3271 -0.5721
 5305SOL    HW227378   2.290   0.202  16.300 -0.8068 -0.0507 -0.6510
 5306SOL     OW27379   0.040   3.810  13.299 -0.1243 -0.2038  0.3266
 5306SOL    HW127380   4.712   3.862  13.237  0.3576  0.9076  0.8379
 5306SOL    HW227381   0.128   3.839  13.272  0.8091 -0.8770  2.6220
 5307SOL     OW27382   2.697   4.341   5.945  0.0378 -0.2321  0.1755
 5307SOL    HW127383   2.759   4.292   5.892 -0.3962 -1.3334  0.6843
 5307SOL    HW227384   2.672   4.420   5.897  0.1940  0.7393  1.6752
 5308SOL     OW27385   2.373   0.994   9.712 -0.5905 -0.3511  0.2405
 5308SOL    HW127386   2.352   0.999   9.619  1.5909 -3.4005 -0.4108
 5308SOL    HW227387   2.348   0.904   9.736  0.2538 -0.2889  1.3417
 5309SOL     OW27388   0.395   0.148  12.183 -0.0260 -0.5484 -0.5494
 5309SOL    HW127389   0.378   0.181  12.272 -0.5355 -1.4738 -0.3026
 5309SOL    HW227390   0.438   0.070  12.219 -0.6276  0.0330  1.4275
 5310SOL     OW27391   2.891   2.089   3.477 -0.6130 -0.5697 -0.2016
 5310SOL    HW127392   2.932   2.174   3.460 -1.1896 -0.8110 -2.8625
 5310SOL    HW227393   2.858   2.060   3.391  1.1485  0.9440 -1.3959
 5311SOL     OW27394   2.048   1.194   3.931  0.1548  0.3761 -0.4912
 5311SOL    HW127395   1.958   1.188   3.899  0.7393 -2.4257 -1.6478
 5311SOL    HW227396   2.075   1.105   3.957  1.7898  0.9020 -0.4110
 5312SOL     OW27397   1.413   0.839   8.493  0.2519  0.0440 -0.4924
 5312SOL    HW127398   1.505   0.835   8.466  1.2223  0.5297  2.7046
 5312SOL    HW227399   1.388   0.922   8.453 -0.9616 -1.3060 -2.5241
 5313SOL     OW27400   4.253   2.896  10.110 -0.6810 -0.0946  0.5793
 5313SOL    HW127401   4.248   2.991  10.111 -1.2689 -0.1246  0.1892
 5313SOL    HW227402   4.229   2.878  10.019  0.2566 -1.1914  0.5378
 5314SOL     OW27403   1.461   0.824   6.814 -0.1064 -0.1400  0.3335
 5314SOL    HW127404   1.507   0.875   6.747 -0.8925  0.1356  0.0071
 5314SOL    HW227405   1.401   0.782   6.752 -1.6436  0.0126  1.7424
 5315SOL     OW27406   2.583   2.620   4.079  0.3477 -0.1525 -0.6804
 5315SOL    HW127407   2.557   2.573   4.000  0.1093 -0.5581 -0.3618
 5315SOL    HW227408   2.508   2.585   4.128 -0.0673 -1.2767 -2.1187
 5316SOL     OW27409   0.262   3.512   8.988  0.0720 -0.0564 -0.1330
 5316SOL    HW127410   0.318   3.456   9.042  0.1647 -0.1478 -0.3235
 5316SOL    HW227411   0.189   3.503   9.049 -0.2139  1.3280 -0.2724
 5317SOL     OW27412   2.512   1.175   7.525  0.0340  0.2363  0.3018
 5317SOL    HW127413   2.443   1.133   7.578  0.8314  0.8619  1.8407
 5317SOL    HW227414   2.534   1.105   7.464 -0.8391  0.6078 -0.4326
 5318SOL     OW27415   3.731   4.285  16.399  0.5600  0.3096 -0.5592
 5318SOL    HW127416   3.808   4.343  16.403  0.4631  0.4617 -0.9681
 5318SOL    HW227417   3.765   4.207  16.442 -0.6446 -0.8447 -1.7427
 5319SOL     OW27418   0.783   3.947   6.075 -0.1898  0.3021  0.3120
 5319SOL    HW127419   0.763   3.897   6.155  2.9353 -1.6886 -0.1370
 5319SOL    HW227420   0.879   3.942   6.074 -0.3060 -1.8289  0.0638
 5320SOL     OW27421   0.134   3.677   8.183 -0.2974  0.7795 -0.2204
 5320SOL    HW127422   0.105   3.589   8.208  1.7075 -0.8934 -3.6396
 5320SOL    HW227423   0.059   3.707   8.132 -0.6448 -0.2123 -0.2916
 5321SOL     OW27424   2.426   1.870   1.271 -0.2132 -0.2202  0.0002
 5321SOL    HW127425   2.365   1.938   1.299  1.4297  1.3536 -0.2559
 5321SOL    HW227426   2.391   1.789   1.307 -1.4231 -0.0398 -0.7670
 5322SOL     OW27427   3.318   1.226   2.163  0.2759  0.4713  0.3150
 5322SOL    HW127428   3.365   1.275   2.231  0.3736  1.0670 -0.1783
 5322SOL    HW227429   3.255   1.181   2.220 -0.6353  1.0629 -0.2376
 5323SOL     OW27430   3.589   4.287  10.018  0.0548  0.4889  0.0323
 5323SOL    HW127431   3.593   4.341  10.097  0.3176  0.9158 -0.2740
 5323SOL    HW227432   3.668   4.307   9.968  0.8799  0.5558  1.3449
 5324SOL     OW27433   4.703   4.597   1.575 -0.1441 -0.1941  0.1483
 5324SOL    HW127434   0.070   4.567   1.578  0.5998  1.9697 -0.4815
 5324SOL    HW227435   4.675   4.550   1.496 -0.5735 -0.5508  0.5138
 5325SOL     OW27436   3.925   0.686   6.124 -0.0702  0.0814 -0.0397
 5325SOL    HW127437   4.008   0.733   6.124 -0.9918  1.7324  1.8617
 5325SOL    HW227438   3.966   0.599   6.127  1.6241  0.9195  1.1873
 5326SOL     OW27439   3.975   4.625   2.580  0.3551  0.1428 -0.1449
 5326SOL    HW127440   3.995   4.541   2.538 -2.0058 -0.3401 -0.3194
 5326SOL    HW227441   3.931   4.603   2.662  1.5790 -0.8081  0.2653
 5327SOL     OW27442   2.674   1.979   7.451 -0.2809  0.3844  0.8545
 5327SOL    HW127443   2.637   1.891   7.466  1.7189 -0.4822  0.7261
 5327SOL    HW227444   2.693   1.999   7.542 -0.4533  0.2476  0.9217
 5328SOL     OW27445   4.109   2.746   1.486 -0.2564 -0.1146 -0.2779
 5328SOL    HW127446   4.082   2.824   1.535 -0.7889 -0.2567 -0.3446
 5328SOL    HW227447   4.197   2.762   1.453 -0.7711  1.4356 -0.9201
 5329SOL     OW27448   0.114   2.107   2.098  0.0926 -0.0325 -0.1807
 5329SOL    HW127449   0.168   2.030   2.078 -0.9656 -1.1409  1.1798
 5329SOL    HW227450   0.113   2.112   2.194 -1.3749 -2.1405 -0.0936
 5330SOL     OW27451   4.265   1.647   7.066 -0.1788 -0.4538  0.7064
 5330SOL    HW127452   4.221   1.693   7.137 -0.1648  1.7583 -0.7096
 5330SOL    HW227453   4.205   1.578   7.038  1.1357 -0.4091 -2.2099
 5331SOL     OW27454   3.105   2.668   3.385  0.0414 -0.3939 -0.4027
 5331SOL    HW127455   3.177   2.675   3.323 -1.1985  1.2658 -1.6339
 5331SOL    HW227456   3.149   2.598   3.432 -0.8056 -1.3640 -1.0407
 5332SOL     OW27457   1.368   1.683   3.601  0.6953 -0.0399 -0.3641
 5332SOL    HW127458   1.396   1.704   3.690 -1.9603  1.2444  0.1708
 5332SOL    HW227459   1.440   1.627   3.573  2.1987  1.7378 -0.1008
 5333SOL     OW27460   2.743   2.108   4.806  0.0436 -0.4089  0.1253
 5333SOL    HW127461   2.656   2.134   4.777  0.8100 -1.0020 -2.7555
 5333SOL    HW227462   2.746   2.176   4.874 -1.2497  0.7085 -0.9273
 5334SOL     OW27463   2.319   4.051   9.967 -0.0827 -0.1609 -0.4191
 5334SOL    HW127464   2.377   3.998  10.022  1.9881  1.9256 -0.6043
 5334SOL    HW227465   2.335   4.017   9.879  1.9903 -2.2908  0.7897
 5335SOL     OW27466   1.103   3.178   8.902  0.6188  0.4109 -0.0090
 5335SOL    HW127467   1.177   3.131   8.941 -0.8872 -1.3868  0.7035
 5335SOL    HW227468   1.059   3.195   8.985  1.6523 -1.1450  0.8593
 5336SOL     OW27469   0.655   3.645   0.942  0.3297 -0.2860 -0.3311
 5336SOL    HW127470   0.702   3.571   0.981 -1.6112 -1.6131 -0.4783
 5336SOL    HW227471   0.564   3.616   0.937  0.2717 -0.1909  0.1318
 5337SOL     OW27472   4.210   2.277   7.489 -0.1335 -0.2495 -0.0841
 5337SOL    HW127473   4.128   2.233   7.509 -1.0087  1.5268  0.2373
 5337SOL    HW227474   4.260   2.246   7.565  0.3630 -0.6755 -0.5872
 5338SOL     OW27475   2.519   2.914   5.782 -0.7155  0.3419 -0.2191
 5338SOL    HW127476   2.426   2.927   5.767 -0.6335  0.1552 -0.8992
 5338SOL    HW227477   2.519   2.839   5.841  0.1133 -1.7098 -2.8427
 5339SOL     OW27478   0.289   2.465   5.180 -0.1384 -0.4729 -0.4371
 5339SOL    HW127479   0.234   2.519   5.236  2.0877 -0.1173  1.3675
 5339SOL    HW227480   0.365   2.443   5.234  1.4854  1.7024 -1.8687
 5340SOL     OW27481   2.838   3.932   6.718 -0.1523  0.0031  0.2382
 5340SOL    HW127482   2.844   3.840   6.695 -0.2411 -0.2041  1.0407
 5340SOL    HW227483   2.750   3.937   6.756 -0.4054 -1.7587 -0.1138
 5341SOL     OW27484   1.874   0.942   7.402  0.4369 -0.7342 -0.1212
 5341SOL    HW127485   1.947   0.888   7.433  0.0939 -0.0904  1.7759
 5341SOL    HW227486   1.813   0.871   7.381 -0.9683  0.4479 -0.0381
 5342SOL     OW27487   3.100   3.601   7.430 -0.0297 -0.0727 -0.3312
 5342SOL    HW127488   3.013   3.639   7.417 -0.3352 -0.3040  1.0490
 5342SOL    HW227489   3.149   3.668   7.479 -0.8155 -2.0887  3.2144
 5343SOL     OW27490   3.006   4.659   9.897  0.0458 -0.1890  0.3100
 5343SOL    HW127491   3.055   0.007   9.937  1.1760 -0.8923  0.1974
 5343SOL    HW227492   2.923   4.649   9.943 -1.5351 -0.4298 -2.5765
 5344SOL     OW27493   3.786   2.737   1.963  0.4167 -0.2795  0.4561
 5344SOL    HW127494   3.701   2.694   1.953  1.3635 -2.2961  1.0951
 5344SOL    HW227495   3.845   2.666   1.936  0.2130 -1.4733  3.1412
 5345SOL     OW27496   2.776   3.106  11.571 -0.4828 -0.6664 -0.6330
 5345SOL    HW127497   2.815   3.164  11.506 -2.4696 -0.1475 -1.3860
 5345SOL    HW227498   2.742   3.170  11.634  1.7430  1.2758 -1.4381
 5346SOL     OW27499   2.812   4.442  12.368  0.5171  0.2598 -0.6387
 5346SOL    HW127500   2.791   4.404  12.454  2.0895 -0.8468 -0.7404
 5346SOL    HW227501   2.724   4.448  12.331  0.1894  0.8961  0.2392
 5347SOL     OW27502   4.598   1.504   3.114 -0.6992  0.6857 -0.8870
 5347SOL    HW127503   4.619   1.524   3.023 -0.7921  0.9660 -0.8451
 5347SOL    HW227504   4.506   1.477   3.111 -0.5671 -0.1528  2.7035
 5348SOL     OW27505   1.915   3.655  17.257 -0.2893  0.3158  0.1480
 5348SOL    HW127506   1.838   3.648  17.313 -0.6289 -0.2816 -0.3892
 5348SOL    HW227507   1.927   3.560  17.246  2.0131  0.6967 -0.5428
 5349SOL     OW27508   1.601   0.123   3.587  0.2214 -0.4736  0.0252
 5349SOL    HW127509   1.611   0.042   3.637 -2.2604  0.7696  2.5397
 5349SOL    HW227510   1.692   0.148   3.572  0.3864 -0.0123  1.7451
 5350SOL     OW27511   3.179   0.171   5.597  0.1225  0.1080 -0.1264
 5350SOL    HW127512   3.153   0.128   5.679  2.7133  2.4845  1.9448
 5350SOL    HW227513   3.208   0.256   5.630  0.6397  0.2654 -1.0150
 5351SOL     OW27514   2.978   0.860   8.459 -0.2686  0.1020  0.0360
 5351SOL    HW127515   2.900   0.887   8.507  0.2447  0.7589  0.4990
 5351SOL    HW227516   2.963   0.766   8.451  3.4827 -0.6051  1.1484
 5352SOL     OW27517   3.094   3.066   5.711  0.2646  0.2827 -0.1781
 5352SOL    HW127518   3.149   3.092   5.637 -0.6869  0.1069 -0.9600
 5352SOL    HW227519   3.042   2.995   5.673 -2.2104  1.0472  1.7746
 5353SOL     OW27520   1.270   2.769  17.106  0.1111  0.4734 -0.3148
 5353SOL    HW127521   1.343   2.830  17.091  0.9222 -0.5324 -0.4738
 5353SOL    HW227522   1.300   2.700  17.164  1.8117 -0.9223 -2.8191
 5354SOL     OW27523   0.986   3.191   7.687  0.1057  0.3521 -0.0391
 5354SOL    HW127524   0.963   3.262   7.748 -2.7488  0.9222 -1.7604
 5354SOL    HW227525   1.081   3.190   7.691  0.0330 -2.4995  0.4408
 5355SOL     OW27526   2.916   4.692  13.950 -0.3460 -0.7038 -0.1184
 5355SOL    HW127527   2.893   4.634  13.878  1.2562 -0.5528 -0.7486
 5355SOL    HW227528   2.967   4.636  14.009 -1.2290 -1.2882  0.0874
 5356SOL     OW27529   1.325   1.962  16.098 -0.8492  0.4470 -0.9513
 5356SOL    HW127530   1.264   1.912  16.153 -1.3748  2.0383 -0.0948
 5356SOL    HW227531   1.312   1.922  16.012 -2.6214 -0.6227 -0.2008
 5357SOL     OW27532   1.374   3.238   4.975 -0.7167  0.2242  0.0272
 5357SOL    HW127533   1.381   3.197   4.889 -3.0450 -1.0926  0.4676
 5357SOL    HW227534   1.331   3.321   4.955  1.1948  1.5522  1.4450
 5358SOL     OW27535   4.141   2.173  16.948  0.2768  0.1182  0.0503
 5358SOL    HW127536   4.148   2.269  16.951 -1.5639  0.2496  0.1194
 5358SOL    HW227537   4.219   2.143  16.994  1.3413  1.7358 -0.6668
 5359SOL     OW27538   2.515   2.394   2.867 -0.5047  0.7920  0.6625
 5359SOL    HW127539   2.430   2.423   2.900 -0.6448 -1.7252  2.5441
 5359SOL    HW227540   2.526   2.448   2.789  1.4959  1.8769  1.6919
 5360SOL     OW27541   4.100   1.842   6.647  0.1660 -0.3032  0.7410
 5360SOL    HW127542   4.168   1.847   6.714 -0.9090  1.2586  1.7251
 5360SOL    HW227543   4.025   1.870   6.700 -0.0469 -0.6066  0.6008
 5361SOL     OW27544   1.881   4.337   3.103  0.3709  0.2762  0.1773
 5361SOL    HW127545   1.791   4.325   3.133  0.2974 -0.7155 -0.4117
 5361SOL    HW227546   1.867   4.333   3.009  1.4503 -0.9249  0.0696
 5362SOL     OW27547   2.472   1.907   8.652 -1.0824  0.0348  0.4502
 5362SOL    HW127548   2.378   1.924   8.643 -0.6793  0.9514 -2.1951
 5362SOL    HW227549   2.500   1.960   8.727 -0.8853 -0.3952  0.6771
 5363SOL     OW27550   3.228   1.611   8.753  0.0138  0.1631 -0.1857
 5363SOL    HW127551   3.266   1.665   8.822  0.4673  0.7002 -0.8635
 5363SOL    HW227552   3.134   1.624   8.767  0.0875  0.8525 -0.3639
 5364SOL     OW27553   4.584   4.615   3.398  0.2103  0.5844 -0.2126
 5364SOL    HW127554   4.493   4.629   3.371 -0.0114  0.4468  0.4700
 5364SOL    HW227555   4.563   4.588   3.487  0.2146  2.0891  0.2438
 5365SOL     OW27556   2.151   1.281  12.878 -0.5530 -0.3648 -0.0667
 5365SOL    HW127557   2.217   1.212  12.881 -1.4375 -1.1815  0.8150
 5365SOL    HW227558   2.095   1.243  12.810  0.5268 -3.0086  0.5101
 5366SOL     OW27559   1.125   4.696   4.920 -0.2796 -0.4335  0.2959
 5366SOL    HW127560   1.134   0.056   4.875  0.2620  0.1212  1.4099
 5366SOL    HW227561   1.210   4.658   4.898 -1.3838 -1.0144 -2.9204
 5367SOL     OW27562   4.440   3.769  13.542 -0.3387  0.0660  0.4015
 5367SOL    HW127563   4.347   3.757  13.558 -0.3276 -1.2552 -0.4902
 5367SOL    HW227564   4.434   3.857  13.504 -0.1399 -0.4483 -0.8364
 5368SOL     OW27565   4.218   2.277   0.559  0.0002  0.4393  0.1565
 5368SOL    HW127566   4.299   2.234   0.587 -1.2095 -1.5600  0.5819
 5368SOL    HW227567   4.261   2.341   0.503  2.2721 -1.7273 -0.5860
 5369SOL     OW27568   2.314   4.166   6.612  0.4478 -0.3262 -0.0110
 5369SOL    HW127569   2.296   4.256   6.639  0.1347 -0.5164  0.4229
 5369SOL    HW227570   2.257   4.122   6.676 -0.8483 -1.2399 -1.7949
 5370SOL     OW27571   1.269   3.696   6.820 -0.0186  0.2100  0.3591
 5370SOL    HW127572   1.308   3.772   6.776 -0.4603  0.6642  0.7543
 5370SOL    HW227573   1.185   3.695   6.775 -0.3746 -0.3895  1.0447
 5371SOL     OW27574   1.359   1.208   1.409  0.1718 -0.0743 -0.1775
 5371SOL    HW127575   1.413   1.176   1.482 -0.7103  2.6432  1.6978
 5371SOL    HW227576   1.317   1.273   1.466  0.6570 -1.2345  1.5051
 5372SOL     OW27577   0.607   2.414   3.448 -0.0822 -0.3590 -0.0496
 5372SOL    HW127578   0.552   2.490   3.465 -0.7740 -0.8683 -0.0286
 5372SOL    HW227579   0.650   2.393   3.531  1.8629  0.1930 -0.9023
 5373SOL     OW27580   1.527   0.338  12.660  0.3654 -0.3570  0.3746
 5373SOL    HW127581   1.605   0.334  12.714  1.0157  1.1902 -0.4563
 5373SOL    HW227582   1.565   0.297  12.583  0.6012 -1.0436  0.8601
 5374SOL     OW27583   3.199   3.429   6.454  0.1057 -0.1530 -0.2921
 5374SOL    HW127584   3.229   3.516   6.479  0.9487 -1.0731  1.9406
 5374SOL    HW227585   3.152   3.440   6.372  2.1012 -0.8727 -1.5403
 5375SOL     OW27586   0.970   4.083   9.147  0.2510  0.3140 -0.3538
 5375SOL    HW127587   0.880   4.112   9.164  0.4386  1.3878 -1.2127
 5375SOL    HW227588   1.018   4.139   9.207  1.0790  1.3848 -2.0181
 5376SOL     OW27589   2.504   1.089   1.312  0.1922 -0.5498  0.7190
 5376SOL    HW127590   2.583   1.107   1.364  1.4990 -1.6192 -0.9002
 5376SOL    HW227591   2.511   0.994   1.321  1.5757 -0.7685 -3.0112
 5377SOL     OW27592   1.275   2.556   7.444 -0.4536  0.0710 -0.4175
 5377SOL    HW127593   1.339   2.495   7.481 -0.6737  0.5168  0.7292
 5377SOL    HW227594   1.195   2.530   7.490 -0.8695 -1.0532 -1.7667
 5378SOL     OW27595   3.216   3.868   8.447  0.0164 -0.2310  0.4114
 5378SOL    HW127596   3.236   3.922   8.371  0.1881  0.2731  0.8189
 5378SOL    HW227597   3.290   3.808   8.440  0.9981  0.6459  3.0880
 5379SOL     OW27598   3.901   2.110  13.834  0.6659  0.2862  0.6941
 5379SOL    HW127599   3.816   2.152  13.847  0.2624  0.0006 -0.9692
 5379SOL    HW227600   3.962   2.182  13.852  0.9555 -0.1228  1.3145
 5380SOL     OW27601   2.412   4.496  10.472  0.8934 -0.3731 -0.3596
 5380SOL    HW127602   2.336   4.489  10.414  0.9512  0.5559 -0.5630
 5380SOL    HW227603   2.369   4.557  10.532 -1.5664 -0.1978 -2.2841
 5381SOL     OW27604   3.964   1.605  10.242  0.1336  0.1639  0.0442
 5381SOL    HW127605   3.959   1.701  10.244  0.2625  0.1697  0.1460
 5381SOL    HW227606   4.032   1.587  10.177 -0.8258 -0.6971 -0.7207
 5382SOL     OW27607   0.068   3.096   5.677  0.1299  0.5158 -0.3838
 5382SOL    HW127608   0.109   3.017   5.642  0.8350  0.8043 -0.2289
 5382SOL    HW227609   0.057   3.148   5.598 -2.3780  2.6624  1.3829
 5383SOL     OW27610   4.680   1.976  17.442 -0.0339  0.2390 -0.5545
 5383SOL    HW127611   0.031   2.028  17.413  0.9293 -0.4493  0.7411
 5383SOL    HW227612   4.686   1.907  17.376  0.2625 -0.0731 -0.1996
 5384SOL     OW27613   4.717   1.406   7.753 -0.0115 -0.2108 -0.4045
 5384SOL    HW127614   4.676   1.324   7.780  1.1512 -0.4407  0.6509
 5384SOL    HW227615   4.640   1.446   7.712  1.1385  2.8086  0.4055
 5385SOL     OW27616   1.983   0.363   4.699 -0.3196 -0.3734  0.1281
 5385SOL    HW127617   1.973   0.448   4.741  0.7498  0.8188 -2.0506
 5385SOL    HW227618   2.029   0.378   4.617  0.9959  1.1354  1.1519
 5386SOL     OW27619   1.649   1.197  14.312  0.5263  0.0991  0.8238
 5386SOL    HW127620   1.645   1.119  14.258  1.0781  1.0873 -0.6341
 5386SOL    HW227621   1.693   1.167  14.392 -0.0494  0.9317  1.4640
 5387SOL     OW27622   2.929   0.698   5.243 -0.0718  0.0200  0.4851
 5387SOL    HW127623   2.834   0.710   5.250 -0.1930 -0.0418 -1.0828
 5387SOL    HW227624   2.965   0.784   5.268  0.2561 -0.5402  1.9412
 5388SOL     OW27625   0.936   0.767   6.221  0.9083 -0.8350 -0.3108
 5388SOL    HW127626   0.921   0.728   6.307  3.1067  0.2343  0.5555
 5388SOL    HW227627   1.030   0.782   6.226  0.8638 -0.1386 -1.5010
 5389SOL     OW27628   3.170   2.318  12.723 -0.0026  0.4661 -0.4777
 5389SOL    HW127629   3.092   2.360  12.760  1.0503  1.0370  1.0847
 5389SOL    HW227630   3.135   2.239  12.682  1.7799 -0.0327 -1.0534
 5390SOL     OW27631   3.398   3.643  10.587 -0.1882  0.1092  0.1651
 5390SOL    HW127632   3.490   3.639  10.560  0.7009 -0.2170  3.1781
 5390SOL    HW227633   3.402   3.568  10.647  0.7857  0.2443  0.2606
 5391SOL     OW27634   4.454   1.262   7.628  0.4450  0.0066  0.2147
 5391SOL    HW127635   4.435   1.352   7.653  0.0162 -0.6876  2.3497
 5391SOL    HW227636   4.369   1.234   7.595 -0.2992  2.8971 -0.3126
 5392SOL     OW27637   2.725   2.272   2.968 -0.0789 -0.3359  0.1366
 5392SOL    HW127638   2.647   2.308   2.927 -2.6152  0.1510  5.3954
 5392SOL    HW227639   2.751   2.203   2.907  2.1148  0.5071  0.1031
 5393SOL     OW27640   0.456   4.168   5.525 -0.2652  0.0470  0.0636
 5393SOL    HW127641   0.504   4.183   5.444  1.7314  2.8903  1.7599
 5393SOL    HW227642   0.367   4.175   5.491 -0.8214 -0.0992  1.4946
 5394SOL     OW27643   4.572   3.861   7.768  0.9273  0.0918  0.0483
 5394SOL    HW127644   4.582   3.890   7.677 -0.5055 -0.8116 -0.4063
 5394SOL    HW227645   4.478   3.874   7.782  0.7929 -1.1054  0.2952
 5395SOL     OW27646   0.836   0.348   8.118 -0.3310 -0.7787  0.5115
 5395SOL    HW127647   0.834   0.259   8.154 -0.3668 -0.8055  0.4437
 5395SOL    HW227648   0.927   0.365   8.141 -0.2543  1.3669 -1.3584
 5396SOL     OW27649   0.820   2.382   3.005  0.3937  0.2004 -0.5946
 5396SOL    HW127650   0.757   2.358   2.937 -3.5596  2.4765  2.2844
 5396SOL    HW227651   0.763   2.389   3.082  1.3686  3.4630 -0.1835
 5397SOL     OW27652   4.022   0.689   1.464 -0.2480  0.8232 -0.2618
 5397SOL    HW127653   3.936   0.722   1.437 -0.9162 -0.7982 -0.1466
 5397SOL    HW227654   4.064   0.653   1.386  0.1780 -0.9710  0.7858
 5398SOL     OW27655   3.690   0.344   9.700 -0.2797  0.7920  0.1748
 5398SOL    HW127656   3.743   0.354   9.621  1.2107  1.4340  1.2600
 5398SOL    HW227657   3.746   0.394   9.759  0.1117  0.8192 -0.2207
 5399SOL     OW27658   0.888   1.031   8.748  0.0141 -0.1862  0.6858
 5399SOL    HW127659   0.837   1.004   8.824  0.3267 -2.6707  0.0228
 5399SOL    HW227660   0.837   1.006   8.671  3.4719  3.7121 -2.8972
 5400SOL     OW27661   1.977   4.356   9.820  0.0602 -0.4999  0.0018
 5400SOL    HW127662   2.024   4.324   9.898 -0.3339 -1.1080 -0.0141
 5400SOL    HW227663   1.950   4.443   9.849 -1.3864 -1.1021  0.4336
 5401SOL     OW27664   1.388   0.387   6.774 -0.1625  0.4106  0.0895
 5401SOL    HW127665   1.434   0.368   6.692  1.4824  1.7106  0.7098
 5401SOL    HW227666   1.429   0.338   6.845  1.1077 -1.1349 -1.7275
 5402SOL     OW27667   1.589   0.251   6.916  0.0298  0.2279  0.0707
 5402SOL    HW127668   1.633   0.334   6.934  1.3282 -0.8856  2.1245
 5402SOL    HW227669   1.654   0.182   6.932  1.0222  1.3569  0.8702
 5403SOL     OW27670   1.258   1.699  15.133 -0.4076  0.2804  0.5873
 5403SOL    HW127671   1.176   1.696  15.182 -0.4027  0.9684  0.6395
 5403SOL    HW227672   1.227   1.744  15.055 -1.3094 -0.0285  0.7758
 5404SOL     OW27673   1.675   1.346   8.501  0.2330 -0.1642  0.5683
 5404SOL    HW127674   1.621   1.292   8.559 -1.5583  0.0453 -0.8997
 5404SOL    HW227675   1.765   1.317   8.515  0.1958  0.2526  1.7186
 5405SOL     OW27676   1.776   1.539  10.512 -0.0719  0.3764  0.3779
 5405SOL    HW127677   1.776   1.525  10.607 -0.2823  2.4702  0.6786
 5405SOL    HW227678   1.718   1.610  10.485  1.1601  1.0843 -0.3773
 5406SOL     OW27679   0.831   0.144   2.401 -0.2217  0.0802  0.0135
 5406SOL    HW127680   0.766   0.142   2.331  1.8897 -2.8643 -1.8411
 5406SOL    HW227681   0.826   0.234   2.433 -0.7816  0.7431 -1.9489
 5407SOL     OW27682   1.853   3.035   1.788 -0.3787 -0.2084  0.2261
 5407SOL    HW127683   1.769   2.991   1.772 -0.0764  0.2632 -2.7328
 5407SOL    HW227684   1.912   2.975   1.742 -2.6219 -0.2854 -2.5951
 5408SOL     OW27685   1.344   2.453  16.247  0.4699 -0.1581  0.0380
 5408SOL    HW127686   1.440   2.462  16.241  0.2521  2.0399 -0.1931
 5408SOL    HW227687   1.331   2.360  16.264  0.2125 -0.3371 -1.2035
 5409SOL     OW27688   4.523   4.256   7.565 -0.9754  0.0250  0.7103
 5409SOL    HW127689   4.579   4.292   7.496  0.0667 -2.1773  0.4056
 5409SOL    HW227690   4.466   4.332   7.570  0.8761  1.4463 -0.0023
 5410SOL     OW27691   0.133   0.272   6.750  0.5431  0.2861 -0.0594
 5410SOL    HW127692   0.213   0.219   6.753  1.9218  2.3122 -0.6784
 5410SOL    HW227693   0.158   0.356   6.789  1.0201 -0.0034  0.2569
 5411SOL     OW27694   0.294   4.265   8.200 -0.8248  1.0704 -0.7024
 5411SOL    HW127695   0.261   4.272   8.111 -1.7570  1.5645 -0.3219
 5411SOL    HW227696   0.304   4.170   8.206 -0.0187  1.2376  0.5649
 5412SOL     OW27697   4.690   2.835   9.974  0.6415  0.6507  0.6042
 5412SOL    HW127698   4.696   2.835  10.070 -2.7275  1.3384  0.8174
 5412SOL    HW227699   4.631   2.760   9.963 -0.6401  2.0446 -2.0811
 5413SOL     OW27700   1.672   2.151  10.787 -0.3508  0.4064 -0.0455
 5413SOL    HW127701   1.703   2.159  10.878  0.6691 -1.8496 -0.1992
 5413SOL    HW227702   1.723   2.226  10.759  1.2717 -0.0054  1.7453
 5414SOL     OW27703   1.883   1.521   6.067  0.5810  0.2594  0.1676
 5414SOL    HW127704   1.803   1.469   6.076  0.1068  0.7357 -1.2838
 5414SOL    HW227705   1.848   1.600   6.026 -0.5635  0.0930  0.8217
 5415SOL     OW27706   3.713   3.568  13.375 -0.0759 -0.2568  0.7479
 5415SOL    HW127707   3.689   3.558  13.467 -1.3271 -0.0200  0.4389
 5415SOL    HW227708   3.757   3.483  13.368  1.7182  0.6603  0.7819
 5416SOL     OW27709   0.216   1.640  16.430 -0.1658  0.0107  0.4677
 5416SOL    HW127710   0.197   1.731  16.451  0.7039  0.5587 -1.1445
 5416SOL    HW227711   0.172   1.633  16.346 -2.0754  1.4016  1.3601
 5417SOL     OW27712   4.541   1.766   7.540 -0.3099 -0.1239  0.3840
 5417SOL    HW127713   4.489   1.842   7.514 -1.4133 -0.5196  1.4636
 5417SOL    HW227714   4.626   1.811   7.538 -1.4362  2.0073 -0.2528
 5418SOL     OW27715   3.105   0.584   5.735  0.1503 -0.1290 -0.0231
 5418SOL    HW127716   3.166   0.536   5.678  0.6237  1.3667 -0.7818
 5418SOL    HW227717   3.048   0.622   5.668 -0.5684  2.8207  2.3121
 5419SOL     OW27718   0.543   0.974   7.894  0.5229 -0.3332 -0.4679
 5419SOL    HW127719   0.491   0.896   7.876 -2.1569  0.9262  1.8495
 5419SOL    HW227720   0.545   1.003   7.803 -1.1377  1.8521  0.1900
 5420SOL     OW27721   3.244   4.269   2.686  0.1158 -0.0937 -0.6604
 5420SOL    HW127722   3.225   4.192   2.633  0.6791  0.8434 -2.2166
 5420SOL    HW227723   3.167   4.323   2.671 -0.6188 -0.4018  2.0226
 5421SOL     OW27724   2.604   2.635   9.425 -0.0594  0.5618 -0.9780
 5421SOL    HW127725   2.602   2.730   9.435 -2.3356  0.6802 -2.5632
 5421SOL    HW227726   2.528   2.605   9.474 -0.5103  1.3453 -1.2146
 5422SOL     OW27727   2.182   3.413  11.767 -0.7195 -0.4004  0.3068
 5422SOL    HW127728   2.203   3.430  11.859  1.1309  2.3324 -0.6047
 5422SOL    HW227729   2.102   3.466  11.768  0.0904  0.8640 -0.4230
 5423SOL     OW27730   0.029   3.129   6.033 -0.3478  0.3557 -0.1659
 5423SOL    HW127731   0.026   3.073   5.956  1.8841 -1.5138  1.1131
 5423SOL    HW227732   0.044   3.219   6.003 -0.8148  1.1528  1.9919
 5424SOL     OW27733   0.174   1.277   5.182 -0.1091  0.5498 -0.4555
 5424SOL    HW127734   0.268   1.280   5.202 -0.1918  1.0411 -0.1428
 5424SOL    HW227735   0.179   1.276   5.087  0.7857  0.3017 -0.4040
 5425SOL     OW27736   0.076   2.065   9.826  0.9623 -0.5438 -0.1757
 5425SOL    HW127737   0.072   1.995   9.760 -2.4283 -0.2145 -0.2942
 5425SOL    HW227738   0.060   2.145   9.777 -0.5000  0.5943  2.1834
 5426SOL     OW27739   1.915   3.900   5.115 -0.8520  0.2884 -0.4880
 5426SOL    HW127740   1.882   3.979   5.072  1.8482  0.6128 -1.9739
 5426SOL    HW227741   1.883   3.831   5.057 -0.4458  0.1990 -0.6103
 5427SOL     OW27742   1.150   1.713   5.835 -0.2129 -0.4539  0.6755
 5427SOL    HW127743   1.116   1.782   5.892  0.5951  0.6472 -0.1773
 5427SOL    HW227744   1.090   1.641   5.854 -1.8317  1.1879  1.8033
 5428SOL     OW27745   4.364   0.867   1.671 -0.4378 -0.3172  0.0514
 5428SOL    HW127746   4.424   0.793   1.684  1.8706  0.7794 -4.4390
 5428SOL    HW227747   4.329   0.863   1.760  3.5987  0.0968  1.6327
 5429SOL     OW27748   2.226   2.870   5.822 -0.2956 -0.3155  0.1835
 5429SOL    HW127749   2.196   2.869   5.731  1.1689  2.3080 -0.3385
 5429SOL    HW227750   2.173   2.796   5.852 -0.5519  0.1670  0.9441
 5430SOL     OW27751   1.318   2.637   3.019 -0.1389 -0.4523 -0.8136
 5430SOL    HW127752   1.384   2.578   2.983 -1.0272 -1.4775 -0.7749
 5430SOL    HW227753   1.247   2.579   3.047 -0.1381  0.5772  1.3575
 5431SOL     OW27754   4.243   4.132   6.292 -0.1030 -0.1164 -0.1471
 5431SOL    HW127755   4.194   4.063   6.248  1.9027 -0.8102 -1.3295
 5431SOL    HW227756   4.232   4.092   6.378 -0.8449 -1.6917 -0.9887
 5432SOL     OW27757   0.806   4.154   5.414 -0.4867 -0.4832  0.2880
 5432SOL    HW127758   0.729   4.140   5.359  0.8484 -3.5284 -0.7617
 5432SOL    HW227759   0.823   4.245   5.388  3.2346 -0.9980  0.9698
 5433SOL     OW27760   3.049   4.145  12.138  0.6723 -0.2918  0.0730
 5433SOL    HW127761   3.017   4.148  12.048  1.2453  0.2849 -0.1031
 5433SOL    HW227762   2.984   4.085  12.176 -1.3184  0.8835 -1.4482
 5434SOL     OW27763   2.583   0.324  16.259  0.0299  0.2309 -0.2618
 5434SOL    HW127764   2.527   0.335  16.336  0.4257 -1.9912  0.3528
 5434SOL    HW227765   2.617   0.411  16.239 -0.7407  1.0546  1.9812
 5435SOL     OW27766   3.408   2.779   2.851 -0.3137 -0.3990 -0.3123
 5435SOL    HW127767   3.437   2.838   2.921  1.9887 -1.1386 -0.6661
 5435SOL    HW227768   3.481   2.796   2.792  0.3794 -0.1268  0.6164
 5436SOL     OW27769   4.170   0.694   6.987  0.2420 -0.0096 -0.1048
 5436SOL    HW127770   4.223   0.749   6.928  0.5485 -1.4442 -1.1572
 5436SOL    HW227771   4.128   0.627   6.933  1.9380 -1.3208  0.2113
 5437SOL     OW27772   4.176   0.929   7.944 -0.8287 -0.8028  0.2696
 5437SOL    HW127773   4.228   0.932   7.864 -1.5589 -2.7166 -0.2810
 5437SOL    HW227774   4.120   0.857   7.916 -0.2833 -1.2472  0.3226
 5438SOL     OW27775   3.683   1.737   7.724 -0.3018  0.1447 -0.4209
 5438SOL    HW127776   3.753   1.739   7.789 -1.5770  0.3237  0.9527
 5438SOL    HW227777   3.714   1.662   7.673 -1.3495 -0.4513 -0.1991
 5439SOL     OW27778   1.408   4.187   3.632  0.8044  0.3305  0.3077
 5439SOL    HW127779   1.392   4.259   3.571 -1.4207  0.0030  0.5278
 5439SOL    HW227780   1.503   4.178   3.625  0.9144  2.1319 -0.6500
 5440SOL     OW27781   3.364   2.561   6.201 -0.2936  0.0678  0.0602
 5440SOL    HW127782   3.362   2.648   6.240 -1.2338  0.1829 -0.2458
 5440SOL    HW227783   3.359   2.508   6.280 -0.1808  0.4531  0.3278
 5441SOL     OW27784   0.976   0.060   4.423 -0.8762  0.2178 -0.1037
 5441SOL    HW127785   1.021   0.139   4.392  0.1876 -0.9736 -1.5876
 5441SOL    HW227786   1.044   0.019   4.477 -1.4021 -1.1104 -0.4556
 5442SOL     OW27787   0.035   0.406   2.858 -0.0987 -0.0755 -0.0479
 5442SOL    HW127788   4.678   0.355   2.856  0.7546 -1.4616  0.4544
 5442SOL    HW227789   0.018   0.466   2.930  1.4489  1.2949 -0.8224
 5443SOL     OW27790   3.637   3.038   8.995  0.4118 -0.3481  0.6690
 5443SOL    HW127791   3.663   3.129   9.012 -2.7477  0.5800  0.5369
 5443SOL    HW227792   3.669   2.999   9.076  3.1998 -0.4682 -0.4902
 5444SOL     OW27793   1.724   3.175   4.265 -0.2286 -0.2343  0.4280
 5444SOL    HW127794   1.666   3.200   4.193 -1.2166 -1.5059  0.7739
 5444SOL    HW227795   1.807   3.149   4.224 -0.5829 -0.5905 -0.0639
 5445SOL     OW27796   4.608   0.944   7.511 -0.0068  0.1759 -0.0381
 5445SOL    HW127797   4.678   0.927   7.447 -1.8211 -0.5533 -1.8346
 5445SOL    HW227798   4.595   1.039   7.505 -1.1619  0.0114 -0.0771
 5446SOL     OW27799   2.686   2.049  13.371  0.0423 -0.3136  0.6878
 5446SOL    HW127800   2.664   2.090  13.454 -0.3856  0.0327  0.4029
 5446SOL    HW227801   2.597   2.038  13.338 -0.3724 -0.0450  1.7102
 5447SOL     OW27802   4.502   0.848   2.997 -0.4056  0.1460  0.3767
 5447SOL    HW127803   4.409   0.866   2.983 -0.6220 -0.9798  0.3307
 5447SOL    HW227804   4.543   0.925   3.035 -2.4056  2.6183 -2.4530
 5448SOL     OW27805   3.873   2.811   0.502 -0.3678 -0.4448 -0.0594
 5448SOL    HW127806   3.902   2.855   0.582 -0.3703  1.4042 -1.0688
 5448SOL    HW227807   3.913   2.725   0.513 -2.1056 -1.1788  0.4919
 5449SOL     OW27808   1.623   4.190   5.650  0.1469  0.3574 -0.1727
 5449SOL    HW127809   1.534   4.171   5.622  0.0312 -0.8962  1.0306
 5449SOL    HW227810   1.622   4.284   5.635  0.6416  1.1660  4.9928
 5450SOL     OW27811   0.857   1.994   8.865  0.0410 -0.3105  0.1287
 5450SOL    HW127812   0.869   2.081   8.828  0.9774 -0.4557  0.0903
 5450SOL    HW227813   0.947   1.975   8.891  0.5219 -0.9444 -1.9529
 5451SOL     OW27814   2.065   1.000  13.070 -0.9311 -0.0287 -0.4415
 5451SOL    HW127815   2.022   0.924  13.109 -1.5359  0.6748  0.2648
 5451SOL    HW227816   2.081   0.956  12.987 -1.8356  0.7350 -1.0083
 5452SOL     OW27817   3.237   0.154  17.678 -1.6081 -0.4969 -0.2173
 5452SOL    HW127818   3.277   0.080   0.026  0.1191  1.1336  0.8688
 5452SOL    HW227819   3.302   0.160  17.608  0.8985 -0.4774  2.1327
 5453SOL     OW27820   1.069   1.339   5.723 -0.0835  0.2869 -0.4876
 5453SOL    HW127821   1.135   1.271   5.738  2.1919  1.9899 -2.8089
 5453SOL    HW227822   1.021   1.298   5.652  0.8110  0.4002 -1.1596
 5454SOL     OW27823   1.229   2.953   1.905 -0.0008  0.2130 -0.5949
 5454SOL    HW127824   1.176   2.907   1.839 -2.0152  1.6663  0.0318
 5454SOL    HW227825   1.297   2.886   1.914  1.3316  1.5699 -0.7205
 5455SOL     OW27826   0.377   4.664   9.126 -0.2764 -0.2676 -0.0786
 5455SOL    HW127827   0.437   4.662   9.051 -0.9797  0.0379 -0.6460
 5455SOL    HW227828   0.428   4.717   9.186 -1.6838  0.1906  0.7048
 5456SOL     OW27829   3.571   4.688   5.743  0.3507 -0.4653  0.2612
 5456SOL    HW127830   3.486   4.647   5.725  0.2730 -0.7256  1.1995
 5456SOL    HW227831   3.621   4.613   5.776  1.4556 -0.1581 -0.7254
 5457SOL     OW27832   3.093   0.159  13.761  0.6240  0.1706  0.4479
 5457SOL    HW127833   3.069   0.227  13.698  0.2089 -1.0738 -0.7344
 5457SOL    HW227834   3.016   0.147  13.816  0.2281 -0.8367 -0.3313
 5458SOL     OW27835   4.286   3.952   3.428  0.4122  0.0401 -0.4475
 5458SOL    HW127836   4.286   3.864   3.391  2.2644 -0.5465  0.9458
 5458SOL    HW227837   4.289   3.941   3.523 -1.4965 -0.4355 -0.4372
 5459SOL     OW27838   2.842   3.141   5.461 -0.3217 -0.0756  0.5362
 5459SOL    HW127839   2.754   3.106   5.474  0.6850 -2.6718  0.3687
 5459SOL    HW227840   2.830   3.227   5.420 -1.3556 -0.4197  0.1158
 5460SOL     OW27841   1.128   4.230   9.575 -0.4734 -0.0699  0.2211
 5460SOL    HW127842   1.176   4.170   9.632 -1.5166 -0.4282  0.7256
 5460SOL    HW227843   1.057   4.254   9.634  0.4301 -2.2529  2.2447
 5461SOL     OW27844   1.592   0.450   2.805  0.6770  0.1799  0.0391
 5461SOL    HW127845   1.553   0.537   2.799 -1.1946 -0.6383  0.2803
 5461SOL    HW227846   1.554   0.418   2.887 -0.4680  0.5341 -0.3448
 5462SOL     OW27847   4.510   0.784   7.115 -0.1306 -0.1628 -0.8291
 5462SOL    HW127848   4.511   0.709   7.056  2.3356 -0.8204  0.0282
 5462SOL    HW227849   4.438   0.834   7.078  2.3916  2.4810 -2.1610
 5463SOL     OW27850   0.718   1.939  12.832  0.4693  0.3913 -0.4719
 5463SOL    HW127851   0.780   1.873  12.801  1.2139  1.5465 -1.4221
 5463SOL    HW227852   0.647   1.938  12.768  0.2289 -0.8979 -0.1919
 5464SOL     OW27853   3.534   3.715  13.242  0.0345  0.1461 -0.3839
 5464SOL    HW127854   3.510   3.791  13.295  2.3020 -0.1067  1.0028
 5464SOL    HW227855   3.610   3.670  13.279 -0.1275 -0.9977 -1.4594
 5465SOL     OW27856   2.384   3.790   8.888 -0.3118  0.1982 -0.0005
 5465SOL    HW127857   2.396   3.741   8.806 -0.3820  0.5620 -0.2301
 5465SOL    HW227858   2.402   3.881   8.864  0.4117  0.2364  0.7096
 5466SOL     OW27859   1.782   1.879   1.980 -0.7506  0.0054  0.2196
 5466SOL    HW127860   1.769   1.910   2.070 -4.3045 -0.1867 -0.2155
 5466SOL    HW227861   1.861   1.922   1.949 -1.3932  0.5550 -0.6705
 5467SOL     OW27862   2.403   3.364   8.232 -0.4352  0.4428 -0.0551
 5467SOL    HW127863   2.349   3.314   8.171 -2.2200 -0.8727  2.5506
 5467SOL    HW227864   2.487   3.345   8.192  1.5007  0.2171  4.1005
 5468SOL     OW27865   1.551   4.543   9.848  0.2033 -0.3523  0.0806
 5468SOL    HW127866   1.628   4.491   9.867  0.4868  0.8463  2.1702
 5468SOL    HW227867   1.487   4.480   9.881  0.9864 -0.9220  0.4840
 5469SOL     OW27868   2.635   2.675   1.790 -0.0388 -0.5186  0.5035
 5469SOL    HW127869   2.587   2.642   1.714  0.9695  2.0067 -1.2197
 5469SOL    HW227870   2.563   2.653   1.849  0.0048 -3.2403 -0.4274
 5470SOL     OW27871   4.717   0.806   2.845 -0.0370  0.1109 -0.3497
 5470SOL    HW127872   0.036   0.890   2.823  1.1902 -0.4428 -0.0665
 5470SOL    HW227873   4.625   0.833   2.850 -0.0711 -0.2227  0.6299
 5471SOL     OW27874   3.212   0.367   3.443 -0.2883 -0.4124  0.3405
 5471SOL    HW127875   3.306   0.380   3.445 -0.0131 -1.9859 -2.3250
 5471SOL    HW227876   3.186   0.459   3.438  1.1924  0.1166  2.1151
 5472SOL     OW27877   4.589   3.004   2.350  0.1484 -0.3202 -0.0719
 5472SOL    HW127878   4.581   2.911   2.332 -0.3869  0.0913 -2.0092
 5472SOL    HW227879   4.682   3.005   2.372  0.2192  2.2962 -0.3799
 5473SOL     OW27880   1.817   0.153  11.745 -1.0867  0.5512 -0.6666
 5473SOL    HW127881   1.844   0.119  11.831  1.1285 -3.0876 -2.8119
 5473SOL    HW227882   1.849   0.078  11.695 -3.0681  0.3781 -1.6986
 5474SOL     OW27883   0.190   1.681  10.031 -0.1167  0.0667  0.6448
 5474SOL    HW127884   0.256   1.749  10.018  1.3770 -1.4783  0.1246
 5474SOL    HW227885   0.212   1.628   9.954 -1.3425  0.8653 -0.2655
 5475SOL     OW27886   3.151   3.659   1.408  0.1000  0.1997  0.1205
 5475SOL    HW127887   3.117   3.665   1.498  2.1273 -0.9595  0.9790
 5475SOL    HW227888   3.232   3.707   1.425  1.0665 -1.0799 -0.8259
 5476SOL     OW27889   1.283   4.558   0.797 -0.4000  0.7600 -0.4689
 5476SOL    HW127890   1.331   4.477   0.776 -2.7550 -0.8866  0.5143
 5476SOL    HW227891   1.342   4.617   0.750  2.5073 -0.5878  1.4356
 5477SOL     OW27892   3.261   3.416  16.452  0.6886 -0.2100  0.3659
 5477SOL    HW127893   3.218   3.355  16.392 -2.6117  1.6128  0.8688
 5477SOL    HW227894   3.341   3.372  16.483  0.7971  0.6495  1.2981
 5478SOL     OW27895   0.988   1.591   7.746  0.3691 -0.1274  0.4358
 5478SOL    HW127896   0.947   1.559   7.827  1.2657 -0.9481  0.5632
 5478SOL    HW227897   1.057   1.647   7.783 -1.1361  1.4573  0.8143
 5479SOL     OW27898   3.310   3.149   9.203 -0.4698  0.0624 -0.3182
 5479SOL    HW127899   3.262   3.120   9.125 -1.0555 -2.1829  0.8909
 5479SOL    HW227900   3.319   3.072   9.258 -0.3461  0.2593 -0.0585
 5480SOL     OW27901   3.624   0.591   6.778 -0.3770  0.1907  0.0996
 5480SOL    HW127902   3.687   0.531   6.738 -0.5172 -1.4117  2.3143
 5480SOL    HW227903   3.601   0.647   6.703 -3.1565  2.2669  2.5159
 5481SOL     OW27904   2.121   1.108  15.840 -0.0408 -0.5175 -0.2236
 5481SOL    HW127905   2.091   1.190  15.802 -1.1359 -1.0045 -0.4328
 5481SOL    HW227906   2.044   1.089  15.894  0.4483 -0.7226  0.3983
 5482SOL     OW27907   1.318   3.419   0.723  0.0875  0.3133 -0.0435
 5482SOL    HW127908   1.362   3.350   0.673 -0.4053 -0.0521  0.0203
 5482SOL    HW227909   1.388   3.480   0.745  1.2967 -1.3522  0.7705
 5483SOL     OW27910   1.940   2.186   3.844  0.1127 -0.3371  0.6056
 5483SOL    HW127911   1.851   2.152   3.833  0.2646 -0.7360  0.6398
 5483SOL    HW227912   1.984   2.200   3.760  0.4522  0.8118  0.9846
 5484SOL     OW27913   1.429   3.293  10.544 -0.6124 -0.1884  0.8154
 5484SOL    HW127914   1.442   3.205  10.508 -1.7273 -0.9348  2.2404
 5484SOL    HW227915   1.343   3.288  10.586 -0.6671 -0.8916  0.6353
 5485SOL     OW27916   4.537   0.236   4.404  0.1580  0.1857  0.2116
 5485SOL    HW127917   4.520   0.144   4.382  0.2773 -0.2902  2.1352
 5485SOL    HW227918   4.631   0.233   4.423  0.4066  1.5964 -0.8087
 5486SOL     OW27919   4.355   2.233   7.278 -0.4238  0.0977 -0.1308
 5486SOL    HW127920   4.438   2.258   7.319 -0.6570 -0.2210  0.5412
 5486SOL    HW227921   4.290   2.236   7.348 -1.0363 -1.8938 -0.6121
 5487SOL     OW27922   3.910   0.027   8.218 -0.2372  0.0029  0.1175
 5487SOL    HW127923   3.970   0.016   8.291 -0.6710 -0.3155  0.4202
 5487SOL    HW227924   3.965   0.052   8.143 -1.2312 -0.4063 -0.7413
 5488SOL     OW27925   2.741   3.794   3.151  0.1950 -0.1614  0.1513
 5488SOL    HW127926   2.729   3.889   3.149  0.4588 -0.1416 -0.3571
 5488SOL    HW227927   2.778   3.772   3.066  1.3211 -0.2933  0.6737
 5489SOL     OW27928   0.744   3.388   6.524 -0.3889 -0.1290 -0.2415
 5489SOL    HW127929   0.827   3.366   6.567  0.5767 -0.6225 -2.3386
 5489SOL    HW227930   0.773   3.474   6.495 -0.4008 -0.4982 -1.3407
 5490SOL     OW27931   1.566   1.953   7.848 -0.1279 -0.0943 -0.4083
 5490SOL    HW127932   1.586   1.984   7.937 -0.1378  0.4128 -0.5842
 5490SOL    HW227933   1.496   1.890   7.863 -1.5864  1.5649 -0.1630
 5491SOL     OW27934   2.474   2.141   4.763  0.1253  0.0932 -0.3458
 5491SOL    HW127935   2.455   2.172   4.852 -0.0211 -1.1501  0.0562
 5491SOL    HW227936   2.415   2.198   4.714 -2.4268 -0.6140  1.8948
 5492SOL     OW27937   1.713   2.561   6.917  0.1710 -0.3273 -0.2670
 5492SOL    HW127938   1.732   2.529   7.005  1.7489 -1.2190 -0.9469
 5492SOL    HW227939   1.628   2.519   6.904 -0.3546 -0.0454  2.3385
 5493SOL     OW27940   2.429   1.390   4.656 -0.0796 -0.0469 -0.4025
 5493SOL    HW127941   2.412   1.462   4.595 -0.2981  0.7606  0.6015
 5493SOL    HW227942   2.515   1.416   4.689  0.2902 -0.0166 -1.4032
 5494SOL     OW27943   0.069   2.556   7.665  0.4399 -0.0238 -0.1735
 5494SOL    HW127944   0.041   2.647   7.666  2.4918  0.5619  1.7887
 5494SOL    HW227945   0.009   2.528   7.595  0.2633 -0.8459  0.2981
 5495SOL     OW27946   1.443   2.570   7.242 -0.2771  0.0885  0.3195
 5495SOL    HW127947   1.397   2.632   7.185 -0.0584  0.3810  0.4650
 5495SOL    HW227948   1.386   2.576   7.319  0.4576  2.7113  0.6664
 5496SOL     OW27949   0.182   3.534  16.934 -0.0799 -0.3075  0.0580
 5496SOL    HW127950   0.121   3.477  16.888 -1.5752 -1.4214  3.4619
 5496SOL    HW227951   0.126   3.608  16.955  0.9043 -0.0195  1.6507
 5497SOL     OW27952   0.921   4.220   5.923  0.0673  0.2048 -0.7312
 5497SOL    HW127953   0.968   4.139   5.944  0.8204  1.1555  1.3080
 5497SOL    HW227954   0.886   4.204   5.836 -1.4433 -0.0435 -0.0862
 5498SOL     OW27955   3.508   0.999   6.497 -0.1704 -0.4021 -0.5738
 5498SOL    HW127956   3.497   1.094   6.493 -0.3895 -0.3533  1.4560
 5498SOL    HW227957   3.475   0.971   6.411 -0.1689  0.8668 -0.9800
 5499SOL     OW27958   4.230   2.015   5.520  0.8032  0.0156  0.1735
 5499SOL    HW127959   4.251   2.065   5.441 -1.0706 -0.9846 -0.9476
 5499SOL    HW227960   4.267   1.933   5.487  0.2379 -0.0444 -0.3112
 5500SOL     OW27961   0.763   1.395   8.267 -0.0944 -0.0075  0.2211
 5500SOL    HW127962   0.748   1.456   8.339  2.5114  0.2014  0.5991
 5500SOL    HW227963   0.713   1.431   8.194  0.6163 -0.8757 -0.6976
 5501SOL     OW27964   0.224   3.759   2.691  0.3903 -0.6125 -0.4186
 5501SOL    HW127965   0.237   3.680   2.744 -2.3992 -0.2347  0.8341
 5501SOL    HW227966   0.281   3.737   2.618  1.6709  1.0061  0.1033
 5502SOL     OW27967   4.500   1.869   5.641 -0.2776  0.4638 -0.0452
 5502SOL    HW127968   4.511   1.801   5.708  0.2591 -0.0354 -0.6453
 5502SOL    HW227969   4.443   1.924   5.695  0.7183  0.7252  0.7364
 5503SOL     OW27970   3.488   0.816   0.240  0.1287 -0.5074  0.0564
 5503SOL    HW127971   3.486   0.824   0.335 -2.7845 -0.1958 -0.0358
 5503SOL    HW227972   3.456   0.725   0.235 -2.0587  0.2325  0.4621
 5504SOL     OW27973   1.342   2.662  12.030 -0.5910  0.3652 -0.1138
 5504SOL    HW127974   1.289   2.586  12.054  1.1815 -1.1042 -0.8243
 5504SOL    HW227975   1.412   2.657  12.095 -0.4274  0.4011 -0.2859
 5505SOL     OW27976   2.404   4.629   4.257  0.4291 -0.5938 -0.0880
 5505SOL    HW127977   2.470   4.614   4.189 -0.7170  1.4132 -1.6592
 5505SOL    HW227978   2.377   4.718   4.232 -1.0665 -0.5947  1.5304
 5506SOL     OW27979   0.105   0.391  11.938  0.4738 -0.0718  0.2903
 5506SOL    HW127980   0.124   0.471  11.888  0.7032  0.5175  1.3354
 5506SOL    HW227981   0.030   0.362  11.886 -0.2764  0.4411  1.1041
 5507SOL     OW27982   2.089   1.498   4.024  0.6672  0.2372  0.2693
 5507SOL    HW127983   2.110   1.591   4.033 -0.2637  0.4257  0.5061
 5507SOL    HW227984   2.109   1.459   4.109  1.4613 -2.0356 -0.9485
 5508SOL     OW27985   3.710   3.335   6.398  0.2172 -0.3002 -0.2715
 5508SOL    HW127986   3.616   3.324   6.382 -0.1019  0.0547  1.3782
 5508SOL    HW227987   3.733   3.247   6.426 -1.0776  0.4572  3.1092
 5509SOL     OW27988   0.310   2.306   2.838  0.0897  0.0617  0.7953
 5509SOL    HW127989   0.389   2.294   2.785 -0.6605 -0.9133 -0.0829
 5509SOL    HW227990   0.293   2.215   2.862 -0.8171 -0.5231 -2.1119
 5510SOL     OW27991   0.857   3.088  10.245 -0.4518  0.3340  0.2755
 5510SOL    HW127992   0.950   3.091  10.267 -0.6141  2.5830  0.6448
 5510SOL    HW227993   0.815   3.134  10.318  0.5567  0.9289  0.4799
 5511SOL     OW27994   1.456   3.996   3.430 -0.3297 -0.0703  0.5421
 5511SOL    HW127995   1.426   3.991   3.521  0.5685  1.1103  0.8968
 5511SOL    HW227996   1.551   3.986   3.437 -0.0763  0.8516 -1.4756
 5512SOL     OW27997   0.714   1.651   3.674 -0.4953  0.0823 -0.0655
 5512SOL    HW127998   0.646   1.587   3.693 -0.6016  0.5606  1.1339
 5512SOL    HW227999   0.663   1.732   3.673 -0.0508  0.3654  0.4925
 5513SOL     OW28000   1.976   4.250  15.527  0.0788 -0.3135 -0.4532
 5513SOL    HW128001   1.987   4.297  15.444  1.2957  1.0777  0.5022
 5513SOL    HW228002   1.908   4.189  15.498 -2.1597  1.7569  0.4424
 5514SOL     OW28003   3.460   4.126   5.073 -0.7573 -1.0613  0.0472
 5514SOL    HW128004   3.463   4.217   5.105 -2.3763 -1.0936  0.3152
 5514SOL    HW228005   3.373   4.111   5.037 -1.7827  1.3122  1.4960
 5515SOL     OW28006   3.394   3.029   4.093 -0.3608 -0.5153 -0.0275
 5515SOL    HW128007   3.315   3.081   4.108 -1.1507 -1.4621 -1.0024
 5515SOL    HW228008   3.390   2.957   4.155  1.5360  0.5294  1.3405
 5516SOL     OW28009   1.213   1.400   4.622  0.1824 -0.3415  0.6902
 5516SOL    HW128010   1.217   1.306   4.603 -1.2835  0.0973 -1.8207
 5516SOL    HW228011   1.126   1.419   4.586  1.6625  2.3795 -1.4126
 5517SOL     OW28012   1.398   1.865   8.572 -0.3008  0.7016  0.0709
 5517SOL    HW128013   1.343   1.830   8.643 -0.9788 -0.9569 -1.2833
 5517SOL    HW228014   1.456   1.792   8.552 -0.9847 -0.0600  0.8693
 5518SOL     OW28015   0.329   0.393   7.182 -0.3460 -0.1502  0.0013
 5518SOL    HW128016   0.271   0.360   7.251 -2.5561  1.9349 -0.8412
 5518SOL    HW228017   0.357   0.476   7.221 -3.6339  1.4071 -0.9108
 5519SOL     OW28018   4.649   3.643   1.537  0.6641 -0.2091  0.2680
 5519SOL    HW128019   4.699   3.723   1.551  0.3762 -0.0809  0.5802
 5519SOL    HW228020   4.631   3.623   1.629  0.0842 -0.5547  0.0820
 5520SOL     OW28021   0.266   4.248   3.501 -0.1612  0.8171  0.4734
 5520SOL    HW128022   0.211   4.176   3.468  1.1174 -0.0690  0.2682
 5520SOL    HW228023   0.199   4.313   3.518  1.2525  2.2083  0.6883
 5521SOL     OW28024   2.596   3.224  13.946 -0.5529  0.0339  0.1412
 5521SOL    HW128025   2.605   3.143  13.996 -0.4786 -0.4589 -0.6756
 5521SOL    HW228026   2.539   3.271  14.007 -0.4989 -1.3121  1.2265
 5522SOL     OW28027   0.246   3.119  14.858  0.4969 -0.2670  0.1737
 5522SOL    HW128028   0.235   3.212  14.841  0.5550 -0.3727 -0.4319
 5522SOL    HW228029   0.188   3.080  14.792  0.9164 -0.1118 -0.2857
 5523SOL     OW28030   3.242   2.636   9.422  0.4289 -0.5933 -0.1048
 5523SOL    HW128031   3.285   2.607   9.503 -0.3226  0.2585  0.6044
 5523SOL    HW228032   3.297   2.600   9.352  1.3448 -1.7976  1.2297
 5524SOL     OW28033   4.250   4.259   8.673 -0.1101 -0.1417 -0.1739
 5524SOL    HW128034   4.319   4.271   8.737 -0.3805  0.9437 -0.0882
 5524SOL    HW228035   4.190   4.203   8.724  0.2764 -0.5481 -0.1627
 5525SOL     OW28036   1.414   3.034   4.173  0.2037  0.2147  0.5401
 5525SOL    HW128037   1.320   3.043   4.154  0.5137 -1.4226 -1.8124
 5525SOL    HW228038   1.443   3.114   4.128  1.0891 -0.9143 -0.9162
 5526SOL     OW28039   0.335   3.375  16.366  0.0272  0.2405  0.5228
 5526SOL    HW128040   0.261   3.332  16.409 -0.0017 -0.3956 -0.1628
 5526SOL    HW228041   0.368   3.432  16.435  0.9977  1.5630 -1.0251
 5527SOL     OW28042   0.980   1.898   7.300 -0.2863 -0.3013 -0.4838
 5527SOL    HW128043   0.976   1.980   7.250 -1.3530 -1.1960 -1.8576
 5527SOL    HW228044   0.994   1.831   7.232  3.9754 -0.5338  0.6079
 5528SOL     OW28045   4.022   0.751  17.538  0.0897  0.8461 -0.2380
 5528SOL    HW128046   3.930   0.767  17.518 -0.3571  1.7076  2.5333
 5528SOL    HW228047   4.027   0.659  17.563 -1.6645  0.9456  0.4670
 5529SOL     OW28048   1.252   3.814   7.113  0.1682  0.1253  0.1585
 5529SOL    HW128049   1.272   3.845   7.024  0.3175  0.0156  0.1543
 5529SOL    HW228050   1.342   3.805   7.145  0.4240 -0.4527 -0.7344
 5530SOL     OW28051   0.646   3.894   5.738  0.1282  0.0584  0.1507
 5530SOL    HW128052   0.738   3.870   5.727  0.2286  1.2431 -1.5228
 5530SOL    HW228053   0.646   3.937   5.824 -1.1083  0.4018 -0.0194
 5531SOL     OW28054   1.552   2.287   7.815  0.1109 -0.2722 -0.7486
 5531SOL    HW128055   1.630   2.232   7.805 -0.6423 -1.7839  1.6320
 5531SOL    HW228056   1.598   2.365   7.846 -0.9091 -0.5004  1.3461
 5532SOL     OW28057   2.636   0.306   7.940  0.1386  0.1750 -0.3450
 5532SOL    HW128058   2.541   0.308   7.928  0.0701  1.0575  0.2954
 5532SOL    HW228059   2.658   0.286   7.850 -1.3502  0.7604 -0.8501
 5533SOL     OW28060   0.630   4.224   1.907  0.8993  0.0759  0.1460
 5533SOL    HW128061   0.578   4.232   1.827  2.7620 -1.0744 -1.1549
 5533SOL    HW228062   0.603   4.138   1.940  2.6687 -0.0156  1.3697
 5534SOL     OW28063   0.584   3.238   9.417  0.1979 -0.2303  0.0238
 5534SOL    HW128064   0.613   3.236   9.508 -2.6124  0.6062  0.9464
 5534SOL    HW228065   0.607   3.326   9.388  0.4020  0.1174  1.2362
 5535SOL     OW28066   3.901   1.827   6.388  0.3367  0.4264 -0.4698
 5535SOL    HW128067   3.970   1.877   6.344  0.2532 -0.4870 -1.6385
 5535SOL    HW228068   3.919   1.831   6.482  0.2186  3.5323 -0.5806
 5536SOL     OW28069   4.559   0.402   9.267 -0.0570  0.3811 -0.2162
 5536SOL    HW128070   4.530   0.419   9.357 -0.6901  1.2398 -0.5886
 5536SOL    HW228071   4.544   0.488   9.228  1.8115  0.5613 -0.5534
 5537SOL     OW28072   3.826   3.962   8.282  0.3101 -0.0981 -0.4192
 5537SOL    HW128073   3.871   3.966   8.366  0.2985 -0.3160 -0.4026
 5537SOL    HW228074   3.876   4.029   8.235  0.1692 -0.7453 -1.4747
 5538SOL     OW28075   3.459   0.608  15.048  0.1037  0.5402 -0.1361
 5538SOL    HW128076   3.447   0.584  14.956  2.2030  0.5126 -0.4074
 5538SOL    HW228077   3.543   0.654  15.048  0.1478  0.4666  2.6338
 5539SOL     OW28078   1.277   0.260  12.621 -0.4644 -0.2833 -0.6550
 5539SOL    HW128079   1.286   0.224  12.533 -1.4622  1.5061 -1.4826
 5539SOL    HW228080   1.370   0.278  12.635 -0.6677 -0.5597  1.0843
 5540SOL     OW28081   1.028   2.586   3.932 -0.6137 -0.3187  0.1308
 5540SOL    HW128082   1.060   2.497   3.917  1.1593 -0.2206  3.3768
 5540SOL    HW228083   0.979   2.602   3.852  0.4966  1.0420 -0.2709
 5541SOL     OW28084   3.285   1.935   5.213  0.6185  0.4109 -0.4404
 5541SOL    HW128085   3.296   1.913   5.306  2.8080 -1.3838 -1.1158
 5541SOL    HW228086   3.334   1.873   5.159 -0.1024  0.2095 -0.8553
 5542SOL     OW28087   1.336   0.011   7.227  0.1987  0.1160  0.6123
 5542SOL    HW128088   1.324   4.652   7.181  0.9742 -0.0541  0.7174
 5542SOL    HW228089   1.338   0.077   7.157 -2.2002 -1.1480 -0.6403
 5543SOL     OW28090   4.435   0.409   4.611  0.4331 -0.1189  0.3414
 5543SOL    HW128091   4.484   0.348   4.556 -0.6727 -1.8818  1.3476
 5543SOL    HW228092   4.348   0.398   4.572  0.5971  1.1327 -0.3876
 5544SOL     OW28093   0.079   4.452   3.581 -0.0410 -0.4100  0.2781
 5544SOL    HW128094   0.037   4.486   3.502 -0.9703 -3.4230 -0.5164
 5544SOL    HW228095   0.119   4.530   3.618  2.7953 -1.6026 -0.3038
 5545SOL     OW28096   2.777   4.477  14.087 -0.0548 -0.3985 -0.6925
 5545SOL    HW128097   2.726   4.397  14.092 -1.8006  0.9009  1.8012
 5545SOL    HW228098   2.713   4.539  14.122  0.5421 -0.8493  1.1816
 5546SOL     OW28099   3.867   2.598   4.469 -0.0738  0.2932 -0.6057
 5546SOL    HW128100   3.886   2.691   4.456  2.2099 -0.2273 -0.9319
 5546SOL    HW228101   3.792   2.582   4.413  0.3853  0.0584 -1.1469
 5547SOL     OW28102   4.412   2.390   2.947 -0.8899 -0.2684  0.3268
 5547SOL    HW128103   4.379   2.409   2.860 -0.3416 -0.1068  0.1546
 5547SOL    HW228104   4.462   2.309   2.935  1.2240  1.2409 -1.0897
 5548SOL     OW28105   2.854   0.744   3.401 -0.2138  0.6405 -0.4171
 5548SOL    HW128106   2.924   0.727   3.338 -1.5299 -4.9669 -0.3886
 5548SOL    HW228107   2.777   0.747   3.345 -0.3615  0.5468 -0.2187
 5549SOL     OW28108   4.122   2.901   5.115 -0.3257 -0.1464 -0.1945
 5549SOL    HW128109   4.048   2.935   5.166  1.0258  0.0673  1.6100
 5549SOL    HW228110   4.148   2.826   5.168 -0.5990 -1.1362 -1.4722
 5550SOL     OW28111   1.973   3.791  12.680 -0.0336 -0.3601 -0.2506
 5550SOL    HW128112   1.892   3.820  12.638 -0.0836 -0.9576 -0.5663
 5550SOL    HW228113   1.943   3.774  12.769 -2.2574  0.8576 -0.7782
 5551SOL     OW28114   3.011   2.521   9.375 -0.0537  0.1086 -0.9396
 5551SOL    HW128115   3.082   2.566   9.420  0.8131  0.1611 -2.3642
 5551SOL    HW228116   2.934   2.575   9.391  1.1169  1.5705 -0.2671
 5552SOL     OW28117   4.163   4.454  11.046 -0.0187 -0.0930 -0.0508
 5552SOL    HW128118   4.172   4.541  11.083  0.2050 -0.8926  1.7562
 5552SOL    HW228119   4.255   4.435  11.028 -0.3238 -0.2162 -1.5032
 5553SOL     OW28120   1.907   4.622   3.502 -0.5502  0.1400 -0.2000
 5553SOL    HW128121   1.951   4.706   3.511  1.3689 -0.4813 -3.8683
 5553SOL    HW228122   1.918   4.579   3.586  1.7236 -0.2889 -0.7310
 5554SOL     OW28123   4.111   0.479  16.760 -0.2622 -0.7271 -0.5776
 5554SOL    HW128124   4.077   0.396  16.794  0.6732  0.8970  4.3738
 5554SOL    HW228125   4.041   0.518  16.708 -0.3631  0.5493  0.4995
 5555SOL     OW28126   1.984   4.438   5.779  0.1757  0.2696  0.2935
 5555SOL    HW128127   1.910   4.447   5.719  0.8039 -0.4785 -0.6060
 5555SOL    HW228128   2.066   4.450   5.730 -1.8928  0.4586 -3.1096
 5556SOL     OW28129   2.273   2.346   7.804  0.1182 -0.0779 -0.1610
 5556SOL    HW128130   2.356   2.317   7.843  0.5337  0.2150 -0.8443
 5556SOL    HW228131   2.212   2.328   7.876 -1.4032  2.1050 -0.9204
 5557SOL     OW28132   4.699   1.857   6.083  0.1108 -0.9834 -0.0229
 5557SOL    HW128133   0.019   1.781   6.120 -0.2650 -0.6967  1.0081
 5557SOL    HW228134   4.691   1.908   6.164 -0.2960  0.5536 -1.0313
 5558SOL     OW28135   2.445   1.412   8.111 -0.5613  0.3128 -0.2504
 5558SOL    HW128136   2.477   1.502   8.109  1.1057 -0.3056 -1.2090
 5558SOL    HW228137   2.371   1.400   8.051 -0.9988 -0.9876  0.5678
 5559SOL     OW28138   1.036   0.191   5.613  0.5833 -0.0736 -0.2620
 5559SOL    HW128139   1.007   0.269   5.565  3.0200  0.2973 -1.1344
 5559SOL    HW228140   1.040   0.238   5.697 -1.0033  0.3843 -0.4362
 5560SOL     OW28141   1.844   2.125  16.184  0.0539  0.1578 -0.0025
 5560SOL    HW128142   1.883   2.073  16.114  1.0769 -0.1789  0.8336
 5560SOL    HW228143   1.865   2.079  16.265 -1.5319 -0.8000 -0.1306
 5561SOL     OW28144   3.247   1.884   3.009  0.2454  0.1708  0.3922
 5561SOL    HW128145   3.260   1.839   2.925  1.8270 -0.3702  0.9301
 5561SOL    HW228146   3.265   1.973   2.979  0.0353  0.1408  0.1803
 5562SOL     OW28147   2.540   2.750   2.922  0.6787 -0.1428  0.4036
 5562SOL    HW128148   2.580   2.669   2.888 -0.0963 -0.0999 -0.6033
 5562SOL    HW228149   2.566   2.813   2.855  0.5811  2.1764  2.5655
 5563SOL     OW28150   4.255   0.441   5.766  0.1457  0.1324 -0.2497
 5563SOL    HW128151   4.327   0.490   5.726 -0.5090  1.6862  0.4946
 5563SOL    HW228152   4.195   0.514   5.780  0.4570  0.1856  0.8167
 5564SOL     OW28153   3.395   3.731   6.739 -0.2775 -0.2442  0.0684
 5564SOL    HW128154   3.394   3.640   6.771 -0.8098  0.3404  1.7044
 5564SOL    HW228155   3.405   3.708   6.646  0.0775 -2.8583  0.7472
 5565SOL     OW28156   3.458   1.606  13.618 -0.1962  0.2765  0.8903
 5565SOL    HW128157   3.497   1.559  13.691  0.4551  2.2882  1.8230
 5565SOL    HW228158   3.394   1.544  13.583  2.1067  0.0267 -2.9959
 5566SOL     OW28159   1.686   4.018   3.657 -0.1085  0.4550  0.1760
 5566SOL    HW128160   1.693   4.113   3.660  1.6193  0.4375 -3.1386
 5566SOL    HW228161   1.700   4.013   3.562 -0.4816  1.1835  0.0848
 5567SOL     OW28162   1.216   2.616   0.533 -0.1371 -0.3792 -0.3742
 5567SOL    HW128163   1.186   2.534   0.495  0.2510 -1.2571  1.2270
 5567SOL    HW228164   1.189   2.690   0.478 -0.7958 -0.6167 -0.3727
 5568SOL     OW28165   2.139   2.876   7.751  0.4990 -0.1527  0.3648
 5568SOL    HW128166   2.145   2.971   7.747  0.8010 -0.1787  0.1504
 5568SOL    HW228167   2.231   2.855   7.733 -0.4266 -5.1557  1.4090
 5569SOL     OW28168   1.666   0.020  10.206 -0.4118  0.0426 -0.0303
 5569SOL    HW128169   1.694   4.701  10.287 -1.6482  2.0739  1.4555
 5569SOL    HW228170   1.750   0.060  10.184 -0.6368 -0.4027 -1.7436
 5570SOL     OW28171   0.623   4.434   7.979  0.1425 -0.6848 -0.3094
 5570SOL    HW128172   0.641   4.528   7.965  1.0335 -0.8703 -0.4174
 5570SOL    HW228173   0.553   4.417   7.916 -1.6803 -0.3480  1.6393
 5571SOL     OW28174   1.584   4.592  13.985 -0.1689  0.2635 -0.0375
 5571SOL    HW128175   1.511   4.619  14.041 -1.7373 -3.0252 -0.4928
 5571SOL    HW228176   1.544   4.535  13.920 -0.0304  0.9868 -0.7533
 5572SOL     OW28177   4.445   2.613  11.042 -0.2487  0.3451  0.3293
 5572SOL    HW128178   4.485   2.614  10.955  0.8841  1.1078  0.8486
 5572SOL    HW228179   4.502   2.671  11.094  0.7045  0.6279 -1.0284
 5573SOL     OW28180   0.464   0.270   9.034 -0.3384 -0.3185  0.0670
 5573SOL    HW128181   0.373   0.243   9.042 -0.1880 -0.7099  0.4324
 5573SOL    HW228182   0.498   0.211   9.101 -0.6223 -0.7718 -0.1840
 5574SOL     OW28183   3.406   3.785   3.849  0.4123 -0.3977 -0.2667
 5574SOL    HW128184   3.313   3.795   3.829  0.7661 -0.0715 -1.7405
 5574SOL    HW228185   3.451   3.772   3.766 -0.7069  1.0585 -1.1072
 5575SOL     OW28186   4.457   1.566  13.667 -0.0508 -0.4045 -0.9002
 5575SOL    HW128187   4.447   1.577  13.572 -1.2364 -0.3333 -0.7638
 5575SOL    HW228188   4.370   1.536  13.692 -1.0957  1.9659 -1.7212
 5576SOL     OW28189   2.427   1.012  13.411  0.7265  0.6994  0.5570
 5576SOL    HW128190   2.347   1.050  13.447 -0.3734 -1.0260 -0.0836
 5576SOL    HW228191   2.416   1.030  13.318 -1.2939 -2.0678  0.2808
 5577SOL     OW28192   2.203   4.464   5.614  0.3599  0.4948 -0.1755
 5577SOL    HW128193   2.298   4.460   5.604  0.1844 -1.4812 -1.0396
 5577SOL    HW228194   2.177   4.542   5.565 -0.0956  0.1833 -0.4318
 5578SOL     OW28195   3.500   1.458   5.082 -0.8946 -0.4733 -0.4291
 5578SOL    HW128196   3.527   1.416   5.164  2.0809 -2.4083 -2.3791
 5578SOL    HW228197   3.484   1.381   5.027 -1.3082 -1.2852  0.8170
 5579SOL     OW28198   3.718   1.937   8.628 -0.3679 -0.2336  0.7004
 5579SOL    HW128199   3.626   1.933   8.600  0.6468  1.2657 -2.8643
 5579SOL    HW228200   3.724   2.029   8.655  1.2754 -0.3991  0.8707
 5580SOL     OW28201   1.819   1.209  16.189  0.0272  0.0842 -0.8735
 5580SOL    HW128202   1.789   1.239  16.104 -0.8539  1.7997  0.0294
 5580SOL    HW228203   1.791   1.281  16.246 -2.3314  0.1993 -2.2065
 5581SOL     OW28204   1.543   2.261   6.083 -0.0382  0.2727  0.2490
 5581SOL    HW128205   1.621   2.312   6.103 -0.5330  0.8567  0.6645
 5581SOL    HW228206   1.493   2.302   6.153 -1.2929 -0.7570 -0.0285
 5582SOL     OW28207   2.076   4.002   8.137  0.5195 -0.3832 -0.0698
 5582SOL    HW128208   2.042   4.011   8.226  3.8374 -0.7746  1.2728
 5582SOL    HW228209   1.994   3.986   8.092  0.5290 -0.8971  0.0936
 5583SOL     OW28210   0.739   0.285   8.899  0.3372  0.3470 -0.2439
 5583SOL    HW128211   0.749   0.350   8.969 -0.2613 -0.9353  1.0427
 5583SOL    HW228212   0.657   0.240   8.924  1.0194 -1.1504 -0.6977
 5584SOL     OW28213   2.627   1.289   3.736 -0.4686  0.4789 -0.0556
 5584SOL    HW128214   2.651   1.204   3.772 -0.9044  1.3143  2.2126
 5584SOL    HW228215   2.575   1.270   3.658 -0.3703 -2.3014  0.5572
 5585SOL     OW28216   2.319   4.433   7.913  0.1098  0.4380 -0.0785
 5585SOL    HW128217   2.338   4.526   7.927  0.3027  0.4958 -0.7440
 5585SOL    HW228218   2.320   4.402   8.004 -1.7942  1.8260  0.4141
 5586SOL     OW28219   0.905   0.655   6.460 -0.4262 -0.4224 -0.1898
 5586SOL    HW128220   0.896   0.570   6.502 -0.8167 -1.2326 -1.9239
 5586SOL    HW228221   0.872   0.718   6.524 -1.7345 -0.7409 -0.5602
 5587SOL     OW28222   0.578   4.532   1.293  0.2801  0.4723 -0.0913
 5587SOL    HW128223   0.662   4.559   1.329 -0.1331  2.6005 -0.6983
 5587SOL    HW228224   0.581   4.574   1.207  1.2026 -0.2879 -0.4231
 5588SOL     OW28225   4.477   0.655  10.911  0.2191  0.3219  0.3552
 5588SOL    HW128226   4.426   0.646  10.831  1.4339  0.6943 -0.4594
 5588SOL    HW228227   4.564   0.683  10.880 -0.0451 -1.5515 -2.1019
 5589SOL     OW28228   1.661   1.731  17.275 -0.3642 -0.1728  0.3436
 5589SOL    HW128229   1.700   1.662  17.329 -1.4039 -1.1484 -0.1443
 5589SOL    HW228230   1.629   1.665  17.214 -2.5345  0.6823  0.5469
 5590SOL     OW28231   4.548   2.349   9.405 -0.1397  0.1040 -0.2898
 5590SOL    HW128232   4.479   2.307   9.455  0.3333 -1.0128 -0.5840
 5590SOL    HW228233   4.556   2.306   9.320  2.0817 -1.0564  0.4849
 5591SOL     OW28234   0.877   1.135   5.727 -0.3853  0.0049 -0.0072
 5591SOL    HW128235   0.913   1.056   5.767  0.2684 -0.4621 -1.5287
 5591SOL    HW228236   0.799   1.091   5.694 -1.1151  0.9480  0.4528
 5592SOL     OW28237   1.326   2.350   7.976  0.1226 -0.0639 -0.2955
 5592SOL    HW128238   1.371   2.390   8.050  1.3513  0.5766 -1.3898
 5592SOL    HW228239   1.406   2.309   7.944  0.0788 -0.1496 -0.2944
 5593SOL     OW28240   0.832   0.558   3.678  0.0451 -0.1811 -0.1270
 5593SOL    HW128241   0.855   0.650   3.690  1.3417 -0.6899  1.3498
 5593SOL    HW228242   0.913   0.513   3.701 -0.6462 -0.8562  1.0368
 5594SOL     OW28243   0.543   0.830   4.849  0.9648  0.4546 -0.1986
 5594SOL    HW128244   0.499   0.775   4.785 -1.3815  0.7483  1.1813
 5594SOL    HW228245   0.544   0.770   4.923 -0.2601  1.4688  0.6466
 5595SOL     OW28246   2.020   1.456   6.742 -0.7036  0.2225  0.4387
 5595SOL    HW128247   2.094   1.475   6.685 -0.5864  0.1395  0.5621
 5595SOL    HW228248   2.055   1.375   6.780 -0.8243 -0.1793 -0.3156
 5596SOL     OW28249   4.085   3.179   7.373  0.0094 -0.3019 -0.2228
 5596SOL    HW128250   4.113   3.176   7.464 -0.7262  0.5372  0.0249
 5596SOL    HW228251   4.113   3.267   7.347 -0.0925 -0.2822 -0.2688
 5597SOL     OW28252   2.121   4.650  11.953  0.1780 -0.0838 -0.0515
 5597SOL    HW128253   2.098   4.591  11.881  0.4941  0.8612 -0.9257
 5597SOL    HW228254   2.037   4.697  11.950 -0.0850 -0.4895  1.0558
 5598SOL     OW28255   4.448   4.137   0.552  0.2491 -0.5973 -0.3033
 5598SOL    HW128256   4.399   4.113   0.631  0.8619  1.7067  0.7591
 5598SOL    HW228257   4.489   4.221   0.571  0.6984 -0.6485 -1.0099
 5599SOL     OW28258   3.751   4.359   6.216 -0.2696 -0.2310 -0.2144
 5599SOL    HW128259   3.672   4.315   6.184 -0.6384  1.8153 -2.0690
 5599SOL    HW228260   3.727   4.413   6.291  0.1746  1.6670 -1.4626
 5600SOL     OW28261   0.722   0.431   8.542  0.1391 -0.1931  0.4185
 5600SOL    HW128262   0.638   0.462   8.509  0.3159  1.0457  1.1186
 5600SOL    HW228263   0.717   0.489   8.618 -0.7263  1.1744 -0.6957
 5601SOL     OW28264   2.479   1.720   0.228 -0.3863  0.4511  0.0219
 5601SOL    HW128265   2.417   1.676   0.287  0.6357  0.1224  0.8457
 5601SOL    HW228266   2.427   1.798   0.207  1.3393  1.9266  1.2102
 5602SOL     OW28267   3.442   2.273   2.730 -0.1962  0.8471  0.0679
 5602SOL    HW128268   3.397   2.357   2.735 -1.9224 -0.1735  1.7644
 5602SOL    HW228269   3.379   2.235   2.669 -0.7962  1.8751  0.0592
 5603SOL     OW28270   3.434   0.609   3.280  0.0274  0.6013  0.7404
 5603SOL    HW128271   3.399   0.614   3.191 -0.3349  0.4595  0.8762
 5603SOL    HW228272   3.439   0.699   3.313 -1.4587 -0.1009  2.8797
 5604SOL     OW28273   2.023   1.490   2.953 -0.4066 -0.4377  0.3005
 5604SOL    HW128274   2.032   1.419   2.889 -0.4368  0.4549 -0.7049
 5604SOL    HW228275   2.101   1.476   3.006 -1.9186 -0.7057  2.4236
 5605SOL     OW28276   4.626   1.592  14.054  0.3475  0.1982  0.5349
 5605SOL    HW128277   4.554   1.536  14.028  0.4678 -0.5489  1.8385
 5605SOL    HW228278   4.690   1.528  14.087 -0.9131 -2.0059 -1.3337
 5606SOL     OW28279   0.357   0.823   2.018  0.3476 -0.1686  0.1233
 5606SOL    HW128280   0.314   0.857   2.097 -0.1376 -1.0296  0.2328
 5606SOL    HW228281   0.303   0.753   1.983  0.2386  0.2978 -0.6396
 5607SOL     OW28282   3.902   2.793   7.318  0.1942 -0.3033 -0.1742
 5607SOL    HW128283   3.975   2.837   7.275 -0.9106 -0.0934 -1.8233
 5607SOL    HW228284   3.935   2.705   7.336  0.2825 -0.2159  0.0977
 5608SOL     OW28285   2.090   0.582   8.754 -0.1014  0.3826 -1.0541
 5608SOL    HW128286   2.105   0.488   8.759  0.3942  0.4535 -1.2225
 5608SOL    HW228287   2.152   0.611   8.820 -0.3302 -1.3809 -0.0627
 5609SOL     OW28288   4.180   1.650  11.544 -0.1079  0.0988  0.3175
 5609SOL    HW128289   4.275   1.657  11.543 -0.2017  1.2600 -0.1156
 5609SOL    HW228290   4.152   1.721  11.602  0.8601  2.0890 -1.6386
 5610SOL     OW28291   0.584   2.328   9.115 -0.1555 -0.2526  0.7779
 5610SOL    HW128292   0.588   2.423   9.101  1.5473 -0.9585 -3.2754
 5610SOL    HW228293   0.559   2.294   9.029  0.5719  1.2338 -0.0163
 5611SOL     OW28294   0.517   3.893  15.928  0.1813 -1.0271 -0.0020
 5611SOL    HW128295   0.433   3.935  15.948 -0.4629 -1.7755 -1.1086
 5611SOL    HW228296   0.587   3.959  15.934 -1.8883  1.3452 -1.8661
 5612SOL     OW28297   2.252   2.516   3.917  0.2928  0.3555  0.2119
 5612SOL    HW128298   2.163   2.494   3.946 -0.0484  1.3429 -0.0900
 5612SOL    HW228299   2.238   2.488   3.826  0.8129 -0.2960  0.3299
 5613SOL     OW28300   3.337   2.777  14.993  0.1338  0.6776  0.1394
 5613SOL    HW128301   3.428   2.793  15.020  1.1628 -2.4044 -1.4791
 5613SOL    HW228302   3.335   2.682  14.995  0.1105  0.6695 -0.4105
 5614SOL     OW28303   0.688   2.945  17.314 -0.7024  0.5880  0.1722
 5614SOL    HW128304   0.624   2.912  17.377 -0.4096 -2.5679 -1.2057
 5614SOL    HW228305   0.654   2.913  17.231  2.4627 -1.5150 -0.2840
 5615SOL     OW28306   1.240   0.700   8.254  0.8020 -0.3571 -1.1352
 5615SOL    HW128307   1.211   0.791   8.247  1.0661 -0.2763 -1.1949
 5615SOL    HW228308   1.251   0.686   8.348  1.0262 -1.3453 -1.3148
 5616SOL     OW28309   4.259   0.083  16.214  0.2834  0.4857  0.4144
 5616SOL    HW128310   4.269   0.169  16.174  2.2654 -0.7165 -1.6738
 5616SOL    HW228311   4.261   0.024  16.138  1.2845  0.0609  0.7657
 5617SOL     OW28312   1.196   1.706   2.796 -0.3947  0.1974  0.2338
 5617SOL    HW128313   1.211   1.720   2.703 -0.2216  1.0782  0.3941
 5617SOL    HW228314   1.276   1.747   2.830  0.2749 -1.1524  0.2734
 5618SOL     OW28315   0.394   2.256   9.475 -0.4186 -0.1697 -0.4593
 5618SOL    HW128316   0.477   2.215   9.499 -1.8252 -1.3227  2.4353
 5618SOL    HW228317   0.436   2.319   9.417  0.6623 -0.4325  0.0447
 5619SOL     OW28318   3.550   3.070  13.936  0.4738 -0.2024 -0.4357
 5619SOL    HW128319   3.485   3.002  13.921  0.9377 -0.7411 -0.0037
 5619SOL    HW228320   3.531   3.090  14.028  2.0680  0.6561 -0.2865
 5620SOL     OW28321   3.605   1.887  14.108 -0.6687 -0.2608 -0.3502
 5620SOL    HW128322   3.560   1.916  14.187  1.8691  1.2379  0.5264
 5620SOL    HW228323   3.555   1.938  14.044  1.0970  2.3651  0.3462
 5621SOL     OW28324   1.334   3.041   4.439  0.1289 -0.1551  0.1399
 5621SOL    HW128325   1.366   3.072   4.354 -2.8913 -1.9432 -1.6618
 5621SOL    HW228326   1.259   2.996   4.400  1.1861 -2.3267  0.6498
 5622SOL     OW28327   2.882   2.238  10.564  0.1454 -0.0796  0.9600
 5622SOL    HW128328   2.895   2.146  10.589  0.4271  0.1896  1.8041
 5622SOL    HW228329   2.961   2.250  10.511 -0.3485  0.4984  0.3577
 5623SOL     OW28330   0.806   0.017   4.193  0.2270  0.4158  0.4634
 5623SOL    HW128331   0.792   0.107   4.164  1.1212 -0.3520 -2.3484
 5623SOL    HW228332   0.835   0.037   4.282  0.4321 -0.9415  0.7025
 5624SOL     OW28333   2.218   2.558   2.015 -0.6841 -0.3467  1.1682
 5624SOL    HW128334   2.169   2.485   2.053 -2.3272  1.6723  2.9264
 5624SOL    HW228335   2.157   2.596   1.952  1.6633 -2.4649 -2.3789
 5625SOL     OW28336   4.140   4.419  10.051 -0.2616  0.1807  0.8814
 5625SOL    HW128337   4.218   4.410  10.105  0.6992  1.0433 -0.3770
 5625SOL    HW228338   4.188   4.420   9.969 -0.4711 -0.2227  0.7571
 5626SOL     OW28339   0.114   4.454   6.039  0.4208  0.4082  0.3228
 5626SOL    HW128340   0.195   4.473   5.992 -0.9643  1.0352 -1.8358
 5626SOL    HW228341   0.141   4.427   6.126 -0.0200  0.0560  0.3495
 5627SOL     OW28342   1.396   1.984   2.735  0.0557  0.2824  0.0246
 5627SOL    HW128343   1.355   1.974   2.649  4.0438  1.6472 -2.0024
 5627SOL    HW228344   1.385   2.078   2.743  1.5109  0.5300 -0.8725
 5628SOL     OW28345   2.555   4.200  16.780  0.5927 -0.0698 -0.5552
 5628SOL    HW128346   2.576   4.276  16.726  0.9933  1.7400  2.1387
 5628SOL    HW228347   2.640   4.183  16.821  1.6433  1.8758 -1.8992
 5629SOL     OW28348   3.705   1.031   9.153 -0.0123 -0.0548 -0.1347
 5629SOL    HW128349   3.639   0.967   9.178  0.9408 -0.6834  0.8087
 5629SOL    HW228350   3.661   1.106   9.193 -1.3922 -1.2670  0.6175
 5630SOL     OW28351   2.419   2.643  13.381 -0.0379 -0.0342  0.4478
 5630SOL    HW128352   2.382   2.729  13.361 -0.4022 -0.4825 -0.8284
 5630SOL    HW228353   2.480   2.635  13.308  2.1784  0.2138  2.2617
 5631SOL     OW28354   2.587   4.521   5.046  0.0571  0.2578  0.0633
 5631SOL    HW128355   2.653   4.567   4.994  1.4533 -2.1554 -0.2912
 5631SOL    HW228356   2.580   4.439   4.997 -0.4899  0.1184  0.3815
 5632SOL     OW28357   0.262   2.905   1.895  0.1917 -0.2348 -0.2166
 5632SOL    HW128358   0.188   2.845   1.906  1.0524 -1.7441 -2.7902
 5632SOL    HW228359   0.322   2.860   1.836  0.2118 -0.9375  0.3462
 5633SOL     OW28360   3.661   2.470   2.572  0.0533  0.3528  0.3366
 5633SOL    HW128361   3.628   2.419   2.647  0.6698  0.8290  0.9356
 5633SOL    HW228362   3.747   2.504   2.597  0.2225 -0.0396  0.2932
 5634SOL     OW28363   4.584   0.920  15.940  0.2031 -0.7738 -0.0080
 5634SOL    HW128364   4.534   0.926  15.859 -0.1295  0.3717  0.2744
 5634SOL    HW228365   4.670   0.907  15.902 -0.4415 -0.9822 -1.3792
 5635SOL     OW28366   2.472   4.642   7.486 -0.0195 -0.0185  0.2063
 5635SOL    HW128367   2.529   4.567   7.471  1.7276  1.5842 -1.0281
 5635SOL    HW228368   2.390   4.597   7.508 -0.2335  1.3494  2.2762
 5636SOL     OW28369   2.949   4.574   6.814 -0.4300 -0.2744 -0.5522
 5636SOL    HW128370   3.021   4.517   6.841  1.2929  1.7463 -0.9116
 5636SOL    HW228371   2.892   4.569   6.891 -0.3358  1.0288 -0.4071
 5637SOL     OW28372   4.493   0.382   7.277 -0.1467  1.0278  0.4516
 5637SOL    HW128373   4.407   0.416   7.249 -0.0104 -0.4886 -1.7841
 5637SOL    HW228374   4.487   0.290   7.253  2.0666  1.0067  0.0140
 5638SOL     OW28375   3.104   2.629   6.100  0.3024  0.2130 -0.1540
 5638SOL    HW128376   3.185   2.621   6.151  0.1432  0.6942  0.1734
 5638SOL    HW228377   3.038   2.645   6.167 -0.1845 -1.5842 -0.1996
 5639SOL     OW28378   1.710   4.518   5.545 -0.4909 -0.0800  0.1286
 5639SOL    HW128379   1.683   4.474   5.465 -0.0984  0.5833 -0.3664
 5639SOL    HW228380   1.633   4.572   5.561 -0.1750  0.7797 -1.3217
 5640SOL     OW28381   1.234   0.159   8.612 -0.3317 -0.1766  0.3622
 5640SOL    HW128382   1.189   0.092   8.664 -1.3845  0.5034  0.3049
 5640SOL    HW228383   1.319   0.158   8.657 -1.5790 -0.3938  2.7440
 5641SOL     OW28384   4.059   2.349   8.610  0.4584 -0.4151  0.5866
 5641SOL    HW128385   4.017   2.310   8.534  2.2923 -0.4246 -0.3968
 5641SOL    HW228386   4.055   2.442   8.587  0.1572 -1.2954 -2.9228
 5642SOL     OW28387   3.948   4.466   6.063 -0.3366 -0.6499  0.3051
 5642SOL    HW128388   3.954   4.523   6.140 -2.2585 -0.4645  0.3213
 5642SOL    HW228389   3.874   4.417   6.098 -1.9217  0.9315 -0.7977
 5643SOL     OW28390   2.684   3.683  16.158 -0.6044 -0.0026 -0.3867
 5643SOL    HW128391   2.641   3.745  16.216 -0.3219 -0.2803  0.1284
 5643SOL    HW228392   2.760   3.737  16.134 -1.4418  1.2241 -0.2626
 5644SOL     OW28393   3.930   4.006   9.925 -0.1856  0.1849  0.1331
 5644SOL    HW128394   4.021   3.982   9.940 -0.7960 -1.2969  1.4859
 5644SOL    HW228395   3.920   4.075   9.991 -1.0098 -0.3750  0.5865
 5645SOL     OW28396   0.150   0.625  11.218 -0.1668 -0.5387 -1.1037
 5645SOL    HW128397   0.104   0.671  11.288  0.3581 -0.9383 -0.4985
 5645SOL    HW228398   0.228   0.588  11.259  1.3902 -0.9578 -4.3718
 5646SOL     OW28399   0.529   3.798   2.589  0.0977  0.6774  0.2065
 5646SOL    HW128400   0.495   3.880   2.625 -0.0037  1.3841 -1.5260
 5646SOL    HW228401   0.482   3.790   2.506  1.0301 -1.0129 -0.1636
 5647SOL     OW28402   1.280   0.884   4.642 -0.1924 -0.6402 -0.2123
 5647SOL    HW128403   1.234   0.802   4.627  0.1478 -0.8270 -0.2364
 5647SOL    HW228404   1.350   0.860   4.702  1.1931 -0.2347 -1.6519
 5648SOL     OW28405   4.004   3.191   9.770  0.1186 -0.0896  0.0430
 5648SOL    HW128406   4.043   3.261   9.718 -1.9041  0.6342 -0.5223
 5648SOL    HW228407   3.977   3.127   9.704  0.7670  1.8069 -2.0732
 5649SOL     OW28408   2.396   3.736   6.310 -0.2176 -0.4337  0.2464
 5649SOL    HW128409   2.302   3.723   6.324 -0.1655  0.3082  1.2743
 5649SOL    HW228410   2.399   3.829   6.331  0.8696 -0.4905  0.3326
 5650SOL     OW28411   3.616   1.009   2.755 -0.0626 -0.4644  0.1618
 5650SOL    HW128412   3.566   1.083   2.720 -1.3790 -1.1087  0.6725
 5650SOL    HW228413   3.642   1.047   2.840 -0.3387 -2.1573  0.9948
 5651SOL     OW28414   3.573   2.537   2.006 -0.3366 -0.7061 -0.0095
 5651SOL    HW128415   3.530   2.614   2.042 -2.1035 -0.1479 -3.2703
 5651SOL    HW228416   3.589   2.479   2.081 -2.0894 -0.1221  0.8162
 5652SOL     OW28417   1.808   3.009  16.752  0.6721 -0.7506  0.4781
 5652SOL    HW128418   1.811   3.087  16.806 -0.5846 -2.8693  3.6239
 5652SOL    HW228419   1.714   3.013  16.733  0.8284 -0.7520 -0.2977
 5653SOL     OW28420   3.655   2.456   6.935  0.5327 -0.1248  0.6168
 5653SOL    HW128421   3.577   2.408   6.962  0.9141 -0.5446  0.9777
 5653SOL    HW228422   3.621   2.544   6.919 -1.1481 -1.1846 -1.6687
 5654SOL     OW28423   1.420   0.006   1.497 -0.1553  0.4392  0.8152
 5654SOL    HW128424   1.409   0.094   1.532 -0.2194  0.5529  0.5098
 5654SOL    HW228425   1.344   0.001   1.439 -0.2684  0.3139  0.9762
 5655SOL     OW28426   1.296   3.537  14.296 -0.2489  0.1460 -0.1735
 5655SOL    HW128427   1.316   3.468  14.233 -1.5820 -0.6635  0.2859
 5655SOL    HW228428   1.361   3.598  14.262 -0.1082  0.5166  0.7552
 5656SOL     OW28429   4.701   2.648   1.634  0.0585 -0.2073  0.3903
 5656SOL    HW128430   4.616   2.679   1.604  1.5078 -0.2998 -3.7888
 5656SOL    HW228431   0.036   2.693   1.573 -0.1849  1.1111  1.1159
 5657SOL     OW28432   0.205   2.715   0.768  0.1586  0.1961 -0.0046
 5657SOL    HW128433   0.287   2.698   0.721 -1.8537 -2.9443 -2.3896
 5657SOL    HW228434   0.146   2.652   0.726 -0.0050  0.0952  0.3754
 5658SOL     OW28435   2.638   3.345  13.691  0.2343 -0.1001 -0.0003
 5658SOL    HW128436   2.712   3.302  13.647 -1.4363 -2.2489 -0.7047
 5658SOL    HW228437   2.638   3.306  13.778 -0.8723 -1.7589 -0.7334
 5659SOL     OW28438   1.228   3.057  12.656 -0.1756  0.1614  0.3425
 5659SOL    HW128439   1.209   3.149  12.669  2.2350  0.4990  1.6280
 5659SOL    HW228440   1.323   3.052  12.641  0.0294  1.2365  1.3249
 5660SOL     OW28441   3.114   0.323   9.245  0.1002 -0.6688  0.3251
 5660SOL    HW128442   3.198   0.316   9.292 -0.6094  2.9818  2.1343
 5660SOL    HW228443   3.132   0.256   9.179 -1.4685 -1.5798  0.8135
 5661SOL     OW28444   2.276   0.429  16.261 -0.3671  0.1555 -0.4416
 5661SOL    HW128445   2.319   0.515  16.257  0.8544 -0.4773 -0.8505
 5661SOL    HW228446   2.225   0.416  16.181 -0.3660 -0.6324 -0.3134
 5662SOL     OW28447   1.837   0.609   2.465  0.2577  0.0740 -0.1104
 5662SOL    HW128448   1.856   0.694   2.505 -0.8369  0.2437  0.0567
 5662SOL    HW228449   1.744   0.600   2.488 -0.5630  1.8776 -2.8041
 5663SOL     OW28450   2.734   1.047   2.814 -0.2884  0.0489 -1.0582
 5663SOL    HW128451   2.812   1.075   2.766 -0.3894  2.1893  0.0258
 5663SOL    HW228452   2.668   1.031   2.747  0.9216 -1.1487 -1.9533
 5664SOL     OW28453   2.254   1.956   3.161  0.1255  0.4423 -0.0390
 5664SOL    HW128454   2.171   1.909   3.170  0.1617  0.5751  1.0289
 5664SOL    HW228455   2.227   2.037   3.117  0.3123  1.3074  1.4325
 5665SOL     OW28456   2.104   1.460   2.654 -0.1273 -0.2808  0.2161
 5665SOL    HW128457   2.063   1.546   2.662 -0.0624 -0.2965  0.6914
 5665SOL    HW228458   2.194   1.489   2.641 -0.7250  0.9727 -1.0889
 5666SOL     OW28459   4.208   0.198   6.407  0.0825  0.2445 -0.5710
 5666SOL    HW128460   4.285   0.221   6.460 -0.2306 -2.1893  0.9467
 5666SOL    HW228461   4.255   0.146   6.342 -0.0048  0.0792 -0.5013
 5667SOL     OW28462   0.701   3.338   5.332 -0.5424  0.0405 -0.2268
 5667SOL    HW128463   0.700   3.421   5.378  1.3875 -0.8240  1.3782
 5667SOL    HW228464   0.703   3.282   5.409 -0.5932  1.2314  0.6311
 5668SOL     OW28465   1.803   4.045   3.023  0.1981 -0.3648  0.2785
 5668SOL    HW128466   1.785   4.017   2.933  1.2609  0.7872 -0.2794
 5668SOL    HW228467   1.886   4.001   3.041 -0.5967 -1.7624  0.5924
 5669SOL     OW28468   0.096   2.228   8.227  0.5195  0.0202 -0.2892
 5669SOL    HW128469   0.129   2.318   8.231  3.1513 -1.0687  3.1773
 5669SOL    HW228470   0.029   2.223   8.159  0.2353 -1.6432  0.1305
 5670SOL     OW28471   4.006   3.977  10.364  0.8534  0.3442  0.1144
 5670SOL    HW128472   4.041   4.056  10.325  0.1876  1.1291  1.1123
 5670SOL    HW228473   4.084   3.930  10.395 -0.0738 -1.1863  0.1413
 5671SOL     OW28474   3.768   3.047   8.110 -0.5424  0.0302 -0.1879
 5671SOL    HW128475   3.796   3.134   8.081 -2.4197  0.3323 -1.0770
 5671SOL    HW228476   3.775   3.003   8.025 -0.8635  2.5388 -1.5076
 5672SOL     OW28477   4.349   4.464   7.937  0.5778 -0.4332 -0.0752
 5672SOL    HW128478   4.256   4.480   7.919  0.4009  0.0183  1.2482
 5672SOL    HW228479   4.355   4.372   7.910 -2.2970 -0.6760  0.1236
 5673SOL     OW28480   2.392   0.296   4.562 -0.3599  0.3352 -0.0706
 5673SOL    HW128481   2.441   0.334   4.489  1.7740  0.5656  1.4807
 5673SOL    HW228482   2.357   0.213   4.530  0.8315 -0.7617  1.4531
 5674SOL     OW28483   2.502   3.205  14.943 -0.2838 -0.7527  0.0097
 5674SOL    HW128484   2.443   3.204  14.868 -0.7087 -0.3340  0.3402
 5674SOL    HW228485   2.469   3.137  15.002  1.2369 -0.9719  0.6111
 5675SOL     OW28486   1.137   3.373   2.878  0.3589 -0.3700 -0.3694
 5675SOL    HW128487   1.104   3.380   2.789 -0.0899  0.5173 -0.1254
 5675SOL    HW228488   1.151   3.278   2.879 -0.7836 -0.5460 -2.1855
 5676SOL     OW28489   1.176   2.747   2.544  0.3893 -0.3251  0.1295
 5676SOL    HW128490   1.110   2.720   2.481 -0.8703  1.1577  0.8051
 5676SOL    HW228491   1.165   2.672   2.602 -1.8254  1.9084  2.6403
 5677SOL     OW28492   2.181   1.166  12.232  0.0550  0.0450  0.2627
 5677SOL    HW128493   2.101   1.217  12.235 -1.2113 -1.8793 -0.6493
 5677SOL    HW228494   2.237   1.213  12.294 -0.9046  1.3207  0.1579
 5678SOL     OW28495   3.229   4.020   2.583 -0.3992  0.0830  0.6674
 5678SOL    HW128496   3.212   3.932   2.619  1.6144 -0.7036 -0.3094
 5678SOL    HW228497   3.290   3.996   2.513 -2.3831 -1.1893 -0.6346
 5679SOL     OW28498   3.095   1.200   5.497 -0.0667  0.1135 -0.4933
 5679SOL    HW128499   3.080   1.140   5.570 -0.8771  0.7686 -0.1204
 5679SOL    HW228500   3.191   1.199   5.493 -0.0909 -1.0169 -0.7243
 5680SOL     OW28501   0.609   2.269  16.612 -0.0842  0.4252  0.1439
 5680SOL    HW128502   0.580   2.324  16.539  1.1243  1.9108  0.7906
 5680SOL    HW228503   0.702   2.292  16.616  0.2389 -1.2066  1.9113
 5681SOL     OW28504   1.223   3.118   6.451  0.8524 -0.4669  0.1113
 5681SOL    HW128505   1.161   3.056   6.489  0.3034  0.7025  1.1127
 5681SOL    HW228506   1.282   3.139   6.523  0.1716 -0.5971  0.6986
 5682SOL     OW28507   0.268   4.078   1.635 -0.7928  0.1546 -0.2449
 5682SOL    HW128508   0.220   4.108   1.712  0.2932  1.4999 -0.0818
 5682SOL    HW228509   0.224   3.997   1.614 -1.6374  0.1394  1.5565
 5683SOL     OW28510   1.758   1.557   2.593  0.1088  0.0133  0.3249
 5683SOL    HW128511   1.832   1.616   2.608 -2.3467  3.0621  0.3699
 5683SOL    HW228512   1.689   1.614   2.627 -0.7011 -0.3281 -0.7462
 5684SOL     OW28513   1.146   2.393   7.261 -0.1436 -0.1194  0.2923
 5684SOL    HW128514   1.120   2.348   7.341  1.0678 -0.5237  0.4535
 5684SOL    HW228515   1.180   2.475   7.297 -0.2111  1.0066 -2.2032
 5685SOL     OW28516   2.661   3.994   4.375 -0.4326  0.0089 -0.0558
 5685SOL    HW128517   2.614   4.066   4.416 -0.8420 -0.4867  0.3469
 5685SOL    HW228518   2.676   3.934   4.448  1.5294  0.5428 -0.0371
 5686SOL     OW28519   3.837   2.004   3.306 -0.3551  0.0972 -0.5485
 5686SOL    HW128520   3.790   2.047   3.377 -2.6911 -3.0166 -0.2063
 5686SOL    HW228521   3.804   1.914   3.314 -1.8399  0.3019 -4.0473
 5687SOL     OW28522   2.874   3.932   0.651 -0.0027 -0.0853 -0.4987
 5687SOL    HW128523   2.897   3.840   0.665 -0.2001  0.1773  1.5803
 5687SOL    HW228524   2.836   3.965   0.732  0.1127  0.7478 -0.7792
 5688SOL     OW28525   0.186   1.399   3.573  0.2094 -0.3447  0.5044
 5688SOL    HW128526   0.122   1.420   3.505  1.7686 -1.3842 -1.2448
 5688SOL    HW228527   0.253   1.352   3.525  0.1515 -1.8991  1.9601
 5689SOL     OW28528   2.090   3.481   3.639  0.4126  0.3073  0.1797
 5689SOL    HW128529   2.021   3.540   3.668 -0.9680 -0.1901 -2.1857
 5689SOL    HW228530   2.043   3.435   3.570  1.3048 -1.1773  0.5390
 5690SOL     OW28531   3.112   0.945  13.827 -0.2825 -0.0043 -0.2115
 5690SOL    HW128532   3.125   0.872  13.888 -1.0965  1.8772  2.1824
 5690SOL    HW228533   3.018   0.963  13.825  0.3680  3.4894  1.5742
 5691SOL     OW28534   1.334   0.186  11.518 -0.3041 -0.1302 -1.0119
 5691SOL    HW128535   1.309   0.095  11.505 -0.3953 -0.2807  0.1762
 5691SOL    HW228536   1.359   0.219  11.432 -1.6176  0.4222 -1.1752
 5692SOL     OW28537   0.822   2.986   7.697  0.0113 -0.1485  0.1418
 5692SOL    HW128538   0.875   3.062   7.672 -2.0060  0.6030 -1.8316
 5692SOL    HW228539   0.883   2.922   7.659  2.9766  1.5703  1.9312
 5693SOL     OW28540   2.873   1.578   5.601  0.3154  0.0152 -0.3963
 5693SOL    HW128541   2.940   1.646   5.594 -2.6913  3.0285  0.4373
 5693SOL    HW228542   2.926   1.506   5.565  2.0902  0.4053  1.4440
 5694SOL     OW28543   3.982   3.341   3.050 -0.1029 -0.7611  0.2223
 5694SOL    HW128544   4.063   3.305   3.086  1.2313  0.2599 -1.7419
 5694SOL    HW228545   4.012   3.431   3.043  0.5244 -1.0345 -0.7455
 5695SOL     OW28546   3.598   4.175   3.988  0.4782 -0.0134  0.4866
 5695SOL    HW128547   3.552   4.248   4.029 -0.3910 -0.0163 -0.4770
 5695SOL    HW228548   3.630   4.125   4.063  0.3728 -0.2490  0.3753
 5696SOL     OW28549   4.540   0.074   8.043  0.5556  0.4198  0.3518
 5696SOL    HW128550   4.574   0.122   8.119  0.7196 -0.6413  0.9377
 5696SOL    HW228551   4.462   0.037   8.084  0.0409 -0.0032 -1.0311
 5697SOL     OW28552   2.004   4.125   6.174 -0.2834 -0.3279  0.3833
 5697SOL    HW128553   2.030   4.078   6.253  1.0866  0.2044  0.2469
 5697SOL    HW228554   1.945   4.186   6.218  0.4767  0.4174  0.3683
 5698SOL     OW28555   1.770   4.620  11.943 -0.6326 -0.3463 -0.3291
 5698SOL    HW128556   1.813   4.700  11.973  1.9998 -1.4043 -1.2084
 5698SOL    HW228557   1.822   4.556  11.993  1.1088  1.0434 -0.3694
 5699SOL     OW28558   2.287   1.280   1.223 -0.3124  0.7582 -0.0246
 5699SOL    HW128559   2.348   1.206   1.227 -2.9402 -1.3661  0.4330
 5699SOL    HW228560   2.312   1.324   1.305 -1.5096  1.3523  0.0137
 5700SOL     OW28561   2.247   1.892   9.588  0.1343  0.1222  0.4546
 5700SOL    HW128562   2.188   1.842   9.533  0.2896 -0.4997  0.8563
 5700SOL    HW228563   2.257   1.829   9.659  3.2251  1.4353  1.2145
 5701SOL     OW28564   3.811   3.852   1.619 -0.3853 -0.3030 -0.0923
 5701SOL    HW128565   3.723   3.881   1.642 -0.4568  1.0180 -2.0763
 5701SOL    HW228566   3.866   3.925   1.647 -0.0451 -0.2484 -0.8844
 5702SOL     OW28567   1.924   2.087  16.452  0.3111  0.3930 -0.5697
 5702SOL    HW128568   1.973   2.165  16.428  1.9408 -0.2193  0.8186
 5702SOL    HW228569   1.886   2.106  16.538  2.0332 -1.5528  0.6140
 5703SOL     OW28570   2.415   2.577   8.753  0.0354 -0.0936 -0.1092
 5703SOL    HW128571   2.486   2.572   8.817 -0.3292  3.4371  0.5633
 5703SOL    HW228572   2.371   2.655   8.786 -0.4945 -0.6503  0.4804
 5704SOL     OW28573   1.943   1.949  10.895  0.4625 -0.3389 -0.3933
 5704SOL    HW128574   1.889   2.023  10.926  0.7713 -0.6754  0.9318
 5704SOL    HW228575   2.000   1.993  10.831  0.1868  0.8885  0.2000
 5705SOL     OW28576   0.261   3.421   2.942 -0.4163  0.4085 -0.6529
 5705SOL    HW128577   0.196   3.448   2.877 -0.7938 -1.1819 -0.9186
 5705SOL    HW228578   0.247   3.486   3.011  0.0044  0.7512 -0.8854
 5706SOL     OW28579   1.827   4.393   7.608 -0.1673  1.1147 -0.0849
 5706SOL    HW128580   1.853   4.484   7.614  0.1357  0.9253  1.4292
 5706SOL    HW228581   1.883   4.343   7.668 -0.7966  1.5982  0.9100
 5707SOL     OW28582   1.851   1.545   5.211  0.5329 -0.0751  0.2378
 5707SOL    HW128583   1.762   1.517   5.190  0.9705 -2.3420  1.4393
 5707SOL    HW228584   1.853   1.562   5.305  2.3955 -1.7728  0.5119
 5708SOL     OW28585   2.636   1.057   9.867 -0.3367  0.3067  0.2287
 5708SOL    HW128586   2.657   0.968   9.896 -0.2881 -0.9356 -3.6164
 5708SOL    HW228587   2.546   1.044   9.838 -0.2544  1.6979 -0.6738
 5709SOL     OW28588   2.297   3.272   3.383  0.1402 -0.0555  0.1903
 5709SOL    HW128589   2.236   3.241   3.450 -1.0807 -0.6039 -1.1669
 5709SOL    HW228590   2.261   3.359   3.364  2.3474  0.5541 -1.1486
 5710SOL     OW28591   1.165   4.239  15.001 -0.0681  0.1988  0.4214
 5710SOL    HW128592   1.131   4.267  14.916  0.7348 -1.6862 -0.5248
 5710SOL    HW228593   1.149   4.144  15.003  2.8079 -0.2858 -0.2344
 5711SOL     OW28594   1.324   0.013   3.737  0.4197 -0.1244  0.2848
 5711SOL    HW128595   1.418   4.721   3.751  0.4587 -1.1053 -1.0353
 5711SOL    HW228596   1.290   4.664   3.788 -1.0549  0.4091  0.0500
 5712SOL     OW28597   2.134   0.247  11.566  0.1714  0.3121 -0.1475
 5712SOL    HW128598   2.215   0.253  11.615 -0.5094 -0.1513  1.0241
 5712SOL    HW228599   2.076   0.251  11.642 -0.6065  0.9447 -0.7760
 5713SOL     OW28600   2.820   1.036   3.930  0.7234  0.2034 -0.0132
 5713SOL    HW128601   2.836   1.128   3.911  0.1798  0.0109 -1.3848
 5713SOL    HW228602   2.780   1.006   3.848  2.5396  1.1275 -1.2394
 5714SOL     OW28603   1.530   1.279   7.587  0.1223  0.1492 -0.1772
 5714SOL    HW128604   1.581   1.236   7.656 -1.4522  2.6308  2.4888
 5714SOL    HW228605   1.457   1.218   7.583 -1.1322  1.5298  1.9160
 5715SOL     OW28606   1.151   0.938   9.840  0.1920 -0.1520  0.2031
 5715SOL    HW128607   1.190   0.884   9.772 -0.2795 -0.5839  0.2744
 5715SOL    HW228608   1.219   1.004   9.847 -0.5109  0.6436 -0.5113
 5716SOL     OW28609   0.899   3.076   3.268  0.0172 -0.0736 -0.2199
 5716SOL    HW128610   0.868   3.045   3.183  0.1714 -0.7920 -0.0192
 5716SOL    HW228611   0.925   3.166   3.250 -2.0208  0.3673 -0.9554
 5717SOL     OW28612   2.028   2.402   5.390 -0.0919  0.6500  0.0840
 5717SOL    HW128613   1.985   2.318   5.377 -0.7520  0.7704  1.5094
 5717SOL    HW228614   1.981   2.453   5.324  1.1357 -0.1655 -1.4074
 5718SOL     OW28615   3.721   4.724   3.270 -0.0787 -0.0965 -0.1763
 5718SOL    HW128616   3.772   4.642   3.269  2.2243  1.3603 -0.8876
 5718SOL    HW228617   3.769   0.045   3.339 -1.0718 -1.6631  1.5555
 5719SOL     OW28618   2.612   0.835  15.849 -0.5631 -0.3582  0.1744
 5719SOL    HW128619   2.563   0.849  15.930 -0.2413 -0.5765  0.4093
 5719SOL    HW228620   2.538   0.819  15.791  0.7848 -1.2907 -1.2823
 5720SOL     OW28621   0.783   2.772   2.630 -0.5527  0.8877  0.7532
 5720SOL    HW128622   0.842   2.780   2.554  0.7397 -3.3002  1.3053
 5720SOL    HW228623   0.833   2.732   2.701 -0.3205 -1.3209 -0.6630
 5721SOL     OW28624   0.227   0.389   0.572  0.9444 -0.4685 -0.7544
 5721SOL    HW128625   0.154   0.342   0.612  2.3722 -1.0828  1.1363
 5721SOL    HW228626   0.282   0.398   0.649 -0.7759 -0.2968  0.4516
 5722SOL     OW28627   4.553   3.296   4.857  0.6574  0.7049  0.1484
 5722SOL    HW128628   4.522   3.289   4.767 -0.2036 -0.1548  0.5086
 5722SOL    HW228629   4.536   3.206   4.887  3.3957 -0.3811 -1.6027
 5723SOL     OW28630   2.200   2.615   6.894 -0.3363  0.1737 -0.0440
 5723SOL    HW128631   2.155   2.697   6.917 -0.2756  0.3773 -0.6532
 5723SOL    HW228632   2.148   2.579   6.822 -0.1458 -0.1147 -0.0351
 5724SOL     OW28633   0.091   2.012   2.857  0.1412 -0.1052  0.5711
 5724SOL    HW128634   0.089   2.022   2.762 -0.4600  0.0402  0.6004
 5724SOL    HW228635   0.185   2.015   2.874 -0.0639  0.1109  1.6896
 5725SOL     OW28636   1.594   4.339  15.760  0.5402  0.0590 -0.3008
 5725SOL    HW128637   1.577   4.331  15.854 -3.6734  0.3996 -0.9996
 5725SOL    HW228638   1.593   4.245  15.740 -0.4657  0.3024 -1.3835
 5726SOL     OW28639   3.325   3.276   4.749  0.6251  0.0465 -0.5996
 5726SOL    HW128640   3.412   3.307   4.726 -0.7789  1.5267 -3.8610
 5726SOL    HW228641   3.292   3.241   4.666  0.9667 -3.0630  0.5546
 5727SOL     OW28642   0.526   2.233   6.725 -0.9541 -0.4683 -0.5665
 5727SOL    HW128643   0.556   2.246   6.635 -1.5110  0.9912 -0.5549
 5727SOL    HW228644   0.586   2.165   6.757  1.4576  1.1550 -1.6130
 5728SOL     OW28645   3.817   3.783   4.326  0.4226  0.2817 -0.1225
 5728SOL    HW128646   3.897   3.734   4.343  0.7006  0.2768 -1.4168
 5728SOL    HW228647   3.748   3.717   4.334  0.4942  0.2291  0.0612
 5729SOL     OW28648   0.751   3.589   8.193 -0.1780 -0.1776  0.6302
 5729SOL    HW128649   0.839   3.552   8.191 -0.2200 -0.0969 -2.8869
 5729SOL    HW228650   0.769   3.683   8.196 -0.7645 -0.0165 -0.7725
 5730SOL     OW28651   0.992   2.373   2.479  0.8127 -0.1252  0.1218
 5730SOL    HW128652   0.939   2.297   2.453 -0.9921  0.8596  0.9136
 5730SOL    HW228653   0.980   2.358   2.573 -1.7865  0.6760 -0.0836
 5731SOL     OW28654   0.755   3.782   7.634 -0.0190  0.3603 -0.7045
 5731SOL    HW128655   0.678   3.790   7.690  0.9367 -1.8360  0.8986
 5731SOL    HW228656   0.811   3.846   7.676  0.5114 -1.1776  0.9162
 5732SOL     OW28657   1.919   3.229   6.208 -0.0554  0.1098 -0.0831
 5732SOL    HW128658   1.973   3.179   6.270  0.7898 -2.4958 -2.9217
 5732SOL    HW228659   1.836   3.220   6.256 -1.3619  0.1955 -2.3051
 5733SOL     OW28660   2.109   1.988   5.765  0.3298 -0.2920 -0.4448
 5733SOL    HW128661   2.055   1.942   5.830 -0.6343 -1.1876 -1.8728
 5733SOL    HW228662   2.159   1.913   5.735  1.5491  0.0612  0.6917
 5734SOL     OW28663   1.555   1.259  10.545 -0.2572 -0.3396 -0.2037
 5734SOL    HW128664   1.621   1.228  10.483  1.0529 -0.7725  1.4146
 5734SOL    HW228665   1.595   1.241  10.631 -0.1442 -2.0589 -0.6100
 5735SOL     OW28666   0.276   2.420   3.717  0.5755  1.0096  0.3640
 5735SOL    HW128667   0.330   2.354   3.759 -0.9930 -2.2965 -2.7936
 5735SOL    HW228668   0.217   2.365   3.665  0.2364  1.3005  0.4449
 5736SOL     OW28669   2.788   3.863   2.440 -0.4658  0.1301  0.0779
 5736SOL    HW128670   2.842   3.928   2.485 -1.3623  0.8238  0.1447
 5736SOL    HW228671   2.771   3.901   2.353 -1.2628 -1.6875 -0.5703
 5737SOL     OW28672   4.139   3.797   0.439 -0.1647 -0.2974 -0.4255
 5737SOL    HW128673   4.206   3.736   0.469  0.5239 -0.5559 -2.4376
 5737SOL    HW228674   4.088   3.787   0.519 -0.3282 -2.3297 -0.7979
 5738SOL     OW28675   3.860   1.333   9.179 -0.2086  0.2206  0.2059
 5738SOL    HW128676   3.814   1.402   9.226 -0.0582 -0.2495  1.0296
 5738SOL    HW228677   3.782   1.287   9.148  0.7797 -0.4844 -1.2329
 5739SOL     OW28678   0.047   2.312   2.296  0.5123 -0.1261 -0.1010
 5739SOL    HW128679   0.095   2.374   2.351 -1.1315  1.6155 -0.6239
 5739SOL    HW228680   4.688   2.298   2.342  0.8160 -1.4061  0.0665
 5740SOL     OW28681   0.624   1.551   7.691  0.2178 -0.3060 -0.1772
 5740SOL    HW128682   0.557   1.594   7.638 -0.5105 -2.1315 -0.7354
 5740SOL    HW228683   0.702   1.580   7.643  0.0166 -0.6186 -0.6848
 5741SOL     OW28684   2.356   3.162  16.096  0.1521  0.1471 -0.3319
 5741SOL    HW128685   2.271   3.180  16.136  0.1647  1.7116 -0.9909
 5741SOL    HW228686   2.404   3.157  16.179  0.1238  3.8144 -0.1151
 5742SOL     OW28687   4.706   4.607   0.703 -0.2736  0.3462  0.2491
 5742SOL    HW128688   0.057   4.651   0.663  1.5437 -1.7955  1.3277
 5742SOL    HW228689   0.018   4.578   0.786 -0.1396  0.0877  0.1010
 5743SOL     OW28690   1.329   4.491   5.411 -0.2603  0.4622  0.2400
 5743SOL    HW128691   1.266   4.511   5.342 -0.6851 -2.0849 -0.1311
 5743SOL    HW228692   1.406   4.540   5.382  1.8162 -2.6786  0.3978
 5744SOL     OW28693   0.040   1.697   7.266 -0.1118 -0.3280 -0.0635
 5744SOL    HW128694   0.048   1.609   7.301 -0.3405 -1.0156 -1.7424
 5744SOL    HW228695   0.050   1.738   7.352  2.1464 -1.5496  0.2547
 5745SOL     OW28696   1.252   3.860   6.199 -0.3430 -0.0798  0.2429
 5745SOL    HW128697   1.324   3.799   6.185  1.5060  1.6710  2.0341
 5745SOL    HW228698   1.298   3.931   6.244  0.4865  0.6129 -1.7436
 5746SOL     OW28699   3.602   1.573  13.855 -0.1652 -0.7672  0.5725
 5746SOL    HW128700   3.612   1.587  13.950 -0.9249 -0.6151  0.6360
 5746SOL    HW228701   3.676   1.515  13.839  0.6429 -0.1854  2.1874
 5747SOL     OW28702   0.155   2.844   8.959 -0.5790 -0.1468 -0.1538
 5747SOL    HW128703   0.112   2.877   9.038 -1.1640 -0.7308 -0.2352
 5747SOL    HW228704   0.244   2.829   8.989 -0.2146 -0.5023 -1.4014
 5748SOL     OW28705   0.694   1.411   9.004 -0.5168  0.0682  0.2953
 5748SOL    HW128706   0.732   1.324   9.017  0.5246  0.8621  2.6843
 5748SOL    HW228707   0.625   1.392   8.941 -0.0809  0.1680 -0.2135
 5749SOL     OW28708   3.820   1.421   1.164  0.3788 -0.1832 -0.0938
 5749SOL    HW128709   3.913   1.397   1.163  0.3869 -0.1908  0.8340
 5749SOL    HW228710   3.787   1.346   1.214  0.5331  0.3115  0.7584
 5750SOL     OW28711   0.940   2.254  14.257  0.2943  0.1368 -0.1009
 5750SOL    HW128712   0.980   2.289  14.177 -1.3651  0.9583 -0.5643
 5750SOL    HW228713   0.922   2.335  14.304 -0.1336  1.6713 -2.9162
 5751SOL     OW28714   0.652   2.502   9.856 -0.0940  0.2298 -0.3561
 5751SOL    HW128715   0.647   2.497   9.951 -3.0642  1.4749 -0.4313
 5751SOL    HW228716   0.564   2.468   9.837  0.3824 -0.4897 -1.2383
 5752SOL     OW28717   3.384   1.752   6.035 -0.4276  0.3327  0.1221
 5752SOL    HW128718   3.438   1.831   6.034  0.3116 -0.1552  2.0670
 5752SOL    HW228719   3.444   1.699   6.088  1.4374  0.7246 -1.6044
 5753SOL     OW28720   0.893   4.075   3.797  0.2920 -0.0465 -0.0262
 5753SOL    HW128721   0.942   4.023   3.733 -0.2590 -0.9974  0.3293
 5753SOL    HW228722   0.928   4.163   3.779 -0.2134  0.1813  0.0758
 5754SOL     OW28723   1.681   2.941  12.058 -0.2480 -0.0086 -0.0851
 5754SOL    HW128724   1.773   2.924  12.039 -0.8701 -1.6616 -1.6878
 5754SOL    HW228725   1.652   2.867  12.003  0.6022  0.0421 -0.5992
 5755SOL     OW28726   4.417   0.080   9.624  0.4708 -0.5761 -0.1007
 5755SOL    HW128727   4.429   0.066   9.718  1.6427  0.0076 -0.1568
 5755SOL    HW228728   4.394   0.173   9.620 -0.7140 -0.8623  0.2799
 5756SOL     OW28729   1.720   3.660   4.345 -0.2363  0.1214  0.1612
 5756SOL    HW128730   1.689   3.677   4.434 -0.4634  0.7431 -0.0296
 5756SOL    HW228731   1.758   3.573   4.356  0.9887  0.5335 -0.8857
 5757SOL     OW28732   1.503   3.221   0.680  0.4952 -0.4732  0.6416
 5757SOL    HW128733   1.528   3.150   0.740  2.3383 -1.7063 -1.5435
 5757SOL    HW228734   1.481   3.174   0.599 -0.3600  0.4159  0.3740
 5758SOL     OW28735   3.884   0.422  13.720  0.1957 -0.2399 -0.3176
 5758SOL    HW128736   3.803   0.456  13.758  1.9223  0.7437  2.5263
 5758SOL    HW228737   3.891   0.460  13.633 -1.3540  0.3822 -0.1749
 5759SOL     OW28738   4.288   1.528   8.137 -0.5967  0.1200 -0.7159
 5759SOL    HW128739   4.260   1.478   8.213  1.6727 -0.6493 -0.4081
 5759SOL    HW228740   4.304   1.458   8.073 -2.0972  0.1089 -1.0959
 5760SOL     OW28741   1.047   4.549   3.584  0.2771  0.0985 -0.1042
 5760SOL    HW128742   1.024   4.642   3.588 -1.0601 -0.1560 -1.9903
 5760SOL    HW228743   0.994   4.516   3.512 -1.0996  1.7036  0.1572
 5761SOL     OW28744   3.263   4.544   3.882  0.3778  0.1792 -0.1006
 5761SOL    HW128745   3.349   4.509   3.901  0.8664  1.2560 -0.3104
 5761SOL    HW228746   3.268   4.549   3.786 -0.4761 -1.5801 -0.2343
 5762SOL     OW28747   1.316   3.441   8.490  0.4708 -0.0235  0.5479
 5762SOL    HW128748   1.265   3.466   8.567  0.8905  3.6299 -0.3657
 5762SOL    HW228749   1.352   3.360   8.527  2.4300  1.3369  1.6717
 5763SOL     OW28750   2.419   1.278   6.345 -0.1021 -0.2066 -0.4381
 5763SOL    HW128751   2.409   1.327   6.427 -0.2069  0.7479 -1.0191
 5763SOL    HW228752   2.493   1.324   6.307  2.5191 -2.7542  1.5416
 5764SOL     OW28753   1.741   4.370  17.172  0.1545  0.4119  0.4343
 5764SOL    HW128754   1.738   4.465  17.185  2.1891  0.3906  1.1347
 5764SOL    HW228755   1.835   4.362  17.155 -0.2032 -1.2156 -0.7330
 5765SOL     OW28756   2.531   3.649  15.175 -0.3132  0.2155 -0.6222
 5765SOL    HW128757   2.459   3.708  15.157  0.0306  0.0052 -2.7039
 5765SOL    HW228758   2.596   3.718  15.170  2.3304 -2.2411 -0.2371
 5766SOL     OW28759   0.297   2.320  13.735  0.3402  0.7736 -0.0689
 5766SOL    HW128760   0.334   2.406  13.753  0.2466  0.8399 -0.2006
 5766SOL    HW228761   0.230   2.300  13.800  0.3513  0.7933 -0.0515
 5767SOL     OW28762   2.479   2.355   7.534  0.0236 -0.5610  0.3598
 5767SOL    HW128763   2.408   2.394   7.586 -0.3646 -1.1665  0.2829
 5767SOL    HW228764   2.551   2.416   7.550 -1.3514  1.1775 -0.1253
 5768SOL     OW28765   3.665   4.200  13.223 -0.0034 -0.0848  0.6161
 5768SOL    HW128766   3.611   4.273  13.191 -0.0266  0.2522  1.4259
 5768SOL    HW228767   3.627   4.200  13.311  2.7696 -2.6487  1.8097
 5769SOL     OW28768   1.339   1.643  15.441  0.3257 -0.4269 -0.0124
 5769SOL    HW128769   1.263   1.649  15.384 -0.3477 -0.6575  0.8715
 5769SOL    HW228770   1.407   1.631  15.374  1.0020 -0.3299  0.6499
 5770SOL     OW28771   2.226   3.120   3.624 -0.4910  0.1961 -0.1642
 5770SOL    HW128772   2.318   3.144   3.631 -0.0475 -1.0698 -1.7364
 5770SOL    HW228773   2.196   3.139   3.713  2.4631 -0.0119  0.8708
 5771SOL     OW28774   1.295   0.260   7.656  0.0673  0.0193  0.0211
 5771SOL    HW128775   1.306   0.231   7.566  3.0100  0.7842  0.1256
 5771SOL    HW228776   1.343   0.342   7.664 -2.1717  1.2670  0.6035
 5772SOL     OW28777   4.011   4.469   3.634 -0.2297  0.8093 -0.0996
 5772SOL    HW128778   3.976   4.522   3.563 -1.8488  1.8823  1.5110
 5772SOL    HW228779   4.078   4.522   3.678  0.3673 -0.4816  0.5644
 5773SOL     OW28780   2.535   0.778   3.615  0.0352 -0.8019  0.3398
 5773SOL    HW128781   2.462   0.806   3.558 -0.2078 -1.4631  0.3273
 5773SOL    HW228782   2.510   0.686   3.616  0.4908 -0.9463 -1.2007
 5774SOL     OW28783   3.692   3.351  12.485 -0.1171 -0.2885 -0.2516
 5774SOL    HW128784   3.629   3.280  12.479  2.3063 -2.3201 -1.8004
 5774SOL    HW228785   3.699   3.367  12.390 -2.6715  0.5745 -0.2924
 5775SOL     OW28786   1.466   3.310   8.868  0.3236  0.1613 -0.6328
 5775SOL    HW128787   1.521   3.237   8.898  0.8624  0.7069 -0.3043
 5775SOL    HW228788   1.524   3.386   8.873 -1.4256  1.2676  2.5376
 5776SOL     OW28789   0.394   4.147   6.796  0.1190  0.4211 -0.3929
 5776SOL    HW128790   0.311   4.187   6.819 -0.5169 -1.4384  0.5342
 5776SOL    HW228791   0.434   4.204   6.730 -0.2338 -0.0524 -1.0233
 5777SOL     OW28792   3.242   3.518   8.356  0.3194  0.2349  0.1816
 5777SOL    HW128793   3.310   3.498   8.292  0.7873 -0.5786  0.9447
 5777SOL    HW228794   3.284   3.587   8.408 -0.1882 -1.0335  2.2583
 5778SOL     OW28795   4.638   1.571   6.728  0.3973 -0.5202  0.5622
 5778SOL    HW128796   4.642   1.664   6.707  0.0209 -0.4887  0.6154
 5778SOL    HW228797   4.645   1.582   6.823  0.1787  0.8794  0.4140
 5779SOL     OW28798   4.069   3.787   7.773  0.5411  0.1305  0.0878
 5779SOL    HW128799   4.061   3.701   7.732 -1.9517  1.0945 -1.4270
 5779SOL    HW228800   3.979   3.819   7.762  0.5144 -0.1892 -0.6350
 5780SOL     OW28801   2.111   3.292   2.758  0.2125  0.0561 -0.0468
 5780SOL    HW128802   2.101   3.347   2.680 -1.7307 -0.7012 -0.3299
 5780SOL    HW228803   2.188   3.241   2.735 -1.1064 -1.6004 -0.8443
 5781SOL     OW28804   2.812   0.640   3.689  0.1808  0.1889 -0.6490
 5781SOL    HW128805   2.773   0.553   3.694 -0.4029  0.6169  2.2017
 5781SOL    HW228806   2.794   0.662   3.597 -0.3877  0.1540 -0.5484
 5782SOL     OW28807   3.815   3.772   5.963  0.5621 -0.0683 -0.1445
 5782SOL    HW128808   3.823   3.859   6.002 -0.2350 -1.3254  2.8325
 5782SOL    HW228809   3.885   3.723   6.004 -0.8128 -0.7513  1.3988
 5783SOL     OW28810   0.881   1.200   3.351 -0.1875 -0.3409  0.4338
 5783SOL    HW128811   0.802   1.218   3.401 -0.1090 -1.4688  0.9643
 5783SOL    HW228812   0.932   1.280   3.365  1.1113 -1.0398 -0.2174
 5784SOL     OW28813   4.650   3.267   4.281  0.6206  0.2649  0.1651
 5784SOL    HW128814   0.007   3.230   4.314  1.4910  0.9521 -1.1788
 5784SOL    HW228815   4.635   3.344   4.336 -0.4820 -1.3846  2.1478
 5785SOL     OW28816   3.462   0.878  16.003 -0.0132  0.4320  0.0804
 5785SOL    HW128817   3.437   0.859  15.913  0.0525 -0.8776  0.3319
 5785SOL    HW228818   3.390   0.842  16.054 -1.9705  1.4636 -1.9719
 5786SOL     OW28819   4.119   3.834  13.148 -0.6666 -0.0182 -0.2640
 5786SOL    HW128820   4.039   3.852  13.098 -0.4725  0.2362 -0.4786
 5786SOL    HW228821   4.077   3.792  13.223 -0.9750 -1.9071 -1.5137
 5787SOL     OW28822   0.983   3.805   6.251 -0.2181  0.0014 -0.1525
 5787SOL    HW128823   0.986   3.746   6.175  1.6105  1.0805 -0.9167
 5787SOL    HW228824   1.076   3.828   6.247 -0.3489  0.4801 -0.3526
 5788SOL     OW28825   3.754   0.702   3.993 -0.5718 -0.3638  0.0914
 5788SOL    HW128826   3.809   0.643   4.045 -1.6501 -1.7713 -0.3256
 5788SOL    HW228827   3.674   0.700   4.047 -0.7453 -2.8023 -0.2456
 5789SOL     OW28828   2.974   0.821  15.516  0.4570 -0.3666  0.6461
 5789SOL    HW128829   2.926   0.739  15.517 -1.3646  0.6486 -1.4445
 5789SOL    HW228830   2.925   0.878  15.576 -1.6667  0.1744 -1.6093
 5790SOL     OW28831   3.851   2.955   1.178 -0.0962 -0.1392 -0.5398
 5790SOL    HW128832   3.928   2.986   1.227  0.5304 -0.5344 -1.2825
 5790SOL    HW228833   3.778   2.973   1.238  1.0007  0.3235  0.6569
 5791SOL     OW28834   1.217   2.717   9.182 -0.6505  0.4729 -0.2798
 5791SOL    HW128835   1.210   2.626   9.152 -1.7103  0.4701 -0.0211
 5791SOL    HW228836   1.150   2.725   9.250  0.2553 -1.0428  0.7974
 5792SOL     OW28837   3.930   1.992  16.991  0.3868  0.6720 -0.2785
 5792SOL    HW128838   4.005   2.041  16.958 -0.0977  0.2377 -2.0259
 5792SOL    HW228839   3.972   1.911  17.018 -1.4213 -0.1785 -0.0175
 5793SOL     OW28840   1.810   1.500  10.785  0.1396 -0.4223 -0.2040
 5793SOL    HW128841   1.834   1.408  10.788 -2.3524 -1.0624 -0.6290
 5793SOL    HW228842   1.868   1.537  10.852 -1.6330  0.2487  0.9555
 5794SOL     OW28843   0.582   4.668   9.472 -0.4137  0.0608  0.0173
 5794SOL    HW128844   0.541   4.719   9.542 -0.6985 -1.0213  0.6570
 5794SOL    HW228845   0.661   4.633   9.513 -1.0375  0.5168  1.6150
 5795SOL     OW28846   4.687   1.496  13.768 -0.1249 -0.4027 -0.0151
 5795SOL    HW128847   4.596   1.504  13.740  0.5400 -0.6506 -2.2609
 5795SOL    HW228848   4.723   1.582  13.789  0.6727 -0.7845  0.2006
 5796SOL     OW28849   0.472   4.508   8.638  0.4311 -0.2322 -0.2026
 5796SOL    HW128850   0.531   4.440   8.606 -0.8040 -1.5600  0.3472
 5796SOL    HW228851   0.382   4.486   8.616  0.9040 -1.8279 -0.5014
 5797SOL     OW28852   1.946   0.640   7.117 -0.1936 -0.9859  0.3442
 5797SOL    HW128853   1.962   0.733   7.105 -0.1101 -0.7562  2.2327
 5797SOL    HW228854   2.031   0.613   7.081  0.8191  1.1184  1.2029
 5798SOL     OW28855   4.393   1.401   6.452 -0.6937  0.0268  1.0171
 5798SOL    HW128856   4.467   1.352   6.488 -0.4453  0.7025  1.4250
 5798SOL    HW228857   4.368   1.459   6.524  0.8109  0.2973  1.3138
 5799SOL     OW28858   2.160   3.597   5.697 -0.1121  0.3437  0.5591
 5799SOL    HW128859   2.121   3.574   5.782 -2.9843 -2.1511 -1.4573
 5799SOL    HW228860   2.240   3.641   5.725  0.0539 -1.1069  2.3592
 5800SOL     OW28861   2.328   1.296   5.942 -0.0644 -0.6838 -0.4048
 5800SOL    HW128862   2.351   1.218   5.890 -0.5411  0.9703 -3.1203
 5800SOL    HW228863   2.331   1.264   6.032  0.0480  2.2270  0.6063
 5801SOL     OW28864   3.118   0.961   2.149 -0.4355 -0.0679 -0.1567
 5801SOL    HW128865   3.074   0.913   2.079  0.2988 -2.7453  1.2566
 5801SOL    HW228866   3.185   0.899   2.177 -0.4297 -0.5980 -1.3378
 5802SOL     OW28867   3.821   2.221  12.433  0.6262 -0.0530 -0.4661
 5802SOL    HW128868   3.745   2.269  12.465 -0.3952 -1.6002 -0.5490
 5802SOL    HW228869   3.818   2.144  12.490 -0.8530 -0.7898 -1.5123
 5803SOL     OW28870   1.399   3.976  15.690 -0.3898  0.1593 -0.3395
 5803SOL    HW128871   1.391   3.886  15.721  0.4010 -0.5816 -2.3108
 5803SOL    HW228872   1.372   4.021  15.770 -0.3624 -0.8938  0.2567
 5804SOL     OW28873   3.973   2.682   5.401 -0.0832 -0.5349  0.3724
 5804SOL    HW128874   3.990   2.613   5.338  0.3141  1.6670 -1.9134
 5804SOL    HW228875   3.950   2.754   5.343  1.2119 -2.1410 -2.1016
 5805SOL     OW28876   4.253   4.470   4.800  0.3413  0.0162  0.2620
 5805SOL    HW128877   4.319   4.498   4.736  0.7555  1.1901  1.2139
 5805SOL    HW228878   4.207   4.401   4.752  0.9951  0.1490 -0.5725
 5806SOL     OW28879   2.584   1.686  14.431  0.8540 -0.5821 -0.1038
 5806SOL    HW128880   2.669   1.730  14.429  0.3273  0.3948 -0.5258
 5806SOL    HW228881   2.597   1.604  14.382 -0.0134 -0.8369  0.0823
 5807SOL     OW28882   0.619   2.106   9.617  0.2716  0.1684  0.2628
 5807SOL    HW128883   0.651   2.036   9.674  1.4512 -1.0727 -1.8958
 5807SOL    HW228884   0.701   2.151   9.596  1.0997 -1.0347  0.8823
 5808SOL     OW28885   2.903   0.287   4.917  0.4413  0.5915  0.3010
 5808SOL    HW128886   2.862   0.240   4.844 -0.7498  2.7339 -0.4071
 5808SOL    HW228887   2.991   0.303   4.884  1.4673 -1.8037  1.8539
 5809SOL     OW28888   4.197   2.717   7.551 -0.3780  0.4103  0.1218
 5809SOL    HW128889   4.268   2.704   7.614 -0.9208  0.1814  0.6820
 5809SOL    HW228890   4.145   2.792   7.580 -0.6122 -0.4751  1.9987
 5810SOL     OW28891   2.147   3.968   7.200  0.3425 -0.0723  0.1786
 5810SOL    HW128892   2.076   3.904   7.193  0.2765  0.0932 -0.7334
 5810SOL    HW228893   2.132   4.035   7.133  2.4111  0.7766  0.5748
 5811SOL     OW28894   4.457   1.971   4.672  0.0930 -0.8485 -0.1984
 5811SOL    HW128895   4.487   1.900   4.729  0.9545  0.5533  1.0889
 5811SOL    HW228896   4.508   2.044   4.707  0.1215 -0.9272 -0.0777
 5812SOL     OW28897   1.447   1.085  17.383  0.0879  0.0071  0.2176
 5812SOL    HW128898   1.385   1.024  17.342  0.8833 -0.7148  0.1000
 5812SOL    HW228899   1.445   1.157  17.320  0.7146  0.1428  0.3615
 5813SOL     OW28900   1.843   1.325  16.982 -0.1279 -0.0109 -0.2428
 5813SOL    HW128901   1.807   1.322  17.071 -0.5826  1.4622 -0.3760
 5813SOL    HW228902   1.830   1.232  16.960  0.3851  0.2128 -1.4689
 5814SOL     OW28903   4.623   4.520   1.921 -0.0027 -0.6757 -0.2233
 5814SOL    HW128904   4.609   4.608   1.885 -1.6471 -1.2749 -1.0282
 5814SOL    HW228905   4.710   4.527   1.961  0.5736 -3.5144 -1.0383
 5815SOL     OW28906   1.043   4.164   6.311  0.4296 -0.3979 -0.3156
 5815SOL    HW128907   1.067   4.250   6.345  2.4145  0.1575 -3.0824
 5815SOL    HW228908   0.952   4.151   6.337 -0.1220  0.6636 -1.7462
 5816SOL     OW28909   0.824   4.660   1.093  0.5372  0.4420 -0.1251
 5816SOL    HW128910   0.838   4.640   1.186 -0.5508 -1.5514 -0.3933
 5816SOL    HW228911   0.910   4.637   1.058 -1.1724 -0.7673 -3.5151
 5817SOL     OW28912   0.336   3.246   5.293 -0.2323 -0.0376  0.4516
 5817SOL    HW128913   0.300   3.323   5.249 -0.0613  0.2438  0.8050
 5817SOL    HW228914   0.336   3.177   5.226  1.1678 -1.5694  2.0341
 5818SOL     OW28915   3.653   2.051   9.957  0.3466 -0.6897 -0.6162
 5818SOL    HW128916   3.573   2.015   9.995 -0.6185 -0.4924 -2.4653
 5818SOL    HW228917   3.626   2.142   9.944  0.1374 -0.6418  0.1657
 5819SOL     OW28918   4.108   2.163   6.392  0.2305 -0.0269 -0.1766
 5819SOL    HW128919   4.050   2.153   6.316  1.0643  0.2313 -0.8480
 5819SOL    HW228920   4.193   2.162   6.347 -0.0069 -1.5191 -0.5904
 5820SOL     OW28921   1.694   4.322  10.991 -0.2056 -0.0605  0.4459
 5820SOL    HW128922   1.656   4.339  11.077  0.3857  0.5291  0.5936
 5820SOL    HW228923   1.611   4.302  10.948  1.2941  0.6315 -2.7537
 5821SOL     OW28924   1.639   3.755   7.412 -0.2173 -0.3462  0.4575
 5821SOL    HW128925   1.624   3.705   7.492  0.9473 -0.0342  0.8614
 5821SOL    HW228926   1.552   3.796   7.405 -0.7487 -1.4597  0.5529
 5822SOL     OW28927   0.959   3.401   4.778  0.0743  0.3056 -0.2520
 5822SOL    HW128928   0.868   3.375   4.790  0.1210  0.4025  0.3275
 5822SOL    HW228929   0.971   3.368   4.689 -1.4763 -3.1009  0.8034
 5823SOL     OW28930   3.903   2.579   8.094  0.0942 -0.8645  0.4850
 5823SOL    HW128931   3.984   2.527   8.105  0.4547 -0.4329 -0.1242
 5823SOL    HW228932   3.925   2.655   8.148 -0.7829  0.3162 -0.8271
 5824SOL     OW28933   0.112   0.674   4.397  0.2961  0.5689  0.3949
 5824SOL    HW128934   0.019   0.673   4.376  0.9112  1.0989 -2.2533
 5824SOL    HW228935   0.127   0.767   4.408 -0.2841  0.6646  0.3909
 5825SOL     OW28936   1.293   2.326   3.409 -0.3583 -0.2186 -0.4797
 5825SOL    HW128937   1.370   2.382   3.395 -1.2897  1.1158 -0.2825
 5825SOL    HW228938   1.330   2.240   3.389  2.8070  0.9577  0.2132
 5826SOL     OW28939   1.479   2.101   8.918 -0.2261  0.6640 -0.2800
 5826SOL    HW128940   1.510   2.080   8.830  3.2575  1.0852  0.8520
 5826SOL    HW228941   1.560   2.082   8.965  0.2166 -0.2078 -1.4090
 5827SOL     OW28942   2.318   1.622   1.343  0.2424 -0.1742 -0.1635
 5827SOL    HW128943   2.229   1.622   1.310  0.5623 -0.3710 -1.0397
 5827SOL    HW228944   2.313   1.547   1.402  0.5330  0.4083  0.6065
 5828SOL     OW28945   1.157   2.304  16.485  0.0215 -0.0764  0.4422
 5828SOL    HW128946   1.237   2.358  16.484  0.9939 -1.5492 -1.2675
 5828SOL    HW228947   1.172   2.250  16.407  0.8003 -0.5662  0.9332
 5829SOL     OW28948   2.918   2.578   5.430  0.0623  0.6452  0.1967
 5829SOL    HW128949   2.847   2.535   5.477 -0.8900  0.6134 -1.2570
 5829SOL    HW228950   2.895   2.570   5.337 -0.9911 -2.1319  0.7129
 5830SOL     OW28951   1.113   0.558   5.194  0.0786 -0.3076 -0.1636
 5830SOL    HW128952   1.164   0.480   5.176  1.9205  0.4723  1.6678
 5830SOL    HW228953   1.033   0.511   5.218 -0.2535  1.2514  1.8887
 5831SOL     OW28954   1.028   4.675   5.343 -0.7170  0.4556  0.1663
 5831SOL    HW128955   0.959   4.713   5.289 -0.3753  0.3629 -0.3372
 5831SOL    HW228956   1.098   4.658   5.280 -1.1506  1.5068 -0.5899
 5832SOL     OW28957   2.016   4.129   3.839 -0.3113 -0.0431  0.3194
 5832SOL    HW128958   1.932   4.095   3.869  0.7536 -1.2203  2.0074
 5832SOL    HW228959   2.034   4.092   3.752 -0.7194 -2.4446  1.2494
 5833SOL     OW28960   3.686   0.288   3.452  0.2475  0.3908  0.0778
 5833SOL    HW128961   3.613   0.226   3.458 -0.1597  0.7784 -0.9482
 5833SOL    HW228962   3.644   0.364   3.492 -2.8036 -0.5223 -1.3876
 5834SOL     OW28963   0.825   3.123   9.975  0.5917 -0.1322 -0.6241
 5834SOL    HW128964   0.746   3.071   9.965 -0.0598  1.0393 -1.5599
 5834SOL    HW228965   0.836   3.113  10.069  1.3503  2.4103 -0.4336
 5835SOL     OW28966   1.243   2.635   0.134  0.1173  0.4252  0.2049
 5835SOL    HW128967   1.332   2.662   0.159  1.0661 -0.3148 -2.3550
 5835SOL    HW228968   1.255   2.552   0.089  0.1644  1.4707 -1.7269
 5836SOL     OW28969   4.210   3.945   6.793 -0.1435  0.1237  0.6585
 5836SOL    HW128970   4.182   3.996   6.717  1.2465 -0.1984 -0.0736
 5836SOL    HW228971   4.160   3.869   6.765  0.8972 -0.8595  1.4729
 5837SOL     OW28972   4.274   4.712  14.569 -0.2756 -0.6025  0.1791
 5837SOL    HW128973   4.242   4.646  14.508  0.7419 -1.8517  0.9986
 5837SOL    HW228974   4.359   0.005  14.530  0.4964 -1.2749  1.5565
 5838SOL     OW28975   0.082   2.853  13.127 -0.4993  0.0906 -0.2567
 5838SOL    HW128976   0.036   2.911  13.067  1.2946  0.8746 -0.8877
 5838SOL    HW228977   0.138   2.912  13.178 -1.1531  1.4782 -1.1632
 5839SOL     OW28978   4.440   3.685  13.999 -0.0345 -0.1923  0.7726
 5839SOL    HW128979   4.375   3.624  13.963  1.1759 -1.3832  0.6113
 5839SOL    HW228980   4.494   3.696  13.920  1.0084  0.2948  1.5588
 5840SOL     OW28981   2.849   4.638  13.552  0.0713 -0.3098  0.0724
 5840SOL    HW128982   2.851   0.009  13.567 -3.6604 -0.3438  0.7832
 5840SOL    HW228983   2.829   4.603  13.639 -1.5466 -0.2362 -0.2722
 5841SOL     OW28984   2.784   2.554   6.639 -0.3463 -0.0832  0.5519
 5841SOL    HW128985   2.852   2.609   6.678  0.4854  0.6518 -1.9302
 5841SOL    HW228986   2.800   2.567   6.546  1.0811  1.3092  1.0023
 5842SOL     OW28987   1.401   3.757   2.119 -0.1448  0.3828  0.0218
 5842SOL    HW128988   1.358   3.721   2.042  0.6558 -1.7719  0.5813
 5842SOL    HW228989   1.324   3.760   2.176 -0.6506 -2.5151 -0.5239
 5843SOL     OW28990   0.677   4.460   8.469  0.0606 -0.2124 -0.5352
 5843SOL    HW128991   0.625   4.435   8.393 -0.6438 -2.2820  0.6386
 5843SOL    HW228992   0.709   4.545   8.438 -0.7026  0.0120 -0.7294
 5844SOL     OW28993   0.684   0.255   7.898 -0.4311 -0.3914 -0.0820
 5844SOL    HW128994   0.749   0.302   7.951  0.5109 -1.3093 -0.4102
 5844SOL    HW228995   0.626   0.326   7.870  1.5372  0.8726 -1.0109
 5845SOL     OW28996   2.619   0.996   7.352 -0.2709  0.2008  0.4875
 5845SOL    HW128997   2.681   1.049   7.302 -0.6407 -1.1035 -1.3561
 5845SOL    HW228998   2.609   0.922   7.291 -0.3914 -1.7264  2.8293
 5846SOL     OW28999   0.257   0.629   2.316 -0.3134 -0.1253  0.6098
 5846SOL    HW129000   0.244   0.559   2.253  0.8775  1.3026 -1.2499
 5846SOL    HW229001   0.175   0.619   2.363 -0.7986 -1.7424 -0.5989
 5847SOL     OW29002   1.282   2.607   8.789 -0.1229  0.1957  0.0005
 5847SOL    HW129003   1.309   2.550   8.717 -1.7371  0.1456 -0.5561
 5847SOL    HW229004   1.203   2.560   8.813  0.1490 -0.1888  0.1489
 5848SOL     OW29005   2.047   1.839   6.353 -0.0044  0.5556  0.1941
 5848SOL    HW129006   2.100   1.879   6.421 -0.1827  0.4200  0.4147
 5848SOL    HW229007   2.090   1.883   6.279 -1.2750  0.3234 -0.6838
 5849SOL     OW29008   1.429   0.817   3.381  0.4927 -0.1257  0.1925
 5849SOL    HW129009   1.430   0.732   3.426  1.2907 -0.0068  0.4078
 5849SOL    HW229010   1.458   0.790   3.294  2.2592  5.1511 -0.8312
 5850SOL     OW29011   2.217   0.706   8.956  0.6174 -0.2596 -0.2602
 5850SOL    HW129012   2.282   0.650   8.999  1.2006 -1.0556 -2.1480
 5850SOL    HW229013   2.270   0.783   8.973  2.3764 -1.8790  1.6133
 5851SOL     OW29014   0.308   1.039   8.874 -0.1738  0.0553 -0.3504
 5851SOL    HW129015   0.354   1.119   8.850  1.8775 -0.5335  1.6783
 5851SOL    HW229016   0.372   1.002   8.934  0.4081 -0.6088 -1.3711
 5852SOL     OW29017   2.713   0.381   3.309  0.1030 -0.2797 -0.5585
 5852SOL    HW129018   2.757   0.302   3.279  2.0600  0.9825 -0.9717
 5852SOL    HW229019   2.646   0.391   3.241  0.2274 -1.0043 -0.7792
 5853SOL     OW29020   4.239   4.536  14.389  0.3210  0.0295  0.2575
 5853SOL    HW129021   4.244   4.547  14.294 -1.5635 -1.3813  0.0006
 5853SOL    HW229022   4.218   4.443  14.396  1.6942 -0.4574 -2.0941
 5854SOL     OW29023   3.996   1.135   7.916 -0.3936 -0.2359  0.4563
 5854SOL    HW129024   3.928   1.098   7.972 -0.9973  1.3784  0.7937
 5854SOL    HW229025   4.066   1.070   7.926  1.2288  1.1327 -1.8657
 5855SOL     OW29026   0.501   2.559  16.408  0.7329 -0.0394 -0.5326
 5855SOL    HW129027   0.492   2.654  16.415  1.2801 -0.1418  1.5938
 5855SOL    HW229028   0.418   2.529  16.444  0.3368  2.0669  0.2913
 5856SOL     OW29029   1.764   1.849   6.183  0.0170 -0.8071 -0.2778
 5856SOL    HW129030   1.751   1.938   6.152  0.3339 -0.9385 -0.7813
 5856SOL    HW229031   1.848   1.857   6.229 -1.4172  2.9590  1.7297
 5857SOL     OW29032   2.307   0.071   6.716 -0.2963 -0.4527  0.1657
 5857SOL    HW129033   2.336   0.061   6.807  1.6987  0.9262 -0.3029
 5857SOL    HW229034   2.390   0.086   6.670 -0.8105 -1.9948 -1.2446
 5858SOL     OW29035   1.904   3.469  11.794 -0.3311 -0.2323  0.1222
 5858SOL    HW129036   1.883   3.380  11.764  3.9151 -0.5176 -2.0449
 5858SOL    HW229037   1.820   3.512  11.779 -0.6155 -1.0812 -0.7781
 5859SOL     OW29038   2.872   0.467   5.841 -0.0334  0.3646 -0.4304
 5859SOL    HW129039   2.884   0.382   5.798 -0.5217 -0.5957  1.2989
 5859SOL    HW229040   2.952   0.509   5.810 -0.3761  0.0086 -1.7834
 5860SOL     OW29041   3.346   4.567   3.619 -0.2354  0.0721 -0.5137
 5860SOL    HW129042   3.346   4.493   3.558  1.8677 -0.7073  0.4184
 5860SOL    HW229043   3.440   4.577   3.629 -0.3311 -0.9331  1.2967
 5861SOL     OW29044   3.564   4.303   3.557 -0.1167 -0.1240 -0.2479
 5861SOL    HW129045   3.637   4.311   3.618 -1.9816 -1.5593  2.1748
 5861SOL    HW229046   3.512   4.257   3.623  1.7883  0.5259  1.6760
 5862SOL     OW29047   2.688   4.552  15.394 -0.1928 -0.0742  0.2537
 5862SOL    HW129048   2.769   4.553  15.446  0.0496 -1.4175 -0.1021
 5862SOL    HW229049   2.646   4.628  15.433  0.5355  0.4097  0.1026
 5863SOL     OW29050   1.326   1.379  14.543 -0.5132  0.3777 -0.5351
 5863SOL    HW129051   1.278   1.454  14.508  0.3329  0.9882 -0.3895
 5863SOL    HW229052   1.372   1.426  14.612  0.2398  0.6157 -1.1912
 5864SOL     OW29053   2.069   0.842  16.098  0.3258 -0.0347 -0.2479
 5864SOL    HW129054   2.031   0.893  16.169  1.0842  0.3307 -0.0944
 5864SOL    HW229055   1.983   0.829  16.058 -0.5795 -0.5621  1.8784
 5865SOL     OW29056   2.935   3.593   0.555  0.5935 -0.5403  0.0801
 5865SOL    HW129057   2.983   3.555   0.481  1.2538 -0.4539  0.4602
 5865SOL    HW229058   2.850   3.580   0.513  0.2164  2.2840 -0.0876
 5866SOL     OW29059   3.422   1.457   2.587 -0.5246  0.1876 -0.1405
 5866SOL    HW129060   3.515   1.470   2.605  0.2806 -0.6579 -3.7151
 5866SOL    HW229061   3.409   1.534   2.531  0.5732 -1.1340 -2.2298
 5867SOL     OW29062   4.170   0.844   0.358  1.0152  0.0584 -0.3019
 5867SOL    HW129063   4.222   0.921   0.334  1.5567 -0.4982 -0.9371
 5867SOL    HW229064   4.094   0.858   0.301  0.8337  1.1977  0.2319
 5868SOL     OW29065   4.243   2.162   5.290  0.3658  0.0365  0.2608
 5868SOL    HW129066   4.267   2.255   5.288  2.5207 -0.5457 -0.9130
 5868SOL    HW229067   4.300   2.136   5.218 -1.5467  0.1748 -1.3087
 5869SOL     OW29068   3.063   4.673   5.899 -0.3658 -0.0225  0.3431
 5869SOL    HW129069   3.063   4.628   5.814 -0.0973 -0.0728  0.3684
 5869SOL    HW229070   3.031   4.616   5.969  1.2130 -1.4882 -0.1247
 5870SOL     OW29071   2.894   3.655   0.864  0.2846  0.2548 -0.2388
 5870SOL    HW129072   2.864   3.597   0.794 -0.0090 -0.7710  0.7263
 5870SOL    HW229073   2.954   3.599   0.914  0.6046  0.1426 -0.7475
 5871SOL     OW29074   2.620   0.812  12.255  0.0996 -0.4680  0.4986
 5871SOL    HW129075   2.706   0.842  12.285  0.1593 -0.3238  0.1804
 5871SOL    HW229076   2.584   0.886  12.206  0.3029 -0.7845 -0.1345
 5872SOL     OW29077   0.137   0.036   7.675 -0.0128  0.1103  0.5679
 5872SOL    HW129078   0.110   0.122   7.643 -2.9661 -0.9381  0.2173
 5872SOL    HW229079   0.090   4.701   7.617  0.2201 -1.2169  1.7168
 5873SOL     OW29080   2.146   3.712   6.657  0.6589  0.0339  0.1878
 5873SOL    HW129081   2.225   3.670   6.624 -1.1587 -1.1558 -2.6850
 5873SOL    HW229082   2.089   3.683   6.585  0.3698  1.9736 -0.3601
 5874SOL     OW29083   4.020   4.662   4.802  0.0950 -0.3457  0.0205
 5874SOL    HW129084   4.057   4.575   4.818  1.0899 -0.1933 -1.4845
 5874SOL    HW229085   4.095   4.709   4.767 -0.4018 -0.9481 -1.8773
 5875SOL     OW29086   0.474   1.099   3.707 -0.6147  0.1452  0.0320
 5875SOL    HW129087   0.562   1.134   3.718 -0.6347  0.3790 -0.5546
 5875SOL    HW229088   0.490   1.008   3.730 -3.5234 -0.5648 -0.7677
 5876SOL     OW29089   3.061   4.169  10.586 -0.1835 -0.5713 -0.8095
 5876SOL    HW129090   3.090   4.238  10.646 -0.1357 -0.4333 -0.9907
 5876SOL    HW229091   3.055   4.097  10.649 -3.1967  0.9606  0.6215
 5877SOL     OW29092   2.041   3.918  13.473 -0.6360  0.1492  0.0580
 5877SOL    HW129093   2.023   3.924  13.567  0.8418 -0.3220  0.3634
 5877SOL    HW229094   2.038   3.823  13.461 -1.3129  0.3493 -1.3734
 5878SOL     OW29095   4.584   3.253  16.558 -0.1594 -0.6332 -0.3030
 5878SOL    HW129096   4.560   3.309  16.632 -0.1658 -0.5058 -0.4026
 5878SOL    HW229097   4.548   3.299  16.483 -0.3425 -0.5296 -0.1494
 5879SOL     OW29098   4.102   3.041   6.999  0.0802 -0.1056  0.1630
 5879SOL    HW129099   4.149   3.013   6.921 -1.9505 -0.3483 -0.9736
 5879SOL    HW229100   4.014   3.024   6.965  0.3846  0.1207 -0.7385
 5880SOL     OW29101   4.451   4.555  10.753 -0.2676  0.0810  0.0025
 5880SOL    HW129102   4.367   4.601  10.751  0.1965  0.9642  1.0456
 5880SOL    HW229103   4.510   4.601  10.694 -0.7357 -0.1843 -0.6809
 5881SOL     OW29104   3.562   3.626   9.219  0.0394 -0.6176  0.2097
 5881SOL    HW129105   3.521   3.571   9.287  1.0542  0.5042  1.7274
 5881SOL    HW229106   3.634   3.667   9.266 -2.8846  1.3176  3.0812
 5882SOL     OW29107   1.306   0.434   2.204 -0.0533 -0.3461  0.6353
 5882SOL    HW129108   1.391   0.471   2.182 -0.9668  0.7136 -1.1072
 5882SOL    HW229109   1.341   0.360   2.254 -2.1367 -0.6906  1.5972
 5883SOL     OW29110   3.242   3.576  10.349 -0.0486 -0.0000  0.4857
 5883SOL    HW129111   3.262   3.591  10.442  0.3073  1.5320  0.1635
 5883SOL    HW229112   3.314   3.528  10.310 -0.8661 -0.7053 -0.1368
 5884SOL     OW29113   3.181   3.218   7.883  0.2969  0.0920 -0.2857
 5884SOL    HW129114   3.244   3.146   7.878 -1.5981 -1.5154 -0.8885
 5884SOL    HW229115   3.108   3.156   7.891 -0.2881  0.9047  0.6054
 5885SOL     OW29116   2.069   0.353   9.241  0.2099 -0.4626  0.3062
 5885SOL    HW129117   2.106   0.309   9.318 -0.6848 -0.6987  0.6113
 5885SOL    HW229118   1.978   0.354   9.272 -0.1042 -1.7800 -0.5352
 5886SOL     OW29119   2.461   3.949   8.010  0.1510  0.6817 -0.1220
 5886SOL    HW129120   2.392   3.906   8.061  0.9059 -0.0195  0.3097
 5886SOL    HW229121   2.438   3.938   7.918 -1.4394  1.0946  0.2330
 5887SOL     OW29122   1.963   2.931   0.268 -0.7984 -0.3591  0.0995
 5887SOL    HW129123   1.985   2.856   0.324  0.7564  1.6486  2.1749
 5887SOL    HW229124   2.010   2.909   0.188 -0.2327  0.2216  0.2709
 5888SOL     OW29125   4.443   2.231  16.021  0.2027  0.1378  0.2454
 5888SOL    HW129126   4.386   2.299  15.985 -0.6887 -0.0700  1.2580
 5888SOL    HW229127   4.483   2.216  15.935 -1.3947 -0.0249 -0.4683
 5889SOL     OW29128   2.620   2.210   6.977 -0.4545 -0.3083 -0.1457
 5889SOL    HW129129   2.617   2.277   6.909  1.0604  2.4807  2.5133
 5889SOL    HW229130   2.642   2.259   7.056  0.1194  0.5170 -0.8251
 5890SOL     OW29131   2.027   1.637  10.411 -0.8840 -0.0630  0.0872
 5890SOL    HW129132   1.967   1.562  10.416 -0.7088 -0.2655 -0.9819
 5890SOL    HW229133   2.040   1.663  10.503  0.2240  2.8302 -0.8864
 5891SOL     OW29134   2.273   1.099   8.571 -0.7908 -0.5486 -0.2026
 5891SOL    HW129135   2.199   1.065   8.521 -0.9945 -0.8725  0.3119
 5891SOL    HW229136   2.219   1.146   8.634  0.2027 -1.7165  1.5460
 5892SOL     OW29137   1.407   0.833   5.058  0.5939  0.3760 -0.0080
 5892SOL    HW129138   1.438   0.768   5.120  1.4775  1.6191  0.8374
 5892SOL    HW229139   1.405   0.776   4.980 -0.1048 -0.4759  0.6283
 5893SOL     OW29140   1.456   0.469  16.044 -0.2556 -0.2250  0.6790
 5893SOL    HW129141   1.428   0.509  15.962  0.2458  0.7608  0.9879
 5893SOL    HW229142   1.401   0.516  16.106  0.0102  0.6880  0.2196
 5894SOL     OW29143   1.305   0.427   8.817 -0.0133 -0.0225 -0.1262
 5894SOL    HW129144   1.258   0.420   8.734  1.3792 -0.8448 -0.8466
 5894SOL    HW229145   1.269   0.356   8.869  1.7017 -0.3639  0.5932
 5895SOL     OW29146   2.747   0.665   9.250 -0.8491 -1.0003  0.2070
 5895SOL    HW129147   2.746   0.664   9.346  1.5645 -1.5263  0.2329
 5895SOL    HW229148   2.785   0.751   9.232 -2.9465  0.0476  0.7933
 5896SOL     OW29149   2.904   3.205   4.165 -0.6182 -0.4501  1.1223
 5896SOL    HW129150   2.901   3.212   4.070  0.0081 -1.6852  1.0025
 5896SOL    HW229151   2.850   3.282   4.182 -1.8943 -1.0829 -0.0656
 5897SOL     OW29152   4.685   2.095   9.354  0.0924 -0.0195 -0.2237
 5897SOL    HW129153   0.044   2.048   9.343 -0.1391 -0.2230 -1.1140
 5897SOL    HW229154   4.704   2.131   9.441  1.0297 -0.5869 -0.1987
 5898SOL     OW29155   1.666   0.086   6.640 -0.3693  0.2430 -0.3360
 5898SOL    HW129156   1.752   0.079   6.599 -0.5141  3.9333 -1.2105
 5898SOL    HW229157   1.681   0.152   6.707 -3.2397  0.4266  0.1558
 5899SOL     OW29158   1.399   0.928  10.597  0.4183  0.2070  0.6494
 5899SOL    HW129159   1.435   1.011  10.564  0.4730 -0.4598 -0.9463
 5899SOL    HW229160   1.484   0.892  10.620  0.7752 -0.3747 -1.5969
 5900SOL     OW29161   2.932   1.913   4.443 -0.3338 -0.6197 -0.0612
 5900SOL    HW129162   2.849   1.924   4.489 -0.4895  0.4479 -0.5939
 5900SOL    HW229163   2.988   1.981   4.480  0.9493 -0.3019 -2.5419
 5901SOL     OW29164   4.407   0.685   2.481 -0.2985 -0.0920 -0.2571
 5901SOL    HW129165   4.377   0.775   2.493  1.7642  0.5979 -0.3038
 5901SOL    HW229166   4.473   0.670   2.548 -0.5499  1.8370  0.4048
 5902SOL     OW29167   1.412   3.315  11.076  0.4130 -0.1261 -0.2089
 5902SOL    HW129168   1.475   3.384  11.098 -2.3555  2.0845  0.6990
 5902SOL    HW229169   1.371   3.374  11.014 -1.6478 -1.5438 -0.1823
 5903SOL     OW29170   3.464   1.384   2.329  0.8299  0.0502 -0.2696
 5903SOL    HW129171   3.473   1.472   2.292  0.1994 -0.6192 -2.0208
 5903SOL    HW229172   3.441   1.396   2.421 -0.0137  1.1552 -0.6252
 5904SOL     OW29173   1.564   1.656   4.106 -0.0885  0.1354  0.3665
 5904SOL    HW129174   1.521   1.673   4.190  2.2138 -0.0967  1.6169
 5904SOL    HW229175   1.649   1.620   4.132 -0.3947 -0.7954  0.0855
 5905SOL     OW29176   3.425   2.683   7.823 -0.3210  0.5922 -0.1114
 5905SOL    HW129177   3.354   2.687   7.760  1.3878  0.6537 -2.0400
 5905SOL    HW229178   3.419   2.590   7.843  2.3748 -0.3297 -3.4733
 5906SOL     OW29179   3.929   3.241   7.981  0.4568 -0.3415 -0.2323
 5906SOL    HW129180   4.010   3.222   7.933  0.8255  1.5956 -0.3943
 5906SOL    HW229181   3.939   3.327   8.024  2.0076 -1.1484  1.0587
 5907SOL     OW29182   0.270   3.333   2.103 -0.0554  0.1040 -0.5151
 5907SOL    HW129183   0.185   3.318   2.063 -1.0250 -0.2041  1.6506
 5907SOL    HW229184   0.311   3.248   2.116  0.3535  0.9531  3.6535
 5908SOL     OW29185   0.975   0.645  14.389  0.5861  0.2553  0.6304
 5908SOL    HW129186   0.898   0.685  14.429 -0.2804 -0.4253 -0.3508
 5908SOL    HW229187   1.040   0.708  14.420 -1.2282  2.6966 -0.4981
 5909SOL     OW29188   0.751   0.975   3.712  0.3060  0.1932  0.1844
 5909SOL    HW129189   0.789   0.921   3.643  1.3680  2.4401 -0.9956
 5909SOL    HW229190   0.771   1.063   3.680 -0.2206 -0.0203 -0.7315
 5910SOL     OW29191   3.728   3.270   3.564  0.1978 -0.0722 -0.3823
 5910SOL    HW129192   3.823   3.260   3.559  0.5140  2.9559 -0.3836
 5910SOL    HW229193   3.717   3.356   3.524 -1.6159 -0.1567 -0.0470
 5911SOL     OW29194   3.370   1.657   3.404  0.9870  0.7018  0.0304
 5911SOL    HW129195   3.353   1.711   3.481  0.3415  1.2119 -0.4747
 5911SOL    HW229196   3.371   1.737   3.352  1.9841  1.0405  0.5609
 5912SOL     OW29197   2.824   0.338   3.776 -0.3644 -0.1318  0.2740
 5912SOL    HW129198   2.809   0.359   3.684 -1.5984  1.1576  0.7836
 5912SOL    HW229199   2.739   0.296   3.794 -0.5702  0.4340  0.6169
 5913SOL     OW29200   1.921   0.533   7.404 -0.0291 -0.3467  0.4420
 5913SOL    HW129201   2.002   0.520   7.356  0.1168  0.3550  0.4976
 5913SOL    HW229202   1.866   0.571   7.336  2.1773  0.6637 -0.7600
 5914SOL     OW29203   1.019   0.958   6.918 -0.5910  0.0346  0.1958
 5914SOL    HW129204   0.959   1.019   6.874 -0.4629  1.2812  1.7834
 5914SOL    HW229205   0.992   0.943   7.008  0.3242 -1.5144  0.2050
 5915SOL     OW29206   1.687   3.997  12.828 -0.2784  0.0751  0.1418
 5915SOL    HW129207   1.697   3.983  12.734  1.7001  0.8343  0.2372
 5915SOL    HW229208   1.767   3.961  12.868 -1.4583 -1.9594  0.6751
 5916SOL     OW29209   1.695   4.690   1.140  0.5088  0.0831 -0.2592
 5916SOL    HW129210   1.623   4.629   1.156 -0.2105  0.8321 -0.7001
 5916SOL    HW229211   1.720   4.664   1.052 -2.5094 -1.5993 -0.5949
 5917SOL     OW29212   0.369   0.017  15.651  0.7708 -0.0320  0.8008
 5917SOL    HW129213   0.385   4.689  15.730  0.2729  0.7395  1.4144
 5917SOL    HW229214   0.277   0.002  15.630  1.5601 -2.5440 -0.8896
 5918SOL     OW29215   0.719   0.517   5.959 -0.2135 -0.2874  0.1687
 5918SOL    HW129216   0.690   0.426   5.955  0.2843 -0.4577  0.3763
 5918SOL    HW229217   0.690   0.549   5.874  0.9767 -0.6353 -0.3605
 5919SOL     OW29218   0.375   4.133  17.611  0.2516 -0.0558  0.2135
 5919SOL    HW129219   0.425   4.211  17.587 -2.1575  0.9984 -1.2192
 5919SOL    HW229220   0.313   4.124  17.539  0.2268  0.4403  0.1771
 5920SOL     OW29221   3.594   4.335   9.638  0.1030 -0.0605  0.5499
 5920SOL    HW129222   3.649   4.280   9.694 -1.1155 -2.1280 -0.2680
 5920SOL    HW229223   3.546   4.377   9.709 -1.0320  0.7901 -0.7270
 5921SOL     OW29224   1.576   2.823   4.312  0.4569  0.0421  0.6253
 5921SOL    HW129225   1.513   2.880   4.267 -2.9805 -2.9706  1.6683
 5921SOL    HW229226   1.634   2.811   4.237  1.3539  0.9101  1.1812
 5922SOL     OW29227   0.744   3.416   7.710  0.5683  0.2008 -0.2366
 5922SOL    HW129228   0.761   3.441   7.620  0.2426  0.9967 -0.0731
 5922SOL    HW229229   0.832   3.414   7.749  0.2766  0.2306  0.4290
 5923SOL     OW29230   2.680   3.392   4.566  0.1127  0.2400  0.0718
 5923SOL    HW129231   2.767   3.410   4.602 -0.8852  1.9278  1.6713
 5923SOL    HW229232   2.687   3.429   4.478 -0.7282 -1.3660 -0.6770
 5924SOL     OW29233   4.155   4.444   5.833  0.3964  0.2964 -0.3638
 5924SOL    HW129234   4.099   4.482   5.900  1.1070  1.5576 -0.4863
 5924SOL    HW229235   4.141   4.493   5.752  1.1925  1.2819  0.0936
 5925SOL     OW29236   1.138   1.316   5.243 -0.3486 -0.5823 -0.4597
 5925SOL    HW129237   1.131   1.272   5.327  3.3126 -0.7262 -0.2264
 5925SOL    HW229238   1.152   1.244   5.182  3.3178  1.6892 -2.3265
 5926SOL     OW29239   1.951   2.836  12.496 -0.1278  0.1987  0.3051
 5926SOL    HW129240   1.925   2.882  12.417 -1.7390 -1.8102 -0.3456
 5926SOL    HW229241   1.865   2.812  12.530 -0.7078 -0.7756 -1.8572
 5927SOL     OW29242   1.862   1.342   3.137  0.3610 -0.1673  0.3827
 5927SOL    HW129243   1.849   1.399   3.062  0.1077 -1.2948 -0.4258
 5927SOL    HW229244   1.954   1.316   3.130  1.0835  1.4195  3.6232
 5928SOL     OW29245   4.645   1.857   1.687  0.2019  0.2660 -0.6612
 5928SOL    HW129246   4.678   1.945   1.671 -0.4601  0.2115 -2.3498
 5928SOL    HW229247   4.695   1.810   1.620 -1.5030  1.0391 -2.4746
 5929SOL     OW29248   4.583   0.198   2.871  0.0231  0.6416 -0.1998
 5929SOL    HW129249   4.586   0.117   2.819  1.2322 -1.3696  2.9624
 5929SOL    HW229250   4.488   0.204   2.885  0.1845 -0.7099  1.4906
 5930SOL     OW29251   1.302   0.869  13.387  0.0231  0.2783 -0.0776
 5930SOL    HW129252   1.269   0.959  13.382 -2.9287 -0.9168 -1.6098
 5930SOL    HW229253   1.362   0.869  13.313  0.4129  0.5490  0.2354
 5931SOL     OW29254   0.499   3.354   7.533 -0.0338  0.1811  0.3301
 5931SOL    HW129255   0.535   3.265   7.537  0.6739  0.4678  0.1630
 5931SOL    HW229256   0.536   3.385   7.615  0.0056 -2.1284  1.1760
 5932SOL     OW29257   4.534   2.033  13.840 -0.7836  0.0709 -0.3253
 5932SOL    HW129258   4.450   2.075  13.860 -1.4040 -0.9935 -0.7149
 5932SOL    HW229259   4.503   1.944  13.825 -0.5363 -0.3493  1.7404
 5933SOL     OW29260   3.353   2.193   5.745  0.0679  0.0723 -0.4555
 5933SOL    HW129261   3.299   2.257   5.791 -0.8874  0.5228 -2.1883
 5933SOL    HW229262   3.367   2.227   5.656  0.6569 -0.8783 -0.7281
 5934SOL     OW29263   4.603   4.579  10.192 -0.2792 -0.3554  0.0754
 5934SOL    HW129264   4.579   4.672  10.194  0.0887 -0.2661  0.1735
 5934SOL    HW229265   4.523   4.539  10.228 -1.3057 -0.7195 -2.6362
 5935SOL     OW29266   3.320   0.712   8.035  0.1583  0.0612  0.1012
 5935SOL    HW129267   3.298   0.655   7.961  0.6704  0.5768 -0.4528
 5935SOL    HW229268   3.260   0.682   8.103  0.8590  1.4301  1.3248
 5936SOL     OW29269   1.130   4.588   4.564 -0.2605  0.7743 -0.5590
 5936SOL    HW129270   1.148   4.494   4.572 -0.6006  0.8170  0.6929
 5936SOL    HW229271   1.053   4.601   4.619 -1.0444 -1.0456 -1.2250
 5937SOL     OW29272   2.361   1.950   3.889  0.1703  0.1197  0.5571
 5937SOL    HW129273   2.383   1.883   3.825 -0.7621 -2.1238  2.6082
 5937SOL    HW229274   2.393   2.028   3.843  0.7564 -0.3950  0.0992
 5938SOL     OW29275   4.542   1.379  11.425  0.0846 -0.4003  0.1022
 5938SOL    HW129276   4.549   1.293  11.384  0.9266 -0.4964  0.4545
 5938SOL    HW229277   4.620   1.378  11.479  0.3205  0.7530 -0.2252
 5939SOL     OW29278   3.517   3.771   8.696  0.2771 -0.3281 -0.1887
 5939SOL    HW129279   3.495   3.856   8.735 -1.6027 -0.6902 -0.4651
 5939SOL    HW229280   3.448   3.726   8.745 -1.2532  1.7295 -0.4659
 5940SOL     OW29281   0.883   2.577   9.107  0.1305 -0.3204 -0.3997
 5940SOL    HW129282   0.945   2.522   9.154 -1.1562  0.5268  2.2554
 5940SOL    HW229283   0.856   2.639   9.175 -3.0655 -2.0011 -0.1184
 5941SOL     OW29284   3.232   4.680  15.457 -0.0851 -0.0319 -0.6372
 5941SOL    HW129285   3.210   4.641  15.372  1.1644 -1.0362 -0.4945
 5941SOL    HW229286   3.176   4.637  15.522 -0.0797  0.6139 -0.2136
 5942SOL     OW29287   0.250   0.815   8.004 -0.3435  0.2483 -0.3513
 5942SOL    HW129288   0.226   0.809   8.097  2.8726 -1.8417  0.3499
 5942SOL    HW229289   0.299   0.733   7.998 -0.4867  0.2834 -1.7802
 5943SOL     OW29290   1.160   0.803   6.494  0.7016 -0.4466  0.1113
 5943SOL    HW129291   1.191   0.873   6.551  1.7581 -0.3505 -0.5728
 5943SOL    HW229292   1.065   0.804   6.506  0.6114 -0.2354 -0.6081
 5944SOL     OW29293   0.331   0.579   6.080  0.3765  0.4146 -0.0114
 5944SOL    HW129294   0.317   0.582   5.985  1.3333 -2.1018 -0.2279
 5944SOL    HW229295   0.351   0.487   6.094  0.2343  0.5225  0.9212
 5945SOL     OW29296   0.613   4.010   3.693  0.7274  0.1903  0.2513
 5945SOL    HW129297   0.672   4.025   3.768 -0.4558  2.3752  0.7555
 5945SOL    HW229298   0.656   4.061   3.624 -3.8831  0.9196 -2.0698
 5946SOL     OW29299   0.613   2.044   5.370 -0.0214 -0.2006 -0.2784
 5946SOL    HW129300   0.668   2.085   5.304  1.2043  2.0320  2.1426
 5946SOL    HW229301   0.678   2.017   5.435 -0.7464 -0.7336  0.2272
 5947SOL     OW29302   4.621   4.152   6.881  0.0361 -0.2609 -0.8697
 5947SOL    HW129303   4.534   4.184   6.857  0.5415  1.8573  0.0504
 5947SOL    HW229304   4.600   4.137   6.973 -0.1824 -0.1003 -0.8927
 5948SOL     OW29305   1.282   1.145  17.595  0.2149 -0.4171  0.3252
 5948SOL    HW129306   1.334   1.140  17.515 -0.4879  1.0615 -0.2225
 5948SOL    HW229307   1.278   1.235  17.627  1.1602 -1.5585  3.6333
 5949SOL     OW29308   1.275   2.261   7.058 -0.1023  0.2803  0.1539
 5949SOL    HW129309   1.321   2.188   7.099  2.0675  0.2428 -2.3211
 5949SOL    HW229310   1.256   2.308   7.139 -0.5914  0.5372 -0.1101
 5950SOL     OW29311   1.012   3.516   1.250 -0.3699  0.1419 -0.4011
 5950SOL    HW129312   1.009   3.595   1.195  0.9985  0.6236  0.2171
 5950SOL    HW229313   1.044   3.454   1.184  1.3430  0.7219 -0.1302
 5951SOL     OW29314   2.948   3.169   4.996 -0.0791 -0.2870  0.5780
 5951SOL    HW129315   2.945   3.106   5.068 -0.0498  0.3349  1.1259
 5951SOL    HW229316   3.026   3.216   5.027 -0.3148 -1.6224  3.2280
 5952SOL     OW29317   0.026   4.252   9.702  0.5601  0.1712  0.9567
 5952SOL    HW129318   0.072   4.335   9.694  2.4257 -0.6894  2.7483
 5952SOL    HW229319   0.098   4.194   9.678  2.4479  2.7677  0.3561
 5953SOL     OW29320   1.694   4.607   8.300  0.2383 -0.5315 -0.1140
 5953SOL    HW129321   1.774   4.576   8.343  0.3535 -1.1354 -0.7728
 5953SOL    HW229322   1.726   4.641   8.217  0.3890 -0.9689 -0.2314
 5954SOL     OW29323   1.026   2.777  11.547  0.1381 -0.1906  0.2218
 5954SOL    HW129324   1.047   2.751  11.636  0.7882  1.4951  0.5574
 5954SOL    HW229325   0.981   2.697  11.521  0.1816 -0.2649  0.3796
 5955SOL     OW29326   3.667   4.625   3.612 -0.0721 -0.6402  0.6050
 5955SOL    HW129327   3.745   4.662   3.571 -0.4258 -1.8499 -1.1756
 5955SOL    HW229328   3.699   4.536   3.633  1.9648 -0.2365 -0.7496
 5956SOL     OW29329   1.349   0.190   8.126  0.4004  0.5502  0.0284
 5956SOL    HW129330   1.263   0.200   8.168 -1.9100 -0.8843 -4.3834
 5956SOL    HW229331   1.340   0.270   8.074  0.7959  0.8568  0.4368
 5957SOL     OW29332   4.562   1.251   6.574  0.6839  0.1903  0.1089
 5957SOL    HW129333   4.578   1.265   6.667 -1.0619  1.8307  0.1491
 5957SOL    HW229334   4.503   1.177   6.557  1.2479 -0.0839 -0.6998
 5958SOL     OW29335   4.661   2.026   3.946  0.0005 -0.1765  0.3288
 5958SOL    HW129336   4.575   1.996   3.973 -1.3592  1.4178 -2.1850
 5958SOL    HW229337   4.710   1.947   3.968 -0.1107 -0.8589 -1.8996
 5959SOL     OW29338   3.036   4.532   7.564  0.1654  0.0754  0.1588
 5959SOL    HW129339   3.098   4.495   7.626 -3.6496 -1.5811  2.9535
 5959SOL    HW229340   2.956   4.520   7.615  2.1979 -0.6382  3.1499
 5960SOL     OW29341   1.375   1.560   3.021  0.3072 -0.4831 -0.7686
 5960SOL    HW129342   1.452   1.588   3.070 -0.3556 -0.3103  0.1749
 5960SOL    HW229343   1.327   1.508   3.086 -1.5671 -0.3642 -2.0346
 5961SOL     OW29344   0.486   4.358  15.871  0.6971  0.2864  0.0645
 5961SOL    HW129345   0.415   4.294  15.875  0.6509  0.1161 -3.1983
 5961SOL    HW229346   0.470   4.419  15.943 -1.5387  0.8857 -0.9325
 5962SOL     OW29347   0.771   2.173  12.968 -0.0640 -0.4384 -0.1360
 5962SOL    HW129348   0.765   2.084  12.933 -0.4395  0.6434 -2.8724
 5962SOL    HW229349   0.805   2.223  12.894 -0.6008  1.2785  0.7549
 5963SOL     OW29350   0.752   2.660   8.372  0.2631 -0.0302 -0.2509
 5963SOL    HW129351   0.709   2.738   8.337 -0.2736  0.1364  0.7999
 5963SOL    HW229352   0.846   2.675   8.359  0.4284 -0.2539  0.7082
 5964SOL     OW29353   4.550   3.794   9.258 -0.2147 -0.1821  0.3184
 5964SOL    HW129354   4.523   3.703   9.245  1.7697 -1.0892  2.6191
 5964SOL    HW229355   4.612   3.803   9.186 -2.8334 -1.5745 -2.1120
 5965SOL     OW29356   0.712   0.097   7.682 -0.4652  0.6411 -0.6802
 5965SOL    HW129357   0.715   0.145   7.764  0.4750  0.0129 -0.3417
 5965SOL    HW229358   0.806   0.094   7.662 -0.4831 -1.5091 -0.4195
 5966SOL     OW29359   3.718   0.942   1.195  0.3257  0.1697  0.6684
 5966SOL    HW129360   3.721   1.015   1.258 -2.6350  0.3664  0.5851
 5966SOL    HW229361   3.796   0.966   1.145 -0.7894 -2.5440 -2.3722
 5967SOL     OW29362   4.708   0.504   5.774 -0.4549  0.0733 -1.1628
 5967SOL    HW129363   0.075   0.522   5.750  0.4899 -1.9385  0.9006
 5967SOL    HW229364   4.715   0.418   5.816 -1.8443  0.0036 -1.0892
 5968SOL     OW29365   1.751   1.875   8.640 -0.1063  0.3415  0.4991
 5968SOL    HW129366   1.721   1.863   8.550  1.3933  0.0892  0.0336
 5968SOL    HW229367   1.780   1.790   8.671  0.8187  0.5669  0.2601
 5969SOL     OW29368   0.542   2.906   5.123 -0.2765  0.0666  0.7002
 5969SOL    HW129369   0.564   2.866   5.039 -2.2936 -0.9518  0.6758
 5969SOL    HW229370   0.481   2.978   5.104  1.7821  1.3887 -0.9799
 5970SOL     OW29371   0.846   1.799   9.570  0.3814  0.0529 -0.3385
 5970SOL    HW129372   0.810   1.833   9.651 -0.3920 -0.7825 -0.3190
 5970SOL    HW229373   0.857   1.878   9.518 -0.3180  0.4623  0.1350
 5971SOL     OW29374   1.142   0.638  15.084  0.0744 -0.2904 -0.1668
 5971SOL    HW129375   1.225   0.685  15.095  0.0336 -0.4647  0.9114
 5971SOL    HW229376   1.097   0.703  15.030 -1.2048 -0.7123  0.3872
 5972SOL     OW29377   3.857   0.945  16.225 -0.5527  0.4656  0.6452
 5972SOL    HW129378   3.771   0.905  16.239 -0.1993 -0.5081 -0.0106
 5972SOL    HW229379   3.852   1.037  16.251  0.2322  0.9756 -0.9915
 5973SOL     OW29380   0.840   3.525  16.290  0.1532  0.0099 -0.8096
 5973SOL    HW129381   0.821   3.593  16.355  1.6272 -0.5410  0.2122
 5973SOL    HW229382   0.747   3.506  16.280  0.4864 -2.5210  0.8242
 5974SOL     OW29383   4.704   0.868   5.392  0.2183 -0.3497  0.1711
 5974SOL    HW129384   4.614   0.897   5.373  0.1218 -1.0743 -0.4992
 5974SOL    HW229385   0.008   0.942   5.445  0.3221 -1.5821  1.8344
 5975SOL     OW29386   3.159   0.825   9.017 -0.8510 -0.0981 -0.0897
 5975SOL    HW129387   3.092   0.872   8.967 -2.8732 -1.8292  0.9513
 5975SOL    HW229388   3.158   0.746   8.962  0.0624  0.0186 -0.2727
 5976SOL     OW29389   0.183   0.612   1.903 -0.5393 -0.5547 -0.3678
 5976SOL    HW129390   0.106   0.645   1.858 -1.1970 -1.1962  0.2812
 5976SOL    HW229391   0.235   0.579   1.830 -0.6940 -0.4755 -0.5149
 5977SOL     OW29392   0.225   3.470  11.684  0.1472 -0.0344 -0.2874
 5977SOL    HW129393   0.262   3.395  11.637  1.2608  0.5625 -0.3688
 5977SOL    HW229394   0.300   3.528  11.694 -0.2022  0.4060 -0.2521
 5978SOL     OW29395   1.622   3.303  10.819 -0.0835 -0.1099  0.0578
 5978SOL    HW129396   1.563   3.227  10.824  1.1313 -1.0059  0.8216
 5978SOL    HW229397   1.571   3.382  10.836 -1.5042 -1.3089  1.4206
 5979SOL     OW29398   2.234   3.999  15.827 -0.2819 -0.1008 -0.6855
 5979SOL    HW129399   2.206   3.908  15.838  4.8033 -1.9614 -3.0864
 5979SOL    HW229400   2.242   4.007  15.922 -0.1204 -0.7593 -0.6473
 5980SOL     OW29401   3.996   0.041   9.715 -0.0567 -0.2967 -0.2497
 5980SOL    HW129402   4.068   4.708   9.744 -0.6783 -0.3140  1.2590
 5980SOL    HW229403   3.960   0.055   9.802 -2.6082 -1.9326 -1.0248
 5981SOL     OW29404   1.680   1.660   4.937 -0.4130  0.3747 -0.1739
 5981SOL    HW129405   1.640   1.619   5.013  0.1942 -1.1112 -0.6501
 5981SOL    HW229406   1.636   1.745   4.930 -1.0252 -0.2569 -3.8980
 5982SOL     OW29407   2.567   2.849   0.208  0.5041 -0.3868 -0.0874
 5982SOL    HW129408   2.482   2.881   0.178  0.6483 -1.5125 -1.7231
 5982SOL    HW229409   2.611   2.929   0.238  0.6744 -1.2894  2.0446
 5983SOL     OW29410   3.883   4.325   4.826  0.0419 -0.5054 -0.4214
 5983SOL    HW129411   3.807   4.266   4.831  1.8345 -2.5475  3.0136
 5983SOL    HW229412   3.948   4.296   4.890  1.2780  2.9748 -0.1260
 5984SOL     OW29413   2.237   2.129   5.969  0.1317 -0.0935 -0.3381
 5984SOL    HW129414   2.198   2.102   5.886  1.1627 -0.2114 -0.7896
 5984SOL    HW229415   2.216   2.222   5.968  1.8372  0.2915 -0.9108
 5985SOL     OW29416   1.457   2.942   7.223 -0.1988  0.0682 -0.3033
 5985SOL    HW129417   1.373   2.956   7.267 -0.4573 -1.3136 -0.3751
 5985SOL    HW229418   1.512   2.924   7.299 -0.6583 -0.4599 -0.1037
 5986SOL     OW29419   0.136   3.198   0.285  0.2512  0.1830  0.3937
 5986SOL    HW129420   0.047   3.164   0.293  0.8718 -0.8744  2.8027
 5986SOL    HW229421   0.127   3.264   0.217 -0.1363 -0.3439 -0.0693
 5987SOL     OW29422   2.223   2.799  17.180  0.2974 -0.6077  0.0480
 5987SOL    HW129423   2.315   2.796  17.154  0.1819 -1.5141 -0.2740
 5987SOL    HW229424   2.187   2.866  17.123  3.2530  1.3357  0.4633
 5988SOL     OW29425   2.976   0.635   8.121  0.1276 -0.7310  0.5405
 5988SOL    HW129426   2.889   0.596   8.110  0.0735 -0.4678  0.0325
 5988SOL    HW229427   3.001   0.648   8.029 -0.7465  0.3952  0.4605
 5989SOL     OW29428   2.867   2.446   8.947  0.3680 -0.5522 -0.0298
 5989SOL    HW129429   2.871   2.372   9.007  0.1713  0.6274  1.4537
 5989SOL    HW229430   2.931   2.502   8.991  0.3397  0.9198 -1.8389
 5990SOL     OW29431   2.247   4.234   3.928 -0.3639 -0.3589  0.1031
 5990SOL    HW129432   2.155   4.224   3.902 -0.3905  1.0435 -0.3431
 5990SOL    HW229433   2.283   4.155   3.889  1.3089 -0.1858  1.3278
 5991SOL     OW29434   2.716   1.776  11.996  0.3591 -0.7954  0.1385
 5991SOL    HW129435   2.668   1.845  11.950  1.7386  0.3218  0.3485
 5991SOL    HW229436   2.769   1.757  11.918 -0.8348  0.9107 -1.0955
 5992SOL     OW29437   4.698   0.909   2.447  0.8278  0.1941 -0.8021
 5992SOL    HW129438   4.718   0.997   2.413  1.2108  0.3659 -0.1195
 5992SOL    HW229439   4.609   0.934   2.472  1.7999  3.2106 -0.3583
 5993SOL     OW29440   3.296   0.385  15.142  0.4710 -0.0143 -0.3239
 5993SOL    HW129441   3.342   0.377  15.226  0.5423  0.1047 -0.3516
 5993SOL    HW229442   3.364   0.369  15.076  1.2415 -0.5388  0.5901
 5994SOL     OW29443   1.927   4.412   0.117  0.0491  0.2640 -0.6065
 5994SOL    HW129444   1.878   4.374   0.044 -1.1960  0.2223  0.2510
 5994SOL    HW229445   1.890   4.499   0.129 -0.2788 -0.0018  0.2609
 5995SOL     OW29446   0.731   4.576   9.848  0.1783  0.0532  0.1456
 5995SOL    HW129447   0.723   4.671   9.859 -1.2907  0.1436 -1.7664
 5995SOL    HW229448   0.801   4.576   9.782 -1.8660  0.4888 -2.0342
 5996SOL     OW29449   2.276   3.396   6.743 -0.4919 -0.6169  0.5179
 5996SOL    HW129450   2.253   3.454   6.816  0.2742  0.4035 -0.0429
 5996SOL    HW229451   2.267   3.315   6.793  0.6326 -1.8648 -1.3155
 5997SOL     OW29452   2.551   4.348   4.854 -0.1662  0.4708  0.0459
 5997SOL    HW129453   2.483   4.282   4.841  0.2236  0.1866 -0.5575
 5997SOL    HW229454   2.512   4.423   4.809 -1.6303  0.6260  1.5944
 5998SOL     OW29455   3.560   2.619   3.590 -0.4447 -0.5799 -0.0340
 5998SOL    HW129456   3.540   2.638   3.682 -1.2008 -0.2925 -0.2614
 5998SOL    HW229457   3.653   2.598   3.602 -0.3266  1.3869  2.5150
 5999SOL     OW29458   4.297   3.695   3.252  0.3209 -0.0584  0.0850
 5999SOL    HW129459   4.356   3.669   3.181  0.6290  3.3077 -0.8794
 5999SOL    HW229460   4.230   3.738   3.199  0.9914  1.6728  0.6354
 6000SOL     OW29461   0.985   2.955   4.748 -0.6350 -0.3707  0.2594
 6000SOL    HW129462   0.944   3.006   4.678 -0.4764  1.2685  1.3819
 6000SOL    HW229463   0.935   2.982   4.825  0.8411  1.7582  0.4584
 6001SOL     OW29464   4.577   4.137   8.676  0.0083  0.1147  0.8302
 6001SOL    HW129465   4.527   4.064   8.639 -0.9613  1.7461 -1.0903
 6001SOL    HW229466   4.527   4.170   8.752 -1.9517  1.9127 -1.2216
 6002SOL     OW29467   1.433   3.482  13.397 -0.0433 -0.4555 -0.1074
 6002SOL    HW129468   1.489   3.496  13.321  1.2164 -1.6426  0.6067
 6002SOL    HW229469   1.366   3.550  13.388  0.5187  0.1577  0.3689
 6003SOL     OW29470   1.219   3.872   2.586 -0.7096  0.0729  0.5497
 6003SOL    HW129471   1.198   3.964   2.569 -1.7339  0.0689  1.7430
 6003SOL    HW229472   1.305   3.882   2.626 -0.7019 -1.3863  0.8846
 6004SOL     OW29473   4.502   0.971   4.498 -0.1148  0.5035 -0.3074
 6004SOL    HW129474   4.422   0.935   4.536 -0.1243 -0.0926 -0.8863
 6004SOL    HW229475   4.525   0.901   4.437  0.6753 -1.1470  1.8995
 6005SOL     OW29476   1.331   3.078   6.003 -0.8766 -0.5347 -0.1609
 6005SOL    HW129477   1.357   3.159   6.045 -0.5207 -1.5265  1.5286
 6005SOL    HW229478   1.275   3.038   6.069  2.2061 -3.0991  0.8948
 6006SOL     OW29479   1.978   1.016  16.278 -0.1576 -0.0915 -0.1199
 6006SOL    HW129480   2.046   1.076  16.311 -0.1990 -0.0026 -0.1962
 6006SOL    HW229481   1.919   1.077  16.235 -0.0240  0.4680  0.4829
 6007SOL     OW29482   0.432   2.720   5.322  0.0980 -0.6793  0.3083
 6007SOL    HW129483   0.436   2.737   5.228 -1.1547  0.0579  0.3855
 6007SOL    HW229484   0.459   2.629   5.333 -0.2852 -0.6003  1.8104
 6008SOL     OW29485   3.758   0.139   1.171  0.0728  0.0751 -0.2307
 6008SOL    HW129486   3.817   0.123   1.245  2.7477  3.1128 -1.7020
 6008SOL    HW229487   3.799   0.209   1.120  2.1850 -0.4768  0.7111
 6009SOL     OW29488   2.268   2.042   7.117 -0.2646 -0.1317 -0.4441
 6009SOL    HW129489   2.265   2.133   7.146  0.8447  0.1755 -1.3166
 6009SOL    HW229490   2.284   2.064   7.025 -0.4563 -1.6936 -0.8438
 6010SOL     OW29491   0.991   0.105   9.834 -0.0978  0.2928  0.2528
 6010SOL    HW129492   1.023   0.165   9.901 -1.1222 -0.9998  1.9190
 6010SOL    HW229493   0.899   0.102   9.859 -0.2042 -0.8548 -0.2533
 6011SOL     OW29494   1.480   2.300   3.072 -0.0902 -0.2025  0.4018
 6011SOL    HW129495   1.488   2.381   3.022 -0.2230 -0.1653  0.4411
 6011SOL    HW229496   1.396   2.271   3.037  1.5892 -1.8030 -2.3607
 6012SOL     OW29497   2.743   0.581   7.953  0.2283  0.0054 -0.5001
 6012SOL    HW129498   2.811   0.533   7.905  0.3889  1.1800 -1.4209
 6012SOL    HW229499   2.679   0.510   7.949 -1.9666  2.0107 -0.2555
 6013SOL     OW29500   2.702   3.249  13.047 -0.0350 -0.5528  0.2589
 6013SOL    HW129501   2.650   3.327  13.028  0.8998  0.1853  0.6882
 6013SOL    HW229502   2.634   3.182  13.036  0.3090 -0.7072 -0.9822
 6014SOL     OW29503   2.274   3.730   2.097 -0.0135  0.4702 -0.1589
 6014SOL    HW129504   2.195   3.702   2.143 -0.9075  1.1031 -1.3211
 6014SOL    HW229505   2.243   3.756   2.011  0.2905  2.2090  0.2630
 6015SOL     OW29506   2.353   4.717   3.682 -0.3574 -0.3041 -0.3026
 6015SOL    HW129507   2.384   4.688   3.596 -1.8549 -0.2640 -0.8656
 6015SOL    HW229508   2.417   4.677   3.740  0.7974 -1.7791 -2.5685
 6016SOL     OW29509   2.457   1.989  14.815 -0.3359  0.4481 -0.5787
 6016SOL    HW129510   2.435   1.921  14.751  1.3943  0.3225 -1.0457
 6016SOL    HW229511   2.372   2.032  14.828  0.7208  1.8533  1.6051
 6017SOL     OW29512   1.041   2.295   3.282 -0.2120  0.2164 -0.6644
 6017SOL    HW129513   1.118   2.293   3.338  0.3586  0.2061 -1.4664
 6017SOL    HW229514   1.018   2.202   3.275 -1.5162  0.4014  1.0063
 6018SOL     OW29515   1.301   1.479  16.157  0.3848 -0.1254 -0.1649
 6018SOL    HW129516   1.344   1.554  16.114  1.7811 -1.3823 -0.9449
 6018SOL    HW229517   1.373   1.422  16.183  0.4928 -0.7199 -1.7841
 6019SOL     OW29518   0.237   2.957   9.364 -0.1622 -0.2207  0.4564
 6019SOL    HW129519   0.214   2.873   9.403 -0.1209 -0.9082 -0.9873
 6019SOL    HW229520   0.321   2.931   9.326 -1.2409 -2.9190 -0.0786
 6020SOL     OW29521   4.508   3.567   9.818 -0.0082  0.4331  0.9411
 6020SOL    HW129522   4.505   3.622   9.897  1.5132  0.6126  0.8768
 6020SOL    HW229523   4.519   3.484   9.865 -0.1079 -0.0389  0.1220
 6021SOL     OW29524   3.250   2.124   2.908  0.6428 -0.0260  0.5874
 6021SOL    HW129525   3.219   2.215   2.906  2.5465  0.5314 -2.9875
 6021SOL    HW229526   3.196   2.086   2.839  0.7592  1.9418 -0.5812
 6022SOL     OW29527   2.178   1.726   0.300 -0.0574 -0.4526 -0.5059
 6022SOL    HW129528   2.158   1.767   0.384  2.5034  1.4882 -0.8511
 6022SOL    HW229529   2.140   1.791   0.241  0.6828 -0.0833 -0.5801
 6023SOL     OW29530   4.043   3.628   1.781  0.2548  0.5573 -0.1547
 6023SOL    HW129531   3.968   3.617   1.722 -0.3995 -0.9017  0.9681
 6023SOL    HW229532   4.033   3.566   1.853 -3.3893  1.0900 -0.1875
 6024SOL     OW29533   3.978   1.967   5.650 -0.4950 -0.0031  0.6263
 6024SOL    HW129534   4.055   2.008   5.612 -0.4212 -2.1826 -1.5149
 6024SOL    HW229535   4.012   1.951   5.738 -1.7913 -1.6121  0.8321
 6025SOL     OW29536   0.714   2.608   6.416 -0.0918 -0.2210 -0.0810
 6025SOL    HW129537   0.627   2.644   6.399  0.0211 -0.5667 -1.4249
 6025SOL    HW229538   0.696   2.569   6.501  0.9695 -0.5811 -0.0167
 6026SOL     OW29539   0.835   0.104  11.140 -0.0398  0.0765  0.2486
 6026SOL    HW129540   0.789   0.108  11.223  0.7755 -1.5895  0.7865
 6026SOL    HW229541   0.913   0.052  11.162 -0.9549 -1.7551 -0.8329
 6027SOL     OW29542   3.818   3.483   4.086 -0.9646 -0.0650  0.7581
 6027SOL    HW129543   3.817   3.388   4.102  1.1599 -0.6315 -2.6373
 6027SOL    HW229544   3.760   3.510   4.157 -0.3547  0.0277  1.2232
 6028SOL     OW29545   1.843   2.169   3.378  0.0012  0.1986  0.0708
 6028SOL    HW129546   1.754   2.201   3.391 -1.4489 -4.4035  1.6263
 6028SOL    HW229547   1.840   2.180   3.283  1.5259 -0.8963 -0.1215
 6029SOL     OW29548   3.441   3.452   1.340  0.0046 -0.1744 -0.3149
 6029SOL    HW129549   3.467   3.529   1.290 -1.2663  1.7839  2.0224
 6029SOL    HW229550   3.522   3.429   1.385  0.5952 -1.2398 -1.9476
 6030SOL     OW29551   2.673   0.833   5.424  0.5466  0.1995  0.3699
 6030SOL    HW129552   2.640   0.917   5.459  0.4183 -0.1458  1.0790
 6030SOL    HW229553   2.627   0.839   5.340  1.9167  1.5091 -0.2864
 6031SOL     OW29554   1.506   2.858   3.946 -0.0498 -0.3761 -0.1650
 6031SOL    HW129555   1.492   2.939   3.995  1.3243 -0.0696 -0.2743
 6031SOL    HW229556   1.541   2.883   3.861 -4.4536  1.3590 -1.4608
 6032SOL     OW29557   3.498   4.635   1.451 -0.0501 -0.5566  0.2863
 6032SOL    HW129558   3.510   4.724   1.417 -1.5052 -0.1909  0.7530
 6032SOL    HW229559   3.501   4.651   1.545  0.5352 -0.8975  0.3284
 6033SOL     OW29560   3.527   2.876   3.099  1.3538  0.3903 -0.1759
 6033SOL    HW129561   3.498   2.810   3.162  1.3297  0.2811 -0.3019
 6033SOL    HW229562   3.610   2.843   3.062 -0.5419 -1.8590 -2.4335
 6034SOL     OW29563   1.009   3.755   1.782 -0.2094 -0.1171 -0.1877
 6034SOL    HW129564   0.947   3.762   1.709  1.5017 -0.2249 -1.6288
 6034SOL    HW229565   0.948   3.734   1.853 -1.0275 -1.6248 -1.3459
 6035SOL     OW29566   1.606   1.893   0.296 -0.1580 -0.2775  0.2146
 6035SOL    HW129567   1.616   1.983   0.329  2.5207 -1.1243  1.7345
 6035SOL    HW229568   1.671   1.898   0.226 -0.5875  0.1986 -0.1471
 6036SOL     OW29569   3.036   0.366  12.089  0.3245 -0.0951  0.1622
 6036SOL    HW129570   3.126   0.364  12.057  0.2339 -1.4745 -0.0037
 6036SOL    HW229571   3.056   0.316  12.168 -0.7125 -1.5026 -0.4518
 6037SOL     OW29572   1.948   4.593   3.246 -0.1701  0.0221 -0.5945
 6037SOL    HW129573   1.860   4.566   3.222 -0.4809 -0.3360  0.9812
 6037SOL    HW229574   1.941   4.599   3.341 -1.6361  1.6971 -0.8051
 6038SOL     OW29575   0.791   3.871   8.132 -0.5772 -0.0170 -0.1416
 6038SOL    HW129576   0.767   3.959   8.162  1.1064  0.6799 -0.8484
 6038SOL    HW229577   0.874   3.866   8.179 -0.8887  1.3183  0.5675
 6039SOL     OW29578   2.611   0.273   4.061  0.4389 -0.2935 -0.4741
 6039SOL    HW129579   2.644   0.204   4.003  0.4774 -0.0403 -0.7555
 6039SOL    HW229580   2.571   0.342   4.007 -0.3293  0.2624  0.8083
 6040SOL     OW29581   4.057   4.044   8.483 -0.6252 -0.3334  0.3825
 6040SOL    HW129582   4.085   3.980   8.548  1.1576 -0.4473 -0.5144
 6040SOL    HW229583   4.017   4.112   8.537 -1.0831  0.2697 -0.7184
 6041SOL     OW29584   0.353   3.752   2.356  0.7306  0.0974  0.0471
 6041SOL    HW129585   0.266   3.745   2.318  1.1606  0.5929 -1.0138
 6041SOL    HW229586   0.410   3.689   2.313  0.2259 -0.0380 -0.4193
 6042SOL     OW29587   2.274   2.221   9.118 -0.0942 -0.8352 -0.4873
 6042SOL    HW129588   2.356   2.256   9.153 -0.5518 -0.5368  0.2835
 6042SOL    HW229589   2.300   2.187   9.032 -1.5132  0.3370 -1.3721
 6043SOL     OW29590   0.624   2.944   8.254  0.2979  0.2295  0.1848
 6043SOL    HW129591   0.544   2.994   8.269 -0.0239 -0.3076  0.2754
 6043SOL    HW229592   0.621   2.907   8.166  0.5412 -1.7451  1.0066
 6044SOL     OW29593   0.455   2.810  17.385  0.2078  0.1083 -0.3746
 6044SOL    HW129594   0.417   2.725  17.405 -0.4308  0.4320 -0.2201
 6044SOL    HW229595   0.432   2.865  17.459  0.8166 -0.4743  0.2438
 6045SOL     OW29596   0.935   3.964   8.885  0.1895  0.0603  0.7240
 6045SOL    HW129597   0.940   4.017   8.965 -0.6747  1.9871 -0.4842
 6045SOL    HW229598   0.867   4.015   8.839 -2.0967  0.1498  4.1947
 6046SOL     OW29599   4.002   1.042   8.435 -0.1029 -0.1362 -0.1959
 6046SOL    HW129600   3.964   0.955   8.432 -1.4302  0.4111  0.7519
 6046SOL    HW229601   4.095   1.031   8.414 -0.4137 -0.1880 -1.5424
 6047SOL     OW29602   1.844   3.249   8.289  0.3337  0.4926  0.1903
 6047SOL    HW129603   1.801   3.275   8.370 -1.7087  0.3905 -0.8679
 6047SOL    HW229604   1.916   3.311   8.278  0.9721 -0.5677 -1.5534
 6048SOL     OW29605   0.059   3.880   6.120 -0.0381 -0.0698  0.8530
 6048SOL    HW129606   4.711   3.911   6.175 -1.0776  0.5884 -0.8865
 6048SOL    HW229607   0.086   3.963   6.082  0.6432 -0.6616  0.0343
 6049SOL     OW29608   3.744   3.380   2.019  0.0855  0.1079  0.1027
 6049SOL    HW129609   3.733   3.330   1.937 -0.2055  1.7907 -0.8870
 6049SOL    HW229610   3.837   3.400   2.014 -0.1449  1.0735 -0.2881
 6050SOL     OW29611   3.177   1.572  17.514  0.4551  0.1705  0.4704
 6050SOL    HW129612   3.096   1.623  17.511  2.1601  2.8221 -0.4109
 6050SOL    HW229613   3.245   1.638  17.529 -0.2593  1.0863 -0.3262
 6051SOL     OW29614   1.234   3.472   5.210  0.5506  0.0140  0.4143
 6051SOL    HW129615   1.206   3.394   5.258  1.3806 -0.4775  0.0857
 6051SOL    HW229616   1.164   3.488   5.147  0.8773 -1.2030 -0.2444
 6052SOL     OW29617   4.488   2.813   3.276 -0.0589  0.2189  0.3480
 6052SOL    HW129618   4.446   2.866   3.207 -2.5000 -0.9563  0.9138
 6052SOL    HW229619   4.448   2.729   3.250 -0.8195  1.1615 -1.5559
 6053SOL     OW29620   0.237   4.587   1.604  0.1416  0.1107 -0.5173
 6053SOL    HW129621   0.288   4.668   1.604  0.6713 -0.2218  1.5235
 6053SOL    HW229622   0.284   4.549   1.678  0.4226  0.2895 -0.6021
 6054SOL     OW29623   3.066   2.440  12.994  0.2816 -0.1895  0.3679
 6054SOL    HW129624   2.981   2.438  12.949  1.9296 -1.8976 -2.6970
 6054SOL    HW229625   3.103   2.523  12.962  1.0158  0.3506  2.6438
 6055SOL     OW29626   0.233   0.961   8.450 -0.2303  0.4711 -0.7875
 6055SOL    HW129627   0.200   1.037   8.403  0.4018  1.0054 -0.3632
 6055SOL    HW229628   0.174   0.955   8.526  0.2917 -1.9273 -0.5773
 6056SOL     OW29629   0.028   1.381   4.738 -0.0921 -0.2101 -0.3650
 6056SOL    HW129630   4.670   1.401   4.782  1.4420  2.3112  1.3881
 6056SOL    HW229631   0.020   1.303   4.682 -2.3656  0.8214 -1.4417
 6057SOL     OW29632   4.528   0.583  15.370  0.0942  0.2243  0.3482
 6057SOL    HW129633   4.539   0.643  15.444  1.2258 -1.1788  1.3289
 6057SOL    HW229634   4.604   0.604  15.315  1.0608 -2.5960  0.5972
 6058SOL     OW29635   2.054   1.594   3.478 -0.0342 -0.0642 -0.4608
 6058SOL    HW129636   2.036   1.685   3.501  0.1531 -0.3664  0.8668
 6058SOL    HW229637   2.097   1.551   3.553  0.7731 -1.6299 -1.8135
 6059SOL     OW29638   4.175   2.171   8.925  1.0428  0.2719  0.3680
 6059SOL    HW129639   4.086   2.136   8.929  0.7146  0.8885 -1.7785
 6059SOL    HW229640   4.215   2.087   8.946 -0.1920 -0.8204 -1.6987
 6060SOL     OW29641   1.382   4.630   1.777 -0.1497  0.0969 -0.3142
 6060SOL    HW129642   1.332   4.627   1.695 -0.3030 -2.9561 -0.1317
 6060SOL    HW229643   1.445   4.698   1.755  0.5102 -0.7754 -1.1242
 6061SOL     OW29644   0.156   1.885  16.278 -0.1513 -0.1603  0.2423
 6061SOL    HW129645   0.107   1.813  16.240 -0.3071 -1.5830  3.1417
 6061SOL    HW229646   0.227   1.902  16.216  1.2189  1.8483  2.3569
 6062SOL     OW29647   1.874   1.255   9.389  0.0258 -0.5949  0.2506
 6062SOL    HW129648   1.958   1.283   9.424  0.9449 -2.2203 -0.6430
 6062SOL    HW229649   1.882   1.168   9.428  1.2937 -0.9213 -0.7242
 6063SOL     OW29650   2.236   3.946  12.699 -0.2573 -0.3596 -0.2202
 6063SOL    HW129651   2.231   4.016  12.634 -1.0239 -0.8971 -0.7377
 6063SOL    HW229652   2.143   3.923  12.698  0.0356 -1.5771 -0.0282
 6064SOL     OW29653   0.330   2.070   7.322  0.2415  0.0063  0.0623
 6064SOL    HW129654   0.398   2.003   7.333 -0.8955 -0.9695  1.1691
 6064SOL    HW229655   0.305   2.082   7.414  0.7652  0.2366  0.1793
 6065SOL     OW29656   3.160   2.151  10.746 -0.0174 -0.1204  0.1103
 6065SOL    HW129657   3.142   2.180  10.835  0.0696  0.6747 -0.1346
 6065SOL    HW229658   3.251   2.166  10.722 -0.0222 -0.1663  0.0624
 6066SOL     OW29659   2.555   2.366   7.832 -0.5919 -0.2143  0.3273
 6066SOL    HW129660   2.644   2.346   7.804  0.2877  1.3028  2.0843
 6066SOL    HW229661   2.538   2.280   7.869 -1.0799  0.1403  0.9226
 6067SOL     OW29662   0.907   0.034  12.737  0.5054 -0.3779  0.7819
 6067SOL    HW129663   0.838   0.088  12.777 -1.3064 -2.9322  1.0992
 6067SOL    HW229664   0.909   4.690  12.804 -0.3753 -1.1781 -0.0122
 6068SOL     OW29665   4.337   1.582   4.957  0.4470  0.3788 -0.1532
 6068SOL    HW129666   4.284   1.641   4.903 -0.0352  0.6426  0.5984
 6068SOL    HW229667   4.287   1.583   5.039  0.4723 -1.5578 -0.1053
 6069SOL     OW29668   4.466   3.249   1.263  0.6135 -0.1350 -0.3205
 6069SOL    HW129669   4.401   3.295   1.209 -0.0349  0.0268  0.5865
 6069SOL    HW229670   4.507   3.324   1.306 -0.6917 -0.1195  0.9096
 6070SOL     OW29671   3.792   0.690  13.626 -0.2896  0.2551  0.1454
 6070SOL    HW129672   3.839   0.637  13.562 -1.3085 -0.3141 -0.1344
 6070SOL    HW229673   3.809   0.778  13.591 -0.3367 -0.0574 -0.6776
 6071SOL     OW29674   2.621   0.578  16.160  0.3219 -0.0611  0.5176
 6071SOL    HW129675   2.714   0.597  16.177  0.3546 -0.2949  0.5902
 6071SOL    HW229676   2.587   0.666  16.176  0.1055 -0.2204  0.9369
 6072SOL     OW29677   3.759   2.702   8.772 -0.2431  0.0463 -0.4403
 6072SOL    HW129678   3.718   2.683   8.856  0.4513  0.2079 -0.0612
 6072SOL    HW229679   3.850   2.705   8.804 -0.2708  1.4693 -0.5028
 6073SOL     OW29680   3.786   1.649   9.538  0.5240 -0.1496 -0.4481
 6073SOL    HW129681   3.872   1.684   9.514  0.2649  0.8869  0.1324
 6073SOL    HW229682   3.800   1.638   9.632  1.0173  0.4106 -0.4558
 6074SOL     OW29683   0.030   0.270   5.906 -0.7022  0.0610  0.3866
 6074SOL    HW129684   0.033   0.184   5.950  0.6744 -0.5549 -0.9027
 6074SOL    HW229685   0.115   0.294   5.870 -0.8125  0.1335  0.1774
 6075SOL     OW29686   1.443   3.072  10.757  0.0757 -0.6066 -0.1109
 6075SOL    HW129687   1.456   3.066  10.662  0.1842 -0.5927 -0.0976
 6075SOL    HW229688   1.358   3.114  10.768  0.2100 -0.6307  1.0768
 6076SOL     OW29689   0.834   2.578   5.568  0.4950 -0.6171  0.1413
 6076SOL    HW129690   0.832   2.672   5.553  0.9972 -0.5932  0.2415
 6076SOL    HW229691   0.742   2.556   5.582 -0.4665  2.0907 -1.8711
 6077SOL     OW29692   4.316   0.123   0.817  0.3403  0.0708 -0.3008
 6077SOL    HW129693   4.337   0.214   0.837 -0.4197  0.6624 -2.1421
 6077SOL    HW229694   4.363   0.109   0.735 -0.7092 -1.6498 -0.6300
 6078SOL     OW29695   3.683   1.999   6.333  0.1652 -0.1001 -0.0042
 6078SOL    HW129696   3.761   1.948   6.355  0.7448  0.1079 -1.5925
 6078SOL    HW229697   3.647   2.000   6.422  3.4422 -2.1002  1.3219
 6079SOL     OW29698   0.033   2.341  16.643  0.3399  0.6302  0.2533
 6079SOL    HW129699   4.666   2.363  16.661  0.2178  0.8489 -0.6172
 6079SOL    HW229700   0.083   2.417  16.674 -2.4127  1.7648  1.9327
 6080SOL     OW29701   0.929   4.603   6.745  0.5425  0.0685 -0.3267
 6080SOL    HW129702   1.021   4.578   6.731  1.1084  1.2690  1.2755
 6080SOL    HW229703   0.932   4.611   6.840  4.2807  1.3992 -0.5619
 6081SOL     OW29704   3.259   1.350   6.817 -0.2152 -0.1119 -0.0264
 6081SOL    HW129705   3.185   1.306   6.775  0.3237 -1.4098  0.3895
 6081SOL    HW229706   3.224   1.382   6.901  0.4884  2.1488 -0.5847
 6082SOL     OW29707   3.549   0.034   7.909  0.4564  0.2989  0.4584
 6082SOL    HW129708   3.599   0.026   7.990 -0.7698  1.1797  1.3059
 6082SOL    HW229709   3.617   0.055   7.845  0.2648 -2.3172 -0.6092
 6083SOL     OW29710   0.539   3.897   8.640  0.7954  0.3772 -1.1023
 6083SOL    HW129711   0.545   3.809   8.602 -1.3428  0.0859 -0.7771
 6083SOL    HW229712   0.473   3.874   8.706  0.9402  0.3831 -0.9559
 6084SOL     OW29713   2.616   3.435   3.540  0.0462 -0.0178  0.3251
 6084SOL    HW129714   2.524   3.446   3.565 -0.1549 -0.8683 -0.0598
 6084SOL    HW229715   2.620   3.506   3.476 -1.0278  0.6781  1.0273
 6085SOL     OW29716   0.310   1.895   2.245 -0.1804  0.9369  0.1331
 6085SOL    HW129717   0.402   1.879   2.265 -0.2654  0.2549 -0.0067
 6085SOL    HW229718   0.300   1.827   2.178 -0.7927 -0.3581  1.5398
 6086SOL     OW29719   4.204   2.505  13.703  0.3372 -0.7678 -0.5036
 6086SOL    HW129720   4.142   2.503  13.630 -1.8513 -0.4138  1.3186
 6086SOL    HW229721   4.177   2.591  13.738  2.9426 -0.3167  0.3682
 6087SOL     OW29722   1.263   4.364  16.719 -0.5791  0.0950  0.0883
 6087SOL    HW129723   1.259   4.449  16.676  4.3657  0.6279  0.6537
 6087SOL    HW229724   1.352   4.370  16.752 -1.5132  0.0363  2.6463
 6088SOL     OW29725   3.873   3.636   1.061 -0.0020 -0.0347 -0.0258
 6088SOL    HW129726   3.781   3.656   1.048 -0.1864 -0.8824 -0.0414
 6088SOL    HW229727   3.909   3.718   1.095 -1.3617 -0.0562  1.4683
 6089SOL     OW29728   2.036   3.691  16.948  0.5582 -0.3214  0.1107
 6089SOL    HW129729   2.054   3.705  16.855 -1.8219  0.9325 -0.1472
 6089SOL    HW229730   2.079   3.605  16.947  1.1709 -0.0161  0.8968
 6090SOL     OW29731   4.030   1.024   5.410  0.0721 -0.1129 -0.1321
 6090SOL    HW129732   4.084   1.100   5.390  1.3276 -1.4953 -1.9502
 6090SOL    HW229733   3.966   1.058   5.473  1.4404 -0.8178  1.6450
 6091SOL     OW29734   3.420   4.229   3.761  0.0342  1.2223  0.3031
 6091SOL    HW129735   3.367   4.160   3.802  0.3072  0.3990 -0.7398
 6091SOL    HW229736   3.478   4.257   3.832 -0.5002  0.4865  1.0372
 6092SOL     OW29737   3.645   1.620   5.506 -0.6002 -0.6953 -0.3059
 6092SOL    HW129738   3.721   1.645   5.454  0.5360  0.6919  2.0180
 6092SOL    HW229739   3.677   1.535   5.538 -1.2081  0.1945  2.6684
 6093SOL     OW29740   1.009   1.461   8.419 -0.0559 -0.0163 -0.3950
 6093SOL    HW129741   0.963   1.434   8.498 -0.0145  2.3312  0.4367
 6093SOL    HW229742   0.985   1.401   8.349  1.1773 -0.9274 -0.0434
 6094SOL     OW29743   2.414   0.266   1.410 -0.7713 -0.1960 -0.1607
 6094SOL    HW129744   2.504   0.287   1.434 -0.2082 -2.4171 -0.2555
 6094SOL    HW229745   2.392   0.339   1.352 -0.2437  0.4513  0.4592
 6095SOL     OW29746   3.921   1.859  13.456 -0.0862  0.1668 -0.4219
 6095SOL    HW129747   3.892   1.883  13.544 -1.2511  0.1159 -0.7834
 6095SOL    HW229748   3.983   1.787  13.470  0.7478  1.0449  0.3752
 6096SOL     OW29749   4.040   3.239   5.351  0.4115 -0.2448 -0.4020
 6096SOL    HW129750   3.978   3.271   5.416  1.7611 -2.7087  2.1009
 6096SOL    HW229751   4.095   3.187   5.409 -0.6250 -1.4539 -0.5065
 6097SOL     OW29752   4.222   3.479   2.228 -0.1946  0.1771  0.2221
 6097SOL    HW129753   4.285   3.538   2.187 -1.0026 -0.6782 -2.2377
 6097SOL    HW229754   4.217   3.514   2.317 -0.1624  3.4920 -1.0796
 6098SOL     OW29755   3.034   3.238  11.286 -0.6132 -0.2134  0.4337
 6098SOL    HW129756   3.096   3.277  11.224 -2.8407  0.5248 -1.3061
 6098SOL    HW229757   3.058   3.145  11.284 -2.6488 -0.7609  1.3833
 6099SOL     OW29758   4.113   2.526   2.447  0.1562  0.7274  0.8015
 6099SOL    HW129759   4.094   2.457   2.384  0.8791  0.8235  0.4745
 6099SOL    HW229760   4.171   2.587   2.402 -2.7423  2.0438 -1.0604
 6100SOL     OW29761   1.632   2.461   5.335 -0.1090 -0.1844 -0.3327
 6100SOL    HW129762   1.701   2.505   5.286 -0.3469 -2.9049 -3.1403
 6100SOL    HW229763   1.570   2.533   5.334  2.1712  1.7356 -1.7336
 6101SOL     OW29764   1.488   3.375  14.103 -0.0320 -0.1218  0.2755
 6101SOL    HW129765   1.472   3.334  14.018  5.5042 -1.0801 -0.3159
 6101SOL    HW229766   1.547   3.309  14.140 -1.4402 -0.0082  2.6990
 6102SOL     OW29767   2.975   4.142   2.852 -0.3226  0.1019 -0.3916
 6102SOL    HW129768   2.999   4.061   2.807  0.5094  0.0432  0.1532
 6102SOL    HW229769   2.880   4.137   2.835 -0.2928  0.5446 -0.6689
 6103SOL     OW29770   0.729   0.250   0.467 -0.0653  0.2106 -0.4846
 6103SOL    HW129771   0.666   0.210   0.527  1.4722 -2.1157 -0.4127
 6103SOL    HW229772   0.760   0.170   0.424  3.0427  0.2422  1.7123
 6104SOL     OW29773   4.225   2.118   1.146  0.1159 -0.0265  0.3322
 6104SOL    HW129774   4.172   2.104   1.067 -0.0990  0.5051  0.3839
 6104SOL    HW229775   4.159   2.109   1.215 -0.3518  2.8258  0.2519
 6105SOL     OW29776   1.101   1.263   3.069 -0.4275  0.3637 -0.9646
 6105SOL    HW129777   1.151   1.200   3.017 -0.0025 -0.3388  0.3045
 6105SOL    HW229778   1.013   1.226   3.075 -0.7977  1.1134 -1.7980
 6106SOL     OW29779   4.147   1.151   5.895  0.6312  0.7119  0.5754
 6106SOL    HW129780   4.152   1.247   5.890  0.8643  0.6017 -1.4305
 6106SOL    HW229781   4.235   1.128   5.926  0.8288  0.6722 -0.0164
 6107SOL     OW29782   0.157   0.461   2.133 -0.2420  0.1091 -0.6258
 6107SOL    HW129783   0.127   0.370   2.124 -0.0105 -0.1719  1.2690
 6107SOL    HW229784   0.172   0.478   2.041 -1.6766 -2.2551 -1.2982
 6108SOL     OW29785   3.833   0.347   1.012  0.2101 -0.5831 -0.1760
 6108SOL    HW129786   3.781   0.333   0.933  0.6499 -0.8693 -0.4167
 6108SOL    HW229787   3.916   0.311   0.981  0.9424  1.7914 -0.9603
 6109SOL     OW29788   1.938   0.539   5.366  0.1707  0.1581 -0.4318
 6109SOL    HW129789   1.959   0.583   5.284  0.2564 -0.1935 -0.5945
 6109SOL    HW229790   1.907   0.456   5.331 -0.4765  1.4337 -2.8967
 6110SOL     OW29791   1.631   2.595   3.869 -0.3159  0.1193 -0.0563
 6110SOL    HW129792   1.701   2.653   3.840 -2.6370  1.8467 -2.2854
 6110SOL    HW229793   1.585   2.643   3.938  0.6747 -0.1951  0.8223
 6111SOL     OW29794   2.337   4.477   7.108 -0.0459 -0.1491  0.2640
 6111SOL    HW129795   2.352   4.571   7.092 -1.3013  0.4892  2.8976
 6111SOL    HW229796   2.286   4.442   7.035 -0.6583 -2.5915  1.8794
 6112SOL     OW29797   4.232   2.460  11.113  0.1212 -0.4309  0.0403
 6112SOL    HW129798   4.273   2.399  11.051  0.1078  0.1005 -0.4954
 6112SOL    HW229799   4.291   2.535  11.104 -2.6587  1.8281  0.8175
 6113SOL     OW29800   2.904   4.226   6.569 -0.5005 -0.2618 -0.3481
 6113SOL    HW129801   2.880   4.147   6.521 -1.6386 -0.7540  1.0431
 6113SOL    HW229802   2.852   4.289   6.519 -2.4826 -1.6228 -0.0137
 6114SOL     OW29803   0.572   4.650  10.456 -0.0144  0.4366  0.8339
 6114SOL    HW129804   0.573   4.672  10.549  2.1569  1.3931  0.5941
 6114SOL    HW229805   0.582   0.016  10.427 -2.1271  1.4582  3.2481
 6115SOL     OW29806   2.900   1.930   9.430  0.0819 -0.5403 -0.0959
 6115SOL    HW129807   2.887   1.948   9.523  0.1349 -1.4604  0.0833
 6115SOL    HW229808   2.830   1.983   9.391  0.4137 -0.8354 -1.0987
 6116SOL     OW29809   1.598   2.959   7.933  0.3945  0.4652 -0.1312
 6116SOL    HW129810   1.518   2.922   7.896 -0.1053  3.2900 -1.9059
 6116SOL    HW229811   1.598   3.051   7.905  0.1946  0.8875  1.3044
 6117SOL     OW29812   3.103   4.036  10.146 -0.0257 -0.2395  0.6520
 6117SOL    HW129813   3.098   4.005  10.236 -0.2814  1.5555  1.2478
 6117SOL    HW229814   3.189   3.996  10.131 -0.1849 -0.1345 -0.5456
 6118SOL     OW29815   0.621   4.715   6.754  0.2133  0.1958  0.0410
 6118SOL    HW129816   0.643   4.684   6.666  0.4258 -0.6993  0.4072
 6118SOL    HW229817   0.657   0.079   6.755 -1.6192  0.9353  0.8187
 6119SOL     OW29818   0.241   0.238   3.168 -0.2243 -0.2153 -0.2344
 6119SOL    HW129819   0.200   0.321   3.192 -0.9163 -0.7201  0.3558
 6119SOL    HW229820   0.160   0.189   3.153 -0.3497 -0.1425  0.2138
 6120SOL     OW29821   0.431   2.716   0.659  0.1562  0.7253 -0.3850
 6120SOL    HW129822   0.524   2.739   0.664  0.3115  0.1231 -0.4955
 6120SOL    HW229823   0.421   2.741   0.567 -0.3829  1.9697  0.0065
 6121SOL     OW29824   0.546   4.485   7.239 -0.3530  0.6692  0.2421
 6121SOL    HW129825   0.610   4.551   7.265 -1.6649  1.8098  0.6022
 6121SOL    HW229826   0.459   4.524   7.242 -0.6004  0.1067  0.4015
 6122SOL     OW29827   3.780   3.011  13.794  0.2049 -0.5547  0.4250
 6122SOL    HW129828   3.699   3.055  13.818  0.6763 -0.9950  2.8383
 6122SOL    HW229829   3.829   3.091  13.772  1.5565 -1.2008  1.0885
 6123SOL     OW29830   4.303   0.257  14.682  0.0732 -0.2013 -0.2162
 6123SOL    HW129831   4.363   0.305  14.624 -1.1977 -0.6007 -1.8370
 6123SOL    HW229832   4.280   0.180  14.630  0.7025 -0.4811 -0.0830
 6124SOL     OW29833   4.189   3.259   2.464 -0.1868  0.5863  0.0577
 6124SOL    HW129834   4.162   3.304   2.384 -0.5485  0.5607  0.1640
 6124SOL    HW229835   4.271   3.212   2.450 -0.3664  0.4789 -0.6122
 6125SOL     OW29836   3.007   1.139   8.316 -0.5619  0.2547  0.0289
 6125SOL    HW129837   2.915   1.127   8.291 -0.9127  0.6409  1.1429
 6125SOL    HW229838   3.022   1.049   8.344 -0.3502  0.2906  0.0316
 6126SOL     OW29839   3.380   2.471   0.643  0.1856 -0.1870 -0.9553
 6126SOL    HW129840   3.381   2.449   0.550  2.6091  1.2081 -1.2442
 6126SOL    HW229841   3.470   2.498   0.660  0.4682 -0.4754 -1.9729
 6127SOL     OW29842   0.639   1.974   6.776 -0.2195 -0.1294 -0.0761
 6127SOL    HW129843   0.611   1.902   6.832  1.8436 -0.3207  0.6957
 6127SOL    HW229844   0.614   1.955   6.686 -0.8033  3.6509 -0.7443
 6128SOL     OW29845   2.372   3.536   7.194  0.0901  0.3688  0.0526
 6128SOL    HW129846   2.448   3.575   7.236  0.2675  0.5418 -0.4322
 6128SOL    HW229847   2.382   3.444   7.218 -0.3910  0.1890 -0.4248
 6129SOL     OW29848   2.336   1.197   7.231  0.3555 -0.5415  0.1037
 6129SOL    HW129849   2.332   1.267   7.296  1.4562  1.0777 -1.5852
 6129SOL    HW229850   2.303   1.125   7.285  0.1973  0.0051  0.7313
 6130SOL     OW29851   4.306   1.249   8.003  0.1104 -0.2713 -0.4534
 6130SOL    HW129852   4.281   1.157   7.990 -0.0665 -0.5346  1.5917
 6130SOL    HW229853   4.242   1.299   7.953  0.3870  1.4496  0.8970
 6131SOL     OW29854   3.160   0.370   4.432 -0.3485  0.7133 -0.0839
 6131SOL    HW129855   3.148   0.428   4.356  0.0686  0.0137 -0.6873
 6131SOL    HW229856   3.155   0.290   4.380  0.1327  0.2317  0.5983
 6132SOL     OW29857   4.433   1.594  11.543  0.6661  0.3012  0.0855
 6132SOL    HW129858   4.483   1.618  11.621 -0.3428 -2.1801  1.4825
 6132SOL    HW229859   4.477   1.510  11.533 -0.5504 -0.1383 -1.5168
 6133SOL     OW29860   3.898   2.138   6.198  0.2162  0.3951  0.2047
 6133SOL    HW129861   3.814   2.121   6.241  0.8833 -1.4798  0.7858
 6133SOL    HW229862   3.879   2.107   6.109 -2.6025 -1.2171  1.3470
 6134SOL     OW29863   2.697   0.708  12.642 -0.6724 -0.5408  0.2305
 6134SOL    HW129864   2.670   0.684  12.731 -1.2817  0.6492  0.3558
 6134SOL    HW229865   2.726   0.799  12.650 -2.3085 -0.1178  1.3049
 6135SOL     OW29866   0.797   0.475  12.041  0.4505  0.6711  0.0100
 6135SOL    HW129867   0.776   0.461  12.134 -1.4568  2.8814 -0.0809
 6135SOL    HW229868   0.710   0.446  12.015  0.6890 -2.9004  3.2369
 6136SOL     OW29869   1.173   0.584   5.487  0.5452  0.5094  0.3996
 6136SOL    HW129870   1.191   0.533   5.408 -0.5093  3.0587 -1.4915
 6136SOL    HW229871   1.084   0.555   5.506  0.8439 -0.5913  0.1279
 6137SOL     OW29872   3.071   4.377   7.821  0.4592 -0.1503 -0.0091
 6137SOL    HW129873   3.058   4.301   7.878  0.2981 -1.6269 -2.0074
 6137SOL    HW229874   3.167   4.380   7.825  0.5150 -1.0784 -0.5606
 6138SOL     OW29875   2.876   1.091  17.433  0.0911  0.0126 -0.0888
 6138SOL    HW129876   2.896   1.185  17.430  0.3827 -0.0689 -0.5647
 6138SOL    HW229877   2.928   1.077  17.512  0.5104  0.3646 -0.3005
 6139SOL     OW29878   1.641   4.044  13.231  0.2729  0.3278  0.5617
 6139SOL    HW129879   1.583   4.083  13.296 -0.2766 -0.4104  0.5079
 6139SOL    HW229880   1.688   4.123  13.201  0.4336 -0.3891 -1.0632
 6140SOL     OW29881   0.694   0.805  16.608  0.0998  0.1106 -0.4994
 6140SOL    HW129882   0.677   0.880  16.552  0.3894  0.4419 -0.1449
 6140SOL    HW229883   0.633   0.826  16.679  0.1549  0.7396 -0.6417
 6141SOL     OW29884   0.617   4.099   0.786 -0.0971  0.7858  0.2255
 6141SOL    HW129885   0.591   4.089   0.878 -0.8117 -1.3533 -0.2189
 6141SOL    HW229886   0.537   4.064   0.746  0.9026 -0.4146 -0.6796
 6142SOL     OW29887   3.070   1.906   7.698  0.2654 -0.3764 -0.0123
 6142SOL    HW129888   2.975   1.895   7.698  0.3620 -1.0982 -1.5058
 6142SOL    HW229889   3.066   1.932   7.790 -0.7931 -1.2861  0.1957
 6143SOL     OW29890   1.227   2.890   4.768  0.1327  0.5160 -0.1748
 6143SOL    HW129891   1.144   2.931   4.744  0.7503  2.8363  1.6246
 6143SOL    HW229892   1.227   2.873   4.862 -0.2218  1.3518 -0.0217
 6144SOL     OW29893   2.197   0.677   4.396  0.2031  0.4685 -0.3563
 6144SOL    HW129894   2.156   0.756   4.360 -1.5072  0.7064  2.1108
 6144SOL    HW229895   2.231   0.701   4.483  0.1918 -0.6347 -0.0540
 6145SOL     OW29896   4.601   1.557   5.429 -0.0220 -0.2071  0.0342
 6145SOL    HW129897   4.652   1.585   5.353  1.4543 -0.2700  1.0018
 6145SOL    HW229898   4.672   1.545   5.492 -1.8902 -1.9165  1.7728
 6146SOL     OW29899   4.601   4.118   5.719 -0.0943 -0.2766 -0.3780
 6146SOL    HW129900   4.522   4.147   5.765  0.4752  1.8036 -0.6783
 6146SOL    HW229901   4.569   4.037   5.679 -3.3742  1.6808 -1.7010
 6147SOL     OW29902   3.124   3.675  16.769 -0.2036  0.1174 -0.7030
 6147SOL    HW129903   3.093   3.669  16.860  0.8330  1.8805 -0.2187
 6147SOL    HW229904   3.072   3.612  16.719  0.0255  1.3011 -2.4281
 6148SOL     OW29905   1.160   0.629   2.287  0.1659 -0.2506 -0.5841
 6148SOL    HW129906   1.215   0.555   2.261 -0.3107 -0.1023 -2.0137
 6148SOL    HW229907   1.226   0.695   2.266  2.2008 -2.0425  0.1166
 6149SOL     OW29908   3.534   3.397   7.695  0.1978 -0.1779 -0.3938
 6149SOL    HW129909   3.599   3.458   7.661  0.3832 -1.1079 -1.6913
 6149SOL    HW229910   3.584   3.316   7.684 -0.3357 -0.5003 -0.4387
 6150SOL     OW29911   0.734   3.323   2.575  0.1127 -0.1953  0.4887
 6150SOL    HW129912   0.684   3.271   2.638 -1.4879 -0.2115 -0.7937
 6150SOL    HW229913   0.702   3.413   2.585  3.5612  1.1296 -0.5486
 6151SOL     OW29914   0.945   2.715   8.666 -0.7097 -0.4646 -0.3691
 6151SOL    HW129915   0.980   2.795   8.627 -0.5245 -0.4436 -0.1601
 6151SOL    HW229916   0.893   2.749   8.738 -0.0527 -0.6715  0.2078
 6152SOL     OW29917   2.348   1.373   1.479 -0.4770 -0.5909  0.2487
 6152SOL    HW129918   2.287   1.331   1.539 -1.3607 -0.3282 -0.4653
 6152SOL    HW229919   2.420   1.398   1.537  1.0551 -2.1406 -0.9493
 6153SOL     OW29920   3.639   3.064   5.287 -0.1001  0.2481 -0.2529
 6153SOL    HW129921   3.567   3.127   5.279 -0.1704  0.0928 -0.8377
 6153SOL    HW229922   3.614   3.000   5.220 -0.6339 -0.1812  0.3487
 6154SOL     OW29923   3.829   4.470   1.621  0.1953  0.2577  0.2926
 6154SOL    HW129924   3.789   4.490   1.706 -1.3916  1.0875 -0.6449
 6154SOL    HW229925   3.835   4.551   1.570  0.7523  1.0779  1.6592
 6155SOL     OW29926   3.629   0.156   6.717  0.1981 -0.1503 -0.1017
 6155SOL    HW129927   3.692   0.101   6.762  0.9459  0.2211 -0.6994
 6155SOL    HW229928   3.616   0.112   6.633  2.0346 -0.0325 -0.4354
 6156SOL     OW29929   0.388   0.988   4.040  0.0001  0.1411 -0.4836
 6156SOL    HW129930   0.310   1.030   4.002  0.2969  0.5423 -0.6600
 6156SOL    HW229931   0.359   0.897   4.033  1.3354 -0.2645 -0.6939
 6157SOL     OW29932   4.639   3.691   2.421  0.3613 -0.8608 -0.4318
 6157SOL    HW129933   4.719   3.694   2.368  0.1549 -2.2183 -0.8217
 6157SOL    HW229934   4.659   3.711   2.512 -2.2908  0.2698 -0.0996
 6158SOL     OW29935   0.965   1.065   7.413  0.0285 -0.1992  0.3277
 6158SOL    HW129936   0.973   1.052   7.507 -1.2659 -3.4155 -0.0231
 6158SOL    HW229937   0.876   1.099   7.406  0.2806  0.1067 -1.3917
 6159SOL     OW29938   3.579   0.484   2.807 -0.2832 -0.0895 -0.5963
 6159SOL    HW129939   3.529   0.404   2.815 -0.5705 -0.0468 -1.8533
 6159SOL    HW229940   3.610   0.452   2.722 -3.6657  1.0421 -2.2457
 6160SOL     OW29941   1.132   1.930   5.125 -0.0374  0.0183  0.4154
 6160SOL    HW129942   1.091   1.917   5.039  2.0530 -1.8885 -0.2881
 6160SOL    HW229943   1.140   1.838   5.152  2.7760 -0.2385 -1.2891
 6161SOL     OW29944   3.296   1.724  16.856  0.4487 -0.7649 -0.5138
 6161SOL    HW129945   3.302   1.632  16.831  1.6271 -0.4472 -1.4008
 6161SOL    HW229946   3.264   1.763  16.775 -0.2848 -1.0142 -0.3417
 6162SOL     OW29947   2.385   2.712  13.659 -0.0095 -0.5016 -0.0375
 6162SOL    HW129948   2.291   2.718  13.673  0.3605 -0.0011  2.1011
 6162SOL    HW229949   2.396   2.638  13.599 -0.2440  0.8768 -1.7817
 6163SOL     OW29950   2.187   0.572   7.047  0.1525  0.4190  0.5700
 6163SOL    HW129951   2.261   0.619   7.010 -0.6555  1.4420  0.2421
 6163SOL    HW229952   2.222   0.556   7.135 -0.0056  2.9389  1.1037
 6164SOL     OW29953   1.636   1.470  14.238  0.1205 -0.0138  0.2318
 6164SOL    HW129954   1.644   1.377  14.261  2.7184  0.3914  0.9613
 6164SOL    HW229955   1.723   1.484  14.201  0.1932  2.5750  1.3569
 6165SOL     OW29956   4.230   2.765   3.841  0.7694 -0.4806 -0.0293
 6165SOL    HW129957   4.303   2.710   3.814  0.9435  0.3418 -1.2329
 6165SOL    HW229958   4.206   2.723   3.924 -1.0134  0.2519 -0.1823
 6166SOL     OW29959   1.613   1.873  10.191  0.0361 -0.0121 -0.1108
 6166SOL    HW129960   1.529   1.909  10.219 -0.7942 -1.5412 -0.6014
 6166SOL    HW229961   1.628   1.934  10.119 -1.3580  0.6945  0.2053
 6167SOL     OW29962   2.913   3.406   5.755  0.5130  0.2524  0.3291
 6167SOL    HW129963   2.831   3.407   5.706  0.3627 -2.2027  0.5204
 6167SOL    HW229964   2.971   3.452   5.695 -2.4550  0.0525 -2.6956
 6168SOL     OW29965   1.848   3.412   2.516 -0.5428 -0.1083 -0.4537
 6168SOL    HW129966   1.843   3.463   2.597  4.2294 -2.3712  1.2739
 6168SOL    HW229967   1.841   3.322   2.549  0.2318  0.2978  0.8330
 6169SOL     OW29968   1.036   2.743   9.374  0.4389 -0.3486  0.0233
 6169SOL    HW129969   1.060   2.706   9.459  1.9868  2.3203  0.7382
 6169SOL    HW229970   1.048   2.834   9.400  0.3711 -0.3584  0.0866
 6170SOL     OW29971   4.390   2.783   9.369 -0.3418 -0.5507 -0.0352
 6170SOL    HW129972   4.325   2.847   9.340 -0.4846 -1.5096 -1.7913
 6170SOL    HW229973   4.369   2.771   9.462  3.5133 -0.0089  0.8967
 6171SOL     OW29974   0.387   1.916   7.737  0.2975 -0.3906  0.1519
 6171SOL    HW129975   0.380   1.890   7.829  3.2152  0.8929  0.7377
 6171SOL    HW229976   0.457   1.981   7.739 -0.3112  0.2103  2.1202
 6172SOL     OW29977   1.201   1.780   5.583  0.4936 -0.5402 -0.0997
 6172SOL    HW129978   1.183   1.693   5.549  1.4702 -1.5386  1.9661
 6172SOL    HW229979   1.182   1.768   5.676  0.0649 -2.1978 -0.4049
 6173SOL     OW29980   0.880   0.947   6.510  0.0611 -0.2189  0.4789
 6173SOL    HW129981   0.870   1.032   6.467 -1.3862 -0.0143  1.2261
 6173SOL    HW229982   0.891   0.982   6.598  0.8835  0.0023  0.2852
 6174SOL     OW29983   1.207   0.305  15.407 -0.0927 -0.1543 -0.5466
 6174SOL    HW129984   1.234   0.215  15.425  0.2574  0.0713  0.0400
 6174SOL    HW229985   1.284   0.351  15.441  1.4551 -1.0383 -2.7907
 6175SOL     OW29986   3.523   1.177   8.850 -0.0336  0.4351 -0.0440
 6175SOL    HW129987   3.474   1.094   8.855  0.8445 -0.2184 -2.4317
 6175SOL    HW229988   3.442   1.227   8.839 -0.3278 -0.3253 -1.3009
 6176SOL     OW29989   4.576   1.198   2.293 -0.1492 -0.1342  0.0739
 6176SOL    HW129990   4.502   1.259   2.297  0.9802  1.2294 -0.0637
 6176SOL    HW229991   4.563   1.157   2.208  2.3180 -0.8465  0.0517
 6177SOL     OW29992   1.807   1.831   9.494  0.0895  0.0945  0.0455
 6177SOL    HW129993   1.728   1.883   9.478  0.9608  1.3321 -0.1993
 6177SOL    HW229994   1.799   1.780   9.413  0.4474  0.0886  0.0159
 6178SOL     OW29995   3.149   3.782   3.727  0.0099  0.3030 -0.1508
 6178SOL    HW129996   3.071   3.839   3.728 -0.1638  0.0750 -0.6776
 6178SOL    HW229997   3.115   3.699   3.695  1.3243 -0.4684  0.4857
 6179SOL     OW29998   2.611   3.987  17.018 -0.1434  0.1843 -0.1824
 6179SOL    HW129999   2.690   4.039  17.000 -0.7730 -0.2774 -4.3237
 6179SOL    HW230000   2.638   3.895  17.021  0.3299  0.3421  0.5314
 6180SOL     OW30001   1.560   3.029  11.012  0.9062  0.8330 -0.5742
 6180SOL    HW130002   1.502   3.037  10.936  2.7992 -0.1699 -2.1256
 6180SOL    HW230003   1.585   3.120  11.024 -0.3433  1.0081  0.7200
 6181SOL     OW30004   1.229   1.990   4.065 -0.2416 -0.2421  1.1062
 6181SOL    HW130005   1.242   1.936   4.143  0.3370  1.1520  1.9798
 6181SOL    HW230006   1.313   2.037   4.070 -0.1052 -0.5386  1.6187
 6182SOL     OW30007   2.620   1.498   3.104 -0.2892 -0.0327  0.5860
 6182SOL    HW130008   2.625   1.519   3.011 -1.1606  0.4572  0.6505
 6182SOL    HW230009   2.665   1.414   3.110  1.1958  0.9359  3.3964
 6183SOL     OW30010   2.726   0.805   1.736 -0.4761  0.3382 -0.2561
 6183SOL    HW130011   2.779   0.763   1.668  0.9785  1.4317  0.2157
 6183SOL    HW230012   2.798   0.827   1.795 -1.4503  1.8024  0.3825
 6184SOL     OW30013   4.510   1.922   4.335  0.5720 -0.1904  0.9196
 6184SOL    HW130014   4.554   1.912   4.419 -0.3806 -0.5117  1.3808
 6184SOL    HW230015   4.561   1.861   4.282 -1.1794  1.4269 -2.6887
 6185SOL     OW30016   4.021   0.698   4.343 -0.0350  0.0941  0.3179
 6185SOL    HW130017   4.009   0.662   4.255 -1.1310 -0.7224  0.8080
 6185SOL    HW230018   3.979   0.624   4.387 -1.0365  1.0043  0.9126
 6186SOL     OW30019   3.150   0.658   5.998  0.0257  0.0923 -0.0928
 6186SOL    HW130020   3.136   0.620   5.912  0.8010 -0.6401  0.1124
 6186SOL    HW230021   3.156   0.582   6.057 -0.8576  1.7575  2.1719
 6187SOL     OW30022   3.688   3.891   3.354 -0.3011 -0.5606 -0.3453
 6187SOL    HW130023   3.782   3.874   3.346  0.6008  4.5664 -0.2157
 6187SOL    HW230024   3.675   3.977   3.315 -0.2065 -0.3493  0.0924
 6188SOL     OW30025   1.602   1.938  10.661  0.3049 -0.4280  0.3161
 6188SOL    HW130026   1.680   1.945  10.606 -0.4607  1.1506 -0.5782
 6188SOL    HW230027   1.607   2.019  10.711 -1.6526  0.7833 -1.4031
 6189SOL     OW30028   3.432   0.406  11.538  0.4435 -1.0259  0.0506
 6189SOL    HW130029   3.342   0.438  11.533 -0.2612 -3.2099 -1.0302
 6189SOL    HW230030   3.420   0.316  11.567 -2.1686 -0.4690  0.7139
 6190SOL     OW30031   1.684   1.783  12.649  0.2403  0.6613 -0.1212
 6190SOL    HW130032   1.718   1.714  12.592  1.2909  1.8268 -0.9046
 6190SOL    HW230033   1.696   1.859  12.592  0.7435 -0.0659 -0.9844
 6191SOL     OW30034   1.083   3.733  17.632  0.4254 -0.0656 -0.0716
 6191SOL    HW130035   1.016   3.735  17.564 -0.5229  1.9221  0.9170
 6191SOL    HW230036   1.132   3.654  17.609 -0.1422  0.4764 -3.1291
 6192SOL     OW30037   0.645   0.141   2.184  1.2691  0.2152 -0.3632
 6192SOL    HW130038   0.629   0.226   2.143 -1.6762  0.0323  0.3789
 6192SOL    HW230039   0.619   0.089   2.107  2.3298  0.8854 -1.1701
 6193SOL     OW30040   2.202   2.581  10.846 -0.2070 -0.0789  0.1422
 6193SOL    HW130041   2.179   2.581  10.939 -1.8231  1.0620 -0.2621
 6193SOL    HW230042   2.264   2.508  10.837 -1.6909 -1.1478 -1.4553
 6194SOL     OW30043   2.921   2.505   4.296 -0.2211 -0.6327 -0.2361
 6194SOL    HW130044   2.962   2.462   4.371 -0.3398  1.2322  0.9073
 6194SOL    HW230045   2.831   2.475   4.298  0.0302 -1.4229 -0.8379
 6195SOL     OW30046   3.765   3.305   8.998  0.3612  0.5200 -0.0751
 6195SOL    HW130047   3.793   3.304   8.907  2.1573 -1.3664  0.5152
 6195SOL    HW230048   3.794   3.394   9.019 -1.0251  0.8848  0.3224
 6196SOL     OW30049   3.189   0.881   4.570  0.2999  0.7561  0.8784
 6196SOL    HW130050   3.231   0.967   4.564  1.5093  0.0369 -0.9015
 6196SOL    HW230051   3.148   0.890   4.656  1.8100  1.9054  1.4783
 6197SOL     OW30052   1.740   4.552  11.274 -0.2316  0.1614 -0.2302
 6197SOL    HW130053   1.694   4.571  11.356 -0.6384 -0.8517 -0.2280
 6197SOL    HW230054   1.822   4.512  11.303  1.0036  3.3030  0.6563
 6198SOL     OW30055   2.836   1.716  11.783 -0.4046 -0.0212 -0.0215
 6198SOL    HW130056   2.891   1.638  11.773  0.2042  0.3992  0.0921
 6198SOL    HW230057   2.881   1.769  11.717 -1.8655 -0.8865 -1.7248
 6199SOL     OW30058   3.144   0.285   6.614  0.0353  0.3702 -0.3294
 6199SOL    HW130059   3.102   0.215   6.563  0.4656 -1.2511  1.5086
 6199SOL    HW230060   3.174   0.230   6.686 -1.9868  1.5948  1.4651
 6200SOL     OW30061   4.226   4.324   3.553 -0.7712 -0.1847  0.5421
 6200SOL    HW130062   4.135   4.352   3.568 -0.2646  0.5140  2.3373
 6200SOL    HW230063   4.268   4.335   3.638  1.4978 -1.1384 -0.4453
 6201SOL     OW30064   0.993   0.077   8.848  0.2152 -0.3779 -0.2235
 6201SOL    HW130065   0.978   0.052   8.757  0.3182  0.5519 -0.5020
 6201SOL    HW230066   0.915   0.130   8.866  0.3475  0.3049 -1.6968
 6202SOL     OW30067   3.797   1.647   9.058 -0.4336 -0.2664 -0.7347
 6202SOL    HW130068   3.743   1.597   8.997 -1.7126 -1.2296  1.1808
 6202SOL    HW230069   3.780   1.609   9.144  1.1250  1.2670  0.2598
 6203SOL     OW30070   4.258   0.560  15.434  0.5004  0.4164  0.3621
 6203SOL    HW130071   4.352   0.548  15.443  0.0425 -4.9293 -2.0731
 6203SOL    HW230072   4.253   0.653  15.458 -1.4190  0.2128  0.7891
 6204SOL     OW30073   0.254   2.179   6.684 -0.1620  0.1555 -0.7933
 6204SOL    HW130074   0.196   2.253   6.699 -1.6615 -0.8566 -1.5484
 6204SOL    HW230075   0.341   2.219   6.690 -0.1894  0.3938 -1.9687
 6205SOL     OW30076   4.541   1.680   8.240 -0.5768 -0.1484  0.4873
 6205SOL    HW130077   4.476   1.721   8.297  0.7440  0.6758  1.4058
 6205SOL    HW230078   4.501   1.595   8.223  1.5115 -0.7666 -1.3525
 6206SOL     OW30079   0.807   0.533   4.114 -0.3782 -0.0914 -0.1394
 6206SOL    HW130080   0.817   0.625   4.089  3.3418 -0.8923 -1.6649
 6206SOL    HW230081   0.728   0.515   4.063 -0.4919 -1.2403  0.4415
 6207SOL     OW30082   2.738   2.913   9.754 -0.2030 -0.4195 -0.7225
 6207SOL    HW130083   2.735   2.930   9.660 -1.4889 -1.1525 -0.8083
 6207SOL    HW230084   2.684   2.834   9.760  0.7622 -1.0475 -0.2234
 6208SOL     OW30085   3.369   2.422   7.298 -0.3361 -0.2569  0.2397
 6208SOL    HW130086   3.305   2.491   7.280 -0.3926 -0.6067 -0.8975
 6208SOL    HW230087   3.443   2.478   7.321 -1.8130  1.8039  0.0686
 6209SOL     OW30088   4.434   1.645   4.324  0.0818 -0.0937 -0.1579
 6209SOL    HW130089   4.512   1.676   4.278  0.4133 -2.2070 -1.0282
 6209SOL    HW230090   4.381   1.609   4.253  1.5839 -2.2150 -0.2006
 6210SOL     OW30091   3.534   0.475   5.656  0.8860 -0.1334 -0.0903
 6210SOL    HW130092   3.608   0.465   5.597  2.2488 -2.1369  1.9903
 6210SOL    HW230093   3.567   0.540   5.718 -1.0680  0.5803  0.2223
 6211SOL     OW30094   0.134   0.230  13.759 -0.9185 -0.2632 -0.0413
 6211SOL    HW130095   0.196   0.160  13.740 -1.2619 -0.8152  0.8875
 6211SOL    HW230096   0.061   0.198  13.811 -0.2185  0.6909  1.5296
 6212SOL     OW30097   1.779   4.491  15.504 -0.1497  0.4973  0.1218
 6212SOL    HW130098   1.814   4.474  15.417  0.7311 -3.1164  1.1799
 6212SOL    HW230099   1.822   4.574  15.524 -2.2019  1.5402  0.2455
 6213SOL     OW30100   1.796   3.821  16.843 -0.4284 -0.2282  0.2638
 6213SOL    HW130101   1.864   3.777  16.792 -0.6148  2.2136 -2.0954
 6213SOL    HW230102   1.790   3.910  16.809 -2.2960 -0.1865  0.6998
 6214SOL     OW30103   2.694   3.770  11.196 -0.0199  0.1951 -0.3356
 6214SOL    HW130104   2.788   3.790  11.204  0.3663 -0.6786 -2.5337
 6214SOL    HW230105   2.695   3.692  11.141 -1.5353 -0.5115  0.6697
 6215SOL     OW30106   2.211   4.377  12.444 -0.3905 -0.5880  0.3462
 6215SOL    HW130107   2.149   4.425  12.499 -1.3278 -1.7942  0.3399
 6215SOL    HW230108   2.211   4.438  12.370 -2.1056  0.0998  0.9159
 6216SOL     OW30109   4.675   3.616  13.482 -0.0744  0.2181 -0.1819
 6216SOL    HW130110   4.589   3.641  13.516  0.4290  1.5379  0.1099
 6216SOL    HW230111   4.687   3.675  13.408  1.9318  1.7131  1.3177
 6217SOL     OW30112   0.659   3.025   4.721  0.0800 -0.1377  0.0700
 6217SOL    HW130113   0.723   3.041   4.652 -0.7187  0.2080 -0.5867
 6217SOL    HW230114   0.588   3.071   4.677  1.2313  0.5796 -1.0693
 6218SOL     OW30115   1.086   1.122   4.990  0.0059 -0.1751  0.5286
 6218SOL    HW130116   1.070   1.041   4.942 -1.9425 -1.2421  2.9713
 6218SOL    HW230117   1.172   1.141   4.952 -0.7025  0.5027 -0.7715
 6219SOL     OW30118   0.816   0.269   4.111  0.2886 -0.2273 -0.3407
 6219SOL    HW130119   0.911   0.263   4.099  0.1669 -1.5239 -0.7562
 6219SOL    HW230120   0.812   0.363   4.099 -0.8031 -0.3566 -1.0028
 6220SOL     OW30121   0.760   4.050   7.093 -0.3464  0.0177  0.4878
 6220SOL    HW130122   0.708   4.098   7.028  1.5772  0.3277 -0.8396
 6220SOL    HW230123   0.793   3.986   7.030  0.8574  1.1612 -0.0413
 6221SOL     OW30124   4.267   0.788   1.919 -0.2820 -0.1014 -0.8622
 6221SOL    HW130125   4.185   0.741   1.902 -0.6159  0.1443  0.0199
 6221SOL    HW230126   4.257   0.786   2.015  0.4649  3.6985 -0.7345
 6222SOL     OW30127   0.390   2.784  10.019 -0.3702  0.1521  0.2322
 6222SOL    HW130128   0.299   2.811  10.032 -0.4340  0.4166 -0.7985
 6222SOL    HW230129   0.376   2.701  10.065  2.7970 -0.4615  0.0817
 6223SOL     OW30130   1.020   1.584  10.780  0.1138  0.3055 -0.3536
 6223SOL    HW130131   1.028   1.553  10.690  0.7926 -0.5822  0.0197
 6223SOL    HW230132   1.089   1.650  10.775  0.8891 -0.4757  0.0423
 6224SOL     OW30133   2.581   3.499  13.011 -0.0161  0.7621  0.2899
 6224SOL    HW130134   2.622   3.548  13.082 -0.1438  1.1186  0.1178
 6224SOL    HW230135   2.573   3.565  12.942  3.0865 -0.2498 -1.0301
 6225SOL     OW30136   2.175   2.559   2.661  0.1011 -0.1200  0.1962
 6225SOL    HW130137   2.108   2.590   2.722 -0.7257 -0.1882 -0.6767
 6225SOL    HW230138   2.255   2.564   2.714 -0.1369  0.4410  0.5081
 6226SOL     OW30139   1.009   1.145  17.033  0.1674  0.2965 -0.5628
 6226SOL    HW130140   0.924   1.102  17.047  0.5862 -0.0022  1.1176
 6226SOL    HW230141   1.046   1.069  16.988  1.2119  1.7767 -2.1608
 6227SOL     OW30142   1.487   2.430   8.209 -0.7289 -0.0236 -0.0147
 6227SOL    HW130143   1.568   2.458   8.251 -0.9578  0.8016 -0.1187
 6227SOL    HW230144   1.439   2.402   8.287 -0.4077  1.8227  0.8541
 6228SOL     OW30145   2.868   4.490   4.148  0.2285 -0.5388  0.4425
 6228SOL    HW130146   2.906   4.548   4.215  0.3363  0.7575 -0.7291
 6228SOL    HW230147   2.942   4.484   4.088  1.9990  2.4355  2.3210
 6229SOL     OW30148   3.767   4.586   8.960 -0.2884 -0.3689 -0.0118
 6229SOL    HW130149   3.732   4.516   9.015 -1.0290  0.4942  0.6213
 6229SOL    HW230150   3.757   4.561   8.869  0.9199  0.7333 -0.4434
 6230SOL     OW30151   3.462   3.904  17.320  0.3280  0.8307  0.0127
 6230SOL    HW130152   3.472   3.809  17.323  0.7162  0.8543 -0.5452
 6230SOL    HW230153   3.515   3.928  17.244 -0.9749  0.2131 -1.1005
 6231SOL     OW30154   0.860   3.611   2.465 -0.0970 -0.5083  0.4318
 6231SOL    HW130155   0.930   3.638   2.525 -0.2489 -1.1894  0.9176
 6231SOL    HW230156   0.781   3.616   2.519 -0.1449  1.0265  0.2153
 6232SOL     OW30157   2.518   4.544   4.687  0.3923  0.3073 -0.7708
 6232SOL    HW130158   2.538   4.635   4.664  0.8376  0.9537  2.2013
 6232SOL    HW230159   2.524   4.504   4.600  0.3591 -3.1089  0.7869
 6233SOL     OW30160   1.410   0.358   4.175 -0.0150  0.2023  0.0931
 6233SOL    HW130161   1.334   0.410   4.200  0.9044 -0.0136  3.2741
 6233SOL    HW230162   1.493   0.401   4.197  0.9154 -2.5033  1.8792
 6234SOL     OW30163   0.141   2.218   9.606  0.0434  0.4712  0.0393
 6234SOL    HW130164   0.233   2.215   9.581 -0.2646  2.6037 -1.3445
 6234SOL    HW230165   0.104   2.282   9.546 -2.0481 -2.3756 -1.6973
 6235SOL     OW30166   3.564   1.289  13.680  0.3262 -0.1849 -0.1546
 6235SOL    HW130167   3.606   1.217  13.632  0.7129 -1.9883  2.8566
 6235SOL    HW230168   3.515   1.318  13.603  0.2135  1.4256  0.5361
 6236SOL     OW30169   2.647   4.077   1.742 -0.1306  0.2957  0.3499
 6236SOL    HW130170   2.586   4.118   1.803 -0.3389  0.4757  0.0224
 6236SOL    HW230171   2.664   4.148   1.679 -1.4465 -0.1228 -0.4784
 6237SOL     OW30172   4.080   0.119   0.401 -0.4469 -0.9685  0.4839
 6237SOL    HW130173   4.134   0.099   0.324  1.5413  0.1941  1.5764
 6237SOL    HW230174   4.077   0.214   0.412 -0.2290 -0.9011 -0.0352
 6238SOL     OW30175   3.636   3.875  13.039 -0.1415  0.0541  0.3331
 6238SOL    HW130176   3.696   3.898  13.111  3.3254  0.5247 -2.7294
 6238SOL    HW230177   3.563   3.842  13.091  0.3093 -0.0209  0.9304
 6239SOL     OW30178   3.684   0.643   3.132  0.2422  0.4763 -0.3399
 6239SOL    HW130179   3.589   0.632   3.124  0.8158 -2.1499 -3.4104
 6239SOL    HW230180   3.678   0.690   3.216  2.2320  0.2569 -0.0924
 6240SOL     OW30181   3.002   2.184   7.971  0.4655 -0.0108  0.0343
 6240SOL    HW130182   3.067   2.118   7.996  1.0193  0.8719  0.9265
 6240SOL    HW230183   3.041   2.208   7.887 -1.2243 -1.8425 -1.2753
 6241SOL     OW30184   1.523   3.212   3.992  0.3657 -0.1472  0.2751
 6241SOL    HW130185   1.567   3.265   3.926 -0.2585 -0.5760 -0.4950
 6241SOL    HW230186   1.454   3.272   4.022  1.4375  0.9709  0.5301
 6242SOL     OW30187   1.915   4.181  12.548 -0.0261 -0.3609  0.2083
 6242SOL    HW130188   1.953   4.266  12.572 -1.4463  0.4093 -0.3069
 6242SOL    HW230189   1.826   4.214  12.539  0.5287  1.2782  0.6218
 6243SOL     OW30190   3.100   2.425   4.993 -0.2530  0.4348  0.6537
 6243SOL    HW130191   3.079   2.336   4.964  0.5407  0.3312  0.3731
 6243SOL    HW230192   3.179   2.420   5.046  0.9586 -0.7352 -1.2492
 6244SOL     OW30193   3.663   2.127   8.177  0.0934 -0.1473 -0.2724
 6244SOL    HW130194   3.576   2.087   8.175  0.9129 -1.8790 -1.2409
 6244SOL    HW230195   3.651   2.184   8.254  0.2425  1.0984 -1.1657
 6245SOL     OW30196   4.342   3.976   1.471 -0.0646 -0.7206  0.8489
 6245SOL    HW130197   4.251   3.987   1.444  0.4027  0.1576 -0.3621
 6245SOL    HW230198   4.395   4.043   1.427 -0.2451 -0.5708  0.8595
 6246SOL     OW30199   2.395   3.379   8.499  0.2339  0.3145  0.2844
 6246SOL    HW130200   2.407   3.305   8.559 -0.9541  0.1358  0.2926
 6246SOL    HW230201   2.423   3.342   8.415  1.7576  0.4142  0.7362
 6247SOL     OW30202   2.564   3.992   6.777  0.2916  0.5568  0.5308
 6247SOL    HW130203   2.499   4.018   6.843 -0.8804 -1.1828  0.0842
 6247SOL    HW230204   2.503   3.948   6.718 -0.1090 -0.5893  1.7793
 6248SOL     OW30205   0.096   3.538   4.965  0.5469 -0.2104 -0.5289
 6248SOL    HW130206   0.178   3.585   4.949  1.9972 -2.7020 -0.3435
 6248SOL    HW230207   0.030   3.590   4.918 -0.0896  0.0902  0.6923
 6249SOL     OW30208   0.289   1.529   8.378 -0.0263  0.4484  0.4266
 6249SOL    HW130209   0.244   1.563   8.455  0.2134  1.2681  0.2071
 6249SOL    HW230210   0.229   1.536   8.304  0.4093 -0.5070 -0.0142
 6250SOL     OW30211   3.921   4.296  15.775 -0.1705 -0.0422  0.7389
 6250SOL    HW130212   3.933   4.335  15.689 -2.5276  2.9248  1.7755
 6250SOL    HW230213   3.832   4.327  15.795 -1.6396 -2.6733 -1.7342
 6251SOL     OW30214   4.556   0.558   3.518  0.2243 -0.0178  0.4312
 6251SOL    HW130215   4.648   0.581   3.507  0.7019 -0.3630  3.8031
 6251SOL    HW230216   4.559   0.475   3.566 -2.6273 -0.7976 -0.6850
 6252SOL     OW30217   1.075   2.487   3.069 -0.1034  0.4302  0.5795
 6252SOL    HW130218   0.981   2.483   3.053  0.5724 -1.8907 -2.8245
 6252SOL    HW230219   1.085   2.429   3.144 -1.4894 -0.8500 -0.2237
 6253SOL     OW30220   4.545   0.439   3.258  0.3652 -0.0364 -0.5511
 6253SOL    HW130221   4.517   0.349   3.244  2.8555 -0.9878  0.4378
 6253SOL    HW230222   4.495   0.467   3.335  1.4671  1.1732 -0.2762
 6254SOL     OW30223   1.395   3.496  17.467 -0.0571  0.0655  0.5186
 6254SOL    HW130224   1.428   3.582  17.493 -1.1351  0.9337 -1.0012
 6254SOL    HW230225   1.470   3.451  17.430  0.1771  0.9056 -0.0063
 6255SOL     OW30226   2.288   3.245   9.112 -0.0819 -0.2504 -0.1793
 6255SOL    HW130227   2.259   3.324   9.158 -3.2278  0.2192 -2.9735
 6255SOL    HW230228   2.371   3.279   9.078  0.0070  0.4367  0.7106
 6256SOL     OW30229   1.051   2.631   5.245 -0.7186 -0.2069 -0.8537
 6256SOL    HW130230   1.122   2.605   5.187  0.6375 -1.6286  1.4273
 6256SOL    HW230231   1.017   2.548   5.280  1.6118 -0.6964  0.2511
 6257SOL     OW30232   4.555   3.002   4.216  0.2236 -0.3858  0.4478
 6257SOL    HW130233   4.460   3.013   4.204 -0.0951 -1.4579  1.9769
 6257SOL    HW230234   4.576   3.095   4.229  1.6979 -0.7643  0.7210
 6258SOL     OW30235   2.070   1.165   6.082  0.5012 -0.1520 -0.4611
 6258SOL    HW130236   2.152   1.136   6.121 -0.0188 -1.5911 -0.4259
 6258SOL    HW230237   2.073   1.118   5.998  0.7159  0.0988 -0.5926
 6259SOL     OW30238   0.367   2.832   5.589  0.4989 -0.6918  0.4164
 6259SOL    HW130239   0.418   2.814   5.510  1.9828  2.2567  0.7241
 6259SOL    HW230240   0.336   2.918   5.563 -0.6501 -1.7963 -1.8179
 6260SOL     OW30241   2.782   0.432   5.309 -0.4142 -0.3552  0.0860
 6260SOL    HW130242   2.765   0.445   5.216  3.1556 -1.6792 -0.7472
 6260SOL    HW230243   2.737   0.502   5.357 -1.2434  0.5156 -1.9329
 6261SOL     OW30244   2.877   2.062  17.557 -0.2706  0.2328 -0.0428
 6261SOL    HW130245   2.905   2.091  17.644 -1.2685  1.3297 -0.0868
 6261SOL    HW230246   2.961   2.060  17.511  0.1261 -0.7636  0.7212
 6262SOL     OW30247   1.370   1.501   5.388  0.0406  0.3484 -0.1287
 6262SOL    HW130248   1.364   1.413   5.350 -0.0585  0.0358  0.6057
 6262SOL    HW230249   1.293   1.494   5.445  2.2879 -0.5242  2.8360
 6263SOL     OW30250   2.000   1.176   2.881 -0.2422 -0.4960 -0.2838
 6263SOL    HW130251   1.914   1.147   2.911  0.1464 -2.2313 -0.8967
 6263SOL    HW230252   2.027   1.089   2.853 -1.0579 -0.4010 -1.3838
 6264SOL     OW30253   2.621   1.403   6.226  0.0231  0.1296  0.4837
 6264SOL    HW130254   2.692   1.383   6.167  1.8648 -2.0311  3.4296
 6264SOL    HW230255   2.557   1.460   6.182  0.7568  1.8544  1.6415
 6265SOL     OW30256   4.276   2.893  12.910  0.4732  0.6097  0.2251
 6265SOL    HW130257   4.368   2.905  12.884  0.4681 -0.9668 -0.4963
 6265SOL    HW230258   4.253   2.824  12.848  1.6784 -0.4726  0.9743
 6266SOL     OW30259   3.044   0.187   6.098  0.0415 -0.4429 -0.6020
 6266SOL    HW130260   3.053   0.140   6.015  1.2609 -1.7149  0.2423
 6266SOL    HW230261   3.075   0.130   6.169  0.7103 -0.9697 -1.3138
 6267SOL     OW30262   2.514   3.387  15.305  0.0705  0.1748  0.3093
 6267SOL    HW130263   2.472   3.448  15.244  0.6277  0.1513 -0.1076
 6267SOL    HW230264   2.605   3.418  15.298 -0.7822  2.5906 -0.0062
 6268SOL     OW30265   2.749   2.462   1.990  0.4205  0.1246  0.1483
 6268SOL    HW130266   2.729   2.388   1.933  0.0439  0.9945 -0.8373
 6268SOL    HW230267   2.661   2.495   2.011  0.0782 -1.0000  0.4727
 6269SOL     OW30268   3.006   2.550  16.172 -0.6557  0.2388 -0.1650
 6269SOL    HW130269   2.946   2.623  16.159  0.5868  1.2805  0.0596
 6269SOL    HW230270   2.999   2.496  16.092 -2.3599  0.0554  0.0894
 6270SOL     OW30271   0.389   3.202  16.159  0.0309 -0.0802  0.5096
 6270SOL    HW130272   0.438   3.137  16.108 -0.8880  0.0953 -0.6020
 6270SOL    HW230273   0.318   3.218  16.096  0.9869 -1.7816 -0.9839
 6271SOL     OW30274   3.779   3.842   2.786 -0.7469 -0.6741 -0.1510
 6271SOL    HW130275   3.694   3.837   2.830  0.2430  0.6018  1.9259
 6271SOL    HW230276   3.814   3.927   2.812  1.3619 -2.0880  1.6266
 6272SOL     OW30277   1.946   2.893  12.070 -0.7299  0.5113  0.3742
 6272SOL    HW130278   1.981   2.811  12.106  0.4573  0.4099 -0.9972
 6272SOL    HW230279   2.009   2.910  12.000 -0.3930 -2.5912 -0.0905
 6273SOL     OW30280   1.656   1.688   2.171 -0.0073  0.0223  0.3422
 6273SOL    HW130281   1.597   1.674   2.245 -2.4054  0.4420 -1.4930
 6273SOL    HW230282   1.697   1.772   2.192 -0.9026  0.3008  0.9390
 6274SOL     OW30283   2.283   1.733  12.174  0.1089 -0.0049 -0.1174
 6274SOL    HW130284   2.369   1.742  12.213 -0.0892  0.8470  0.1380
 6274SOL    HW230285   2.273   1.642  12.147  0.5392 -0.8421  2.6381
 6275SOL     OW30286   2.461   3.473   9.052  0.9109  0.2831 -0.0496
 6275SOL    HW130287   2.475   3.424   8.971 -0.6661 -0.1790 -0.0233
 6275SOL    HW230288   2.546   3.469   9.097  0.9367  1.8474  0.0519
 6276SOL     OW30289   2.995   0.531  16.561  0.2498  0.2826 -0.3455
 6276SOL    HW130290   2.988   0.462  16.495  0.0522  0.3249 -0.3692
 6276SOL    HW230291   2.979   0.606  16.505 -2.1611  1.1002  1.4407
 6277SOL     OW30292   0.861   3.811   0.901  0.7983 -0.6942 -0.1772
 6277SOL    HW130293   0.819   3.897   0.905  0.7258 -0.6887 -1.1781
 6277SOL    HW230294   0.786   3.752   0.898  1.4954 -1.5541 -0.7583
 6278SOL     OW30295   2.227   1.017   5.848  0.1919  0.0591 -0.1255
 6278SOL    HW130296   2.195   0.990   5.762  0.5558  0.7230 -0.4664
 6278SOL    HW230297   2.318   1.027   5.822  0.1706 -0.0615 -0.2448
 6279SOL     OW30298   1.612   2.582   9.746  0.2142  0.7132 -0.5335
 6279SOL    HW130299   1.547   2.511   9.751  0.1182  0.8975  0.7705
 6279SOL    HW230300   1.593   2.623   9.830  0.9139  0.5959 -0.3214
 6280SOL     OW30301   2.885   0.852   7.312 -0.0072  0.3394 -0.4772
 6280SOL    HW130302   2.918   0.935   7.280 -0.7968  0.4758 -0.9032
 6280SOL    HW230303   2.948   0.792   7.271 -1.9226 -3.2679  1.8305
 6281SOL     OW30304   0.726   2.158   3.417  0.1059  0.0701 -0.1709
 6281SOL    HW130305   0.785   2.142   3.491  0.5582 -0.8193 -0.7274
 6281SOL    HW230306   0.787   2.191   3.351 -1.7059  2.3939 -0.7014
 6282SOL     OW30307   0.476   1.560   8.847  0.4712 -0.1459 -0.1864
 6282SOL    HW130308   0.544   1.599   8.902  1.3343 -1.5951 -0.2375
 6282SOL    HW230309   0.412   1.547   8.916 -0.0975  0.3807 -0.6132
 6283SOL     OW30310   2.426   0.896   3.375 -0.0677 -0.2340 -0.1957
 6283SOL    HW130311   2.340   0.872   3.339 -0.7271  0.0443  1.2167
 6283SOL    HW230312   2.468   0.840   3.309 -2.8751 -0.9261 -1.4271
 6284SOL     OW30313   1.598   1.973  16.006 -0.0949  0.0238  0.0416
 6284SOL    HW130314   1.507   2.002  15.997 -0.7324 -1.5839  1.3915
 6284SOL    HW230315   1.602   1.945  16.097  0.7307  0.6090  0.1909
 6285SOL     OW30316   0.037   4.211  13.220 -0.3767  0.5290  0.3413
 6285SOL    HW130317   4.693   4.272  13.189 -0.6441 -0.5887 -1.2881
 6285SOL    HW230318   4.723   4.203  13.308 -0.8712  0.0730  0.0865
 6286SOL     OW30319   2.960   0.603   8.403  1.1347  0.6691 -0.6412
 6286SOL    HW130320   2.993   0.516   8.425 -2.0738  0.2319  2.4302
 6286SOL    HW230321   2.988   0.618   8.313  2.0400 -1.2092 -0.6664
 6287SOL     OW30322   0.913   2.124   8.232  0.0104 -0.5919  0.1249
 6287SOL    HW130323   0.988   2.160   8.185  0.3879 -2.0119 -0.3920
 6287SOL    HW230324   0.847   2.163   8.175  1.6133  2.7735  0.6194
 6288SOL     OW30325   3.705   0.061  11.685 -0.0458  0.1274 -0.0510
 6288SOL    HW130326   3.757   4.720  11.639  1.5433  1.2447  0.1431
 6288SOL    HW230327   3.714   0.035  11.777 -1.8640  3.9106  1.2110
 6289SOL     OW30328   3.163   0.310   4.830 -0.4928  0.3154 -0.2058
 6289SOL    HW130329   3.180   0.401   4.806  1.0476 -0.6865 -2.8756
 6289SOL    HW230330   3.198   0.266   4.753  1.2262  1.0599  0.1645
 6290SOL     OW30331   3.233   1.324   6.164 -0.1591  0.0765  0.3208
 6290SOL    HW130332   3.182   1.243   6.169 -1.4809  0.9437  0.9157
 6290SOL    HW230333   3.171   1.391   6.195  1.7267  1.2190  1.6064
 6291SOL     OW30334   1.082   1.209   4.304 -0.1711 -0.4157  0.0529
 6291SOL    HW130335   0.990   1.236   4.297  0.0172 -0.3411 -2.0173
 6291SOL    HW230336   1.118   1.289   4.266  0.9561 -1.4439 -1.0176
 6292SOL     OW30337   4.255   2.516   1.720 -0.4516 -0.2126  0.0470
 6292SOL    HW130338   4.254   2.430   1.761  0.0543 -0.1746  0.1510
 6292SOL    HW230339   4.242   2.589   1.781  2.2514 -0.0578  0.4382
 6293SOL     OW30340   4.247   3.044   2.054  0.2562  0.0652 -0.5207
 6293SOL    HW130341   4.225   3.033   2.147 -1.1919 -0.6790 -0.9506
 6293SOL    HW230342   4.168   3.006   2.015  1.0324 -2.7523  0.6331
 6294SOL     OW30343   1.124   3.563   2.081  0.5579 -0.1901 -0.0160
 6294SOL    HW130344   1.159   3.614   2.154  0.6780 -0.5885  0.2056
 6294SOL    HW230345   1.186   3.580   2.011  0.7575 -0.4198  0.1082
 6295SOL     OW30346   4.609   2.183   4.294  0.3938 -0.6025 -0.2839
 6295SOL    HW130347   4.608   2.090   4.274  1.0284 -1.0066  1.6221
 6295SOL    HW230348   4.699   2.187   4.327 -0.6632 -0.1421  2.5242
 6296SOL     OW30349   3.804   4.281   1.103 -0.4225  0.7448 -0.0832
 6296SOL    HW130350   3.729   4.230   1.131  0.1327 -1.3213 -2.4270
 6296SOL    HW230351   3.850   4.275   1.187 -1.5412 -1.0872  0.3975
 6297SOL     OW30352   1.198   1.770  16.245 -0.0401 -0.4296 -0.4207
 6297SOL    HW130353   1.173   1.684  16.211  1.2999 -0.9310 -0.0996
 6297SOL    HW230354   1.133   1.794  16.311  0.4536 -3.6320  1.2332
 6298SOL     OW30355   2.934   4.370   3.776  0.2966 -0.4176  0.0259
 6298SOL    HW130356   2.994   4.391   3.848  0.4103  2.0452 -0.7665
 6298SOL    HW230357   3.008   4.354   3.717 -1.3573 -0.8894 -1.9422
 6299SOL     OW30358   2.103   3.712   9.283 -0.1507  0.4846 -0.2691
 6299SOL    HW130359   2.129   3.800   9.310  0.7955  0.3169 -0.6566
 6299SOL    HW230360   2.175   3.694   9.222 -0.1456 -3.3056  0.8751
 6300SOL     OW30361   0.359   2.152   8.525 -0.7695 -0.3856  0.4091
 6300SOL    HW130362   0.313   2.225   8.484 -1.8860 -1.0280  0.5134
 6300SOL    HW230363   0.422   2.126   8.458  0.1428  0.9029  0.7901
 6301SOL     OW30364   3.507   0.531   3.532 -0.0839  0.5173 -0.3813
 6301SOL    HW130365   3.492   0.622   3.557  0.0971 -0.1826  2.3256
 6301SOL    HW230366   3.505   0.542   3.437  0.8050  1.1823 -0.3299
 6302SOL     OW30367   3.251   2.770   6.671 -0.1812 -0.3164  0.0466
 6302SOL    HW130368   3.248   2.784   6.577  2.9804  0.1113  0.0131
 6302SOL    HW230369   3.345   2.771   6.688 -0.0602 -3.5078 -0.4699
 6303SOL     OW30370   0.018   2.643   8.500 -0.5385  0.5475  0.1243
 6303SOL    HW130371   0.067   2.678   8.575 -0.6673 -0.7183  0.7926
 6303SOL    HW230372   0.091   2.613   8.445  0.5172  1.6180  0.9301
 6304SOL     OW30373   3.233   3.270   4.996  0.5880  0.3069 -0.0519
 6304SOL    HW130374   3.222   3.359   4.962 -1.4258  0.4612  1.0208
 6304SOL    HW230375   3.264   3.232   4.913 -1.7217  1.3611 -1.3947
 6305SOL     OW30376   2.064   2.600   8.417  0.5136 -0.1453  0.3267
 6305SOL    HW130377   2.078   2.518   8.465  1.9031  0.8461  1.5960
 6305SOL    HW230378   2.106   2.672   8.464  0.4640  0.3252 -0.3508
 6306SOL     OW30379   3.876   0.990   8.132 -0.1683 -0.2911 -0.4764
 6306SOL    HW130380   3.958   0.949   8.161 -0.2301 -0.0617  0.0267
 6306SOL    HW230381   3.841   0.999   8.220 -0.3250  1.3052 -0.7055
 6307SOL     OW30382   2.358   4.146   6.995 -0.0570  0.0503 -0.3336
 6307SOL    HW130383   2.395   4.146   7.083 -0.5218  1.9009 -0.1404
 6307SOL    HW230384   2.265   4.162   7.009 -0.1356 -0.6015 -0.0601
 6308SOL     OW30385   1.262   4.545   3.951 -0.1002  0.1699  0.2588
 6308SOL    HW130386   1.262   4.552   4.046  0.1873 -3.0214  0.5019
 6308SOL    HW230387   1.172   4.571   3.931  0.2480  0.5856 -0.7702
 6309SOL     OW30388   1.338   0.219  12.363  0.4317 -0.0032 -0.0541
 6309SOL    HW130389   1.408   0.218  12.297 -0.6617  0.4638 -1.2115
 6309SOL    HW230390   1.260   0.199  12.313 -0.6164 -1.2665  2.0525
 6310SOL     OW30391   2.409   0.717   2.771  0.6337 -0.1011  0.3241
 6310SOL    HW130392   2.321   0.703   2.806  0.4235  0.7354  0.1306
 6310SOL    HW230393   2.382   0.787   2.710 -1.0248 -1.4552 -0.4994
 6311SOL     OW30394   4.561   1.628   5.777 -0.5944  0.2998 -0.5970
 6311SOL    HW130395   4.622   1.597   5.710 -0.1774 -1.2385  0.4695
 6311SOL    HW230396   4.505   1.550   5.774  0.8134 -0.7808  0.8214
 6312SOL     OW30397   3.864   4.703   4.525  0.2595  0.1026  0.1399
 6312SOL    HW130398   3.858   4.608   4.531 -0.2691  0.1300  0.1005
 6312SOL    HW230399   3.859   4.711   4.621 -1.5085  1.3262 -0.0508
 6313SOL     OW30400   3.561   2.245  15.574  0.1742  0.3328  0.3594
 6313SOL    HW130401   3.607   2.318  15.534 -1.1557  0.2124 -1.3633
 6313SOL    HW230402   3.536   2.277  15.660 -0.6637  0.1940  0.1617
 6314SOL     OW30403   4.111   0.955   5.721  0.0450 -0.4798 -0.5285
 6314SOL    HW130404   4.130   1.031   5.776  1.5047 -1.2215 -0.0314
 6314SOL    HW230405   4.017   0.966   5.705  0.1248  1.4238  0.2977
 6315SOL     OW30406   2.000   0.482   3.017  0.5772 -0.0145  0.1592
 6315SOL    HW130407   1.977   0.526   3.099  0.3809  0.4579 -0.1532
 6315SOL    HW230408   1.982   0.390   3.037 -2.4983  0.5490 -0.0574
 6316SOL     OW30409   2.356   2.108   6.863  0.5506  0.4339  0.4227
 6316SOL    HW130410   2.370   2.101   6.768  1.4554 -1.5086  0.6946
 6316SOL    HW230411   2.439   2.149   6.887 -0.0948  2.2860 -0.5447
 6317SOL     OW30412   0.134   2.892   4.125 -0.0430 -0.6138 -0.1671
 6317SOL    HW130413   0.137   2.822   4.059 -0.4519 -0.4491 -0.3626
 6317SOL    HW230414   0.226   2.900   4.150  0.1492  2.3881 -1.9545
 6318SOL     OW30415   1.317   0.529  12.564 -0.7883  0.3570  0.5270
 6318SOL    HW130416   1.290   0.447  12.524 -1.2955  1.5482 -1.5421
 6318SOL    HW230417   1.372   0.495  12.635  0.0205 -0.9618 -0.7452
 6319SOL     OW30418   0.979   0.968  16.737 -0.9543  0.4480  0.3485
 6319SOL    HW130419   0.986   1.061  16.713  0.6658 -0.4715 -2.7851
 6319SOL    HW230420   1.030   0.933  16.663 -0.3688 -0.4128  1.1632
 6320SOL     OW30421   2.244   3.942   9.343  0.3549 -0.0638  0.3891
 6320SOL    HW130422   2.321   3.928   9.399 -1.0881  1.0464  2.6742
 6320SOL    HW230423   2.281   4.008   9.285 -2.1240  0.8083 -0.1810
 6321SOL     OW30424   3.274   2.755  16.844  0.3134 -0.1403  0.2442
 6321SOL    HW130425   3.275   2.720  16.933 -1.0716  0.2989  0.4302
 6321SOL    HW230426   3.249   2.676  16.796 -2.5082 -0.1802  1.8244
 6322SOL     OW30427   3.420   4.012   0.263 -0.1572 -0.7531 -0.3697
 6322SOL    HW130428   3.358   3.966   0.319  0.1033 -2.1309 -1.2083
 6322SOL    HW230429   3.499   3.993   0.313  0.5013  1.8722 -0.4316
 6323SOL     OW30430   1.394   3.148   4.707  1.1432  0.3356 -0.1299
 6323SOL    HW130431   1.389   3.054   4.728 -1.2439  0.5787  0.3232
 6323SOL    HW230432   1.370   3.143   4.615 -1.3324 -0.2751  0.5507
 6324SOL     OW30433   2.970   1.022   8.865 -0.6192 -0.3263  0.3157
 6324SOL    HW130434   2.989   1.116   8.870 -1.2144 -0.2504  1.1826
 6324SOL    HW230435   2.884   1.030   8.824  0.1914 -1.8646 -1.6559
 6325SOL     OW30436   3.262   3.877  12.241 -0.6874 -0.2936 -0.4175
 6325SOL    HW130437   3.341   3.853  12.290  0.1946  1.5184 -0.9389
 6325SOL    HW230438   3.258   3.973  12.247  0.0468 -0.2970  0.2444
 6326SOL     OW30439   1.506   2.679   4.919  0.5239  0.1722 -0.2219
 6326SOL    HW130440   1.500   2.720   4.832 -1.4848 -2.0238 -1.1326
 6326SOL    HW230441   1.559   2.741   4.968 -2.1713  2.9915 -0.8367
 6327SOL     OW30442   2.535   0.796   1.352  0.2960 -0.1407 -0.6367
 6327SOL    HW130443   2.584   0.740   1.291  1.1044 -0.4668  0.3121
 6327SOL    HW230444   2.445   0.762   1.345 -1.1302  3.6384 -0.4434
 6328SOL     OW30445   1.366   4.179   1.323 -0.3634  0.2266  0.8740
 6328SOL    HW130446   1.447   4.196   1.370  0.3963 -0.9716 -0.0223
 6328SOL    HW230447   1.388   4.118   1.253 -0.1874 -1.7968  2.6619
 6329SOL     OW30448   1.662   4.241   6.791  0.0758 -0.5524 -0.0408
 6329SOL    HW130449   1.583   4.200   6.827  0.5303 -2.5616 -1.3895
 6329SOL    HW230450   1.629   4.312   6.736  1.1678 -2.2370 -2.8829
 6330SOL     OW30451   0.241   4.029   8.502 -0.1941  0.1696  0.3066
 6330SOL    HW130452   0.318   4.036   8.559 -0.2528  0.4079  0.3578
 6330SOL    HW230453   0.268   3.951   8.454 -0.5907  0.4386 -0.3732
 6331SOL     OW30454   4.531   2.152   7.666 -0.4752 -0.2277 -0.2648
 6331SOL    HW130455   4.478   2.214   7.716 -0.5940 -0.6328  0.1126
 6331SOL    HW230456   4.466   2.084   7.646 -1.3972  0.6743 -0.3662
 6332SOL     OW30457   3.967   3.196   3.707 -0.4257 -0.7471 -0.2227
 6332SOL    HW130458   3.930   3.144   3.778  1.0532 -3.6149 -1.5526
 6332SOL    HW230459   4.047   3.146   3.691 -0.0565 -0.3034  0.2571
 6333SOL     OW30460   1.841   1.578  13.572 -0.5994 -0.1626  0.6610
 6333SOL    HW130461   1.882   1.628  13.502  0.9089 -3.2553 -0.6719
 6333SOL    HW230462   1.885   1.493  13.569  0.5962  0.5186 -0.8953
 6334SOL     OW30463   4.088   2.143  11.422  0.2889  0.6163  0.6458
 6334SOL    HW130464   4.180   2.117  11.413 -0.4424 -1.5421 -0.5560
 6334SOL    HW230465   4.088   2.230  11.384  2.3275  0.4811  0.3240
 6335SOL     OW30466   3.098   3.942   6.623  0.0381  0.2413  0.3600
 6335SOL    HW130467   3.009   3.977   6.634 -0.0744 -0.3070  1.1484
 6335SOL    HW230468   3.090   3.853   6.657  0.9002 -0.0567 -0.2274
 6336SOL     OW30469   4.430   0.734   7.359 -0.2561  0.0698  0.1689
 6336SOL    HW130470   4.410   0.827   7.368 -1.8855 -0.0659 -2.0109
 6336SOL    HW230471   4.484   0.729   7.280 -0.4491  1.2258 -0.0245
 6337SOL     OW30472   1.480   4.063  12.278  0.8492  0.3203  0.0648
 6337SOL    HW130473   1.530   4.080  12.358 -0.3970 -0.7357  1.0633
 6337SOL    HW230474   1.396   4.090  12.314 -0.7161 -0.8153 -2.7266
 6338SOL     OW30475   0.949   0.409   5.481 -0.1902  0.0109  0.7139
 6338SOL    HW130476   0.927   0.404   5.388  0.0981 -0.6468  0.6783
 6338SOL    HW230477   0.868   0.432   5.526  0.3674  1.1178  1.1502
 6339SOL     OW30478   1.115   0.237   5.913  0.4044  0.8982  0.1078
 6339SOL    HW130479   1.047   0.215   5.977 -0.4039  2.1925 -0.3062
 6339SOL    HW230480   1.158   0.311   5.956  1.8126  0.4282 -0.5064
 6340SOL     OW30481   0.114   2.185  12.604 -0.4482  0.5206 -0.7933
 6340SOL    HW130482   0.203   2.220  12.613 -0.5656  0.6241 -0.0632
 6340SOL    HW230483   0.099   2.123  12.675  3.3423  1.0258  0.4721
 6341SOL     OW30484   1.503   0.697   3.130  0.1220  0.3863 -0.7657
 6341SOL    HW130485   1.514   0.728   3.041 -0.9261  1.0436 -0.6661
 6341SOL    HW230486   1.523   0.604   3.117 -0.2184  0.1763  0.2188
 6342SOL     OW30487   1.771   2.705  17.296  0.7468  0.3312 -0.1982
 6342SOL    HW130488   1.824   2.643  17.247 -0.1771 -1.4463  1.0633
 6342SOL    HW230489   1.738   2.757  17.222  0.4629 -1.0108 -1.0038
 6343SOL     OW30490   0.840   0.427   3.164  0.2172 -0.3495 -0.4581
 6343SOL    HW130491   0.885   0.489   3.106  0.6748 -0.1096  0.1581
 6343SOL    HW230492   0.798   0.363   3.106  2.6846 -1.2517 -1.2391
 6344SOL     OW30493   1.490   3.750   6.255 -0.0571  0.2463  0.2154
 6344SOL    HW130494   1.575   3.793   6.252  0.6445 -0.9488  3.8264
 6344SOL    HW230495   1.467   3.783   6.341  1.0208  0.3152  0.4785
 6345SOL     OW30496   0.548   3.708   6.406 -0.4873 -0.2303 -0.6740
 6345SOL    HW130497   0.467   3.751   6.381  0.2266  2.4729  1.6668
 6345SOL    HW230498   0.526   3.619   6.379 -1.8381  0.2714 -1.2337
 6346SOL     OW30499   2.484   2.084   8.225 -0.4398 -0.2673  0.4146
 6346SOL    HW130500   2.444   2.157   8.273 -2.4830 -1.0850 -0.0326
 6346SOL    HW230501   2.578   2.094   8.236 -0.0571 -2.2738 -1.0347
 6347SOL     OW30502   2.172   2.574  15.212  1.0053 -0.3772 -0.2511
 6347SOL    HW130503   2.254   2.592  15.258  0.9579  0.8962 -0.6782
 6347SOL    HW230504   2.156   2.665  15.185 -1.8468 -0.3798  1.3660
 6348SOL     OW30505   0.813   4.482  10.548 -0.1064 -0.3539 -0.5761
 6348SOL    HW130506   0.750   4.554  10.551  0.3854  0.0200  0.6399
 6348SOL    HW230507   0.752   4.411  10.566 -0.8921  0.5294  0.2862
 6349SOL     OW30508   4.209   3.262   3.126  0.3179 -0.2495  0.5556
 6349SOL    HW130509   4.205   3.214   3.209  1.1424 -0.7785  0.2837
 6349SOL    HW230510   4.300   3.263   3.099  0.0687 -3.4534 -0.3215
 6350SOL     OW30511   2.788   4.704  10.059 -0.1369  0.0552  0.2066
 6350SOL    HW130512   2.800   0.036  10.135 -2.0439  1.2882 -0.4099
 6350SOL    HW230513   2.705   4.666  10.087  0.5943 -1.4126  0.4171
 6351SOL     OW30514   2.472   2.709   3.582  0.3949  0.1404  0.3178
 6351SOL    HW130515   2.486   2.619   3.554  0.6895 -0.5421  2.6785
 6351SOL    HW230516   2.435   2.765   3.514 -1.8792  2.0251  3.1371
 6352SOL     OW30517   2.680   0.619   2.204 -1.0460  0.4280 -0.0163
 6352SOL    HW130518   2.746   0.566   2.159  0.3914  2.1804  0.0519
 6352SOL    HW230519   2.621   0.548   2.231 -2.6747  2.3476  1.4667
 6353SOL     OW30520   4.629   1.015   5.621 -0.1738 -0.4765  0.8077
 6353SOL    HW130521   4.639   0.961   5.699 -0.1958 -3.2581 -1.0717
 6353SOL    HW230522   4.540   0.993   5.593 -0.6019  2.2656  0.0641
 6354SOL     OW30523   1.234   3.447   4.857  0.7664 -0.3417 -0.0760
 6354SOL    HW130524   1.142   3.428   4.839  1.1117 -1.0186 -1.1276
 6354SOL    HW230525   1.235   3.540   4.877 -0.9666 -0.3099 -0.1671
 6355SOL     OW30526   2.443   0.860  16.109 -0.1786  0.1477  0.0308
 6355SOL    HW130527   2.417   0.952  16.110 -0.0891  0.1756 -0.8070
 6355SOL    HW230528   2.379   0.819  16.051 -0.0490 -0.8906  0.6286
 6356SOL     OW30529   1.804   0.093   6.940  0.4279 -0.4747 -1.4618
 6356SOL    HW130530   1.886   0.073   6.895  0.7483 -0.3548 -0.9280
 6356SOL    HW230531   1.787   0.004   6.969  1.3530  0.2654  1.3592
 6357SOL     OW30532   0.197   1.116   3.813  0.3241 -0.4349 -0.4082
 6357SOL    HW130533   0.146   1.119   3.733 -0.7366  0.1311  0.2877
 6357SOL    HW230534   0.288   1.143   3.798  0.7697 -1.7709 -0.1358
 6358SOL     OW30535   0.801   4.546   3.885  0.0005 -0.8565  0.3009
 6358SOL    HW130536   0.740   4.534   3.958 -2.0372  3.2324 -0.7420
 6358SOL    HW230537   0.757   4.605   3.824  1.0149 -0.9182 -0.4983
 6359SOL     OW30538   3.475   1.426   9.461  0.2911 -0.4445 -0.5224
 6359SOL    HW130539   3.557   1.390   9.497  0.2293  0.7682  0.8518
 6359SOL    HW230540   3.418   1.437   9.537 -0.5255 -2.4889 -0.8423
 6360SOL     OW30541   4.126   4.138   8.235  0.4812 -0.4224  0.2610
 6360SOL    HW130542   4.068   4.213   8.247 -0.2442 -1.0727  0.8416
 6360SOL    HW230543   4.149   4.106   8.322 -1.9705 -2.0996  0.2924
 6361SOL     OW30544   0.671   0.623   8.748  0.1244 -0.5943 -0.1320
 6361SOL    HW130545   0.594   0.599   8.801  1.3052 -0.3147  1.6946
 6361SOL    HW230546   0.635   0.695   8.696  0.5430 -0.6488 -0.4917
 6362SOL     OW30547   0.409   1.676   7.571 -0.3960 -0.1682 -0.2056
 6362SOL    HW130548   0.414   1.761   7.615 -1.8228  0.3418 -1.0247
 6362SOL    HW230549   0.324   1.640   7.598 -1.2101 -0.8073 -3.5669
 6363SOL     OW30550   3.061   2.156  13.297 -0.3465 -0.5153  0.4254
 6363SOL    HW130551   3.054   2.085  13.233  0.4516  1.4251 -1.7989
 6363SOL    HW230552   3.153   2.158  13.323 -0.7111  0.4949  1.5965
 6364SOL     OW30553   2.735   4.446  15.123  0.5144  0.2020 -0.0776
 6364SOL    HW130554   2.801   4.514  15.134 -0.3661  1.0063  0.2210
 6364SOL    HW230555   2.660   4.486  15.166 -1.1569 -1.8845 -1.0120
 6365SOL     OW30556   4.553   2.596  17.099 -0.3184 -0.5612 -0.1368
 6365SOL    HW130557   4.526   2.651  17.025 -0.0265 -1.6494 -1.0672
 6365SOL    HW230558   4.468   2.581  17.141 -0.2589 -2.7736 -0.7786
 6366SOL     OW30559   0.338   4.136   4.022 -0.0625 -0.3416 -0.3436
 6366SOL    HW130560   0.336   4.136   3.927 -0.3712 -0.0762 -0.3375
 6366SOL    HW230561   0.396   4.208   4.050  1.4047 -0.7513 -2.3565
 6367SOL     OW30562   0.195   4.446   7.241 -0.4012  0.2004  0.1816
 6367SOL    HW130563   0.230   4.535   7.236  1.8751 -0.6749  0.4278
 6367SOL    HW230564   0.193   4.423   7.148  0.6019  1.1444 -0.0716
 6368SOL     OW30565   3.023   1.932   8.273 -0.0170 -0.3006 -1.0458
 6368SOL    HW130566   3.016   1.923   8.369  2.2018 -0.7282 -0.9401
 6368SOL    HW230567   3.039   2.026   8.265  0.5851 -0.2157  1.2009
 6369SOL     OW30568   4.358   3.942   4.467  0.1739 -0.4346 -0.4345
 6369SOL    HW130569   4.367   3.969   4.376 -0.9998 -1.7387 -0.9423
 6369SOL    HW230570   4.269   3.963   4.495  0.2783  0.9891 -1.2079
 6370SOL     OW30571   2.785   2.324   7.679 -0.0769 -0.4051  0.0711
 6370SOL    HW130572   2.872   2.297   7.708 -0.6357 -0.0330  2.1158
 6370SOL    HW230573   2.805   2.359   7.593  2.0717 -1.1372  0.2832
 6371SOL     OW30574   2.169   0.001   5.487 -0.4553 -0.1055 -0.0414
 6371SOL    HW130575   2.078   0.030   5.498 -0.5030 -0.0565 -0.5670
 6371SOL    HW230576   2.177   0.024   5.394  1.4690 -0.5646  0.0031
 6372SOL     OW30577   0.543   0.191  15.555 -0.4534 -0.0937 -0.2191
 6372SOL    HW130578   0.487   0.139  15.613  0.5872 -2.0115 -0.9334
 6372SOL    HW230579   0.489   0.236  15.490 -0.7562 -1.3979 -0.8597
 6373SOL     OW30580   4.127   1.467   5.779  0.4523 -0.4105  0.2153
 6373SOL    HW130581   4.148   1.557   5.756  1.3707 -0.6204  0.2024
 6373SOL    HW230582   4.033   1.471   5.794  0.3865 -0.3487 -0.2262
 6374SOL     OW30583   2.793   4.230   7.331 -0.1572 -0.0545  0.2043
 6374SOL    HW130584   2.716   4.286   7.343 -1.3981 -1.5653 -0.7034
 6374SOL    HW230585   2.821   4.257   7.244 -0.8111  3.5822  1.1197
 6375SOL     OW30586   4.048   3.552  14.267 -0.1105  0.0381  0.3821
 6375SOL    HW130587   4.057   3.580  14.176 -1.6966 -2.6374 -0.6190
 6375SOL    HW230588   4.138   3.560  14.298  0.1503 -3.1126  0.4383
 6376SOL     OW30589   2.999   1.975   8.550  0.1721  0.4146  0.3966
 6376SOL    HW130590   3.017   1.959   8.643  0.5962 -0.8175  0.1123
 6376SOL    HW230591   2.920   2.029   8.558  0.8552  1.1794  2.0428
 6377SOL     OW30592   4.029   1.522   3.785 -0.1632 -0.0883  0.0923
 6377SOL    HW130593   4.120   1.547   3.773 -0.1966 -0.8680 -1.7611
 6377SOL    HW230594   4.005   1.586   3.852 -0.2717 -0.4931  0.4404
 6378SOL     OW30595   1.291   2.176   0.972  0.7594  0.0181 -0.4704
 6378SOL    HW130596   1.204   2.211   0.992  1.5221  0.6327  1.7047
 6378SOL    HW230597   1.270   2.095   0.925  0.8304 -1.9900  3.0014
 6379SOL     OW30598   3.102   0.107   8.176  0.4676 -0.1849  0.2780
 6379SOL    HW130599   3.144   0.089   8.092 -1.6725  1.5052 -1.1636
 6379SOL    HW230600   3.153   0.044   8.227 -0.6968 -1.7321 -0.4671
 6380SOL     OW30601   3.613   1.136  14.878  0.3158  0.3475 -0.6816
 6380SOL    HW130602   3.622   1.195  14.802  0.1195  1.0383 -0.1716
 6380SOL    HW230603   3.566   1.059  14.845 -0.1651 -0.3630  1.6963
 6381SOL     OW30604   2.909   1.387  13.507 -0.0308  0.1605  0.1317
 6381SOL    HW130605   2.885   1.326  13.437 -1.1997  1.4175 -0.5675
 6381SOL    HW230606   2.933   1.468  13.462  1.9609  1.0653  2.8382
 6382SOL     OW30607   1.644   4.543   7.937 -0.1850 -0.0763  0.1651
 6382SOL    HW130608   1.714   4.603   7.962  0.7349 -0.9051 -0.4586
 6382SOL    HW230609   1.577   4.607   7.911 -0.3418 -0.3910 -0.1986
 6383SOL     OW30610   1.600   3.660   2.262  0.1919  0.1105 -0.2762
 6383SOL    HW130611   1.553   3.642   2.344  0.2590 -1.1899 -0.5254
 6383SOL    HW230612   1.547   3.713   2.203  0.5595  2.4879  1.5343
 6384SOL     OW30613   1.172   0.193   1.744 -0.5410 -0.3946  0.1972
 6384SOL    HW130614   1.079   0.183   1.762 -0.4306  0.1987  1.0769
 6384SOL    HW230615   1.187   0.237   1.827 -0.8998 -2.8693  1.5898
 6385SOL     OW30616   1.221   3.052  14.717 -0.1401  0.4492 -0.0696
 6385SOL    HW130617   1.171   3.098  14.649 -1.7861 -0.3084  0.6449
 6385SOL    HW230618   1.151   3.038  14.780  2.3872 -1.2151  2.3371
 6386SOL     OW30619   2.087   4.213   2.916 -0.2029 -0.3227  0.1856
 6386SOL    HW130620   2.129   4.299   2.914  0.6947 -0.7779 -0.9625
 6386SOL    HW230621   2.020   4.222   2.983  1.2566 -1.3339  1.7699
 6387SOL     OW30622   4.292   1.657  11.845  0.1535  0.5556 -0.1726
 6387SOL    HW130623   4.239   1.583  11.815  0.0190 -0.2162  1.9356
 6387SOL    HW230624   4.379   1.617  11.843 -0.4074 -0.7376  0.5673
 6388SOL     OW30625   4.157   1.922   9.651 -0.1251  0.3563  0.6011
 6388SOL    HW130626   4.242   1.890   9.622 -0.6624 -1.4749  1.0290
 6388SOL    HW230627   4.165   1.947   9.743  0.6123  1.4224  0.2311
 6389SOL     OW30628   1.813   1.822  10.413 -0.1992  0.2907 -0.0646
 6389SOL    HW130629   1.888   1.763  10.401  2.5403  3.8082 -0.4032
 6389SOL    HW230630   1.754   1.810  10.338  0.2039 -3.5572  0.2811
 6390SOL     OW30631   4.414   3.913  14.129 -0.1675  0.4243 -0.4739
 6390SOL    HW130632   4.463   3.907  14.211 -1.8953  1.5788  0.6151
 6390SOL    HW230633   4.433   3.830  14.084  0.9125  0.6605 -0.4580
 6391SOL     OW30634   1.411   0.091   4.201 -0.0834 -0.7011  0.0787
 6391SOL    HW130635   1.422   0.186   4.192  3.1298 -1.2401 -1.5544
 6391SOL    HW230636   1.387   0.093   4.294  3.6439  1.5169  1.0231
 6392SOL     OW30637   1.338   2.540  16.608 -0.3012  0.3332  0.2658
 6392SOL    HW130638   1.362   2.570  16.696  1.2907  0.2225 -0.1378
 6392SOL    HW230639   1.415   2.485  16.592  0.3308  0.7969  1.6676
 6393SOL     OW30640   1.590   1.424   6.674  0.4842 -0.2270  0.2286
 6393SOL    HW130641   1.609   1.498   6.731  0.6941 -0.3866  0.3639
 6393SOL    HW230642   1.672   1.402   6.631 -0.7009 -3.1228 -0.5367
 6394SOL     OW30643   0.164   2.857  17.374  0.5751 -0.0848  0.1665
 6394SOL    HW130644   0.182   2.852  17.468 -0.8254 -0.7826  0.3944
 6394SOL    HW230645   0.070   2.867  17.388  0.2474 -0.9048 -1.3899
 6395SOL     OW30646   0.249   3.468   5.505 -0.3078 -0.4793 -0.4086
 6395SOL    HW130647   0.246   3.401   5.573 -0.3466 -1.9056 -1.8317
 6395SOL    HW230648   0.342   3.491   5.506 -0.1660 -1.0779  0.4040
 6396SOL     OW30649   1.806   1.926  16.783  0.1946  0.3649 -0.1031
 6396SOL    HW130650   1.898   1.942  16.805 -0.4990  0.5180  2.6387
 6396SOL    HW230651   1.780   2.016  16.761  0.6374  0.3244 -0.7868
 6397SOL     OW30652   0.435   2.821   6.118 -0.5798  0.6250  0.0626
 6397SOL    HW130653   0.359   2.860   6.075  0.8696  4.1803  0.7216
 6397SOL    HW230654   0.452   2.743   6.065  2.1007  0.9328  0.4683
 6398SOL     OW30655   2.045   1.768   2.953  0.3702 -1.0610 -0.4712
 6398SOL    HW130656   2.018   1.678   2.968 -1.5672 -0.4220 -0.1537
 6398SOL    HW230657   2.033   1.800   3.043 -1.5351 -0.4698 -0.9388
 6399SOL     OW30658   2.484   0.451  15.950 -0.5279 -0.0435 -0.8832
 6399SOL    HW130659   2.504   0.540  15.920  2.5062 -1.2274 -2.3229
 6399SOL    HW230660   2.543   0.441  16.024  0.0574  0.2811 -1.3044
 6400SOL     OW30661   2.194   3.680   4.283 -0.1052  0.1160 -0.2433
 6400SOL    HW130662   2.146   3.631   4.216 -2.4123  2.7206 -0.5046
 6400SOL    HW230663   2.268   3.717   4.236 -0.9451  1.3677 -0.5760
 6401SOL     OW30664   1.421   3.742   5.853  0.2844 -0.3795  0.5639
 6401SOL    HW130665   1.337   3.729   5.898  0.4646  0.5441  1.1523
 6401SOL    HW230666   1.460   3.823   5.885 -0.4249  0.3232 -0.3437
 6402SOL     OW30667   3.748   2.977   5.936  0.2818 -0.2341  0.6553
 6402SOL    HW130668   3.655   2.987   5.957  0.9145  1.4759  2.6100
 6402SOL    HW230669   3.755   2.896   5.986  0.2264 -1.9161 -2.0498
 6403SOL     OW30670   4.188   0.085  13.830 -0.6387 -0.0845 -0.2432
 6403SOL    HW130671   4.275   0.069  13.867 -1.4245  1.3056  2.2043
 6403SOL    HW230672   4.213   0.141  13.756 -1.8401 -1.0005 -1.3364
 6404SOL     OW30673   0.783   4.101   6.465  0.2036 -0.3140  0.2023
 6404SOL    HW130674   0.777   4.197   6.467  0.3865 -0.1815 -4.7751
 6404SOL    HW230675   0.689   4.084   6.475  0.4126 -1.7826 -0.3118
 6405SOL     OW30676   3.277   3.162   2.600 -0.3443 -0.2155 -0.6944
 6405SOL    HW130677   3.343   3.096   2.580  1.3054  0.9536  0.9952
 6405SOL    HW230678   3.281   3.171   2.695  1.9339 -3.9372 -0.4728
 6406SOL     OW30679   4.072   4.009   1.374 -0.1748 -0.1501  0.1419
 6406SOL    HW130680   4.072   4.104   1.367  2.4263 -0.1940 -0.5804
 6406SOL    HW230681   4.035   3.990   1.460 -0.0309 -1.1066 -0.0023
 6407SOL     OW30682   2.045   1.475   0.263  0.4953 -1.1861 -0.0720
 6407SOL    HW130683   2.028   1.433   0.347 -0.2507 -2.7394 -1.0095
 6407SOL    HW230684   2.088   1.555   0.295 -0.8488  0.1527 -1.6347
 6408SOL     OW30685   0.408   4.004   4.822  0.2271  0.5924 -0.4172
 6408SOL    HW130686   0.472   3.940   4.851 -0.2420  0.6041  0.6288
 6408SOL    HW230687   0.392   4.049   4.905  1.1313  0.5253 -0.2075
 6409SOL     OW30688   0.193   0.040   0.688 -0.4545 -0.3976  0.2853
 6409SOL    HW130689   0.262   0.066   0.626 -0.4957  1.1347  0.8627
 6409SOL    HW230690   0.243   0.046   0.770 -0.3654  0.7096  0.1526
 6410SOL     OW30691   2.512   3.135   4.043 -0.1347 -0.2626  0.1859
 6410SOL    HW130692   2.568   3.058   4.056  0.5350  0.5121  1.9195
 6410SOL    HW230693   2.442   3.101   4.099 -2.1175  3.2865 -0.1594
 6411SOL     OW30694   3.420   4.450   2.842  0.1338 -0.1121  0.1339
 6411SOL    HW130695   3.382   4.465   2.755  1.0329  0.8325 -0.1020
 6411SOL    HW230696   3.348   4.395   2.874  1.7445 -2.7671 -0.7965
 6412SOL     OW30697   2.238   2.231  13.444 -0.1633 -0.3533  0.1631
 6412SOL    HW130698   2.172   2.166  13.424 -0.9511  0.4668  0.0885
 6412SOL    HW230699   2.282   2.187  13.517  1.6486  0.3586 -0.4868
 6413SOL     OW30700   2.489   1.919   4.426  0.4441  0.2756 -0.4394
 6413SOL    HW130701   2.461   1.869   4.502  0.8554  0.1699 -0.3601
 6413SOL    HW230702   2.416   1.981   4.429 -0.1026 -0.3346 -0.8860
 6414SOL     OW30703   0.948   2.984   7.197  0.2252  0.3377 -0.0110
 6414SOL    HW130704   0.869   2.952   7.240  1.0221 -2.0113 -0.2861
 6414SOL    HW230705   0.966   3.061   7.251 -1.6411  0.3448  0.6001
 6415SOL     OW30706   0.108   2.732   9.743 -0.0717  0.4875 -0.3386
 6415SOL    HW130707   0.031   2.736   9.686 -1.3874 -0.8178  1.3510
 6415SOL    HW230708   0.069   2.776   9.819 -1.9322 -0.6335 -0.6361
 6416SOL     OW30709   4.034   0.487  17.602  0.3401 -0.8980  0.1469
 6416SOL    HW130710   4.063   0.463  17.690  1.1146 -1.4589 -0.2699
 6416SOL    HW230711   3.938   0.490  17.602  0.3901  1.2636  1.0355
 6417SOL     OW30712   2.254   0.738  15.933 -0.2128  0.3362 -0.1722
 6417SOL    HW130713   2.200   0.785  15.997 -0.1403  2.2505 -1.5163
 6417SOL    HW230714   2.187   0.685  15.890  2.3736 -0.7560 -2.7997
 6418SOL     OW30715   3.775   1.634  10.440  0.0011  0.5191 -0.1858
 6418SOL    HW130716   3.689   1.628  10.398  0.3560 -0.5888 -0.7430
 6418SOL    HW230717   3.834   1.626  10.365  1.1026  1.2692  0.5969
 6419SOL     OW30718   1.072   2.443   8.278  0.2798  0.4009 -0.1837
 6419SOL    HW130719   1.161   2.437   8.312 -0.0874  2.2125  1.0978
 6419SOL    HW230720   1.018   2.373   8.314 -0.0834  0.7464 -0.0584
 6420SOL     OW30721   4.123   1.364   8.273 -0.7854 -0.3495 -0.4274
 6420SOL    HW130722   4.161   1.285   8.233 -2.3217 -0.3976 -1.7715
 6420SOL    HW230723   4.046   1.331   8.319 -1.6442  0.8912 -0.9835
 6421SOL     OW30724   3.831   1.539  10.883 -0.1318  0.1018 -0.6326
 6421SOL    HW130725   3.864   1.583  10.805 -0.7632 -4.3679 -3.4326
 6421SOL    HW230726   3.742   1.521  10.852  1.0696 -3.7803 -1.8340
 6422SOL     OW30727   4.675   2.942   6.295  0.0261  0.2391  0.8011
 6422SOL    HW130728   0.001   2.926   6.215  1.4331 -0.7156  1.8644
 6422SOL    HW230729   4.644   2.856   6.322  1.8282 -0.4411  0.7360
 6423SOL     OW30730   4.059   2.904   2.621  0.0623  0.4967  0.2503
 6423SOL    HW130731   4.114   2.825   2.625 -2.4249 -1.2779 -1.1125
 6423SOL    HW230732   4.094   2.935   2.538 -1.3170 -0.4799 -0.6901
 6424SOL     OW30733   1.145   3.961  14.951 -0.1277  0.5150  0.1371
 6424SOL    HW130734   1.154   3.925  14.863  0.4541  0.3820  0.2439
 6424SOL    HW230735   1.177   3.886  15.002  1.6975  2.3633  1.7499
 6425SOL     OW30736   2.925   2.974  12.964 -0.3506 -0.2316  0.0330
 6425SOL    HW130737   3.012   2.957  12.999  0.5911  0.9088 -1.7262
 6425SOL    HW230738   2.890   3.041  13.022 -0.9795  0.8125 -1.5429
 6426SOL     OW30739   1.823   2.606  13.901 -0.3270 -0.5657  0.4014
 6426SOL    HW130740   1.765   2.535  13.930  0.0503  0.2422  3.1064
 6426SOL    HW230741   1.889   2.546  13.865 -0.5565  0.0605 -1.0751
 6427SOL     OW30742   2.681   1.986   1.303  0.2492 -0.2625  0.2397
 6427SOL    HW130743   2.671   2.080   1.289 -2.5755 -0.5889  0.0623
 6427SOL    HW230744   2.607   1.940   1.264  0.0976  0.2055 -0.0168
 6428SOL     OW30745   4.082   3.910   4.294 -0.1154  0.0336  0.0530
 6428SOL    HW130746   4.062   3.910   4.200  1.6261 -1.1519 -0.3160
 6428SOL    HW230747   4.067   3.816   4.301  0.8663 -0.0407  1.0771
 6429SOL     OW30748   1.794   1.979  17.347 -0.2646 -0.3817  0.1370
 6429SOL    HW130749   1.756   2.059  17.313  1.9923 -0.2480 -2.0525
 6429SOL    HW230750   1.762   1.911  17.287 -0.7485 -0.0029 -0.0337
 6430SOL     OW30751   2.722   3.114   2.935  0.6938 -0.4260 -0.2096
 6430SOL    HW130752   2.720   3.028   2.976  1.9712  0.0740  0.8975
 6430SOL    HW230753   2.775   3.159   3.001  1.1948 -0.8418 -0.3325
 6431SOL     OW30754   2.712   1.908   2.002  0.0507  0.7771  0.6545
 6431SOL    HW130755   2.742   1.911   1.911 -0.2922 -2.0930  0.4550
 6431SOL    HW230756   2.787   1.946   2.047  0.9598  0.1903 -0.3847
 6432SOL     OW30757   1.019   2.259  11.407 -0.0151 -0.5315  0.0489
 6432SOL    HW130758   0.992   2.170  11.386 -0.3937 -0.6166  0.9056
 6432SOL    HW230759   0.945   2.268  11.468  0.9115  1.1995  0.9318
 6433SOL     OW30760   1.319   3.106   0.451  0.9534 -0.0764 -0.0694
 6433SOL    HW130761   1.318   3.202   0.451 -2.2094 -0.0928  0.8786
 6433SOL    HW230762   1.294   3.088   0.360 -3.2411  1.1268  0.8453
 6434SOL     OW30763   2.281   0.046  10.910  0.5302 -0.9342 -0.1152
 6434SOL    HW130764   2.189   0.071  10.907  0.7425 -0.5234 -3.2165
 6434SOL    HW230765   2.277   0.017  11.001  0.2661 -0.0090  0.1676
 6435SOL     OW30766   3.194   3.258   4.471  0.4247  0.1594  0.6002
 6435SOL    HW130767   3.199   3.341   4.423 -0.5685 -0.4352 -0.5284
 6435SOL    HW230768   3.223   3.206   4.397 -0.7411  2.2086 -1.2828
 6436SOL     OW30769   2.570   0.033   0.504 -0.1617  0.7863  0.0122
 6436SOL    HW130770   2.559   4.682   0.564  0.2234  1.9469  1.5269
 6436SOL    HW230771   2.575   0.094   0.577  0.4745  1.0588 -0.2650
 6437SOL     OW30772   4.652   0.666   5.998  0.6287  0.2702  0.2856
 6437SOL    HW130773   4.646   0.598   5.931  1.9963  0.2349  0.1895
 6437SOL    HW230774   0.013   0.646   6.037  0.6325  2.0979  1.1895
 6438SOL     OW30775   1.080   2.985   6.958 -0.0494 -0.4144  0.4323
 6438SOL    HW130776   1.049   2.995   7.048  1.3793 -2.1677  1.1244
 6438SOL    HW230777   1.168   2.948   6.950 -0.1244 -0.5107  0.0619
 6439SOL     OW30778   3.646   2.676  10.126 -0.1653  0.8235 -0.6760
 6439SOL    HW130779   3.685   2.763  10.124 -0.8068  1.1300 -0.1501
 6439SOL    HW230780   3.562   2.699  10.087 -1.4145 -2.8089 -0.1307
 6440SOL     OW30781   3.533   0.324  13.695  0.1635  0.8296 -0.7272
 6440SOL    HW130782   3.548   0.398  13.753  1.9393 -0.0892 -0.0205
 6440SOL    HW230783   3.568   0.358  13.612  6.3602 -1.4268  0.9601
 6441SOL     OW30784   1.127   3.772   2.947  0.7481  0.5311 -0.0580
 6441SOL    HW130785   1.156   3.857   2.979  1.2235  0.6412 -0.8073
 6441SOL    HW230786   1.210   3.729   2.927  0.1121  0.4098 -2.4764
 6442SOL     OW30787   3.633   0.696   7.745  0.4318  0.0613  0.3482
 6442SOL    HW130788   3.617   0.701   7.650 -0.3722  1.3558  0.5589
 6442SOL    HW230789   3.627   0.786   7.778  1.4054  0.1163  0.3785
 6443SOL     OW30790   3.011   0.769   7.887 -0.2495 -0.0180  0.1516
 6443SOL    HW130791   3.026   0.847   7.941 -2.2293  1.2171 -1.0399
 6443SOL    HW230792   2.942   0.806   7.831  1.7407 -0.3046 -2.4750
 6444SOL     OW30793   4.173   3.386  12.228  0.0933  0.7376  0.5772
 6444SOL    HW130794   4.184   3.331  12.150  2.5940 -0.9325  2.0821
 6444SOL    HW230795   4.258   3.430  12.223  0.5218 -0.0253  1.1378
 6445SOL     OW30796   1.462   1.700   5.568  0.5469 -0.5384  0.5122
 6445SOL    HW130797   1.374   1.733   5.586  0.6151 -1.0641  1.7986
 6445SOL    HW230798   1.447   1.631   5.502 -0.8252 -0.6346  0.9247
 6446SOL     OW30799   3.276   3.520   2.522  0.0841 -0.3538 -0.3375
 6446SOL    HW130800   3.364   3.513   2.560 -0.0864 -0.0962  0.1055
 6446SOL    HW230801   3.245   3.431   2.532 -0.2002 -0.4403 -2.0303
 6447SOL     OW30802   4.009   4.059   7.903  0.0042  0.0639  0.2290
 6447SOL    HW130803   4.041   4.058   7.993  1.8315 -0.1062 -0.4121
 6447SOL    HW230804   4.081   4.103   7.857  0.2086  0.8973  1.3705
 6448SOL     OW30805   1.509   0.773   9.109 -0.1163  0.3777 -0.1529
 6448SOL    HW130806   1.521   0.740   9.198  0.2387 -0.2739 -0.4427
 6448SOL    HW230807   1.518   0.688   9.065 -1.0511 -0.3049  0.9610
 6449SOL     OW30808   3.316   4.101   6.600 -0.1019 -0.1372  0.1700
 6449SOL    HW130809   3.260   4.036   6.642 -1.0161 -1.2174 -2.6771
 6449SOL    HW230810   3.324   4.173   6.662  0.4894  1.0246 -1.2438
 6450SOL     OW30811   4.058   3.255   6.487 -0.0934  0.3222 -0.0537
 6450SOL    HW130812   4.009   3.214   6.416  2.1022 -0.6701 -1.0020
 6450SOL    HW230813   4.146   3.215   6.489 -1.0892 -1.7048  3.2270
 6451SOL     OW30814   3.265   4.171  12.289 -0.3717 -0.3605 -0.0174
 6451SOL    HW130815   3.323   4.237  12.251 -0.7921  1.4231  2.4827
 6451SOL    HW230816   3.189   4.159  12.231 -2.4052  0.7265  2.4437
 6452SOL     OW30817   3.181   0.081   7.693 -0.0453  0.2758  0.0088
 6452SOL    HW130818   3.091   0.064   7.665 -0.5847  1.7320  0.8498
 6452SOL    HW230819   3.201   0.172   7.670  0.8401 -0.2041 -1.0904
 6453SOL     OW30820   3.250   3.710   2.321 -0.1135 -0.4093  0.0143
 6453SOL    HW130821   3.160   3.742   2.325  0.1910 -0.1543  4.3513
 6453SOL    HW230822   3.260   3.646   2.391  1.4336 -0.6997 -0.4632
 6454SOL     OW30823   1.929   1.960  13.989  0.3142 -0.4335  0.4137
 6454SOL    HW130824   1.982   2.039  13.995  2.8021 -2.0293 -0.7899
 6454SOL    HW230825   1.937   1.950  13.894 -2.1775 -0.7400  0.2298
 6455SOL     OW30826   0.435   1.191   1.879 -0.3651 -0.2648  0.4929
 6455SOL    HW130827   0.382   1.240   1.943 -0.3416 -0.5255  0.7125
 6455SOL    HW230828   0.524   1.202   1.911 -0.7731 -0.7253  1.7879
 6456SOL     OW30829   2.328   4.078   3.265 -0.4475 -0.5831 -0.0385
 6456SOL    HW130830   2.317   4.143   3.195 -1.6996  0.1442  0.8362
 6456SOL    HW230831   2.378   4.022   3.206  2.3243  0.4227  1.3713
 6457SOL     OW30832   0.856   4.268   8.533  0.2490 -0.4015 -0.1636
 6457SOL    HW130833   0.794   4.207   8.573 -1.6211 -0.6513 -3.3836
 6457SOL    HW230834   0.802   4.347   8.524 -1.4652 -1.4029  1.3413
 6458SOL     OW30835   0.989   3.329   1.451  0.0271  1.2523 -0.2562
 6458SOL    HW130836   0.932   3.269   1.402 -0.8063  0.1168  2.1136
 6458SOL    HW230837   0.977   3.407   1.396 -1.3298  1.7444  0.7490
 6459SOL     OW30838   0.795   1.870  16.856  0.0124  0.0172 -0.4906
 6459SOL    HW130839   0.786   1.956  16.815 -2.0957 -0.6967 -1.4947
 6459SOL    HW230840   0.871   1.826  16.819  1.7726  4.2471 -1.8706
 6460SOL     OW30841   1.385   1.627   4.316  0.5025 -0.2931 -0.4568
 6460SOL    HW130842   1.432   1.601   4.395  0.8591 -0.0578 -0.5937
 6460SOL    HW230843   1.389   1.543   4.272 -1.5239 -1.8269  2.2729
 6461SOL     OW30844   0.666   0.711   3.076  0.0367  0.1859  0.1081
 6461SOL    HW130845   0.572   0.725   3.079 -0.0298 -0.1089 -0.5599
 6461SOL    HW230846   0.695   0.698   2.986 -0.7294 -0.7742  0.0123
 6462SOL     OW30847   3.403   0.609   3.017 -0.4377  0.5549 -0.3001
 6462SOL    HW130848   3.346   0.673   2.974  0.6589  1.6766 -0.0878
 6462SOL    HW230849   3.451   0.572   2.944 -1.2520  0.7122 -0.9125
 6463SOL     OW30850   2.588   0.430   0.536 -0.2002  0.6930 -0.0887
 6463SOL    HW130851   2.509   0.424   0.483  0.3536  0.1454 -0.8591
 6463SOL    HW230852   2.635   0.499   0.491  0.9686 -0.5088 -0.7181
 6464SOL     OW30853   1.432   3.389   8.227  0.1437  0.2109  0.1961
 6464SOL    HW130854   1.417   3.295   8.212 -0.6107  0.7220 -2.2330
 6464SOL    HW230855   1.379   3.401   8.306  1.1418 -0.3667  0.9525
 6465SOL     OW30856   1.603   2.765   8.968 -0.3247  0.0410  0.0689
 6465SOL    HW130857   1.634   2.812   9.046 -0.2837 -0.5368  0.4014
 6465SOL    HW230858   1.562   2.838   8.922  1.0029  1.1360  0.6285
 6466SOL     OW30859   4.599   0.631  14.355  0.2143 -0.8485 -0.0758
 6466SOL    HW130860   4.651   0.711  14.357 -2.1932  0.6921  0.2927
 6466SOL    HW230861   4.666   0.565  14.337  0.7761 -0.2842 -0.0106
 6467SOL     OW30862   0.278   0.804  10.504 -0.2010 -0.2351  0.0539
 6467SOL    HW130863   0.204   0.838  10.554  0.4554 -0.2179  1.0118
 6467SOL    HW230864   0.229   0.740  10.454 -2.1072  1.7141 -0.5568
 6468SOL     OW30865   4.202   4.711   2.299 -0.5208 -0.3253 -0.0185
 6468SOL    HW130866   4.297   4.701   2.287 -0.7702 -0.7141 -1.5810
 6468SOL    HW230867   4.168   4.627   2.270 -1.4877 -0.2751  0.9685
 6469SOL     OW30868   4.059   4.375   3.184 -0.2029  0.0492 -0.1246
 6469SOL    HW130869   4.060   4.333   3.097 -1.7125 -0.3360  0.0407
 6469SOL    HW230870   4.129   4.330   3.232 -1.6123 -3.2411 -1.1224
 6470SOL     OW30871   2.426   3.390   7.858  0.0628 -0.0792 -0.1740
 6470SOL    HW130872   2.382   3.461   7.905  2.9172  0.7966  1.1516
 6470SOL    HW230873   2.499   3.358   7.911 -0.1546 -2.2142 -1.1586
 6471SOL     OW30874   4.617   4.011   9.408 -0.4322  0.0126 -0.7254
 6471SOL    HW130875   4.536   4.026   9.457 -0.2211  1.0792 -0.6941
 6471SOL    HW230876   4.588   3.940   9.351  0.0992  1.5561 -2.9182
 6472SOL     OW30877   1.594   0.271   2.525  0.3081 -0.2754  0.5297
 6472SOL    HW130878   1.570   0.311   2.609 -1.4775 -0.2284 -0.0007
 6472SOL    HW230879   1.688   0.288   2.520  0.2889 -0.3689 -0.0573
 6473SOL     OW30880   3.150   1.024   3.143  0.3134  0.1778  0.9445
 6473SOL    HW130881   3.205   1.101   3.128  1.5004 -1.3736 -2.5207
 6473SOL    HW230882   3.066   1.065   3.164  0.0987 -1.0378  2.4471
 6474SOL     OW30883   2.390   4.248  10.714  0.1258 -0.1283 -0.4464
 6474SOL    HW130884   2.428   4.336  10.709 -1.5393  0.5820 -0.3985
 6474SOL    HW230885   2.436   4.208  10.788 -1.9770 -1.3122  0.2102
 6475SOL     OW30886   3.800   1.658   6.008 -0.5371 -0.0089 -0.6857
 6475SOL    HW130887   3.840   1.626   6.088 -1.3660  2.0107  0.5235
 6475SOL    HW230888   3.844   1.613   5.936 -0.2936 -0.6941 -0.0967
 6476SOL     OW30889   3.306   3.906  10.527 -0.4349  0.3942 -0.3224
 6476SOL    HW130890   3.384   3.850  10.526 -0.6991  0.0281 -0.3862
 6476SOL    HW230891   3.263   3.874  10.606 -2.0415 -0.8316 -1.6828
 6477SOL     OW30892   4.466   1.747  13.867  1.0117 -0.0972  0.1074
 6477SOL    HW130893   4.456   1.676  13.804 -2.5211 -0.7687  1.3844
 6477SOL    HW230894   4.541   1.713  13.916 -1.0215 -0.8429  2.7012
 6478SOL     OW30895   2.075   1.682   5.042 -0.0365 -0.0823  0.3815
 6478SOL    HW130896   2.045   1.612   5.100 -0.7562 -0.3966 -0.3692
 6478SOL    HW230897   2.159   1.648   5.011  0.2652  1.0431 -0.0468
 6479SOL     OW30898   0.168   2.619   5.639  0.3710 -0.5048  0.0798
 6479SOL    HW130899   0.229   2.545   5.636 -0.1567 -0.9733  0.6549
 6479SOL    HW230900   0.225   2.695   5.650  0.3960 -0.9685  3.3029
 6480SOL     OW30901   2.193   1.464   7.601  0.9077  0.4208  0.0931
 6480SOL    HW130902   2.252   1.539   7.616  0.8819  0.4323  0.1381
 6480SOL    HW230903   2.211   1.463   7.507  0.1192 -2.8441  0.0119
 6481SOL     OW30904   3.906   3.174   8.433 -0.3824 -0.0385  0.4504
 6481SOL    HW130905   3.831   3.232   8.447  1.1374  1.7237  1.4142
 6481SOL    HW230906   3.966   3.213   8.496 -3.5891  0.0136  3.4488
 6482SOL     OW30907   3.543   1.554   4.078 -0.6498 -0.1122  0.0881
 6482SOL    HW130908   3.610   1.486   4.080  0.5776  1.1599  1.7029
 6482SOL    HW230909   3.600   1.631   4.074 -2.5469  1.3184  0.8884
 6483SOL     OW30910   2.175   4.279   4.222  0.9366  0.5766 -0.1517
 6483SOL    HW130911   2.128   4.195   4.224 -1.3033  1.8686  3.2055
 6483SOL    HW230912   2.196   4.287   4.129  1.0969 -0.5869 -0.2099
 6484SOL     OW30913   1.945   1.501   6.367 -0.3871  0.7772  0.6388
 6484SOL    HW130914   1.932   1.470   6.277  0.1488  1.8160  0.2080
 6484SOL    HW230915   1.905   1.586   6.351 -1.5589  0.2013  0.4317
 6485SOL     OW30916   3.741   2.001   4.807  0.4068  0.1979 -0.2380
 6485SOL    HW130917   3.659   2.045   4.827 -0.5621 -1.6763 -0.0787
 6485SOL    HW230918   3.717   1.959   4.724 -0.9906  1.5997 -0.5340
 6486SOL     OW30919   1.353   4.206  12.066  0.1829 -0.4645  0.4129
 6486SOL    HW130920   1.379   4.137  12.126  2.1560  0.4520  0.6016
 6486SOL    HW230921   1.429   4.264  12.065 -1.1526  1.2428 -1.7178
 6487SOL     OW30922   0.475   0.332   3.486  0.1494  0.2852  0.1823
 6487SOL    HW130923   0.451   0.424   3.474 -1.4927  0.1368  2.3813
 6487SOL    HW230924   0.425   0.282   3.422  0.5362  1.1299 -0.7871
 6488SOL     OW30925   4.240   2.968   8.479 -0.5181  0.0748 -0.8198
 6488SOL    HW130926   4.175   2.897   8.477 -1.7303  1.1383  0.9101
 6488SOL    HW230927   4.295   2.946   8.554 -1.3445  0.4390 -0.1067
 6489SOL     OW30928   1.021   3.314   2.623  0.4240 -0.4473 -0.3025
 6489SOL    HW130929   0.928   3.332   2.639  0.4883  0.9542 -1.5146
 6489SOL    HW230930   1.011   3.227   2.584 -0.2476 -0.4537 -0.1147
 6490SOL     OW30931   1.564   1.073   9.397 -0.3242 -0.2781 -0.8647
 6490SOL    HW130932   1.606   1.111   9.320 -0.3551 -0.2507 -0.8678
 6490SOL    HW230933   1.501   1.140   9.424  2.5509  2.8226 -1.8801
 6491SOL     OW30934   1.736   1.637  15.328 -0.6804 -0.3168  0.4463
 6491SOL    HW130935   1.720   1.545  15.307 -2.4358  1.0408 -4.0429
 6491SOL    HW230936   1.647   1.671  15.334 -1.1050 -1.3053 -0.2676
 6492SOL     OW30937   1.819   2.066  14.298  0.0883 -0.2568 -0.4574
 6492SOL    HW130938   1.832   2.122  14.222 -1.6376 -0.0056 -0.5482
 6492SOL    HW230939   1.764   2.000  14.256 -1.2689  1.0255 -0.6724
 6493SOL     OW30940   3.796   0.251   8.320 -0.2906  0.7371 -0.0395
 6493SOL    HW130941   3.823   0.170   8.276 -0.9124  0.6059 -0.1778
 6493SOL    HW230942   3.777   0.303   8.242 -1.5212  0.0059 -0.2259
 6494SOL     OW30943   0.587   2.466   3.928  0.2496  0.2153  0.6274
 6494SOL    HW130944   0.656   2.495   3.986 -0.2496  0.7848  0.9388
 6494SOL    HW230945   0.620   2.469   3.838  0.0562 -1.0391  0.5053
 6495SOL     OW30946   2.807   0.637   6.101  0.4527  0.4135 -0.4012
 6495SOL    HW130947   2.764   0.602   6.022 -0.2011  1.0420 -0.3261
 6495SOL    HW230948   2.874   0.570   6.115 -0.0977 -0.1348 -0.3926
 6496SOL     OW30949   1.914   3.690   3.120 -0.0899 -0.6162 -0.0224
 6496SOL    HW130950   1.918   3.737   3.037 -1.4071 -1.7557 -0.7380
 6496SOL    HW230951   1.958   3.614   3.081  0.6418 -0.3775  0.3394
 6497SOL     OW30952   1.596   1.339   4.651 -0.0832  0.1819 -0.2910
 6497SOL    HW130953   1.548   1.277   4.705  0.9172 -0.8986 -0.6327
 6497SOL    HW230954   1.666   1.302   4.597 -0.7128 -1.4482  0.0252
 6498SOL     OW30955   4.582   0.703   8.335  0.0917 -0.6318  0.5028
 6498SOL    HW130956   4.647   0.675   8.270 -0.0718 -1.6030  0.7740
 6498SOL    HW230957   4.534   0.772   8.289  1.9222  0.2619 -0.0778
 6499SOL     OW30958   3.617   1.461  10.088  0.1283  0.0810 -0.5236
 6499SOL    HW130959   3.598   1.403  10.014 -2.3659  2.4703 -1.7354
 6499SOL    HW230960   3.538   1.437  10.137  0.5242 -1.5661 -0.6942
 6500SOL     OW30961   2.686   4.437   8.656  0.6445 -0.2826 -0.1467
 6500SOL    HW130962   2.682   4.342   8.669  2.1660 -0.2717  0.3960
 6500SOL    HW230963   2.726   4.461   8.740 -1.0781  1.0898  0.2769
 6501SOL     OW30964   1.618   2.285   2.442 -0.1961 -0.0509  0.5213
 6501SOL    HW130965   1.647   2.267   2.353 -0.9108  0.7268  0.1335
 6501SOL    HW230966   1.540   2.339   2.429 -0.8392 -1.4886 -1.4790
 6502SOL     OW30967   4.201   0.075   2.666 -0.4165 -0.5050  0.6988
 6502SOL    HW130968   4.282   0.042   2.628 -0.4199  0.6396 -0.2976
 6502SOL    HW230969   4.134   0.025   2.618  0.3819 -0.7549 -0.1638
 6503SOL     OW30970   2.137   1.427   6.142 -0.1281  0.2071 -0.2107
 6503SOL    HW130971   2.072   1.488   6.108 -1.1429 -2.0733 -2.3382
 6503SOL    HW230972   2.098   1.344   6.116  0.6796 -0.2751  0.1140
 6504SOL     OW30973   2.648   3.022   1.172  0.4858 -0.2399  0.0599
 6504SOL    HW130974   2.684   3.110   1.160  1.1614 -0.3715  1.1316
 6504SOL    HW230975   2.554   3.033   1.184  0.6338  2.2343 -1.0021
 6505SOL     OW30976   1.440   3.625   5.122 -0.3034  0.1979  0.2075
 6505SOL    HW130977   1.381   3.566   5.169  0.8338 -2.7680 -2.0992
 6505SOL    HW230978   1.381   3.667   5.058  0.0260  2.0449  1.1156
 6506SOL     OW30979   4.184   3.243   5.106 -0.0036  0.0874  0.4231
 6506SOL    HW130980   4.249   3.303   5.142 -1.7947  1.3206  1.5439
 6506SOL    HW230981   4.130   3.239   5.184  0.5136 -0.0137  0.7805
 6507SOL     OW30982   4.578   2.285   2.537 -0.0451 -0.2680  0.3259
 6507SOL    HW130983   4.601   2.283   2.629  1.1541 -1.6926 -0.0075
 6507SOL    HW230984   4.518   2.210   2.534  0.7196 -0.9982  3.1300
 6508SOL     OW30985   0.978   3.390   1.791  0.3281  0.4254  0.4684
 6508SOL    HW130986   0.893   3.433   1.778 -0.0118 -0.3717  0.0522
 6508SOL    HW230987   0.967   3.367   1.883 -1.3034  1.5292  0.5419
 6509SOL     OW30988   0.039   1.096   8.628  0.6936  0.0408  0.1363
 6509SOL    HW130989   0.041   1.062   8.718 -1.2587 -0.1836  0.0858
 6509SOL    HW230990   0.094   1.175   8.633  1.3236 -0.5105  2.0685
 6510SOL     OW30991   1.145   0.707   7.297  0.5424  0.5749  0.8463
 6510SOL    HW130992   1.130   0.634   7.357 -1.2510 -0.1378 -0.4544
 6510SOL    HW230993   1.160   0.775   7.362  0.4385 -0.3218  1.8069
 6511SOL     OW30994   4.172   4.702  15.082  0.4689  0.0493  0.7173
 6511SOL    HW130995   4.184   0.055  15.027 -0.3597  0.8063  1.6116
 6511SOL    HW230996   4.207   0.014  15.163  2.0853  2.7636 -1.2101
 6512SOL     OW30997   1.629   4.314   0.944  0.4800  0.0691  0.2068
 6512SOL    HW130998   1.566   4.362   0.998 -2.0821 -2.2947 -0.6747
 6512SOL    HW230999   1.648   4.371   0.870  1.6356  0.7724  1.0467
 6513SOL     OW31000   0.153   0.427   0.314  0.9725 -0.5672  0.3227
 6513SOL    HW131001   0.230   0.459   0.268  0.9266  0.7504  1.1827
 6513SOL    HW231002   0.185   0.433   0.404 -0.1130 -0.5736  0.7056
 6514SOL     OW31003   2.555   3.299   4.818 -0.1069  0.2325 -0.6084
 6514SOL    HW131004   2.585   3.214   4.785  2.1294  0.6968  0.2308
 6514SOL    HW231005   2.589   3.366   4.758  1.3244  1.2874  1.3710
 6515SOL     OW31006   0.619   1.344   3.400 -0.4219 -0.3046 -0.1989
 6515SOL    HW131007   0.612   1.438   3.386  1.9565 -0.1314 -0.2127
 6515SOL    HW231008   0.526   1.324   3.392 -0.6575  1.0165 -0.7105
 6516SOL     OW31009   0.454   4.297   2.735  0.1892  0.8880  0.1807
 6516SOL    HW131010   0.435   4.297   2.641  0.9034 -0.9191  0.0407
 6516SOL    HW231011   0.483   4.207   2.750 -1.2619  0.7335  2.0529
 6517SOL     OW31012   2.947   2.068   6.430  0.1848 -0.5084  0.1070
 6517SOL    HW131013   2.953   2.156   6.391 -0.4589 -0.2016  0.6895
 6517SOL    HW231014   2.878   2.022   6.382  0.3484 -2.8510  2.1503
 6518SOL     OW31015   3.683   2.064   5.171 -0.3705  0.0187  0.4087
 6518SOL    HW131016   3.682   2.005   5.246 -1.6339 -0.5317 -0.0385
 6518SOL    HW231017   3.599   2.108   5.157 -0.2543 -0.0163 -0.3950
 6519SOL     OW31018   3.342   0.366  12.750 -0.1236 -0.0181 -0.1352
 6519SOL    HW131019   3.299   0.282  12.767  0.4901  0.3673  3.2797
 6519SOL    HW231020   3.427   0.337  12.717 -1.0515 -3.2428  0.3176
 6520SOL     OW31021   1.307   1.047   5.219  1.1121 -0.2551 -0.0135
 6520SOL    HW131022   1.367   1.040   5.144  1.0214 -0.3291 -0.0776
 6520SOL    HW231023   1.274   0.958   5.217 -0.5466  0.3555  0.6454
 6521SOL     OW31024   3.892   1.769  11.904 -0.3057  0.0434 -0.0606
 6521SOL    HW131025   3.892   1.851  11.855 -0.6488  0.6278  0.9053
 6521SOL    HW231026   3.964   1.794  11.963  0.3144 -0.5304 -0.5723
 6522SOL     OW31027   3.471   4.250   6.157  0.3788  0.0090 -0.3186
 6522SOL    HW131028   3.458   4.337   6.195 -1.4688 -0.0854 -0.7213
 6522SOL    HW231029   3.395   4.207   6.194 -0.2880  1.0279 -0.4905
 6523SOL     OW31030   4.520   4.296   2.268 -0.1663  0.2083 -0.0271
 6523SOL    HW131031   4.437   4.248   2.269 -0.5813  0.8587 -2.0202
 6523SOL    HW231032   4.550   4.281   2.357 -2.6340  0.5093  0.8523
 6524SOL     OW31033   4.615   2.605   1.361 -1.1003  0.0796 -0.5149
 6524SOL    HW131034   4.620   2.607   1.266 -1.8239 -0.9578 -0.5713
 6524SOL    HW231035   4.679   2.535   1.371 -0.7686  0.4881  0.2424
 6525SOL     OW31036   1.313   3.433   7.537  0.3303  0.0564  0.0478
 6525SOL    HW131037   1.329   3.461   7.447  4.2143 -2.1928  0.0702
 6525SOL    HW231038   1.231   3.480   7.551  0.7517  1.2753 -1.6355
 6526SOL     OW31039   2.124   3.894   3.291  0.2801  0.2203 -0.5477
 6526SOL    HW131040   2.180   3.971   3.295 -1.5500  1.4734  0.9353
 6526SOL    HW231041   2.090   3.906   3.202 -0.1539 -1.5574 -0.6419
 6527SOL     OW31042   4.412   2.354   4.175  0.1489  0.3261  0.1595
 6527SOL    HW131043   4.348   2.299   4.220  0.9734 -1.2186 -0.5545
 6527SOL    HW231044   4.492   2.304   4.191 -0.0178 -0.6689 -2.0399
 6528SOL     OW31045   2.509   2.899   9.484  0.6340  0.3606  0.2206
 6528SOL    HW131046   2.559   2.981   9.485 -0.1403  0.8735 -1.6753
 6528SOL    HW231047   2.447   2.918   9.554 -1.4841 -0.5012 -1.4249
 6529SOL     OW31048   2.920   2.524  13.225 -0.4022 -0.8418  0.4680
 6529SOL    HW131049   2.970   2.491  13.150  1.3071  4.0831 -0.5906
 6529SOL    HW231050   2.885   2.438  13.245  1.9322 -1.9603 -0.2234
 6530SOL     OW31051   4.667   3.235   9.558 -0.2253  0.0753  0.4271
 6530SOL    HW131052   0.014   3.256   9.497  0.0082 -0.6169  0.4592
 6530SOL    HW231053   4.712   3.241   9.642 -1.4028  0.9836  0.9848
 6531SOL     OW31054   3.359   0.315  12.434 -0.2297  0.0778 -0.4267
 6531SOL    HW131055   3.436   0.308  12.491 -2.5324 -0.9305  2.5338
 6531SOL    HW231056   3.288   0.338  12.495 -1.2224  0.5073 -1.7544
 6532SOL     OW31057   3.303   2.988   7.890 -0.4573  0.4861  0.0321
 6532SOL    HW131058   3.376   2.947   7.936 -0.5491  0.2629 -0.0192
 6532SOL    HW231059   3.246   2.912   7.879 -1.4838  1.1758  0.6193
 6533SOL     OW31060   4.170   3.917  11.978  0.2274 -0.3683  0.2373
 6533SOL    HW131061   4.082   3.898  11.947  1.4938 -0.1022 -3.4852
 6533SOL    HW231062   4.164   3.893  12.071 -0.7786  1.3355  0.6164
 6534SOL     OW31063   0.709   3.802  13.182 -0.4480 -0.4160  0.2125
 6534SOL    HW131064   0.763   3.851  13.244 -1.0503  0.9765 -0.3662
 6534SOL    HW231065   0.766   3.725  13.175  0.8786  0.6348 -0.7119
 6535SOL     OW31066   0.892   3.782   5.709 -0.2116 -0.7215  0.5330
 6535SOL    HW131067   0.984   3.777   5.736 -0.0733  0.0045  0.1850
 6535SOL    HW231068   0.879   3.694   5.673 -1.2248 -0.7509  0.9851
 6536SOL     OW31069   1.609   4.657  16.869  0.6247  0.3826 -0.1052
 6536SOL    HW131070   1.566   4.656  16.954 -0.6593  2.1580 -0.7179
 6536SOL    HW231071   1.652   0.018  16.867 -1.0499  1.2202  0.1311
 6537SOL     OW31072   2.835   0.207   6.287  0.4707 -0.1736  0.1345
 6537SOL    HW131073   2.882   0.255   6.219  0.5531 -0.4043  0.0260
 6537SOL    HW231074   2.755   0.258   6.289  1.0465  0.6809  1.2174
 6538SOL     OW31075   0.003   1.476   3.795 -0.3444 -0.4900  0.3952
 6538SOL    HW131076   4.683   1.526   3.726 -0.0072 -0.4805  0.1847
 6538SOL    HW231077   0.079   1.450   3.743 -0.9546 -1.3491 -0.0632
 6539SOL     OW31078   0.061   2.562  10.708 -0.2901 -0.6250 -0.0006
 6539SOL    HW131079   0.013   2.510  10.772  0.3867 -2.6311 -1.1463
 6539SOL    HW231080   0.086   2.641  10.757  2.0621 -1.6775  0.4888
 6540SOL     OW31081   2.041   1.251  14.137  0.0976  0.0791 -0.1606
 6540SOL    HW131082   2.134   1.268  14.152  0.0707 -1.9264  2.3019
 6540SOL    HW231083   2.029   1.168  14.183 -0.3306 -1.0418 -2.2824
 6541SOL     OW31084   0.224   4.422   2.854 -0.0802  0.4273  0.0458
 6541SOL    HW131085   0.200   4.472   2.777 -2.6147  0.3263  0.7700
 6541SOL    HW231086   0.298   4.370   2.824 -3.1795 -2.8507 -1.9382
 6542SOL     OW31087   0.340   2.889   9.762 -0.0252  0.5740 -0.3024
 6542SOL    HW131088   0.371   2.855   9.846  0.6481 -0.4135 -0.9553
 6542SOL    HW231089   0.264   2.831   9.756  0.4807 -0.0914 -0.2743
 6543SOL     OW31090   3.336   0.765   5.236  0.1200  0.0487 -0.6692
 6543SOL    HW131091   3.380   0.819   5.171  0.6830  2.1298  1.4515
 6543SOL    HW231092   3.337   0.679   5.194 -0.5148 -1.0029  1.4586
 6544SOL     OW31093   1.002   3.722   2.675 -0.2492  0.7012  0.3559
 6544SOL    HW131094   1.058   3.791   2.638 -1.2120  2.0118  1.3213
 6544SOL    HW231095   1.001   3.745   2.768 -1.7054  1.5072  0.1391
 6545SOL     OW31096   1.659   3.552   3.439 -0.2923  0.3027 -1.0046
 6545SOL    HW131097   1.675   3.636   3.395  1.5184 -0.6934 -2.2693
 6545SOL    HW231098   1.655   3.489   3.366  3.1809 -1.9390  0.7526
 6546SOL     OW31099   0.149   3.805   1.596  0.0774 -0.7365  0.0886
 6546SOL    HW131100   0.193   3.754   1.663  1.4090 -1.4967 -1.3622
 6546SOL    HW231101   0.198   3.783   1.516  3.0633  3.8843  0.6403
 6547SOL     OW31102   4.203   2.647   9.062  0.3684 -0.2203  0.1349
 6547SOL    HW131103   4.220   2.560   9.098  3.1066  0.7767  1.3205
 6547SOL    HW231104   4.154   2.685   9.134 -2.0685 -0.7565 -1.2389
 6548SOL     OW31105   2.556   3.806  13.365  0.3636 -0.0394 -0.3984
 6548SOL    HW131106   2.621   3.784  13.431 -1.0939 -3.9516 -0.2597
 6548SOL    HW231107   2.603   3.769  13.290 -0.4259 -1.7129 -0.0695
 6549SOL     OW31108   3.187   0.505   7.920  0.1803 -0.3946  0.0510
 6549SOL    HW131109   3.105   0.479   7.880  1.4556 -1.6383 -1.7454
 6549SOL    HW231110   3.240   0.426   7.910 -0.9929 -1.3747  1.4962
 6550SOL     OW31111   2.920   1.363  17.433  0.4829 -0.1639  0.0649
 6550SOL    HW131112   2.865   1.422  17.486  3.8379 -1.5111  5.0658
 6550SOL    HW231113   2.866   1.375  17.355  0.1566 -0.0265  0.3102
 6551SOL     OW31114   1.036   4.339  14.794  0.3478  0.0287 -0.3359
 6551SOL    HW131115   1.056   4.383  14.711  1.7732  0.8503  0.4598
 6551SOL    HW231116   0.943   4.361  14.804 -0.0700 -2.2521  0.8161
 6552SOL     OW31117   2.549   2.669   1.530 -0.1187  0.5408 -0.6222
 6552SOL    HW131118   2.631   2.643   1.487 -1.0396 -2.0753 -0.7822
 6552SOL    HW231119   2.493   2.659   1.454  0.0398  0.6676 -0.7562
 6553SOL     OW31120   3.498   1.489   8.669  0.6559 -0.1887  0.1257
 6553SOL    HW131121   3.405   1.505   8.681  0.5715 -1.1191  0.6822
 6553SOL    HW231122   3.538   1.475   8.754  1.6811 -0.8405 -0.4544
 6554SOL     OW31123   0.995   3.358   4.512 -0.0348  0.3434 -0.0532
 6554SOL    HW131124   1.060   3.428   4.508  1.3778 -0.9252  0.8618
 6554SOL    HW231125   0.940   3.383   4.437 -0.5911 -1.1164 -0.1388
 6555SOL     OW31126   4.651   3.038   1.711 -0.4658  0.2463  0.0229
 6555SOL    HW131127   4.565   2.998   1.721 -1.1780  2.0217  0.9156
 6555SOL    HW231128   4.624   3.102   1.645 -2.1671  0.1819  0.6705
 6556SOL     OW31129   0.404   3.840   5.233  0.3915  0.8306  0.5931
 6556SOL    HW131130   0.327   3.891   5.256 -0.7370 -1.2408  1.4802
 6556SOL    HW231131   0.454   3.836   5.315 -1.5971 -2.3841  1.6690
 6557SOL     OW31132   3.014   0.599  13.655 -0.2650 -0.6367  0.2352
 6557SOL    HW131133   2.940   0.649  13.688  0.8077  0.5216  0.8828
 6557SOL    HW231134   2.992   0.513  13.691 -0.0153 -0.6162  0.4408
 6558SOL     OW31135   3.493   1.919   7.876  0.1319 -0.0796 -0.5416
 6558SOL    HW131136   3.505   1.835   7.832 -0.8198 -0.1114 -0.7403
 6558SOL    HW231137   3.584   1.933   7.902  0.6111 -1.1438 -1.6647
 6559SOL     OW31138   4.003   0.116   3.844 -0.6892  0.2493 -0.6367
 6559SOL    HW131139   3.919   0.142   3.882 -1.9636 -0.5958 -2.8345
 6559SOL    HW231140   3.982   0.135   3.752 -0.3658 -1.6845 -1.1049
 6560SOL     OW31141   2.652   0.793   3.904 -0.5208  0.8013 -0.0160
 6560SOL    HW131142   2.615   0.779   3.817 -0.2113  0.4969 -0.0974
 6560SOL    HW231143   2.736   0.748   3.904 -1.2911 -0.6226 -0.5492
 6561SOL     OW31144   4.636   0.256   7.030 -0.4235  0.0852 -0.3843
 6561SOL    HW131145   4.707   0.314   7.002  1.0403 -1.4950  0.1247
 6561SOL    HW231146   4.580   0.298   7.097 -0.2835  0.1083 -0.2828
 6562SOL     OW31147   3.555   3.204   1.785 -0.5402  0.0477  0.9282
 6562SOL    HW131148   3.533   3.297   1.776  0.1272  0.0939 -0.2179
 6562SOL    HW231149   3.466   3.179   1.808 -1.2471  0.0987 -1.7300
 6563SOL     OW31150   0.018   1.021   7.739  0.7079  0.3147 -0.3015
 6563SOL    HW131151   4.669   1.052   7.792 -0.3585 -0.2038 -1.4877
 6563SOL    HW231152   4.702   0.964   7.673  0.0392  0.9636 -0.4527
 6564SOL     OW31153   1.137   2.311   9.460  0.3247 -0.1476 -0.0716
 6564SOL    HW131154   1.161   2.249   9.529 -0.4609  0.1031  0.4271
 6564SOL    HW231155   1.212   2.318   9.401  0.4512 -0.7520  0.0170
 6565SOL     OW31156   4.288   1.807   6.841  0.0702  0.5351 -0.0845
 6565SOL    HW131157   4.339   1.881   6.873  2.8920 -1.1531 -0.6779
 6565SOL    HW231158   4.295   1.745   6.914 -3.7442  0.7038  0.4494
 6566SOL     OW31159   1.376   1.781   3.351  0.2955  0.1253  0.1483
 6566SOL    HW131160   1.456   1.732   3.333  1.1009  1.4411  0.1167
 6566SOL    HW231161   1.348   1.756   3.439 -1.0098 -1.6187 -0.7710
 6567SOL     OW31162   1.805   1.338   6.572 -0.0721  0.4171 -0.1333
 6567SOL    HW131163   1.879   1.389   6.608  0.1989 -0.5939  0.7348
 6567SOL    HW231164   1.818   1.341   6.477 -3.6845 -0.1127 -0.6438
 6568SOL     OW31165   4.139   4.158   2.661  0.6497 -0.4642 -0.0246
 6568SOL    HW131166   4.096   4.204   2.589 -0.7129 -1.6204  0.0499
 6568SOL    HW231167   4.114   4.067   2.646 -1.6879  0.2286 -0.2089
 6569SOL     OW31168   0.189   2.649   6.537 -0.2607  0.1960  0.4499
 6569SOL    HW131169   0.105   2.670   6.579 -0.2356  1.6305 -0.2196
 6569SOL    HW231170   0.163   2.558   6.523  1.7792 -0.0640 -1.5035
 6570SOL     OW31171   1.561   3.106  13.353  0.0729  0.1796 -0.5450
 6570SOL    HW131172   1.542   3.054  13.431  0.7944 -1.3622 -1.4039
 6570SOL    HW231173   1.485   3.165  13.357  0.4265  0.5640  0.3740
 6571SOL     OW31174   4.656   2.690   5.942 -0.1359  0.6788  0.1115
 6571SOL    HW131175   4.563   2.709   5.930 -0.5605 -1.7684 -0.4381
 6571SOL    HW231176   4.659   2.601   5.976 -0.5385  1.1110  1.3051
 6572SOL     OW31177   1.999   4.160  14.423 -0.7725  0.7437 -0.1962
 6572SOL    HW131178   2.045   4.181  14.342  0.5163  1.2452  0.6731
 6572SOL    HW231179   1.986   4.248  14.457 -1.1159  0.4387  0.4674
 6573SOL     OW31180   4.517   2.766   8.398  0.3972 -0.3424  0.4399
 6573SOL    HW131181   4.505   2.786   8.491 -0.4885  1.1953 -0.0178
 6573SOL    HW231182   4.591   2.705   8.392 -0.2923 -1.0549 -0.9008
 6574SOL     OW31183   4.226   4.355   8.419 -0.4697 -0.1390  0.1495
 6574SOL    HW131184   4.296   4.319   8.365  0.9269  1.4909  0.8770
 6574SOL    HW231185   4.248   4.308   8.500  0.6221  0.0135 -0.0678
 6575SOL     OW31186   3.484   0.079   8.796  0.0401 -0.5427  0.1256
 6575SOL    HW131187   3.518   0.086   8.886 -1.9762  1.5920  0.7231
 6575SOL    HW231188   3.474   4.708   8.788  0.7056 -0.5544 -0.6409
 6576SOL     OW31189   0.617   3.409   3.206 -0.5700 -0.0224 -0.2107
 6576SOL    HW131190   0.536   3.453   3.232 -0.3060  0.5380 -0.3413
 6576SOL    HW231191   0.596   3.322   3.239 -0.4103 -1.3210 -3.4696
 6577SOL     OW31192   0.889   2.559   4.502  0.6240 -0.4389  0.1966
 6577SOL    HW131193   0.816   2.498   4.499  1.8986 -1.9219 -1.0157
 6577SOL    HW231194   0.860   2.631   4.446 -1.1574 -1.9608 -0.8282
 6578SOL     OW31195   3.733   4.127   7.699 -0.7021 -0.0742  0.2206
 6578SOL    HW131196   3.779   4.054   7.742  0.0411  0.6765  0.7136
 6578SOL    HW231197   3.773   4.115   7.613 -0.8549 -2.4491  0.4683
 6579SOL     OW31198   1.097   1.629   9.582  0.1915  0.0379 -0.1422
 6579SOL    HW131199   1.037   1.703   9.589  0.4176  0.0855  1.2224
 6579SOL    HW231200   1.037   1.558   9.558  0.1918 -0.7009  2.0367
 6580SOL     OW31201   0.977   2.844  16.783 -0.1661 -0.5265  0.0287
 6580SOL    HW131202   1.020   2.760  16.765  2.6431  1.2342 -1.3248
 6580SOL    HW231203   1.008   2.884  16.702  1.0921 -1.7596 -0.1111
 6581SOL     OW31204   3.054   3.317  16.009  0.4817  0.6705  0.4551
 6581SOL    HW131205   2.987   3.347  15.948  0.8829  1.8445  0.5877
 6581SOL    HW231206   3.057   3.388  16.073  4.7952 -0.8112  1.9151
 6582SOL     OW31207   0.295   3.061  16.389  0.4850 -0.2382 -0.1316
 6582SOL    HW131208   0.253   3.141  16.422 -0.0492 -0.6262  0.1328
 6582SOL    HW231209   0.280   3.062  16.294  0.0233  0.4366 -0.0545
 6583SOL     OW31210   0.311   3.987  16.070  0.0436  0.0210 -0.1620
 6583SOL    HW131211   0.304   4.064  16.014  0.6374  1.0260  1.1427
 6583SOL    HW231212   0.221   3.961  16.053 -0.6062  0.9857  1.7771
 6584SOL     OW31213   0.305   4.274   7.430  0.1225  0.0939 -0.9177
 6584SOL    HW131214   0.309   4.339   7.360 -1.9722 -0.1721 -1.2890
 6584SOL    HW231215   0.383   4.286   7.485 -1.3685 -1.2358  1.5272
 6585SOL     OW31216   2.975   2.307   7.249  0.0638  0.5293 -0.3594
 6585SOL    HW131217   3.066   2.308   7.217 -0.9220 -1.8190 -3.2338
 6585SOL    HW231218   2.969   2.228   7.303  0.4914  0.4456 -0.4280
 6586SOL     OW31219   0.885   2.917   2.922  0.0710 -0.5129 -0.8353
 6586SOL    HW131220   0.923   2.863   2.853  0.2513 -1.8407  0.3058
 6586SOL    HW231221   0.878   2.848   2.987  0.8121  0.7388  0.5475
 6587SOL     OW31222   4.625   0.206   6.620 -0.3489 -0.3615 -0.1456
 6587SOL    HW131223   4.704   0.235   6.666 -2.2534  4.7868 -0.2103
 6587SOL    HW231224   4.659   0.126   6.579 -2.5013 -1.2884 -0.1681
 6588SOL     OW31225   2.398   2.791   5.540 -0.1950  0.4339  0.2364
 6588SOL    HW131226   2.403   2.734   5.463  1.7639  3.9143 -2.1790
 6588SOL    HW231227   2.305   2.784   5.562 -0.5421  1.4504 -0.9470
 6589SOL     OW31228   1.566   3.724  10.467  0.4753  0.2576 -0.0525
 6589SOL    HW131229   1.646   3.746  10.515  0.3612  0.8318 -0.1320
 6589SOL    HW231230   1.603   3.707  10.381  1.3461  1.3255  0.1080
 6590SOL     OW31231   2.128   1.062  12.645  0.7878 -0.3527 -0.2662
 6590SOL    HW131232   2.184   1.136  12.622  0.2977  0.2491  0.4789
 6590SOL    HW231233   2.074   1.058  12.566  1.2395  0.5966 -0.6237
 6591SOL     OW31234   0.017   0.634   2.448 -0.2301 -0.0782  0.0222
 6591SOL    HW131235   0.030   0.605   2.539 -0.4511  0.9924  0.3880
 6591SOL    HW231236   4.707   0.723   2.456 -0.3946 -0.1571  0.1969
 6592SOL     OW31237   3.008   3.696  15.834 -0.1755  0.1232  0.4764
 6592SOL    HW131238   3.085   3.675  15.886  0.9271 -2.3127 -2.1112
 6592SOL    HW231239   3.057   3.702  15.752  0.4151  1.4323  0.9267
 6593SOL     OW31240   0.356   3.154   8.727 -0.0170 -0.3248 -0.1188
 6593SOL    HW131241   0.366   3.093   8.799  0.9821 -2.1219 -1.7802
 6593SOL    HW231242   0.414   3.119   8.659 -0.3471  1.8790 -1.5429
 6594SOL     OW31243   4.431   0.401   6.150 -0.0130 -0.5462  0.7633
 6594SOL    HW131244   4.376   0.344   6.096 -0.0140 -0.1687  0.3652
 6594SOL    HW231245   4.521   0.369   6.145  0.0941 -0.2000  0.5059
 6595SOL     OW31246   0.236   1.891   1.878 -0.0121 -0.1032  0.7182
 6595SOL    HW131247   0.296   1.960   1.907 -0.6282  0.6642  0.1609
 6595SOL    HW231248   0.199   1.935   1.802  0.8301 -1.8197 -0.6704
 6596SOL     OW31249   0.536   0.509   6.949 -0.0886 -0.1869 -0.0836
 6596SOL    HW131250   0.596   0.550   7.012 -0.9670  0.2818  0.4608
 6596SOL    HW231251   0.503   0.439   7.005 -1.4114 -0.3827 -1.1156
 6597SOL     OW31252   0.812   1.207   4.244 -0.1963  0.0907 -0.2577
 6597SOL    HW131253   0.787   1.133   4.301 -1.2208  1.1229  0.6274
 6597SOL    HW231254   0.733   1.261   4.243  0.5343  1.1367 -0.2397
 6598SOL     OW31255   3.158   0.564   4.756  0.6847  0.0459 -0.2510
 6598SOL    HW131256   3.112   0.583   4.838  0.4782  2.6499 -0.9783
 6598SOL    HW231257   3.084   0.562   4.695 -0.4831 -0.8180  1.1780
 6599SOL     OW31258   2.378   0.007   1.594  0.2188  0.4313 -0.2525
 6599SOL    HW131259   2.422   0.070   1.536 -0.2090 -0.2270 -1.2878
 6599SOL    HW231260   2.328   4.671   1.539  3.3881  0.6994 -3.4543
 6600SOL     OW31261   0.868   4.563   1.358 -0.0075  0.4774 -0.5181
 6600SOL    HW131262   0.899   4.592   1.444 -3.1425  0.3623  0.6555
 6600SOL    HW231263   0.911   4.478   1.344  0.1470  0.6049 -0.8122
 6601SOL     OW31264   0.639   1.769  10.665 -0.4098 -0.3216  0.4068
 6601SOL    HW131265   0.628   1.696  10.725  1.0311  0.1142  1.1781
 6601SOL    HW231266   0.699   1.729  10.602 -0.4575 -1.5008  1.1041
 6602SOL     OW31267   1.318   1.183   5.459 -0.2612  0.4044 -0.6481
 6602SOL    HW131268   1.298   1.128   5.384  1.7858 -0.7316 -0.3807
 6602SOL    HW231269   1.240   1.158   5.509  0.7896 -0.8691  0.3659
 6603SOL     OW31270   3.929   2.278   4.073  0.2907 -0.2541  0.5561
 6603SOL    HW131271   4.009   2.308   4.116 -1.6528  1.9050  2.6572
 6603SOL    HW231272   3.947   2.285   3.979 -1.4209  0.7402  0.2858
 6604SOL     OW31273   2.540   0.357  17.138  0.1094  0.0462 -0.1780
 6604SOL    HW131274   2.520   0.338  17.229  0.3445  3.3457  0.5239
 6604SOL    HW231275   2.458   0.332  17.094  0.8803 -1.2943 -0.8724
 6605SOL     OW31276   1.953   0.818   8.804 -0.4168  0.0510 -0.5432
 6605SOL    HW131277   1.997   0.735   8.782  0.2190  0.3530 -0.3922
 6605SOL    HW231278   1.864   0.791   8.828 -0.0044 -0.5059  0.3430
 6606SOL     OW31279   1.077   1.473   2.880 -0.4360  0.0720  0.9703
 6606SOL    HW131280   1.119   1.555   2.857 -0.7961 -0.0831 -0.2934
 6606SOL    HW231281   1.087   1.462   2.974  2.8209  0.3297  0.6671
 6607SOL     OW31282   0.140   0.218   7.360  0.2549 -0.1606  0.1095
 6607SOL    HW131283   0.131   0.215   7.455 -0.9989  0.6303  0.0144
 6607SOL    HW231284   0.111   0.129   7.342  0.9981 -0.2738 -0.5536
 6608SOL     OW31285   1.479   2.510   9.044 -0.4592  0.1362  0.3094
 6608SOL    HW131286   1.537   2.586   9.044  0.7503 -0.7905  0.5011
 6608SOL    HW231287   1.422   2.550   8.979 -0.3374  0.0187  0.1303
 6609SOL     OW31288   1.709   0.894   8.464  0.1103  0.3263  0.5938
 6609SOL    HW131289   1.755   0.954   8.522 -0.1637  3.4335 -2.4044
 6609SOL    HW231290   1.770   0.873   8.394 -0.9503  0.8662 -0.4989
 6610SOL     OW31291   0.393   1.906   7.048 -0.2435 -0.0602  0.3867
 6610SOL    HW131292   0.391   1.896   7.143 -0.3894 -0.9895  0.2879
 6610SOL    HW231293   0.474   1.870   7.011 -0.7601  1.4472 -2.2691
 6611SOL     OW31294   3.866   3.422   1.220  0.5307  0.5897  0.1386
 6611SOL    HW131295   3.795   3.367   1.188  1.1731 -0.1207 -0.0722
 6611SOL    HW231296   3.868   3.507   1.175 -0.2310  0.6722  0.2644
 6612SOL     OW31297   0.166   0.462  13.098  0.2481 -0.5374 -0.4229
 6612SOL    HW131298   0.243   0.488  13.149  1.3503  1.2346 -3.0170
 6612SOL    HW231299   0.141   0.540  13.048 -1.5743 -0.0778  1.2227
 6613SOL     OW31300   3.732   3.422   1.440 -0.1512  0.1294  0.1706
 6613SOL    HW131301   3.799   3.390   1.499 -0.1536 -0.2108 -0.0138
 6613SOL    HW231302   3.781   3.420   1.358 -1.9380  1.1762 -0.9389
 6614SOL     OW31303   1.743   0.229   4.786  0.4578 -0.0658 -0.1590
 6614SOL    HW131304   1.812   0.295   4.780  1.6349 -0.9525  3.7474
 6614SOL    HW231305   1.754   0.201   4.877  0.0884 -1.1876 -0.4594
 6615SOL     OW31306   2.593   0.828   7.148 -0.0698 -0.3283  0.5134
 6615SOL    HW131307   2.568   0.862   7.062  0.3825 -0.5615  0.2864
 6615SOL    HW231308   2.611   0.741   7.113  1.5966  0.2293  0.0099
 6616SOL     OW31309   2.804   0.329  16.996  0.2235 -0.5160 -0.8021
 6616SOL    HW131310   2.722   0.337  17.044 -0.0731 -2.2114 -1.0120
 6616SOL    HW231311   2.853   0.396  17.043  0.1819 -0.2430 -1.1468
 6617SOL     OW31312   0.247   2.194   5.836 -0.6016 -0.3186  0.3237
 6617SOL    HW131313   0.183   2.132   5.871  0.4401 -0.3376  2.2287
 6617SOL    HW231314   0.197   2.271   5.863 -0.7075 -1.0416  2.1863
 6618SOL     OW31315   2.002   2.051  17.547  0.1602  0.2271 -0.4945
 6618SOL    HW131316   2.003   1.958  17.569  0.1659  0.3821  0.1554
 6618SOL    HW231317   1.919   2.050  17.499  0.0318 -0.9674 -0.2441
 6619SOL     OW31318   1.366   2.957  12.023  0.9556 -0.1464  0.2659
 6619SOL    HW131319   1.446   2.917  12.059  0.3508  0.4999  2.2934
 6619SOL    HW231320   1.340   3.003  12.103  0.6944 -1.0428  0.6964
 6620SOL     OW31321   1.047   3.956   3.595 -0.3994  0.1691  0.1717
 6620SOL    HW131322   1.033   3.923   3.506 -2.6253  1.5744 -0.0028
 6620SOL    HW231323   1.141   3.947   3.606 -0.3803  3.0040  2.0828
 6621SOL     OW31324   2.458   2.009   5.489 -0.6589  0.0035 -0.4495
 6621SOL    HW131325   2.381   1.982   5.540  1.1715 -1.1538  1.7146
 6621SOL    HW231326   2.461   1.945   5.418  0.2331  1.5890 -1.8386
 6622SOL     OW31327   4.467   4.141  12.813  0.3525  0.0539 -0.0129
 6622SOL    HW131328   4.468   4.232  12.784  1.0951  0.1961  0.4530
 6622SOL    HW231329   4.560   4.128  12.797  0.1333 -1.7632  0.1740
 6623SOL     OW31330   4.674   4.544   4.309 -0.6780  0.0918  0.4138
 6623SOL    HW131331   0.016   4.550   4.241  0.5686 -1.3572  1.5010
 6623SOL    HW231332   0.008   4.581   4.376 -0.2720 -0.2559  0.2474
 6624SOL     OW31333   0.010   0.208   4.615 -0.1158 -0.0194 -0.3587
 6624SOL    HW131334   4.652   0.248   4.645  0.2595 -0.0943  0.7905
 6624SOL    HW231335   0.068   0.285   4.612 -1.0204  0.7338  1.0776
 6625SOL     OW31336   2.407   0.185   4.253 -0.0425 -0.2252  0.0834
 6625SOL    HW131337   2.482   0.202   4.197  0.5517 -1.2496  0.5758
 6625SOL    HW231338   2.401   0.266   4.303 -1.0858 -1.1998  1.5504
 6626SOL     OW31339   1.296   1.209   7.911  0.2063  0.4872  0.3352
 6626SOL    HW131340   1.204   1.191   7.888  1.0628 -3.5518  0.1869
 6626SOL    HW231341   1.296   1.288   7.857 -1.3118 -0.1036 -0.5350
 6627SOL     OW31342   2.211   2.844  12.367  0.0019 -0.3318  0.9570
 6627SOL    HW131343   2.136   2.837  12.427  0.0499  1.4836  1.2177
 6627SOL    HW231344   2.246   2.925  12.404  1.0929 -0.8070  0.9718
 6628SOL     OW31345   3.418   3.554   2.084 -0.5447 -0.2759 -0.2378
 6628SOL    HW131346   3.382   3.604   2.157 -0.0653 -0.2417 -0.0246
 6628SOL    HW231347   3.505   3.594   2.076 -1.0051  0.6948 -0.3457
 6629SOL     OW31348   2.162   0.675   9.954 -0.1406 -0.5184 -0.2114
 6629SOL    HW131349   2.203   0.594   9.984 -0.4938 -0.8190 -0.5469
 6629SOL    HW231350   2.075   0.661   9.989 -0.9398  0.6068 -1.7505
 6630SOL     OW31351   0.489   3.166   6.347  0.0636 -0.3248  0.3249
 6630SOL    HW131352   0.495   3.238   6.411  0.4991  0.9953 -1.1956
 6630SOL    HW231353   0.427   3.106   6.387 -0.6293 -0.8656 -1.5606
 6631SOL     OW31354   3.251   1.026  12.958  0.0297  0.0602  0.0875
 6631SOL    HW131355   3.275   1.102  13.012  0.4921  0.2923 -0.4424
 6631SOL    HW231356   3.302   0.964  13.010  0.1884  1.4018  1.5354
 6632SOL     OW31357   3.222   1.260   8.212  0.1983  0.4156  0.0773
 6632SOL    HW131358   3.296   1.200   8.222  1.5040  1.9964 -0.1553
 6632SOL    HW231359   3.150   1.220   8.261  0.7535 -1.1151 -0.3457
 6633SOL     OW31360   3.181   2.656   2.030 -0.0907 -0.0581 -0.6643
 6633SOL    HW131361   3.181   2.560   2.026  1.2553 -0.1747  1.7927
 6633SOL    HW231362   3.088   2.678   2.022 -0.1367  0.4804  1.3917
 6634SOL     OW31363   2.109   0.087   3.516 -0.2155  0.2860 -0.5822
 6634SOL    HW131364   2.132   0.086   3.423  2.2620 -0.2001  0.0447
 6634SOL    HW231365   2.190   0.098   3.565 -0.1251  0.5414 -0.7916
 6635SOL     OW31366   0.110   0.164   2.391 -0.6078 -0.0034  0.5638
 6635SOL    HW131367   0.188   0.203   2.430 -0.6140 -0.9793  1.5790
 6635SOL    HW231368   0.044   0.231   2.410 -1.7929 -0.7347 -0.9857
 6636SOL     OW31369   4.218   3.015   1.057  0.0002 -0.0923 -0.0113
 6636SOL    HW131370   4.166   3.075   1.004 -1.4244 -0.1483  1.3028
 6636SOL    HW231371   4.218   3.048   1.146 -1.9465 -1.2295  0.4066
 6637SOL     OW31372   1.267   1.082   8.775 -0.0914 -0.6540 -0.2099
 6637SOL    HW131373   1.175   1.109   8.775  0.7491  2.1579  1.6923
 6637SOL    HW231374   1.264   1.007   8.835 -0.6193 -0.9389 -0.5880
 6638SOL     OW31375   2.633   3.149   8.636 -0.2889  1.1072 -0.6020
 6638SOL    HW131376   2.728   3.155   8.642 -0.4841  1.6441  1.7756
 6638SOL    HW231377   2.622   3.138   8.541 -1.9201 -1.2982 -0.1565
 6639SOL     OW31378   1.131   1.355  12.452  0.5118  0.7859 -0.2756
 6639SOL    HW131379   1.180   1.388  12.527 -1.6063  0.4416  1.2829
 6639SOL    HW231380   1.201   1.309  12.406  2.1025  1.3378  1.6119
 6640SOL     OW31381   2.599   2.384   9.245  0.7117  0.4817  0.0771
 6640SOL    HW131382   2.586   2.479   9.251  2.2066  0.6006  1.2654
 6640SOL    HW231383   2.558   2.360   9.327  0.3027  0.5343 -0.1145
 6641SOL     OW31384   1.565   1.026   6.670  0.2663  0.0636 -0.2773
 6641SOL    HW131385   1.528   1.097   6.723 -0.9720 -0.9399  0.2064
 6641SOL    HW231386   1.624   1.075   6.612 -1.9291  0.9758 -1.7470
 6642SOL     OW31387   0.882   2.688  16.363  0.5215  0.4737 -0.5010
 6642SOL    HW131388   0.814   2.751  16.391  1.7264  1.3498  0.4836
 6642SOL    HW231389   0.824   2.621  16.328  0.7845 -0.4130  0.7614
 6643SOL     OW31390   0.190   2.222   7.940 -0.4369  0.0853 -0.7178
 6643SOL    HW131391   0.122   2.172   7.895 -1.2349 -0.2628  0.8855
 6643SOL    HW231392   0.212   2.167   8.016  0.9119  1.0187 -0.4456
 6644SOL     OW31393   0.861   4.535  15.737 -0.3073 -0.1211 -0.1791
 6644SOL    HW131394   0.779   4.585  15.735  0.0945  0.6035  1.0772
 6644SOL    HW231395   0.830   4.445  15.730  0.6766 -0.4574 -0.2184
 6645SOL     OW31396   0.743   1.690   2.675  0.0782 -0.1965 -0.5401
 6645SOL    HW131397   0.768   1.597   2.673  1.2506  0.1329 -1.1358
 6645SOL    HW231398   0.659   1.692   2.721  1.7158 -1.0897  2.5458
 6646SOL     OW31399   1.953   1.609   0.583  0.0391  0.5865 -0.0345
 6646SOL    HW131400   1.866   1.633   0.551 -0.7927 -0.4335  1.4594
 6646SOL    HW231401   2.006   1.677   0.541 -1.3263  1.7794  0.1558
 6647SOL     OW31402   0.505   2.032  10.124  0.4863  0.0184 -0.3042
 6647SOL    HW131403   0.499   2.031  10.220 -0.7151 -0.3752 -0.3758
 6647SOL    HW231404   0.598   2.035  10.105  0.0256 -0.5699 -2.6244
 6648SOL     OW31405   1.617   3.813  16.028  0.0907 -0.0526 -0.1862
 6648SOL    HW131406   1.549   3.828  15.963  0.0017 -0.6238 -0.2217
 6648SOL    HW231407   1.653   3.731  15.996 -0.3121  1.1859 -3.7567
 6649SOL     OW31408   4.401   0.570   1.707  0.0116 -0.7675 -0.6708
 6649SOL    HW131409   4.330   0.521   1.749 -0.8910  1.4133  0.2970
 6649SOL    HW231410   4.478   0.515   1.725  0.1634  0.7024  3.0767
 6650SOL     OW31411   2.049   1.556   1.270 -0.1113  0.6390 -0.0219
 6650SOL    HW131412   1.965   1.601   1.275  0.2862  1.7372 -3.5413
 6650SOL    HW231413   2.047   1.497   1.345  2.0497 -2.3630 -2.3367
 6651SOL     OW31414   0.341   0.573   3.407  0.0900  0.2417  0.2420
 6651SOL    HW131415   0.385   0.654   3.382 -1.9402  1.6959  1.3112
 6651SOL    HW231416   0.272   0.576   3.341  0.9540 -1.0496 -0.7252
 6652SOL     OW31417   3.211   3.923   0.050 -0.4648 -0.2647 -0.4272
 6652SOL    HW131418   3.258   3.981   0.110  1.0435 -2.7809  0.8036
 6652SOL    HW231419   3.156   3.991   0.010  0.4645 -0.9177 -2.8181
 6653SOL     OW31420   4.355   1.242   2.568 -0.5954 -0.3385 -0.3887
 6653SOL    HW131421   4.281   1.270   2.622  0.9542  0.7810  1.1560
 6653SOL    HW231422   4.361   1.303   2.495 -0.5563 -0.9507 -0.8932
 6654SOL     OW31423   4.073   4.013  17.085  0.9077  0.1073  0.2075
 6654SOL    HW131424   4.140   3.966  17.034  0.0086 -0.2606 -0.6399
 6654SOL    HW231425   3.992   3.962  17.088  1.7784 -1.0557  3.0889
 6655SOL     OW31426   3.615   4.350   7.815 -0.4255  0.1007  0.1660
 6655SOL    HW131427   3.581   4.323   7.900  0.7743 -1.3156  0.1904
 6655SOL    HW231428   3.691   4.292   7.811 -1.2648 -1.0214  0.5836
 6656SOL     OW31429   1.986   4.203  15.014 -0.0610  0.5547  0.0422
 6656SOL    HW131430   1.952   4.166  14.932  0.0256  1.5758 -0.4502
 6656SOL    HW231431   2.076   4.214  14.982  0.5803 -2.3188  0.8863
 6657SOL     OW31432   1.336   1.038  11.609  1.2038 -0.1170  0.1118
 6657SOL    HW131433   1.395   1.100  11.566  1.1370  0.8630  1.4161
 6657SOL    HW231434   1.399   1.007  11.675  1.2523 -0.6623 -0.1936
 6658SOL     OW31435   1.360   0.633   3.967  0.2712  0.2412 -0.1800
 6658SOL    HW131436   1.400   0.662   4.049  0.5879  0.3679 -0.3790
 6658SOL    HW231437   1.304   0.564   4.003  1.3009 -0.9026 -0.7654
 6659SOL     OW31438   0.236   1.501   4.284  0.8614 -0.1157 -0.5349
 6659SOL    HW131439   0.300   1.553   4.235 -0.4455  1.8078 -0.2062
 6659SOL    HW231440   0.174   1.476   4.216  0.3968  2.7665 -1.1908
 6660SOL     OW31441   2.877   4.538   5.193 -0.0322  0.2600 -0.6988
 6660SOL    HW131442   2.812   4.582   5.138  0.2735 -1.9852 -2.8482
 6660SOL    HW231443   2.857   4.454   5.153 -0.1704 -0.2811  0.5124
 6661SOL     OW31444   1.078   4.140   8.423 -0.1175 -0.1695  0.3644
 6661SOL    HW131445   0.998   4.135   8.476  0.4470  1.6958  1.4326
 6661SOL    HW231446   1.141   4.146   8.496  1.2834  0.1549 -0.8624
 6662SOL     OW31447   0.963   1.007   3.161 -0.2219 -0.3471 -0.1970
 6662SOL    HW131448   0.991   0.936   3.218 -3.6625 -1.1081  0.5709
 6662SOL    HW231449   0.947   1.080   3.221  1.9919 -1.5588  1.8421
 6663SOL     OW31450   2.280   1.816   6.712  0.2425  0.3541 -0.1138
 6663SOL    HW131451   2.334   1.894   6.698  3.7872 -1.6306  2.4408
 6663SOL    HW231452   2.348   1.748   6.721  0.1499  0.4052  0.9552
 6664SOL     OW31453   1.010   0.097   3.648  0.0560  0.1266 -0.4710
 6664SOL    HW131454   1.043   0.071   3.734  0.8694 -0.7839 -1.0532
 6664SOL    HW231455   1.020   0.191   3.657 -1.8414  0.3530 -0.8382
 6665SOL     OW31456   4.639   4.249   3.605 -0.7526 -0.1491  0.6227
 6665SOL    HW131457   4.692   4.325   3.627  0.0485 -1.1856  2.2512
 6665SOL    HW231458   4.574   4.302   3.559 -0.6126 -1.4044 -1.0446
 6666SOL     OW31459   1.789   2.968   6.428 -0.1049  0.1815  0.3298
 6666SOL    HW131460   1.744   3.018   6.359 -1.3723 -2.7163 -0.9099
 6666SOL    HW231461   1.796   3.034   6.497  0.8243 -1.2491  1.5772
 6667SOL     OW31462   0.244   0.346   7.665  0.0009  0.3431  0.7524
 6667SOL    HW131463   0.154   0.315   7.659 -0.0450  0.8885 -1.5567
 6667SOL    HW231464   0.243   0.399   7.745  0.6353  1.4359  0.0394
 6668SOL     OW31465   0.501   3.192  15.842 -0.4651 -0.3043  0.6395
 6668SOL    HW131466   0.571   3.248  15.876 -1.6856  1.5535  0.0884
 6668SOL    HW231467   0.505   3.123  15.908 -0.7651 -1.4347 -0.5364
 6669SOL     OW31468   0.254   2.744  16.201  0.2368  0.0691 -0.1994
 6669SOL    HW131469   0.232   2.651  16.203 -1.1808  0.4115  0.1083
 6669SOL    HW231470   0.269   2.768  16.292 -0.3896  2.5803 -0.7717
 6670SOL     OW31471   3.137   0.449   4.163 -0.2342 -0.3939 -0.1937
 6670SOL    HW131472   3.164   0.383   4.099  2.1408  2.2595 -1.9215
 6670SOL    HW231473   3.183   0.522   4.121  0.0308  0.7143  2.0455
 6671SOL     OW31474   1.061   1.038  14.816 -0.3382 -0.0795 -0.2633
 6671SOL    HW131475   1.068   1.097  14.741 -1.0333  1.0289  0.5416
 6671SOL    HW231476   1.101   1.095  14.882 -1.9182 -0.0456  0.6641
 6672SOL     OW31477   3.769   2.921   4.759 -0.3884 -0.4446 -0.2664
 6672SOL    HW131478   3.858   2.888   4.772 -1.6230 -3.1623  1.3698
 6672SOL    HW231479   3.776   2.992   4.822 -0.0780  1.0873 -2.0617
 6673SOL     OW31480   0.045   3.586   3.782 -0.2468 -0.3321 -0.5917
 6673SOL    HW131481   0.000   3.529   3.845 -1.0450  0.4393 -0.4659
 6673SOL    HW231482   4.698   3.637   3.745 -0.5531  1.8699  3.0194
 6674SOL     OW31483   0.401   3.626   1.719 -0.5980  0.9012  0.1800
 6674SOL    HW131484   0.408   3.619   1.814 -0.8603  1.5706  0.2455
 6674SOL    HW231485   0.492   3.626   1.688 -0.7762  2.2194 -0.3369
 6675SOL     OW31486   1.552   0.644   2.513 -0.0161  0.2067  0.1877
 6675SOL    HW131487   1.570   0.736   2.534  0.5386  0.1914 -0.2050
 6675SOL    HW231488   1.473   0.651   2.459 -0.5968  0.8328  1.1162
 6676SOL     OW31489   4.434   3.078   2.569 -0.0053  0.6481  0.1903
 6676SOL    HW131490   4.485   3.076   2.488 -0.4237  0.5869 -0.0762
 6676SOL    HW231491   4.444   2.987   2.596  1.7464  0.5764 -0.7495
 6677SOL     OW31492   2.680   0.057   1.553  0.7673  0.5150 -0.3887
 6677SOL    HW131493   2.776   0.061   1.555  0.7793  0.5007 -0.8924
 6677SOL    HW231494   2.669   0.151   1.535  0.0107 -0.0453 -2.8261
 6678SOL     OW31495   1.138   3.157   8.505 -0.4362 -0.5042 -0.0834
 6678SOL    HW131496   1.097   3.206   8.576 -0.7043  1.3068 -1.4964
 6678SOL    HW231497   1.228   3.185   8.518 -0.6828 -0.1892  1.0032
 6679SOL     OW31498   4.200   2.475   2.730 -0.0666  0.4375 -0.2540
 6679SOL    HW131499   4.217   2.380   2.733 -3.7949 -0.2099  0.1591
 6679SOL    HW231500   4.176   2.481   2.637  0.0253 -0.6855 -0.3597
 6680SOL     OW31501   3.680   2.311   8.392 -0.1056 -0.3788  0.1823
 6680SOL    HW131502   3.601   2.333   8.442 -0.5760 -0.7924 -0.3753
 6680SOL    HW231503   3.669   2.381   8.327 -1.7643 -1.0638 -0.2694
 6681SOL     OW31504   3.799   1.086   5.578  0.2269 -0.0012 -0.1456
 6681SOL    HW131505   3.803   1.010   5.636  2.0994  0.0393 -0.2275
 6681SOL    HW231506   3.758   1.041   5.504 -2.4747  0.6073  1.0070
 6682SOL     OW31507   3.542   3.503   5.718 -0.1872 -0.2728 -0.4622
 6682SOL    HW131508   3.475   3.520   5.652  1.3371 -1.0197 -2.2047
 6682SOL    HW231509   3.549   3.597   5.735  2.0854 -0.2992 -1.2275
 6683SOL     OW31510   0.115   0.738   8.672  0.3788 -0.5876 -0.3814
 6683SOL    HW131511   0.035   0.772   8.632 -1.1240 -2.4224  1.0864
 6683SOL    HW231512   0.088   0.693   8.752  0.0670 -2.2384 -1.4085
 6684SOL     OW31513   0.601   1.977  14.609  0.3162  0.0034  0.2872
 6684SOL    HW131514   0.657   1.901  14.623 -1.3580 -1.5374 -1.3512
 6684SOL    HW231515   0.642   2.046  14.660 -0.0653  0.7860 -0.4626
 6685SOL     OW31516   3.936   3.721   2.132 -0.3497  0.2278 -0.3868
 6685SOL    HW131517   3.874   3.711   2.204 -0.4806 -0.2419 -0.5595
 6685SOL    HW231518   3.906   3.807   2.102 -1.7498 -0.2025 -0.2676
 6686SOL     OW31519   3.731   4.586   1.856  0.1378  0.2185 -0.3821
 6686SOL    HW131520   3.639   4.599   1.877  0.0550  0.1512 -0.7012
 6686SOL    HW231521   3.751   4.678   1.838 -1.9179  0.7764  0.2219
 6687SOL     OW31522   0.893   1.409   0.887 -0.3566  0.2773 -0.0161
 6687SOL    HW131523   0.840   1.384   0.812  0.4157  0.1088 -0.5039
 6687SOL    HW231524   0.974   1.357   0.879  0.4263  1.3440  0.9347
 6688SOL     OW31525   1.928   4.046   4.517 -0.1514 -0.5135  0.5780
 6688SOL    HW131526   1.961   4.087   4.437 -0.9952 -1.5910 -0.3137
 6688SOL    HW231527   1.949   3.954   4.504 -0.0131 -0.2062 -1.3677
 6689SOL     OW31528   2.937   3.998   5.560 -0.4551 -0.4420  0.6073
 6689SOL    HW131529   2.880   3.922   5.554 -2.0542  0.6586  2.0765
 6689SOL    HW231530   2.889   4.061   5.506  0.3681  0.4369  0.8987
 6690SOL     OW31531   4.232   3.045   3.978 -0.2334  0.0958  0.2228
 6690SOL    HW131532   4.196   3.084   3.897  1.0506  0.7044 -0.0665
 6690SOL    HW231533   4.274   2.967   3.942  0.6547  0.4952  0.3912
 6691SOL     OW31534   3.068   4.454   0.097  0.4462 -0.1716 -0.7690
 6691SOL    HW131535   3.012   4.491   0.028 -0.7607  0.0025  0.3150
 6691SOL    HW231536   3.129   4.528   0.092 -0.2009  0.5641  2.4775
 6692SOL     OW31537   2.488   4.563   3.476 -0.0331  0.7340 -0.0770
 6692SOL    HW131538   2.540   4.495   3.518 -2.6809 -0.7094  0.8337
 6692SOL    HW231539   2.493   4.546   3.382 -0.9078  1.2825 -0.2181
 6693SOL     OW31540   0.011   0.836  14.856  0.1247 -0.2112  0.3005
 6693SOL    HW131541   4.654   0.814  14.902  0.7278 -0.6025  1.1718
 6693SOL    HW231542   0.035   0.921  14.894 -0.8484  0.2922 -0.2132
 6694SOL     OW31543   2.764   3.008   4.835 -0.2859 -0.2337 -0.1530
 6694SOL    HW131544   2.805   3.016   4.749  0.7997  0.3622  0.4203
 6694SOL    HW231545   2.815   3.077   4.879 -0.8176 -0.1358  0.3045
 6695SOL     OW31546   4.574   1.149   6.067  0.1756  0.1833  0.1291
 6695SOL    HW131547   4.522   1.188   6.137 -2.1802 -3.3160  0.3036
 6695SOL    HW231548   4.513   1.111   6.004  1.1817  0.0659 -0.7807
 6696SOL     OW31549   0.229   2.071   5.584 -0.3093 -0.1389 -0.4114
 6696SOL    HW131550   0.231   2.117   5.668 -2.8660 -1.4029  0.3551
 6696SOL    HW231551   0.140   2.084   5.554 -0.9172 -1.6348  0.7132
 6697SOL     OW31552   3.777   3.458   9.468 -0.1360  0.1263 -0.9951
 6697SOL    HW131553   3.720   3.392   9.427  0.0946 -1.7990  1.7887
 6697SOL    HW231554   3.848   3.468   9.403  0.1010  2.9494 -0.2943
 6698SOL     OW31555   2.210   0.428   2.065 -0.0479  0.1437  0.3065
 6698SOL    HW131556   2.280   0.363   2.058 -0.3629 -0.1186 -0.4159
 6698SOL    HW231557   2.261   0.508   2.071 -1.3052  0.9395  0.3909
 6699SOL     OW31558   3.701   2.911   7.885  0.0848  0.8340  0.4996
 6699SOL    HW131559   3.713   2.829   7.838 -2.2716  0.3930  0.6925
 6699SOL    HW231560   3.635   2.955   7.833 -0.1469  2.1044  1.8850
 6700SOL     OW31561   0.587   0.025   4.752 -0.1189 -0.1648 -0.5896
 6700SOL    HW131562   0.500   0.059   4.731  0.6210  1.7199 -0.6131
 6700SOL    HW231563   0.621   0.044   4.665 -1.3948  2.3232 -0.5575
 6701SOL     OW31564   0.136   3.265  16.502 -0.2606  1.1451  0.1085
 6701SOL    HW131565   0.041   3.255  16.495 -0.2629  0.3316  1.3240
 6701SOL    HW231566   0.157   3.276  16.595  1.7662  1.4129 -0.3853
 6702SOL     OW31567   2.792   0.038   4.219  0.3447 -0.5742  0.2782
 6702SOL    HW131568   2.735   4.700   4.173 -1.5479  1.4097 -0.0194
 6702SOL    HW231569   2.806   0.106   4.154  1.8355 -1.4355 -0.2900
 6703SOL     OW31570   3.619   3.826  13.818  0.2320  0.7216  0.1080
 6703SOL    HW131571   3.646   3.775  13.895  1.1075 -1.5800 -1.7219
 6703SOL    HW231572   3.683   3.897  13.827  0.7769  0.3751 -1.0555
 6704SOL     OW31573   2.498   2.967   4.961  0.4701 -0.3515  0.1488
 6704SOL    HW131574   2.578   2.971   4.908 -0.8746 -1.8270 -1.9919
 6704SOL    HW231575   2.520   2.881   4.996  2.3947  0.0547 -0.0841
 6705SOL     OW31576   2.828   0.650  15.861  0.5895  0.2690 -0.2824
 6705SOL    HW131577   2.818   0.639  15.766  0.4991 -0.4463 -0.1863
 6705SOL    HW231578   2.766   0.722  15.875  0.1756 -0.1873  0.2094
 6706SOL     OW31579   3.554   1.128  16.354 -0.0858  0.1815  0.1871
 6706SOL    HW131580   3.517   1.055  16.404  0.6151 -0.5245 -0.3566
 6706SOL    HW231581   3.644   1.123  16.385  0.1528  1.1246 -0.3419
 6707SOL     OW31582   0.587   1.635   9.850 -0.6565  0.3197  0.7009
 6707SOL    HW131583   0.531   1.643   9.773 -0.3040 -2.5780  0.1601
 6707SOL    HW231584   0.541   1.693   9.911  1.2639  1.1173  1.3892
 6708SOL     OW31585   1.143   1.321  16.281  0.6530 -0.5031  0.2696
 6708SOL    HW131586   1.214   1.365  16.234  2.1115 -0.2357  2.7467
 6708SOL    HW231587   1.068   1.346  16.228  0.2307  0.6985  1.4397
 6709SOL     OW31588   3.088   3.961   3.043 -0.0258 -0.5309  0.3503
 6709SOL    HW131589   3.134   4.018   3.105 -1.4735  1.9093 -0.7903
 6709SOL    HW231590   3.029   4.029   3.010  2.2392  1.2754 -0.0568
 6710SOL     OW31591   0.032   3.486   2.831  0.0914 -0.0105  0.3758
 6710SOL    HW131592   4.697   3.561   2.821 -0.8094 -0.5316  1.7398
 6710SOL    HW231593   4.691   3.425   2.796 -0.5590 -0.2182  1.9184
 6711SOL     OW31594   1.601   2.657   5.651 -0.2375  0.1530  0.4796
 6711SOL    HW131595   1.590   2.563   5.660  0.1219  0.5100  4.9006
 6711SOL    HW231596   1.600   2.671   5.557  0.6445  2.1522  0.7631
 6712SOL     OW31597   4.540   2.648   9.191  0.8408  0.0548  0.3946
 6712SOL    HW131598   4.474   2.689   9.247 -0.6129  0.2544 -1.4751
 6712SOL    HW231599   4.500   2.561   9.184 -0.0691  0.6348 -1.4036
 6713SOL     OW31600   1.793   4.001   3.950 -0.1080  0.0033  0.2086
 6713SOL    HW131601   1.743   3.952   3.886  1.3813 -0.3597 -0.6801
 6713SOL    HW231602   1.749   3.975   4.031  1.3659 -1.6806  0.4636
 6714SOL     OW31603   0.416   3.913  11.371  0.2376 -0.3811  0.1844
 6714SOL    HW131604   0.496   3.958  11.344 -0.3000  0.1003 -0.6387
 6714SOL    HW231605   0.360   3.989  11.385  0.1393 -0.3979 -0.1135
 6715SOL     OW31606   0.188   1.393   9.639  1.0617 -0.3712 -0.3907
 6715SOL    HW131607   0.118   1.408   9.575  1.4051  2.3621 -0.1550
 6715SOL    HW231608   0.202   1.299   9.638 -0.1724 -0.5824  1.2891
 6716SOL     OW31609   3.089   0.012  12.985 -0.2093 -0.3129 -0.2411
 6716SOL    HW131610   3.023   0.064  13.032 -0.2425 -1.1910  0.6935
 6716SOL    HW231611   3.047   4.650  12.979 -0.2945 -0.4424  2.1827
 6717SOL     OW31612   3.707   4.102   2.349  0.4286  0.8775 -0.1619
 6717SOL    HW131613   3.732   4.011   2.366 -1.6383  0.7026  2.0639
 6717SOL    HW231614   3.754   4.145   2.421  0.3285  0.3403  0.2290
 6718SOL     OW31615   4.535   2.800   4.488  0.6158  0.5404 -0.4684
 6718SOL    HW131616   4.600   2.853   4.441  1.8715 -0.9859 -0.4597
 6718SOL    HW231617   4.474   2.773   4.420 -0.9913 -1.3353  1.6938
 6719SOL     OW31618   1.623   2.404  12.955  0.6033  0.5125  0.2160
 6719SOL    HW131619   1.614   2.310  12.945 -1.7471  0.9802 -1.9608
 6719SOL    HW231620   1.716   2.420  12.972  0.3615 -0.5193  2.4780
 6720SOL     OW31621   2.572   2.238  17.456 -0.3556  0.2354  0.2043
 6720SOL    HW131622   2.516   2.294  17.511  1.6258  3.2236 -0.7922
 6720SOL    HW231623   2.510   2.216  17.387  1.7900  0.6370 -1.8231
 6721SOL     OW31624   3.504   1.682   9.226 -0.0312 -0.2721  0.2132
 6721SOL    HW131625   3.438   1.625   9.187 -0.1828  0.1879 -0.2141
 6721SOL    HW231626   3.545   1.719   9.148 -0.9553  1.8245  0.7058
 6722SOL     OW31627   2.835   2.290  13.301 -0.7869  0.0223  0.3322
 6722SOL    HW131628   2.911   2.231  13.295  0.5737  1.7036  0.8831
 6722SOL    HW231629   2.793   2.251  13.377  0.6487 -0.5633  0.8382
 6723SOL     OW31630   1.128   3.031  17.649 -0.0998  0.5293 -1.2028
 6723SOL    HW131631   1.157   2.999   0.037 -1.4131  0.0430 -0.9387
 6723SOL    HW231632   1.073   2.961  17.613  0.6874 -0.5887 -0.2253
 6724SOL     OW31633   4.414   4.236   8.898  0.2041  0.5598 -0.2977
 6724SOL    HW131634   4.487   4.281   8.941  0.5491  0.4908 -0.8089
 6724SOL    HW231635   4.344   4.276   8.950 -1.1046 -0.5831 -1.1798
 6725SOL     OW31636   0.039   1.122   4.304 -0.0252 -0.4220 -0.2334
 6725SOL    HW131637   0.029   1.131   4.210 -1.4358  0.4358  0.0020
 6725SOL    HW231638   4.721   1.207   4.322 -0.2390 -0.8049  1.1229
 6726SOL     OW31639   0.921   4.492   7.047  0.0845  0.7008 -0.5956
 6726SOL    HW131640   0.943   4.584   7.030  2.3437  0.4472  1.0246
 6726SOL    HW231641   0.830   4.498   7.016 -0.3928  0.6053  0.7844
 6727SOL     OW31642   3.329   0.838  13.350 -0.1143  0.8232 -0.6923
 6727SOL    HW131643   3.291   0.906  13.406 -1.7899 -1.2807  0.7212
 6727SOL    HW231644   3.327   0.767  13.413 -0.8931 -0.0106 -1.6541
 6728SOL     OW31645   3.576   1.458   3.316  0.5885 -0.3031  0.1114
 6728SOL    HW131646   3.624   1.422   3.390 -0.1446  0.1250  0.8020
 6728SOL    HW231647   3.526   1.524   3.365  0.3231  0.2118 -0.8591
 6729SOL     OW31648   4.060   1.166   8.701  0.3165 -0.1292 -0.8503
 6729SOL    HW131649   4.133   1.155   8.761 -2.5688 -0.3481  2.5742
 6729SOL    HW231650   4.093   1.143   8.613 -0.1237  1.5120 -1.4350
 6730SOL     OW31651   2.343   4.655  10.674 -0.2236 -0.1169  0.0576
 6730SOL    HW131652   2.293   4.684  10.750  1.2819  0.1649  0.9420
 6730SOL    HW231653   2.412   4.720  10.663 -0.5758  0.9598  4.2354
 6731SOL     OW31654   4.366   2.198   6.252 -0.0713  0.3473  0.3788
 6731SOL    HW131655   4.368   2.286   6.216  1.0562 -0.7862 -2.3608
 6731SOL    HW231656   4.445   2.202   6.307 -0.5021 -1.4421  1.1280
 6732SOL     OW31657   1.694   1.691   0.507  0.0788 -0.3058 -0.7645
 6732SOL    HW131658   1.666   1.744   0.433 -0.5371  1.2089  0.5409
 6732SOL    HW231659   1.618   1.706   0.564  1.9391  3.5534  0.7634
 6733SOL     OW31660   0.006   2.135   0.974 -0.3944  0.3255  0.2969
 6733SOL    HW131661   4.650   2.151   1.024 -0.7356 -1.1336  0.2094
 6733SOL    HW231662   4.720   2.043   0.948 -0.2317 -0.1860  2.0616
 6734SOL     OW31663   0.014   0.016   3.912 -0.0164  0.1728  0.8894
 6734SOL    HW131664   0.088   0.075   3.925  0.4973  0.0676 -1.4784
 6734SOL    HW231665   4.666   0.076   3.891 -1.8495 -1.7656  1.6030
 6735SOL     OW31666   1.401   4.695  14.187  0.1329  0.2441  0.4011
 6735SOL    HW131667   1.317   4.655  14.210 -0.5289  1.9817  1.0224
 6735SOL    HW231668   1.427   0.007  14.272  2.6090  0.4280 -0.4333
 6736SOL     OW31669   4.216   3.631   0.210  0.5719 -0.1877 -0.4825
 6736SOL    HW131670   4.151   3.585   0.264 -0.7235  2.0380 -0.1231
 6736SOL    HW231671   4.156   3.693   0.168  2.8595  1.9181 -0.6375
 6737SOL     OW31672   2.489   3.636   4.623 -0.0977 -0.1692 -0.2230
 6737SOL    HW131673   2.425   3.635   4.694  0.9211 -0.4224  0.6850
 6737SOL    HW231674   2.471   3.553   4.578 -0.9373  0.1475 -0.4763
 6738SOL     OW31675   3.371   0.259   5.402  0.0050  0.0969  0.6889
 6738SOL    HW131676   3.376   0.197   5.475  0.3794 -1.0715 -0.3094
 6738SOL    HW231677   3.387   0.202   5.327 -0.5853 -1.2849  1.6037
 6739SOL     OW31678   4.578   0.658  14.659  0.1424  0.3263 -0.2416
 6739SOL    HW131679   4.637   0.705  14.718  2.1694  0.3974 -2.3234
 6739SOL    HW231680   4.632   0.618  14.591  2.0690  0.9566  0.8952
 6740SOL     OW31681   1.784   1.018   2.191  0.4398  0.3882 -0.0494
 6740SOL    HW131682   1.861   0.961   2.193  0.6954  0.7503  0.3648
 6740SOL    HW231683   1.772   1.025   2.096  2.1235  0.3783 -0.2621
 6741SOL     OW31684   1.759   1.389  15.210 -0.0581  0.2289 -0.0296
 6741SOL    HW131685   1.812   1.451  15.160  2.2091 -1.2788  0.4897
 6741SOL    HW231686   1.800   1.303  15.203  0.7162  0.3602  2.9750
 6742SOL     OW31687   3.414   2.186   5.115  0.8288  0.0237 -0.2309
 6742SOL    HW131688   3.362   2.133   5.174  0.1397  0.6499 -0.2682
 6742SOL    HW231689   3.436   2.253   5.180  0.1163 -1.0884  1.1518
 6743SOL     OW31690   3.171   2.369   5.901 -0.3627  0.3955  0.1981
 6743SOL    HW131691   3.246   2.429   5.903  1.2052 -1.5829  0.8238
 6743SOL    HW231692   3.176   2.325   5.986  3.0433 -0.6944 -0.5755
 6744SOL     OW31693   1.275   4.704   9.150 -0.2422  0.3553  0.2485
 6744SOL    HW131694   1.294   4.626   9.098 -0.0754  0.0357  0.8027
 6744SOL    HW231695   1.308   4.679   9.236  0.0368 -1.8545 -0.4994
 6745SOL     OW31696   4.604   1.157  11.211 -0.0728  0.6700  0.7228
 6745SOL    HW131697   4.558   1.144  11.129  0.6857 -0.2794  0.4413
 6745SOL    HW231698   4.685   1.201  11.185  0.4323 -0.9364 -0.3925
 6746SOL     OW31699   4.340   1.013   5.086 -0.4577  0.2126 -0.6243
 6746SOL    HW131700   4.341   0.918   5.084 -2.5539  0.1878 -0.9946
 6746SOL    HW231701   4.265   1.038   5.031 -0.5924  1.3974  0.0840
 6747SOL     OW31702   3.853   0.845  13.335  0.0987  0.2271  0.5613
 6747SOL    HW131703   3.921   0.908  13.313 -0.8086  0.4680 -1.5163
 6747SOL    HW231704   3.889   0.763  13.300  1.5241  1.2072 -0.2592
 6748SOL     OW31705   3.322   1.197  17.078 -0.0362  0.1207 -0.2328
 6748SOL    HW131706   3.273   1.264  17.125  0.8657 -0.2809  1.2918
 6748SOL    HW231707   3.386   1.174  17.145 -4.3629  0.3088  3.9852
 6749SOL     OW31708   1.657   1.074   6.401 -0.0846 -0.1133 -0.0241
 6749SOL    HW131709   1.710   1.142   6.359  0.9228 -1.0334 -0.2332
 6749SOL    HW231710   1.566   1.092   6.376  0.0301 -1.0066 -1.0731
 6750SOL     OW31711   2.592   4.624   9.374  0.1780  0.2067  0.3040
 6750SOL    HW131712   2.545   4.652   9.295  1.1161  1.1342  0.0854
 6750SOL    HW231713   2.682   4.651   9.362  0.3594 -1.1409 -1.4709
 6751SOL     OW31714   3.998   2.775   6.198 -0.1649  0.6355 -0.3078
 6751SOL    HW131715   4.076   2.741   6.155 -0.8112  0.7519 -1.5564
 6751SOL    HW231716   4.014   2.726   6.279 -3.2449  0.2384  0.0427
 6752SOL     OW31717   2.719   0.196   9.224  0.2624 -0.6819  0.4081
 6752SOL    HW131718   2.764   0.248   9.157  0.2365 -1.5778 -0.2922
 6752SOL    HW231719   2.791   0.166   9.280  0.7711 -0.7194 -0.2774
 6753SOL     OW31720   1.460   0.355  14.928  0.0307 -0.3695 -0.4280
 6753SOL    HW131721   1.396   0.305  14.977 -0.4193  1.3554  0.7500
 6753SOL    HW231722   1.425   0.441  14.952 -1.4215 -0.4129 -2.4617
 6754SOL     OW31723   1.924   4.623   5.959 -0.6153 -0.3765  0.2401
 6754SOL    HW131724   1.943   4.700   5.905 -0.6688  0.6031  1.6149
 6754SOL    HW231725   1.945   4.557   5.893 -0.4285 -1.6339  1.5570
 6755SOL     OW31726   1.599   2.618  12.489  0.1124 -0.4988 -0.2477
 6755SOL    HW131727   1.536   2.586  12.555 -1.3124  0.8144 -0.9609
 6755SOL    HW231728   1.662   2.547  12.488 -0.1251 -0.7396  1.9687
 6756SOL     OW31729   3.412   1.851  10.021 -0.2641 -0.4064 -0.0593
 6756SOL    HW131730   3.349   1.796  10.067  0.9460 -1.2321  0.6091
 6756SOL    HW231731   3.488   1.792  10.017 -0.6611 -1.0126  1.4678
 6757SOL     OW31732   2.439   1.943  15.111  0.3646 -0.9724 -0.5813
 6757SOL    HW131733   2.467   1.927  15.021  0.6033  2.3792 -1.0778
 6757SOL    HW231734   2.344   1.957  15.110  0.5021  0.1952  1.4675
 6758SOL     OW31735   3.482   4.272   1.748  0.2243 -0.2629  0.2942
 6758SOL    HW131736   3.436   4.195   1.714  1.1198 -1.0067  0.7556
 6758SOL    HW231737   3.493   4.326   1.671 -0.1808  0.8779  1.0367
 6759SOL     OW31738   0.926   2.589   3.668 -0.3664  0.4895  0.6261
 6759SOL    HW131739   1.002   2.584   3.609 -0.4209 -1.2129  0.6879
 6759SOL    HW231740   0.870   2.648   3.618  0.2747  0.1370 -0.5121
 6760SOL     OW31741   1.254   0.070   7.478  0.1384 -0.2550  0.1550
 6760SOL    HW131742   1.259   0.048   7.386  0.3159 -0.6825  0.2678
 6760SOL    HW231743   1.327   0.014   7.504  2.8329  2.2535 -2.0436
 6761SOL     OW31744   1.977   2.957  13.657  0.1037  0.1793  0.1645
 6761SOL    HW131745   2.069   2.977  13.636  0.6969 -1.8652  0.8275
 6761SOL    HW231746   1.923   3.014  13.603  0.8353 -0.0361 -0.8033
 6762SOL     OW31747   1.154   3.347   7.179 -0.2804 -0.3831 -0.5883
 6762SOL    HW131748   1.059   3.335   7.174  0.1590 -3.8069 -0.9327
 6762SOL    HW231749   1.174   3.322   7.269 -0.7113  0.3556 -0.2908
 6763SOL     OW31750   4.477   2.564   2.024  0.0127  0.4167 -0.6403
 6763SOL    HW131751   4.440   2.652   2.017 -2.5279 -0.7281 -1.3432
 6763SOL    HW231752   4.572   2.579   2.025 -0.0620  1.0050 -1.4382
 6764SOL     OW31753   0.736   2.853  10.637 -0.8595 -0.0834  0.3885
 6764SOL    HW131754   0.743   2.907  10.715 -0.9126  1.2152 -0.4977
 6764SOL    HW231755   0.792   2.778  10.654  0.4194 -0.0028 -3.3295
 6765SOL     OW31756   1.207   1.017   2.955 -0.7141 -0.0989 -0.7051
 6765SOL    HW131757   1.246   0.935   2.984  2.9504  2.3586  1.2320
 6765SOL    HW231758   1.123   0.989   2.992  0.0132 -2.4430 -0.8713
 6766SOL     OW31759   0.433   2.976   3.608  0.7494  0.1812 -0.3784
 6766SOL    HW131760   0.400   2.949   3.522  0.6816 -0.9078 -0.0136
 6766SOL    HW231761   0.440   3.071   3.596  0.2583  0.1915 -0.5564
 6767SOL     OW31762   3.400   2.411   7.831 -0.1307 -0.4267 -0.1085
 6767SOL    HW131763   3.424   2.325   7.797  1.0895  0.0747 -0.4961
 6767SOL    HW231764   3.306   2.396   7.846 -0.4701  0.2861 -1.5142
 6768SOL     OW31765   0.782   2.144  14.729  0.0181 -0.5430  0.5924
 6768SOL    HW131766   0.855   2.204  14.716  0.4990 -1.0501  0.9887
 6768SOL    HW231767   0.706   2.202  14.735  0.7523  0.3958  0.6452
 6769SOL     OW31768   4.089   0.345   3.253 -0.1746  0.4331 -0.0624
 6769SOL    HW131769   3.996   0.363   3.242 -0.0155  1.6935  0.5594
 6769SOL    HW231770   4.097   0.257   3.291 -0.1037  0.2386 -0.5362
 6770SOL     OW31771   0.377   0.681   4.672 -0.1311  0.3881 -0.3117
 6770SOL    HW131772   0.307   0.734   4.711 -0.2408 -1.0651  1.4770
 6770SOL    HW231773   0.367   0.702   4.579  0.6353 -1.3174 -0.7774
 6771SOL     OW31774   1.047   0.565  11.277  0.5752 -0.4516  0.2933
 6771SOL    HW131775   0.955   0.589  11.273  0.6477 -0.5865 -1.9939
 6771SOL    HW231776   1.082   0.637  11.331 -0.1379  0.6829 -0.7591
 6772SOL     OW31777   0.340   0.808  11.927  0.5148  0.2769  0.5751
 6772SOL    HW131778   0.409   0.779  11.867  0.2603  0.6835  0.0780
 6772SOL    HW231779   0.386   0.885  11.959  1.0758  0.2791 -0.2353
 6773SOL     OW31780   1.904   3.444   7.503  0.4493 -0.1062  0.0523
 6773SOL    HW131781   1.940   3.520   7.550 -0.4541  0.8882 -0.8802
 6773SOL    HW231782   1.887   3.480   7.417  1.5780  1.9329  0.6800
 6774SOL     OW31783   0.700   0.298   3.643 -0.5315  0.2762  0.3479
 6774SOL    HW131784   0.776   0.356   3.654 -2.0344  2.5701 -1.2256
 6774SOL    HW231785   0.650   0.345   3.576 -4.0032  0.8165  3.3863
 6775SOL     OW31786   0.470   0.529  15.506  0.1748 -0.1329 -0.3423
 6775SOL    HW131787   0.433   0.467  15.443  0.0043 -0.2144 -0.1644
 6775SOL    HW231788   0.424   0.493  15.582  0.8513  0.2247  0.2339
 6776SOL     OW31789   3.882   1.657   4.523 -0.3782  0.4203  0.1253
 6776SOL    HW131790   3.928   1.574   4.539 -2.2163 -0.3211  1.5635
 6776SOL    HW231791   3.829   1.672   4.601 -2.1369  1.4277 -1.2355
 6777SOL     OW31792   1.065   4.490   6.405 -0.0980 -0.6787 -0.0209
 6777SOL    HW131793   1.124   4.468   6.333 -0.3967 -1.4108 -0.0496
 6777SOL    HW231794   1.052   4.585   6.396 -0.7639 -0.5928  1.9649
 6778SOL     OW31795   0.275   4.547  15.390  0.2110  0.1503 -0.3918
 6778SOL    HW131796   0.220   4.539  15.312 -0.3176 -2.2450  0.2213
 6778SOL    HW231797   0.210   4.573  15.455  0.2605  1.8954 -1.0597
 6779SOL     OW31798   2.748   4.608   7.011  0.5139 -0.9784  0.6857
 6779SOL    HW131799   2.793   4.676   7.063 -1.3775  0.5987  0.2719
 6779SOL    HW231800   2.746   4.531   7.068 -0.3915 -1.1485  0.4238
 6780SOL     OW31801   2.688   2.765   2.648  0.1129  0.4095  0.4077
 6780SOL    HW131802   2.775   2.726   2.650 -0.3792 -0.8193 -1.9448
 6780SOL    HW231803   2.712   2.857   2.658  0.0817  0.6354 -1.5646
 6781SOL     OW31804   3.357   0.583   0.276 -0.2154 -0.7212  0.1930
 6781SOL    HW131805   3.319   0.612   0.359 -0.4587  0.2937 -0.2734
 6781SOL    HW231806   3.360   0.488   0.284 -0.2801 -0.7481 -0.0981
 6782SOL     OW31807   2.318   1.570   3.765 -0.2665 -0.2993 -0.0106
 6782SOL    HW131808   2.406   1.599   3.789 -0.4087 -1.5483  2.0816
 6782SOL    HW231809   2.280   1.652   3.734  0.9178 -0.0091 -0.6788
 6783SOL     OW31810   2.421   4.152   9.260  0.2773 -0.1890  0.5357
 6783SOL    HW131811   2.500   4.135   9.208 -0.2096 -1.8044  0.3524
 6783SOL    HW231812   2.436   4.246   9.251 -1.6855 -0.0125 -0.8729
 6784SOL     OW31813   0.603   0.720   6.373  0.7635  0.2948 -0.0334
 6784SOL    HW131814   0.641   0.678   6.451 -0.0206  1.2664  0.8705
 6784SOL    HW231815   0.661   0.793   6.351  1.0165  0.2981  0.6412
 6785SOL     OW31816   0.838   2.519  10.633 -0.2230  0.1740  0.7697
 6785SOL    HW131817   0.760   2.472  10.602 -1.1785  1.2213  1.5777
 6785SOL    HW231818   0.896   2.495  10.562 -1.0531 -1.7288  0.7408
 6786SOL     OW31819   0.224   1.335  11.763 -0.1189  0.1120  0.0234
 6786SOL    HW131820   0.197   1.251  11.725  0.1585 -0.4028  0.9662
 6786SOL    HW231821   0.290   1.304  11.826 -0.5794 -0.2018  0.3515
 6787SOL     OW31822   3.043   2.002   2.762  0.0298  0.3188 -0.3460
 6787SOL    HW131823   3.051   2.066   2.692  2.0271  0.3822 -0.0576
 6787SOL    HW231824   3.011   1.926   2.714 -0.0738  0.5487 -0.6434
 6788SOL     OW31825   0.561   4.192   7.254 -0.0208 -0.1483 -0.1392
 6788SOL    HW131826   0.473   4.171   7.223  0.4799 -0.4167 -1.3841
 6788SOL    HW231827   0.550   4.287   7.253 -1.2184 -0.2771  0.6539
 6789SOL     OW31828   3.534   4.701  16.176  0.4737 -0.2336  0.2476
 6789SOL    HW131829   3.581   4.625  16.140 -0.7275 -1.4305  1.2128
 6789SOL    HW231830   3.508   0.021  16.095  0.1626  0.8293  0.9308
 6790SOL     OW31831   4.428   4.393  10.961 -0.3960  0.9123  0.1089
 6790SOL    HW131832   4.442   4.435  10.876 -0.3763 -1.4949 -1.0679
 6790SOL    HW231833   4.516   4.362  10.981 -0.6968  0.4672  0.7466
 6791SOL     OW31834   1.663   4.520   5.959 -0.3716 -0.2243 -0.2150
 6791SOL    HW131835   1.624   4.600   5.923 -0.2618 -0.4450 -0.8311
 6791SOL    HW231836   1.754   4.550   5.950 -0.1764 -0.8918 -0.4277
 6792SOL     OW31837   1.137   1.541  10.555 -0.3074  0.2692 -0.2445
 6792SOL    HW131838   1.172   1.563  10.469 -1.6630 -1.5673 -1.2565
 6792SOL    HW231839   1.202   1.476  10.583 -0.5510  0.3561  0.5346
 6793SOL     OW31840   2.241   1.343   2.395  0.1484 -0.0199 -0.1100
 6793SOL    HW131841   2.201   1.422   2.356 -0.4858  0.3593  1.3121
 6793SOL    HW231842   2.197   1.336   2.480  0.0717 -0.8293 -0.2239
 6794SOL     OW31843   1.121   1.468   6.244 -0.2512  0.2342  0.5022
 6794SOL    HW131844   1.050   1.514   6.198  0.9237  0.8743 -0.6528
 6794SOL    HW231845   1.202   1.510   6.215  1.3421 -1.6686  2.2418
 6795SOL     OW31846   2.019   4.567   6.290  0.4730 -0.1083  0.1378
 6795SOL    HW131847   2.090   4.573   6.225 -1.4309  0.1122 -1.9321
 6795SOL    HW231848   2.033   4.480   6.327  1.7123 -0.5607 -1.3786
 6796SOL     OW31849   3.701   1.048   8.664 -0.3860 -0.1698 -0.3971
 6796SOL    HW131850   3.663   1.097   8.738  0.3477  1.0407 -0.8307
 6796SOL    HW231851   3.677   1.110   8.596 -1.1105 -0.2166 -0.1887
 6797SOL     OW31852   0.789   2.620   9.383 -0.3407 -0.1091  0.0805
 6797SOL    HW131853   0.784   2.636   9.477  0.9125  0.8466 -0.0169
 6797SOL    HW231854   0.863   2.677   9.363  0.2623 -1.0311 -0.3102
 6798SOL     OW31855   0.464   3.600   8.752  0.7289 -0.3123  0.2459
 6798SOL    HW131856   0.517   3.591   8.673 -0.2105 -1.7915 -0.2013
 6798SOL    HW231857   0.497   3.530   8.808 -1.7604 -1.5528  0.1355
 6799SOL     OW31858   4.082   2.413   0.745  0.4606  0.1314  0.2355
 6799SOL    HW131859   4.126   2.364   0.676 -1.3091  2.6806 -2.7478
 6799SOL    HW231860   4.089   2.345   0.812 -0.5417  0.3055  0.5234
 6800SOL     OW31861   1.441   2.037   6.486 -0.0167  0.7524  0.3506
 6800SOL    HW131862   1.522   2.080   6.460  0.4591  0.8339  1.9567
 6800SOL    HW231863   1.441   2.050   6.581  1.2928 -0.0297  0.4690
 6801SOL     OW31864   1.973   2.098  11.376  0.6027  0.6224  0.9899
 6801SOL    HW131865   1.907   2.040  11.338  0.0868  0.7584  1.6793
 6801SOL    HW231866   2.055   2.070  11.335 -0.4655  0.3101 -0.9196
 6802SOL     OW31867   2.040   0.135   6.756  0.2090 -0.2942 -0.2993
 6802SOL    HW131868   2.044   0.215   6.704 -1.9582  1.7815  2.7039
 6802SOL    HW231869   2.113   0.086   6.718 -0.8664 -2.0430 -0.1260
 6803SOL     OW31870   2.998   2.249   5.372 -0.0317 -0.4131 -0.2670
 6803SOL    HW131871   3.032   2.194   5.301 -1.6309 -0.0719 -1.2963
 6803SOL    HW231872   3.068   2.310   5.397  0.2493 -0.6990 -0.3498
 6804SOL     OW31873   4.535   0.266   3.569  0.1980 -0.4592  0.3276
 6804SOL    HW131874   4.468   0.200   3.551  0.4198 -0.5626 -0.1155
 6804SOL    HW231875   4.608   0.228   3.521 -0.1171 -1.3878  0.5890
 6805SOL     OW31876   3.040   1.508   8.517 -0.4501  0.1630 -0.3544
 6805SOL    HW131877   2.972   1.536   8.578  0.1860 -2.8389  1.7407
 6805SOL    HW231878   3.111   1.551   8.564 -1.8083  0.0350  1.7917
 6806SOL     OW31879   1.224   4.001   6.685 -0.6090 -0.5200  0.2782
 6806SOL    HW131880   1.174   4.079   6.707  0.7487  0.6599 -0.8827
 6806SOL    HW231881   1.151   3.961   6.638  0.9971 -0.2693 -2.3835
 6807SOL     OW31882   1.492   1.497   3.900 -0.0672  1.2573 -0.0580
 6807SOL    HW131883   1.428   1.430   3.927  0.7233  0.9593  1.0401
 6807SOL    HW231884   1.513   1.535   3.985  0.4513 -0.2619  0.4974
 6808SOL     OW31885   3.187   2.392  15.339  0.0257 -0.4719  0.5053
 6808SOL    HW131886   3.117   2.417  15.278 -0.2696 -1.4933  0.4308
 6808SOL    HW231887   3.261   2.380  15.279 -0.6184  1.9352 -0.7923
 6809SOL     OW31888   4.167   4.273   4.643 -0.5477  0.3310 -0.4391
 6809SOL    HW131889   4.139   4.187   4.613  0.0854  0.5252 -1.5902
 6809SOL    HW231890   4.113   4.325   4.582  1.5080 -0.4684 -2.9573
 6810SOL     OW31891   3.243   3.922  16.755 -0.1294 -0.5457 -0.1633
 6810SOL    HW131892   3.329   3.913  16.716 -1.7658 -1.3515 -3.6202
 6810SOL    HW231893   3.220   3.829  16.760 -0.5134 -0.3864  0.9987
 6811SOL     OW31894   4.669   3.225   3.726  0.4193  0.3861  0.3745
 6811SOL    HW131895   4.588   3.274   3.715 -0.0828 -0.1904  1.4629
 6811SOL    HW231896   4.654   3.174   3.805 -2.5521  1.0755  0.2887
 6812SOL     OW31897   3.049   0.569   9.191  0.0029  0.4319 -0.0802
 6812SOL    HW131898   3.072   0.478   9.176  0.7517  0.7690 -0.9288
 6812SOL    HW231899   2.955   0.565   9.207  0.2607 -2.0105  0.8261
 6813SOL     OW31900   0.719   2.350   4.226  0.0741  0.4632 -0.2843
 6813SOL    HW131901   0.811   2.327   4.212 -0.2100  0.2347 -1.8043
 6813SOL    HW231902   0.674   2.282   4.176  0.1187 -0.1918  0.5676
 6814SOL     OW31903   0.153   2.830   2.918 -0.0996 -0.0628  0.3133
 6814SOL    HW131904   0.063   2.806   2.938 -0.0090 -0.4007  0.3268
 6814SOL    HW231905   0.155   2.917   2.957  2.1829  0.2714 -0.5471
 6815SOL     OW31906   1.072   2.883   2.190 -0.1484 -0.0541  0.2147
 6815SOL    HW131907   1.044   2.866   2.100 -1.1507 -0.5730  0.6352
 6815SOL    HW231908   1.168   2.884   2.185 -0.1216 -0.6970  0.6478
 6816SOL     OW31909   4.625   0.973   6.266  0.1018 -0.6350  0.2259
 6816SOL    HW131910   4.654   1.000   6.179 -0.5468  0.6792  0.4238
 6816SOL    HW231911   4.702   0.927   6.298  1.4014  0.8767 -0.7670
 6817SOL     OW31912   0.681   4.051   3.976  0.2751 -0.7676  0.0566
 6817SOL    HW131913   0.764   4.076   3.936  0.0294 -0.2389 -0.1248
 6817SOL    HW231914   0.689   4.091   4.062 -1.4727  0.5640 -0.3872
 6818SOL     OW31915   0.374   3.879   9.196  0.2496  0.2309  0.0087
 6818SOL    HW131916   0.326   3.811   9.242 -2.8880  1.5945 -1.2904
 6818SOL    HW231917   0.334   3.956   9.235  0.1740  0.6562 -0.9149
 6819SOL     OW31918   4.670   2.924   3.465  0.4246 -0.6962 -0.3757
 6819SOL    HW131919   4.619   2.917   3.384 -1.4098 -0.6767  0.7679
 6819SOL    HW231920   0.020   2.867   3.446  1.4056  0.8361 -1.1607
 6820SOL     OW31921   3.263   3.949   3.557 -0.0952  0.2413 -0.1978
 6820SOL    HW131922   3.246   3.872   3.611 -1.3397 -0.4565 -1.5652
 6820SOL    HW231923   3.358   3.959   3.569 -0.4439  0.8397  1.9916
 6821SOL     OW31924   0.634   3.949   1.536 -0.2301 -0.3698 -0.0717
 6821SOL    HW131925   0.627   3.988   1.449  1.5457  2.1151  0.9067
 6821SOL    HW231926   0.600   4.014   1.598  1.3573  2.3978 -2.1325
 6822SOL     OW31927   3.900   1.134   3.401  0.0445  0.5217 -0.4386
 6822SOL    HW131928   3.932   1.219   3.372 -0.7102  0.0643 -2.6332
 6822SOL    HW231929   3.896   1.092   3.315 -0.2865 -1.4549  0.5357
 6823SOL     OW31930   0.257   3.363  15.488 -0.1556 -0.2727 -0.1634
 6823SOL    HW131931   0.188   3.421  15.456 -1.3034 -1.9136 -0.6961
 6823SOL    HW231932   0.243   3.277  15.448 -1.4583 -1.4318  2.8136
 6824SOL     OW31933   0.061   3.859   7.175 -0.2188 -0.1921  0.4084
 6824SOL    HW131934   0.013   3.777   7.178 -0.8969  0.1527 -1.0274
 6824SOL    HW231935   4.715   3.915   7.142  0.1621  1.2676  2.0794
 6825SOL     OW31936   0.579   3.294   4.137  0.0780 -0.9100 -0.0567
 6825SOL    HW131937   0.527   3.373   4.151 -0.8426 -1.4675 -0.2765
 6825SOL    HW231938   0.514   3.246   4.086  0.7860 -1.2592 -0.6341
 6826SOL     OW31939   0.571   1.857   0.589 -0.7145 -0.5156  0.1125
 6826SOL    HW131940   0.592   1.920   0.521  0.1216 -0.9397 -0.0251
 6826SOL    HW231941   0.575   1.922   0.659  0.9743 -0.7104  0.2024
 6827SOL     OW31942   0.870   3.310   7.135  0.3301  0.6199  0.1631
 6827SOL    HW131943   0.819   3.243   7.180  1.3642 -1.2344 -1.4149
 6827SOL    HW231944   0.837   3.291   7.047 -2.4670 -2.2736  1.8160
 6828SOL     OW31945   0.181   1.523   2.342  0.4216  0.0290 -0.0268
 6828SOL    HW131946   0.267   1.489   2.365  1.2761  0.0761 -3.1516
 6828SOL    HW231947   0.158   1.471   2.265 -0.8801  0.4453  0.0756
 6829SOL     OW31948   1.692   1.157  12.427 -0.7533  0.4180 -0.2402
 6829SOL    HW131949   1.769   1.106  12.402 -1.0169  0.7718 -1.7301
 6829SOL    HW231950   1.721   1.246  12.409  2.1127 -0.3043  0.7157
 6830SOL     OW31951   0.752   3.196  10.533 -0.3807 -0.1703  0.1127
 6830SOL    HW131952   0.801   3.278  10.526  1.0737 -1.1669 -1.5943
 6830SOL    HW231953   0.760   3.186  10.627 -1.4044  0.8877  0.2984
 6831SOL     OW31954   1.127   2.419   9.827  0.1232  1.0397 -0.4008
 6831SOL    HW131955   1.103   2.472   9.902  1.6409 -0.5238  1.1825
 6831SOL    HW231956   1.041   2.388   9.800 -0.3458  0.0565  2.2723
 6832SOL     OW31957   2.308   2.076  17.395  0.5589  0.8321  0.1065
 6832SOL    HW131958   2.369   2.004  17.415  0.5088  0.3819 -1.3232
 6832SOL    HW231959   2.239   2.044  17.454  1.3583 -0.1949  0.4855
 6833SOL     OW31960   1.764   3.592   2.770  0.1648  0.2199  0.3086
 6833SOL    HW131961   1.689   3.618   2.718  0.8386 -1.5544 -1.5564
 6833SOL    HW231962   1.726   3.522   2.824  0.8321 -0.4309 -0.0581
 6834SOL     OW31963   2.445   3.606   8.622 -0.0247 -0.9480 -0.0863
 6834SOL    HW131964   2.415   3.519   8.593 -2.1215  0.2075 -1.3879
 6834SOL    HW231965   2.413   3.668   8.557 -0.5194 -1.4767 -0.3490
 6835SOL     OW31966   3.631   2.981   3.939  0.5836  0.6074 -0.5490
 6835SOL    HW131967   3.543   3.012   3.960 -0.3633 -3.6164  1.6861
 6835SOL    HW231968   3.634   3.021   3.853  0.1211  3.2108  0.6425
 6836SOL     OW31969   1.366   2.858   8.807 -0.3341 -0.4529  0.2451
 6836SOL    HW131970   1.344   2.766   8.794  1.6353 -0.9045  0.0776
 6836SOL    HW231971   1.279   2.893   8.791 -0.0094  0.7908  1.2046
 6837SOL     OW31972   0.293   4.614  16.863 -0.1493 -0.4093 -0.3098
 6837SOL    HW131973   0.273   4.706  16.885 -1.9126 -0.9039  0.1771
 6837SOL    HW231974   0.373   4.623  16.812 -0.7362 -2.0178 -1.5028
 6838SOL     OW31975   2.768   2.029   8.004  0.1149  0.4809  0.0182
 6838SOL    HW131976   2.750   2.018   8.098  0.0820  3.1408  0.3253
 6838SOL    HW231977   2.840   2.092   7.997  1.2544 -0.6744  1.3161
 6839SOL     OW31978   3.746   4.173   4.454 -0.8754 -0.4548 -0.1290
 6839SOL    HW131979   3.650   4.176   4.454 -0.8843 -0.6746  0.8227
 6839SOL    HW231980   3.751   4.121   4.534  1.0308  1.3763  0.9399
 6840SOL     OW31981   3.883   0.865   3.544 -0.0476 -0.4001 -0.0308
 6840SOL    HW131982   3.885   0.955   3.510 -0.7230 -0.4629 -0.2232
 6840SOL    HW231983   3.920   0.879   3.632  1.1609  1.5755 -0.8394
 6841SOL     OW31984   2.604   0.702   4.221  0.0135  0.2218 -0.0944
 6841SOL    HW131985   2.687   0.660   4.197 -0.7217 -2.2130  1.6158
 6841SOL    HW231986   2.556   0.683   4.141 -0.0552  0.5050 -0.1191
 6842SOL     OW31987   4.660   3.265  10.017 -1.0003  0.8081 -0.3084
 6842SOL    HW131988   0.021   3.282   9.978 -0.9139 -2.7340 -1.7258
 6842SOL    HW231989   4.638   3.191   9.960  0.5703  0.1511 -0.0626
 6843SOL     OW31990   0.907   4.717   1.891 -0.0539  0.3384 -0.0458
 6843SOL    HW131991   0.911   0.080   1.930  0.3281 -0.9501  2.8335
 6843SOL    HW231992   0.873   4.663   1.963 -2.7794  1.8814 -0.2042
 6844SOL     OW31993   0.604   1.911   8.818 -0.2355 -0.4166 -0.0972
 6844SOL    HW131994   0.688   1.955   8.809 -0.7118  0.5336  0.1547
 6844SOL    HW231995   0.552   1.979   8.861  0.2892 -0.7620  1.0623
 6845SOL     OW31996   2.378   0.690   8.160  0.4004 -0.3325  0.3171
 6845SOL    HW131997   2.355   0.620   8.222 -2.1420  1.8519  1.8118
 6845SOL    HW231998   2.300   0.720   8.113  0.9015 -0.8013 -0.8008
 6846SOL     OW31999   0.735   1.240  16.415 -0.1674 -0.3159 -1.0107
 6846SOL    HW132000   0.640   1.254  16.412  0.0333  1.0865 -0.5006
 6846SOL    HW232001   0.738   1.144  16.414  1.8502 -0.2544 -0.1060
 6847SOL     OW32002   4.367   4.447   9.552 -0.1755 -0.2857  0.2285
 6847SOL    HW132003   4.435   4.490   9.499  1.5706 -1.9492  1.1461
 6847SOL    HW232004   4.404   4.359   9.545  0.9165  0.2840 -1.3599
 6848SOL     OW32005   4.540   4.503   8.151 -0.2007 -0.0231  0.1280
 6848SOL    HW132006   4.496   4.485   8.068  0.9772 -1.2343 -0.2339
 6848SOL    HW232007   4.634   4.493   8.136 -0.5637 -1.6017 -1.1291
 6849SOL     OW32008   2.619   2.237   6.459 -0.4526  0.1013  0.0919
 6849SOL    HW132009   2.611   2.162   6.400 -1.4607 -0.6868  1.2314
 6849SOL    HW232010   2.649   2.315   6.412 -1.1960  1.2122  1.4538
 6850SOL     OW32011   4.092   3.681   8.054  1.0859 -0.0441  0.0765
 6850SOL    HW132012   4.064   3.763   8.013  1.0015 -1.0693 -1.8772
 6850SOL    HW232013   4.129   3.720   8.133 -0.5546  0.1116  0.7810
 6851SOL     OW32014   1.481   0.474   5.546 -0.2763 -0.0363  0.3731
 6851SOL    HW132015   1.421   0.443   5.614 -1.7808 -0.6447 -1.2176
 6851SOL    HW232016   1.472   0.567   5.565 -0.5879 -0.2005  1.0154
 6852SOL     OW32017   2.148   2.161   4.967  0.3316 -0.4021 -0.5465
 6852SOL    HW132018   2.096   2.081   4.980 -0.8409  0.4894  0.2546
 6852SOL    HW232019   2.158   2.159   4.872  2.7249 -2.7036 -0.2586
 6853SOL     OW32020   4.706   0.174   9.158  0.7798  0.1325  0.5831
 6853SOL    HW132021   4.665   0.259   9.177  2.1288  0.9855 -0.3671
 6853SOL    HW232022   0.012   0.149   9.246  0.2297 -2.0156  0.1548
 6854SOL     OW32023   2.526   3.685  15.471 -0.0277  0.5579  0.1075
 6854SOL    HW132024   2.552   3.599  15.503 -1.6006 -0.2015 -0.6244
 6854SOL    HW232025   2.563   3.679  15.383 -1.3447 -0.4623 -0.3894
 6855SOL     OW32026   2.831   3.919   8.809  0.3629 -0.3330  0.4204
 6855SOL    HW132027   2.756   3.876   8.768  1.0626  0.3465 -1.5700
 6855SOL    HW232028   2.904   3.900   8.750  2.2148  0.5065  2.4418
 6856SOL     OW32029   1.314   1.025   6.551 -0.4968 -0.3761 -0.2307
 6856SOL    HW132030   1.405   1.021   6.580 -0.9093 -1.2123  0.9597
 6856SOL    HW232031   1.330   1.051   6.461  0.3055 -0.8218 -0.2188
 6857SOL     OW32032   3.694   0.847   6.930 -0.2691  0.0688 -0.3462
 6857SOL    HW132033   3.781   0.868   6.896 -1.1726  0.4230 -2.4027
 6857SOL    HW232034   3.674   0.756   6.906 -0.9113 -0.0587  0.6303
 6858SOL     OW32035   2.054   2.494  14.892 -0.7124  0.3204  0.4770
 6858SOL    HW132036   2.141   2.454  14.896 -0.1391  1.5208 -0.1280
 6858SOL    HW232037   1.998   2.416  14.893 -1.3167  0.6792 -3.1817
 6859SOL     OW32038   1.155   0.903   3.921  0.2885 -0.1315  0.2938
 6859SOL    HW132039   1.133   0.989   3.955  0.6898 -0.8972  2.4913
 6859SOL    HW232040   1.169   0.849   3.998 -1.2534 -0.2555  0.4829
 6860SOL     OW32041   3.172   1.951  12.641  0.5167 -0.4652  0.1753
 6860SOL    HW132042   3.265   1.929  12.643  0.6866  0.2237 -0.0831
 6860SOL    HW232043   3.138   1.878  12.692 -0.3620 -1.9186 -2.5298
 6861SOL     OW32044   1.016   0.981   7.704 -0.1463 -0.3925  0.4797
 6861SOL    HW132045   0.967   1.063   7.703 -0.8842 -0.8433 -0.8816
 6861SOL    HW232046   0.981   0.942   7.785  0.9056 -0.6637  0.8014
 6862SOL     OW32047   2.582   4.503  12.190  0.2253  0.9268  0.0207
 6862SOL    HW132048   2.637   4.519  12.113 -0.9533 -1.2344 -1.2439
 6862SOL    HW232049   2.491   4.526  12.172 -0.1795 -2.4975 -2.2691
 6863SOL     OW32050   1.051   2.359   6.184  0.2291  0.5262  0.2367
 6863SOL    HW132051   0.974   2.359   6.241  0.9445  0.4757  1.1963
 6863SOL    HW232052   1.127   2.318   6.226  0.4171  2.9210  2.2361
 6864SOL     OW32053   1.908   3.110   5.955  0.0813  0.2674  0.5536
 6864SOL    HW132054   1.828   3.137   5.910 -0.4365  1.7063  2.3607
 6864SOL    HW232055   1.906   3.145   6.044  0.8440 -1.1955  1.1423
 6865SOL     OW32056   1.940   2.322   8.304  0.3819 -0.0059 -0.8989
 6865SOL    HW132057   2.005   2.332   8.374 -1.2569 -2.0585  0.9355
 6865SOL    HW232058   1.857   2.338   8.351  1.3919  1.0565  0.5258
 6866SOL     OW32059   3.233   0.398  13.839 -0.1265  0.2271  0.3829
 6866SOL    HW132060   3.316   0.365  13.872 -0.8863 -1.9783  0.0785
 6866SOL    HW232061   3.215   0.340  13.765 -2.3546 -0.0922  1.1914
 6867SOL     OW32062   1.136   3.317   6.275  0.2190 -0.0809  0.5549
 6867SOL    HW132063   1.158   3.282   6.361  1.4856 -1.3798 -0.3013
 6867SOL    HW232064   1.042   3.331   6.265  0.4405  1.7729  1.0133
 6868SOL     OW32065   2.960   1.036  13.562 -0.0028  0.0374 -0.4757
 6868SOL    HW132066   2.917   1.049  13.646 -0.1005 -0.4436 -0.4510
 6868SOL    HW232067   2.892   1.072  13.505  0.0481  1.6310  0.4829
 6869SOL     OW32068   4.530   4.432   6.024 -0.1428 -0.2547 -0.0942
 6869SOL    HW132069   4.574   4.386   6.096  0.9270  0.0591 -0.5396
 6869SOL    HW232070   4.592   4.429   5.952 -2.5682 -0.8360 -2.1500
 6870SOL     OW32071   0.254   4.288   2.009 -0.0135 -0.0891  0.0224
 6870SOL    HW132072   0.191   4.237   1.956  0.2067  0.8578 -1.1580
 6870SOL    HW232073   0.200   4.337   2.070 -3.8364 -2.2124 -1.6138
 6871SOL     OW32074   0.074   2.593   2.537  0.7286 -0.4026  0.8492
 6871SOL    HW132075   0.058   2.543   2.617 -1.0123 -1.3375 -0.0882
 6871SOL    HW232076   0.168   2.576   2.538  0.8755  0.3064 -2.2710
 6872SOL     OW32077   3.049   0.294  15.171 -0.1279 -0.1904  0.1911
 6872SOL    HW132078   3.134   0.326  15.141 -0.7720 -0.6507 -2.1170
 6872SOL    HW232079   2.999   0.375  15.162  0.6021  0.4386  1.7733
 6873SOL     OW32080   3.239   0.880   8.589 -0.3286  0.6829  0.0086
 6873SOL    HW132081   3.252   0.786   8.591 -2.0330  0.4180 -1.4651
 6873SOL    HW232082   3.171   0.883   8.522  1.8725 -0.2004 -2.2542
 6874SOL     OW32083   2.172   3.995   8.989  0.2068  0.5568  0.2331
 6874SOL    HW132084   2.216   3.925   9.036 -1.1950 -0.1436  0.4824
 6874SOL    HW232085   2.102   3.954   8.938  0.4086  0.5956 -0.0765
 6875SOL     OW32086   3.871   3.112   0.959  0.0185 -0.2139  0.0193
 6875SOL    HW132087   3.882   3.083   1.049 -0.6668 -0.0644  0.1507
 6875SOL    HW232088   3.782   3.079   0.946 -1.0668  2.1643  1.4681
 6876SOL     OW32089   2.605   2.702  13.846  0.6567 -0.3263 -0.2954
 6876SOL    HW132090   2.534   2.726  13.905  0.9622  3.2015 -1.3978
 6876SOL    HW232091   2.550   2.710  13.768  1.6395  0.8818 -0.8555
 6877SOL     OW32092   0.865   3.102   4.564  0.2206 -0.4585  0.4644
 6877SOL    HW132093   0.908   3.187   4.554  1.0420 -1.0090 -0.5692
 6877SOL    HW232094   0.814   3.099   4.483  1.3119  0.4783 -0.2516
 6878SOL     OW32095   0.192   2.740  11.351  0.0163  0.0173 -0.0823
 6878SOL    HW132096   0.119   2.697  11.396  0.6268 -0.3085  0.5966
 6878SOL    HW232097   0.193   2.707  11.261  3.8394 -0.2671  0.0672
 6879SOL     OW32098   2.860   3.097  15.257  0.2839  0.5133 -0.1588
 6879SOL    HW132099   2.852   3.080  15.163  0.0417  0.5100 -0.1357
 6879SOL    HW232100   2.877   3.010  15.294 -0.9520  0.7204  0.8498
 6880SOL     OW32101   3.486   1.243   2.746 -0.0226  0.1415 -0.1243
 6880SOL    HW132102   3.464   1.299   2.672 -0.5943  0.8616  0.5956
 6880SOL    HW232103   3.444   1.298   2.812 -3.2546 -0.2871 -1.8012
 6881SOL     OW32104   1.380   2.529  17.238 -0.9943  0.3959 -0.3947
 6881SOL    HW132105   1.436   2.546  17.314  0.1510  0.6054 -1.2833
 6881SOL    HW232106   1.397   2.439  17.212 -0.1379  0.0830  1.1953
 6882SOL     OW32107   0.135   3.799   7.799 -0.1030 -0.0027  0.1196
 6882SOL    HW132108   0.193   3.824   7.727  0.6414 -0.2199  0.6486
 6882SOL    HW232109   0.050   3.810   7.756 -0.1303  4.0116  1.2520
 6883SOL     OW32110   2.980   1.444   3.247 -0.2313 -0.3255  0.0616
 6883SOL    HW132111   3.052   1.474   3.192 -0.2952  2.0543  1.2580
 6883SOL    HW232112   2.940   1.529   3.266 -2.3853 -1.5161  0.9344
 6884SOL     OW32113   2.873   0.469   9.932 -0.5748  0.6486  0.0405
 6884SOL    HW132114   2.918   0.405   9.988 -2.1685  0.2687  0.8914
 6884SOL    HW232115   2.785   0.430   9.931  0.1906 -1.0568 -0.0862
 6885SOL     OW32116   3.154   1.718   7.502 -0.2688  0.1561  0.0218
 6885SOL    HW132117   3.100   1.737   7.579  0.3853  2.0242  0.0208
 6885SOL    HW232118   3.243   1.703   7.535 -0.6875  0.2469  1.1746
 6886SOL     OW32119   4.682   3.007   8.455  0.5930  0.2345  0.3806
 6886SOL    HW132120   4.615   2.939   8.446  0.0556  1.2024 -2.7517
 6886SOL    HW232121   4.630   3.070   8.504  1.2761  0.3844  0.9133
 6887SOL     OW32122   2.976   3.201   1.359 -0.4523  0.6846 -0.3041
 6887SOL    HW132123   2.896   3.225   1.311 -0.5667  0.7763 -0.0643
 6887SOL    HW232124   3.030   3.275   1.332  1.3210 -1.0658 -1.5210
 6888SOL     OW32125   3.399   2.890   3.657 -0.0127  0.0505 -0.8109
 6888SOL    HW132126   3.414   2.841   3.738  0.5761  1.6057  0.0090
 6888SOL    HW232127   3.479   2.943   3.657  0.6790 -0.9788 -2.0888
 6889SOL     OW32128   4.008   3.758   4.715 -0.2519  0.4541 -0.4499
 6889SOL    HW132129   4.060   3.684   4.683 -1.3612 -0.5138 -0.0049
 6889SOL    HW232130   3.991   3.723   4.803  1.4536  0.7537 -0.0020
 6890SOL     OW32131   2.162   0.411   6.762 -0.4282  0.2368 -0.1997
 6890SOL    HW132132   2.166   0.336   6.821 -0.5129 -1.3550 -2.1754
 6890SOL    HW232133   2.202   0.480   6.815 -1.6742  0.5363  0.3460
 6891SOL     OW32134   3.863   2.930   2.811  0.0631 -0.1714 -0.6432
 6891SOL    HW132135   3.933   2.941   2.746 -0.4718 -2.7462 -1.6233
 6891SOL    HW232136   3.910   2.922   2.895 -2.2372  1.2306  0.7819
 6892SOL     OW32137   1.554   0.048  17.634 -0.0860 -0.4054 -0.2874
 6892SOL    HW132138   1.476   0.074  17.584 -1.2475 -1.2251  1.1229
 6892SOL    HW232139   1.531   4.680  17.642 -0.8557 -0.5600 -3.9099
 6893SOL     OW32140   4.324   2.513   6.460  0.4160 -0.4795  0.1608
 6893SOL    HW132141   4.289   2.431   6.494  1.9368 -1.1265  0.1649
 6893SOL    HW232142   4.295   2.579   6.524 -0.5678  2.5320 -3.4007
 6894SOL     OW32143   2.276   0.656   1.644 -0.1881 -0.4517 -0.3473
 6894SOL    HW132144   2.371   0.655   1.657 -0.1163 -2.2424 -1.0296
 6894SOL    HW232145   2.241   0.638   1.731 -0.4423  0.4704 -0.2568
 6895SOL     OW32146   3.267   3.943   0.465  0.2010 -0.2580  0.3895
 6895SOL    HW132147   3.199   4.002   0.499 -0.6102 -1.4376  0.8223
 6895SOL    HW232148   3.250   3.872   0.526 -1.7985 -0.3654 -0.2984
 6896SOL     OW32149   1.667   4.415   5.159 -0.8429 -0.2370  0.1886
 6896SOL    HW132150   1.670   4.333   5.208  1.6412 -1.2259 -1.6735
 6896SOL    HW232151   1.729   4.401   5.088 -0.9322  3.1206 -0.5580
 6897SOL     OW32152   2.482   0.887   6.236 -0.0103 -0.6349  0.7983
 6897SOL    HW132153   2.543   0.822   6.271  0.2901 -1.1579 -0.7008
 6897SOL    HW232154   2.471   0.933   6.319  0.7785  1.8384 -0.5006
 6898SOL     OW32155   1.792   2.393   1.879  0.3014 -0.1661  0.0915
 6898SOL    HW132156   1.844   2.372   1.802  0.0082 -1.9457  0.3845
 6898SOL    HW232157   1.836   2.321   1.923  0.9650 -0.8952 -1.7711
 6899SOL     OW32158   0.404   2.493   8.724 -0.3376 -0.3118 -0.1347
 6899SOL    HW132159   0.384   2.585   8.709  0.7100 -0.3597 -1.7194
 6899SOL    HW232160   0.498   2.495   8.741 -0.1567 -2.0566 -0.9695
 6900SOL     OW32161   3.324   1.356   5.903  0.3075  0.0426  0.1820
 6900SOL    HW132162   3.377   1.277   5.910 -0.2532 -0.4214 -0.8048
 6900SOL    HW232163   3.277   1.355   5.986  0.2243 -0.0008  0.1348
 6901SOL     OW32164   3.798   4.199   5.204  0.1837 -0.2014 -0.3498
 6901SOL    HW132165   3.803   4.291   5.177  2.7464 -0.4618 -0.7727
 6901SOL    HW232166   3.884   4.164   5.183  0.1846  0.8595 -2.0688
 6902SOL     OW32167   0.585   2.140  12.110 -0.1244 -0.1746 -0.1677
 6902SOL    HW132168   0.500   2.107  12.138  0.8915 -1.6734  1.1819
 6902SOL    HW232169   0.629   2.130  12.195 -0.9233  0.1211  0.2792
 6903SOL     OW32170   1.117   1.406   4.125  0.3439  0.4769  0.4635
 6903SOL    HW132171   1.065   1.448   4.057 -0.6047 -0.3527  0.6750
 6903SOL    HW232172   1.182   1.355   4.075 -0.8031 -0.3304 -0.1910
 6904SOL     OW32173   3.831   3.021   2.279  0.2672 -0.0288 -0.6797
 6904SOL    HW132174   3.786   3.019   2.195  0.4123  2.4875 -0.8043
 6904SOL    HW232175   3.788   2.944   2.316 -0.0481  0.2137 -0.5357
 6905SOL     OW32176   0.864   4.206   4.261 -0.8652  0.0533  0.2128
 6905SOL    HW132177   0.950   4.215   4.221 -1.5914 -1.1156 -1.5835
 6905SOL    HW232178   0.851   4.300   4.269 -0.0380  0.2412 -0.6764
 6906SOL     OW32179   1.884   4.541   6.702 -0.3551 -0.4067  0.0280
 6906SOL    HW132180   1.871   4.618   6.648  0.0736 -0.2440  0.1600
 6906SOL    HW232181   1.797   4.502   6.699 -1.0064  0.9710  1.2885
 6907SOL     OW32182   0.643   2.122   2.403  0.6818  0.0602 -0.4085
 6907SOL    HW132183   0.623   2.144   2.312 -1.5563  0.4687  0.1717
 6907SOL    HW232184   0.738   2.110   2.400  0.5795 -1.0993  1.1776
 6908SOL     OW32185   0.932   4.049  13.442 -0.4000  0.2389 -0.0058
 6908SOL    HW132186   0.897   3.981  13.500  1.8563  0.0649  1.1637
 6908SOL    HW232187   0.861   4.083  13.388 -0.9157 -2.1724 -0.8216
 6909SOL     OW32188   4.264   0.914   4.623  0.3169  0.5017  0.1191
 6909SOL    HW132189   4.212   0.834   4.622 -0.1523  0.8259 -1.5599
 6909SOL    HW232190   4.201   0.983   4.601 -1.2419 -0.7795  0.6161
 6910SOL     OW32191   3.208   0.423   6.371 -0.1059  0.1005 -0.2347
 6910SOL    HW132192   3.256   0.495   6.412 -0.4714  0.5186 -0.5472
 6910SOL    HW232193   3.231   0.368   6.447 -1.8215  0.7770  0.7725
 6911SOL     OW32194   2.030   2.045   7.875 -0.1773  0.1053  0.1345
 6911SOL    HW132195   2.071   2.113   7.929 -0.6802  0.1078  0.5108
 6911SOL    HW232196   2.104   2.004   7.829  0.7209  2.4572 -0.5159
 6912SOL     OW32197   1.492   2.157   6.744 -0.2368  0.4791 -0.0128
 6912SOL    HW132198   1.482   2.202   6.828  1.6459 -0.3399  0.6558
 6912SOL    HW232199   1.563   2.206   6.703  0.4011 -1.3633 -1.1073
 6913SOL     OW32200   2.306   1.809   2.832  0.1476 -0.0070 -0.3417
 6913SOL    HW132201   2.223   1.775   2.866  0.1958 -0.5117 -0.7225
 6913SOL    HW232202   2.321   1.892   2.877 -0.3189  1.4666 -2.8510
 6914SOL     OW32203   0.891   2.242   8.764 -0.4991 -0.0087 -0.1435
 6914SOL    HW132204   0.947   2.231   8.687 -0.5877  1.4472 -0.4189
 6914SOL    HW232205   0.803   2.258   8.730 -0.4162 -0.3751 -0.5324
 6915SOL     OW32206   1.376   0.734  15.147  0.4522  0.2335 -0.4940
 6915SOL    HW132207   1.411   0.725  15.058  2.0687  0.5764  0.1183
 6915SOL    HW232208   1.434   0.677  15.197 -0.0109  1.2254  1.1746
 6916SOL     OW32209   2.535   4.099   9.708 -0.0292 -0.4497 -0.1166
 6916SOL    HW132210   2.576   4.035   9.766  0.0155  0.2895  0.6652
 6916SOL    HW232211   2.445   4.069   9.719 -0.2379 -0.0582 -0.7585
 6917SOL     OW32212   0.842   1.929   4.488  0.2461 -0.4139  0.2575
 6917SOL    HW132213   0.910   1.997   4.485 -0.3484  0.1466 -0.4904
 6917SOL    HW232214   0.776   1.963   4.428 -0.5270  0.5737  1.6623
 6918SOL     OW32215   4.613   4.360   9.060 -0.4580  0.1204 -0.2245
 6918SOL    HW132216   4.689   4.303   9.048 -0.5918 -0.0083 -0.4759
 6918SOL    HW232217   4.650   4.446   9.078 -0.4238  0.1394 -0.3830
 6919SOL     OW32218   0.292   3.346   8.317  0.2610  0.2505  0.6064
 6919SOL    HW132219   0.373   3.372   8.272  1.3020 -2.2629  1.0372
 6919SOL    HW232220   0.219   3.355   8.256 -1.6527 -1.4232  2.7075
 6920SOL     OW32221   2.874   2.521   7.435  0.1672  0.5702 -0.1566
 6920SOL    HW132222   2.904   2.493   7.349  1.6353 -1.4366  1.0205
 6920SOL    HW232223   2.958   2.508   7.480 -0.1323  2.4072  0.9593
 6921SOL     OW32224   2.439   0.467   3.986  0.4967 -0.7574  0.0805
 6921SOL    HW132225   2.375   0.446   3.918  0.1193  1.1973 -0.1650
 6921SOL    HW232226   2.379   0.521   4.037 -0.5154 -0.6638 -1.1866
 6922SOL     OW32227   2.685   3.515   2.202  0.0731  0.4499 -0.2537
 6922SOL    HW132228   2.741   3.557   2.137  1.1660  0.7108  0.8428
 6922SOL    HW232229   2.638   3.591   2.236 -0.8852 -0.5684  0.7164
 6923SOL     OW32230   0.824   1.978   0.939  0.6903 -0.3470 -0.7057
 6923SOL    HW132231   0.734   2.010   0.928  0.4393 -0.7498  0.1824
 6923SOL    HW232232   0.834   1.908   0.875  0.6953  0.8316 -1.9829
 6924SOL     OW32233   2.995   2.912   8.384  0.2288 -0.6697  0.3085
 6924SOL    HW132234   3.006   2.855   8.460 -0.5109  0.8106  1.5288
 6924SOL    HW232235   2.925   2.861   8.344  1.4626 -1.1382 -1.2564
 6925SOL     OW32236   0.239   3.545   7.934  0.8550  0.5214 -0.1179
 6925SOL    HW132237   0.213   3.547   8.026 -0.7622 -1.9522 -0.5215
 6925SOL    HW232238   0.239   3.636   7.903 -0.2770  0.7840  0.6331
 6926SOL     OW32239   1.533   3.605   8.460 -0.3247  0.3595 -0.2273
 6926SOL    HW132240   1.507   3.668   8.527  1.6174  0.4392  0.4713
 6926SOL    HW232241   1.463   3.541   8.456 -1.2204  1.1295  3.6819
 6927SOL     OW32242   2.599   2.004  11.901 -0.0159  0.2062  0.6637
 6927SOL    HW132243   2.613   2.061  11.977 -0.1475 -0.5633  1.2755
 6927SOL    HW232244   2.676   2.034  11.854 -0.2697 -3.2624 -1.9253
 6928SOL     OW32245   2.911   4.602  11.510 -0.0559  0.1369  0.4536
 6928SOL    HW132246   2.928   4.696  11.509 -1.0252  0.3128  0.1182
 6928SOL    HW232247   2.880   4.593  11.600  0.2922  3.0342  0.8411
 6929SOL     OW32248   4.150   1.773   7.548 -0.1661  0.2947 -0.1668
 6929SOL    HW132249   4.077   1.833   7.536  1.6467  2.2822 -1.1374
 6929SOL    HW232250   4.140   1.740   7.638 -1.4214  0.3054 -0.3053
 6930SOL     OW32251   0.769   2.949  16.338 -0.5724 -0.1922 -0.6688
 6930SOL    HW132252   0.815   2.973  16.418  0.9408  1.1744 -1.9307
 6930SOL    HW232253   0.733   3.035  16.316  0.6872  0.7485  1.0281
 6931SOL     OW32254   2.720   1.249   8.471 -0.0683  0.4789 -0.2875
 6931SOL    HW132255   2.632   1.285   8.458  0.1354  0.6158 -1.2913
 6931SOL    HW232256   2.731   1.205   8.387  0.1500  0.9739 -0.5204
 6932SOL     OW32257   0.091   0.591  17.118  0.4237 -0.2832 -0.0682
 6932SOL    HW132258   0.030   0.589  17.045 -0.0238  0.5737  0.2763
 6932SOL    HW232259   0.125   0.680  17.110 -1.1448  0.1642 -1.7855
 6933SOL     OW32260   2.588   2.826   2.383  0.1310  0.0546  0.5541
 6933SOL    HW132261   2.606   2.790   2.470  0.5482 -0.4496  0.2595
 6933SOL    HW232262   2.551   2.753   2.333  0.6829  2.0310 -2.7584
 6934SOL     OW32263   4.133   3.708   9.289  0.3760 -0.4588  0.4481
 6934SOL    HW132264   4.201   3.759   9.244  1.1606 -0.4102  1.6970
 6934SOL    HW232265   4.121   3.755   9.371  0.1417  0.2173  0.0211
 6935SOL     OW32266   4.342   1.188  12.958 -0.2315 -0.2425 -0.0691
 6935SOL    HW132267   4.423   1.200  13.007  0.6479 -2.2782 -1.0512
 6935SOL    HW232268   4.353   1.097  12.934 -1.5677 -0.5733  0.5750
 6936SOL     OW32269   1.435   2.341   7.561 -0.1409  0.2965  0.3750
 6936SOL    HW132270   1.434   2.331   7.656  0.7052  1.5551  0.5124
 6936SOL    HW232271   1.503   2.280   7.533 -0.7910  0.1536 -0.8832
 6937SOL     OW32272   4.168   2.230   1.479 -0.2150  0.1085 -0.4500
 6937SOL    HW132273   4.200   2.140   1.488  0.2609  0.4623  1.3830
 6937SOL    HW232274   4.120   2.241   1.561 -0.5385 -0.0949 -0.6144
 6938SOL     OW32275   4.047   2.013   2.636  0.1968  0.0210 -0.4463
 6938SOL    HW132276   4.059   2.074   2.563  2.5089  0.2732  0.1537
 6938SOL    HW232277   4.026   1.937   2.582  1.1787 -1.4345  1.2625
 6939SOL     OW32278   1.053   4.381   1.275 -0.5005  0.6542 -0.3164
 6939SOL    HW132279   1.118   4.361   1.343 -0.4002  0.7006 -0.3989
 6939SOL    HW232280   1.104   4.387   1.194  1.3428 -2.3656  0.6398
 6940SOL     OW32281   0.227   3.481  10.499 -0.1463 -0.3108 -0.4578
 6940SOL    HW132282   0.281   3.556  10.475  1.3540 -0.8026  1.4113
 6940SOL    HW232283   0.293   3.414  10.518 -0.4250 -1.4021 -3.3614
 6941SOL     OW32284   1.996   0.596   5.120 -0.2053  0.8079 -0.0383
 6941SOL    HW132285   2.009   0.567   5.029 -0.3188  0.5473  0.0270
 6941SOL    HW232286   2.065   0.662   5.122 -0.4372  1.0259  0.5582
 6942SOL     OW32287   1.638   4.448   6.353 -0.3155  0.0202  0.0329
 6942SOL    HW132288   1.554   4.437   6.308 -0.4485 -3.0140  1.0403
 6942SOL    HW232289   1.668   4.516   6.292  1.5068 -0.2427  0.6250
 6943SOL     OW32290   3.491   1.509   0.858  0.1062 -0.0982  0.0292
 6943SOL    HW132291   3.399   1.520   0.835 -0.6084 -0.6406  2.6145
 6943SOL    HW232292   3.475   1.530   0.950  0.1721 -1.1531  0.2880
 6944SOL     OW32293   3.884   0.012   3.506  0.3892 -0.4120 -0.0330
 6944SOL    HW132294   3.961   4.708   3.457  1.2168  0.5317  0.7307
 6944SOL    HW232295   3.910   0.082   3.566  0.7227 -1.1666  0.7021
 6945SOL     OW32296   1.328   4.367   5.045  0.5595  0.6447  0.7157
 6945SOL    HW132297   1.400   4.397   4.990  0.9646  0.8877  1.3774
 6945SOL    HW232298   1.366   4.287   5.082  1.0511  0.2358 -0.6815
 6946SOL     OW32299   4.436   3.555  10.577  0.2084  0.1752 -0.4612
 6946SOL    HW132300   4.501   3.535  10.644 -0.1881 -0.8537 -0.3737
 6946SOL    HW232301   4.454   3.645  10.554  0.4756  0.5689  1.2528
 6947SOL     OW32302   4.154   2.799  12.688  0.1046  0.6887  0.4861
 6947SOL    HW132303   4.180   2.891  12.687 -0.4532  0.8470  0.4001
 6947SOL    HW232304   4.058   2.803  12.688  0.0916  0.3554  0.8455
 6948SOL     OW32305   0.817   4.455   2.730 -0.0458  1.0524 -0.8114
 6948SOL    HW132306   0.827   4.486   2.639  0.7574  0.2440 -0.9917
 6948SOL    HW232307   0.736   4.487   2.770 -0.2319 -0.1439 -0.2389
 6949SOL     OW32308   2.073   2.250  17.359  0.4940 -0.0949 -0.0594
 6949SOL    HW132309   1.990   2.248  17.310  1.2876  1.3042 -1.4750
 6949SOL    HW232310   2.058   2.219  17.448 -1.8091 -1.0497 -0.7639
 6950SOL     OW32311   1.851   2.803   7.425 -0.0795  0.2356 -0.2734
 6950SOL    HW132312   1.933   2.756   7.439 -0.1879  0.0462 -0.2769
 6950SOL    HW232313   1.801   2.748   7.366 -1.7599  0.5660  0.8457
 6951SOL     OW32314   4.056   3.232   6.091  0.0578 -0.2760 -0.3646
 6951SOL    HW132315   4.074   3.321   6.120 -3.0749 -0.1832  1.3149
 6951SOL    HW232316   4.077   3.183   6.171 -0.1070  1.2223  0.6025
 6952SOL     OW32317   1.051   1.845   6.865  0.2084  0.2093  0.5961
 6952SOL    HW132318   1.143   1.861   6.845 -0.0552  0.8673 -0.0827
 6952SOL    HW232319   1.014   1.780   6.805 -0.6094 -1.5591  3.0196
 6953SOL     OW32320   1.702   4.202   5.345 -0.6240 -0.0665 -0.8162
 6953SOL    HW132321   1.795   4.216   5.363 -0.2526 -1.9249 -1.2163
 6953SOL    HW232322   1.691   4.124   5.400 -2.0057  0.7449  0.0505
 6954SOL     OW32323   3.692   0.076  17.594  0.3151 -0.2300 -0.5993
 6954SOL    HW132324   3.597   0.090  17.586  0.4945  0.6442 -1.3025
 6954SOL    HW232325   3.691   0.069  17.689 -0.3790 -0.9476 -0.6628
 6955SOL     OW32326   3.154   2.405   0.784  0.2950  0.7180  0.1930
 6955SOL    HW132327   3.230   2.443   0.741  0.6187  0.4266  0.5112
 6955SOL    HW232328   3.131   2.343   0.714 -0.0614  0.6557  0.3645
 6956SOL     OW32329   1.652   3.163  14.122 -0.1825  0.3023  0.0547
 6956SOL    HW132330   1.737   3.156  14.165  0.0495  1.0793 -0.2739
 6956SOL    HW232331   1.633   3.069  14.120 -0.1445  0.2473  1.7209
 6957SOL     OW32332   0.054   1.067  11.585  0.0828  0.0490 -0.0210
 6957SOL    HW132333   0.089   0.987  11.624 -0.6508 -0.8427 -1.2139
 6957SOL    HW232334   4.691   1.037  11.559  0.2146 -1.5240  1.3408
 6958SOL     OW32335   3.068   2.036   5.782  0.0990  0.1225  0.0697
 6958SOL    HW132336   3.136   2.035   5.849 -1.2049  1.8795  1.4283
 6958SOL    HW232337   3.015   2.105   5.822  0.5241  0.9179 -0.7420
 6959SOL     OW32338   0.611   0.239  15.165  0.8604 -0.2203 -0.0402
 6959SOL    HW132339   0.596   0.294  15.088  0.4753  2.0149  1.6489
 6959SOL    HW232340   0.705   0.258  15.164  1.0340 -1.1673 -1.7038
 6960SOL     OW32341   3.211   0.909   7.532 -0.0782  0.9297  0.7303
 6960SOL    HW132342   3.269   0.836   7.508 -0.6596  1.2795 -1.7611
 6960SOL    HW232343   3.254   0.976   7.479  0.1685 -0.1754 -0.4754
 6961SOL     OW32344   0.507   4.304   7.608  0.0032 -1.0003  0.3131
 6961SOL    HW132345   0.541   4.393   7.622 -1.5330 -0.1704 -1.3182
 6961SOL    HW232346   0.479   4.285   7.698 -0.2251  1.9141  0.8541
 6962SOL     OW32347   3.525   4.589   6.570 -0.0880  0.2909 -0.1586
 6962SOL    HW132348   3.437   4.553   6.580 -0.0536  0.3467  0.3517
 6962SOL    HW232349   3.516   4.641   6.490  1.5060 -0.9525 -1.1417
 6963SOL     OW32350   0.737   2.922   6.257 -0.1318  0.3676 -0.1226
 6963SOL    HW132351   0.823   2.886   6.236 -0.8806 -0.3938 -1.8456
 6963SOL    HW232352   0.692   2.906   6.174  1.3705  0.8852 -1.0297
 6964SOL     OW32353   2.670   2.783   9.125  0.6019  0.3175  0.8284
 6964SOL    HW132354   2.662   2.869   9.084  1.7867  0.8918  1.8237
 6964SOL    HW232355   2.605   2.788   9.195  0.3730 -2.4532  0.8173
 6965SOL     OW32356   4.364   1.674   7.894  0.3361 -0.2307  0.7076
 6965SOL    HW132357   4.285   1.726   7.875 -0.3731 -0.1748  3.8482
 6965SOL    HW232358   4.345   1.639   7.981 -0.9168  0.1818  0.6017
 6966SOL     OW32359   1.859   2.243   0.707 -0.2587 -0.5908 -0.7035
 6966SOL    HW132360   1.837   2.262   0.616 -1.3752  1.3196 -0.0457
 6966SOL    HW232361   1.823   2.154   0.708 -1.5639 -0.0695 -1.0594
 6967SOL     OW32362   2.773   4.680   7.513  0.1765  0.0703  0.5141
 6967SOL    HW132363   2.716   4.603   7.504  0.8706 -0.5703  1.6532
 6967SOL    HW232364   2.826   4.665   7.434 -1.3932 -0.3097 -0.4706
 6968SOL     OW32365   1.451   0.700   6.199 -0.3218  0.4715 -0.6159
 6968SOL    HW132366   1.426   0.654   6.119 -0.6389  0.5428 -0.5583
 6968SOL    HW232367   1.469   0.625   6.254 -0.7069  1.2456  0.5715
 6969SOL     OW32368   3.715   3.574   7.596 -0.8643 -0.3510 -0.9113
 6969SOL    HW132369   3.775   3.589   7.669 -0.8881 -0.4713 -0.8675
 6969SOL    HW232370   3.762   3.601   7.518  3.1207  0.5307  1.7804
 6970SOL     OW32371   4.414   2.489   6.217 -0.0052 -0.0770 -0.2630
 6970SOL    HW132372   4.380   2.566   6.171 -0.8527 -0.6823 -0.6356
 6970SOL    HW232373   4.371   2.500   6.302  0.1447 -0.3547 -0.1514
 6971SOL     OW32374   3.382   0.645  13.585  0.2139  0.3916  0.2283
 6971SOL    HW132375   3.454   0.707  13.596  1.6842 -1.5114  1.2881
 6971SOL    HW232376   3.352   0.621  13.673  1.3403 -1.0479  0.2218
 6972SOL     OW32377   2.643   1.096   5.583  0.9869  0.2670  0.0567
 6972SOL    HW132378   2.650   1.150   5.504  0.7940 -0.2379 -0.3080
 6972SOL    HW232379   2.553   1.111   5.612  0.1309  0.3016 -2.6313
 6973SOL     OW32380   1.400   2.528  15.992  0.0437 -0.4925 -0.4869
 6973SOL    HW132381   1.337   2.507  16.061  1.9916 -1.5215  0.9838
 6973SOL    HW232382   1.480   2.514  16.043  0.0392  2.9639  0.4096
 6974SOL     OW32383   0.388   2.144   6.155 -0.0994  0.1452 -0.2773
 6974SOL    HW132384   0.418   2.225   6.196  1.2917 -0.3584 -0.2692
 6974SOL    HW232385   0.309   2.165   6.106 -0.2381 -0.5725 -0.3596
 6975SOL     OW32386   3.543   0.405   4.575 -0.4267  0.5591  0.0543
 6975SOL    HW132387   3.523   0.482   4.627  1.8430  0.5039  0.9980
 6975SOL    HW232388   3.513   0.436   4.489  0.0338 -2.2378 -1.1127
 6976SOL     OW32389   2.375   1.153  16.097  0.0000  0.1308 -0.2978
 6976SOL    HW132390   2.453   1.207  16.108  0.8419 -1.5137  1.6363
 6976SOL    HW232391   2.339   1.174  16.010 -1.3344 -1.1671 -0.0555
 6977SOL     OW32392   3.241   3.155   3.784 -0.2012  0.0470  0.1307
 6977SOL    HW132393   3.310   3.187   3.727  1.3146  2.9692  3.6348
 6977SOL    HW232394   3.215   3.236   3.828 -2.2876 -1.1280  1.0833
 6978SOL     OW32395   0.615   2.911  12.570 -0.5457  0.2991  0.0348
 6978SOL    HW132396   0.669   2.920  12.649 -1.6812 -1.9732  1.0882
 6978SOL    HW232397   0.572   2.825  12.579  2.8151 -1.5759 -2.0495
 6979SOL     OW32398   4.324   3.705   4.707  0.2812  0.4409  0.3669
 6979SOL    HW132399   4.332   3.658   4.624  0.5112 -1.0656  1.2308
 6979SOL    HW232400   4.341   3.628   4.762  0.9143  0.7367  0.5773
 6980SOL     OW32401   1.310   2.355   8.413  0.1226  0.5212 -0.2692
 6980SOL    HW132402   1.345   2.390   8.495  0.7019  0.1426 -0.3597
 6980SOL    HW232403   1.288   2.267   8.444  1.8046 -0.4035 -1.7217
 6981SOL     OW32404   0.289   2.267  12.034 -0.2786 -0.2523  0.4589
 6981SOL    HW132405   0.322   2.354  12.014  3.4307 -1.2210  2.2113
 6981SOL    HW232406   0.251   2.287  12.120 -0.6327 -0.8399  0.4417
 6982SOL     OW32407   2.213   3.204   8.147 -0.2850 -0.8112 -0.5939
 6982SOL    HW132408   2.180   3.234   8.063  1.3698  1.4231 -0.4629
 6982SOL    HW232409   2.159   3.252   8.211  2.5698  1.3187  0.2426
 6983SOL     OW32410   1.571   1.996   9.443  0.1578 -0.2145 -0.0473
 6983SOL    HW132411   1.589   2.028   9.354 -0.0047 -0.0970 -0.0385
 6983SOL    HW232412   1.578   2.080   9.487  0.8965 -1.0289  1.3754
 6984SOL     OW32413   1.411   3.906   2.811  0.3663 -0.2983 -0.3264
 6984SOL    HW132414   1.339   3.935   2.867  0.7635 -0.5606  0.3256
 6984SOL    HW232415   1.456   3.990   2.802  0.7390 -0.3837  0.7559
 6985SOL     OW32416   0.295   1.702   2.067 -0.0073 -0.1777 -0.0893
 6985SOL    HW132417   0.287   1.781   2.013 -2.1671 -0.6762 -0.5115
 6985SOL    HW232418   0.210   1.662   2.049  1.0265 -2.5108  0.2483
 6986SOL     OW32419   1.275   4.056   7.935 -0.6214 -0.3826 -1.1610
 6986SOL    HW132420   1.230   4.076   8.017 -0.7873 -0.6921 -1.1745
 6986SOL    HW232421   1.270   4.142   7.894 -2.6427 -0.3865 -0.9052
 6987SOL     OW32422   3.010   2.406   8.711  0.2353  0.0001  0.3873
 6987SOL    HW132423   2.955   2.449   8.777  0.5577 -0.1676  0.7639
 6987SOL    HW232424   3.030   2.323   8.753 -2.6800 -0.9166 -0.0525
 6988SOL     OW32425   0.951   0.705   5.958  0.1326  0.3748 -0.2027
 6988SOL    HW132426   0.944   0.728   6.050 -0.6144 -1.1825  0.1355
 6988SOL    HW232427   0.883   0.637   5.953 -1.3266  1.8706 -0.7805
 6989SOL     OW32428   0.917   4.222   3.540  0.2328 -0.1819 -0.0562
 6989SOL    HW132429   0.981   4.170   3.589 -1.2468 -0.4840  1.5167
 6989SOL    HW232430   0.965   4.235   3.458  0.2488  2.6247  0.4098
 6990SOL     OW32431   0.832   4.330   7.697 -0.3398  0.2923  0.4440
 6990SOL    HW132432   0.761   4.386   7.665 -1.7397 -2.5993 -1.5178
 6990SOL    HW232433   0.902   4.395   7.702  1.4704 -1.5449 -1.1325
 6991SOL     OW32434   2.876   2.533  15.447 -0.6537  0.3030  0.3504
 6991SOL    HW132435   2.925   2.532  15.365  0.1501  0.2191  0.8220
 6991SOL    HW232436   2.800   2.488  15.410  0.3362  0.0886 -1.4039
 6992SOL     OW32437   0.797   1.768  17.110  0.1290 -0.4894 -0.1473
 6992SOL    HW132438   0.871   1.708  17.112 -0.6323 -1.5284 -2.4701
 6992SOL    HW232439   0.807   1.819  17.030  2.0380  0.9555  1.0260
 6993SOL     OW32440   0.622   2.217  12.623 -0.4398  0.0267 -0.4021
 6993SOL    HW132441   0.697   2.227  12.682 -0.0603 -4.4789 -0.1175
 6993SOL    HW232442   0.626   2.296  12.570  1.1878  0.7273  0.7454
 6994SOL     OW32443   4.534   1.342   1.382 -0.1673  0.5939 -0.7537
 6994SOL    HW132444   4.617   1.336   1.335  0.7619  1.5431  0.7979
 6994SOL    HW232445   4.472   1.328   1.310 -0.7459  0.0840 -0.1670
 6995SOL     OW32446   3.143   3.458   2.885  0.3643  0.6523 -0.5000
 6995SOL    HW132447   3.238   3.453   2.894  0.1609 -0.0701  1.1812
 6995SOL    HW232448   3.113   3.385   2.939  0.0898  0.0581 -1.4551
 6996SOL     OW32449   2.015   1.129  10.506 -0.2613  0.0745 -0.5545
 6996SOL    HW132450   2.057   1.212  10.527 -0.3057 -0.1605  0.4686
 6996SOL    HW232451   1.931   1.156  10.467 -0.3582 -0.0051 -0.3986
 6997SOL     OW32452   3.896   3.954   4.920 -0.1927 -0.0188 -0.0286
 6997SOL    HW132453   3.818   3.999   4.886 -0.4125  0.0565  0.5687
 6997SOL    HW232454   3.953   4.023   4.954 -0.2245  0.8636 -1.7770
 6998SOL     OW32455   1.276   1.969   5.383 -0.2059 -0.1462 -0.1720
 6998SOL    HW132456   1.246   1.929   5.301 -0.5830 -0.2468  0.0130
 6998SOL    HW232457   1.261   1.899   5.448  2.6383  0.5948  1.2838
 6999SOL     OW32458   0.230   2.271  13.444 -0.4345 -0.4686  0.0646
 6999SOL    HW132459   0.164   2.327  13.403 -2.8448 -2.7987  0.8089
 6999SOL    HW232460   0.225   2.298  13.536 -0.5626 -2.0905  0.5338
 7000SOL     OW32461   4.434   1.412   4.563 -0.0974  0.0562 -0.7121
 7000SOL    HW132462   4.478   1.399   4.647  3.8217  1.3177 -2.5845
 7000SOL    HW232463   4.452   1.505   4.546  1.5222 -0.0568  0.4157
 7001SOL     OW32464   2.662   0.048  15.166  0.4255  0.4982 -0.2117
 7001SOL    HW132465   2.741   0.019  15.212 -1.1560 -1.0131  1.5714
 7001SOL    HW232466   2.703   0.055  15.080  0.2288  2.7182 -0.1070
 7002SOL     OW32467   0.136   2.527   6.904  0.1214  0.0235  0.5178
 7002SOL    HW132468   0.081   2.490   6.835  0.1753  1.3139 -0.2079
 7002SOL    HW232469   0.122   2.459   6.971 -1.3108 -0.3808 -0.2045
 7003SOL     OW32470   2.633   2.452   5.178 -0.7014  0.4369 -0.0298
 7003SOL    HW132471   2.647   2.384   5.244  0.3421  1.9012  1.2726
 7003SOL    HW232472   2.721   2.490   5.184 -0.9661  1.2063 -1.0336
 7004SOL     OW32473   3.775   3.281   7.727  0.3938  0.9709 -0.2626
 7004SOL    HW132474   3.826   3.272   7.808 -2.5229  0.4326  1.5258
 7004SOL    HW232475   3.834   3.320   7.662 -0.5173  0.4346 -1.4045
 7005SOL     OW32476   3.908   1.063   6.447 -0.0123 -0.1040  0.9011
 7005SOL    HW132477   3.833   1.118   6.429  2.9170  4.2949  2.2179
 7005SOL    HW232478   3.984   1.118   6.466  1.0256 -1.2785  0.1427
 7006SOL     OW32479   1.354   1.556   5.982  0.2150 -0.4593 -0.1322
 7006SOL    HW132480   1.285   1.607   6.025  0.5372  0.6271 -0.8862
 7006SOL    HW232481   1.347   1.593   5.894  1.8630 -0.0887 -0.1139
 7007SOL     OW32482   1.674   4.096   6.127  0.6325 -0.1699 -0.0155
 7007SOL    HW132483   1.705   4.006   6.140  0.6457 -0.3352 -1.2207
 7007SOL    HW232484   1.733   4.158   6.171  0.8547  0.3947 -1.1129
 7008SOL     OW32485   2.297   3.938   1.173 -0.6211  0.1407 -0.4253
 7008SOL    HW132486   2.361   3.887   1.224 -0.6946  0.7601  0.2900
 7008SOL    HW232487   2.340   3.961   1.091 -3.6667  3.6049 -1.0219
 7009SOL     OW32488   3.640   4.106   8.617  0.1050 -0.4549 -0.4585
 7009SOL    HW132489   3.707   4.162   8.657 -0.3987 -0.7018  0.7169
 7009SOL    HW232490   3.624   4.044   8.688  0.4374  0.6506  0.5856
 7010SOL     OW32491   0.841   4.573  12.533 -0.1738 -0.2789 -0.5544
 7010SOL    HW132492   0.868   4.664  12.546  1.3406 -0.8137  0.0642
 7010SOL    HW232493   0.910   4.517  12.568 -1.6445 -0.1500  2.4827
 7011SOL     OW32494   3.568   2.711   6.954  0.3102 -0.3357  0.2572
 7011SOL    HW132495   3.517   2.689   7.032  0.4230 -0.3002  0.3412
 7011SOL    HW232496   3.521   2.782   6.911  1.6731 -0.6097 -1.7019
 7012SOL     OW32497   1.191   0.230   8.364  0.1299 -0.0215 -0.5014
 7012SOL    HW132498   1.113   0.285   8.363  1.4369  1.7923 -1.5385
 7012SOL    HW232499   1.188   0.200   8.454  1.0658 -1.6850 -1.0214
 7013SOL     OW32500   0.081   2.779   3.270  0.4428  0.2779  0.3204
 7013SOL    HW132501   0.128   2.713   3.219  1.5326  1.0774  0.2863
 7013SOL    HW232502   4.716   2.747   3.260  0.5538 -0.2614  0.9789
 7014SOL     OW32503   1.307   4.709   2.526  0.2709  0.4159 -0.4990
 7014SOL    HW132504   1.282   4.616   2.517  0.1996  0.3932 -0.0825
 7014SOL    HW232505   1.381   4.706   2.586  0.3960 -1.7098 -0.7268
 7015SOL     OW32506   4.487   3.432   8.901 -0.0453  0.2351 -0.3310
 7015SOL    HW132507   4.582   3.417   8.900 -0.4157 -2.2342  0.5041
 7015SOL    HW232508   4.464   3.395   8.816 -1.6015 -1.7509  0.9638
 7016SOL     OW32509   2.705   1.699   0.395 -0.0529  0.2494  0.2924
 7016SOL    HW132510   2.692   1.791   0.417 -1.2600 -0.4747  2.5327
 7016SOL    HW232511   2.627   1.679   0.344 -0.2027  1.9480 -0.1468
 7017SOL     OW32512   2.648   1.343  16.360  0.1558 -0.6158  0.4850
 7017SOL    HW132513   2.695   1.423  16.339 -0.2882 -0.1015  1.4822
 7017SOL    HW232514   2.603   1.354  16.444  1.0396  0.1544  0.8477
 7018SOL     OW32515   0.311   2.148   9.055  0.8389  0.5850  0.1900
 7018SOL    HW132516   0.347   2.176   8.970  0.0369  0.3475 -0.2340
 7018SOL    HW232517   0.364   2.071   9.076  1.8096  1.3998  0.7453
 7019SOL     OW32518   0.622   0.599   7.814 -0.3395  0.1027  0.8642
 7019SOL    HW132519   0.560   0.671   7.801 -0.8378 -0.7896 -1.6963
 7019SOL    HW232520   0.573   0.539   7.872 -1.0276  1.3196  1.5410
 7020SOL     OW32521   4.233   4.312  12.047 -0.4304 -0.7930 -0.1394
 7020SOL    HW132522   4.153   4.259  12.048 -0.1382 -1.2458 -0.6501
 7020SOL    HW232523   4.226   4.349  12.134  3.4353 -0.6122  0.0917
 7021SOL     OW32524   4.039   2.887   4.144  0.1549 -0.5257 -0.5232
 7021SOL    HW132525   4.043   2.938   4.225 -2.2828 -0.5376 -0.4096
 7021SOL    HW232526   4.125   2.913   4.110  0.9680 -2.0590  0.4011
 7022SOL     OW32527   0.214   0.502  13.458  0.8872 -0.0796  0.1331
 7022SOL    HW132528   0.241   0.550  13.380 -0.8624  0.2671 -0.2692
 7022SOL    HW232529   0.247   0.418  13.428  2.2132  0.4109  0.2495
 7023SOL     OW32530   4.586   1.590   3.608  0.6080  0.2265 -0.4810
 7023SOL    HW132531   4.496   1.604   3.638  0.2388  0.2140 -1.5912
 7023SOL    HW232532   4.574   1.538   3.528 -1.4727 -0.4264  0.2377
 7024SOL     OW32533   1.791   1.491  12.752  0.2719 -0.6597  0.2055
 7024SOL    HW132534   1.710   1.517  12.708 -0.8826 -1.1473  2.0500
 7024SOL    HW232535   1.837   1.575  12.745 -0.6703 -0.1660 -0.1600
 7025SOL     OW32536   2.469   3.742   2.988  0.1665 -0.4587 -0.2230
 7025SOL    HW132537   2.503   3.662   3.028 -0.5944 -0.9221 -0.4943
 7025SOL    HW232538   2.539   3.783   2.938  0.7795  0.2042  1.2007
 7026SOL     OW32539   3.881   1.427   5.050  0.0935 -0.2358 -0.0999
 7026SOL    HW132540   3.917   1.515   5.035 -0.0437 -0.3016 -0.8444
 7026SOL    HW232541   3.908   1.388   4.967  2.6690 -1.9660  1.5714
 7027SOL     OW32542   4.490   4.387   7.136  0.2113 -0.2250  0.2215
 7027SOL    HW132543   4.479   4.324   7.065 -0.8953 -0.6527  0.7576
 7027SOL    HW232544   4.398   4.401   7.161  0.6700  2.4278  0.3805
 7028SOL     OW32545   1.768   1.947   5.155  0.0076  0.1260 -0.8060
 7028SOL    HW132546   1.719   1.936   5.237 -0.2564  0.3519 -0.9337
 7028SOL    HW232547   1.706   1.916   5.090  1.2785 -0.4228 -1.7522
 7029SOL     OW32548   1.909   2.155   1.964 -0.8456  0.2497  0.4153
 7029SOL    HW132549   1.923   2.127   1.873 -0.4136 -0.7018  0.7750
 7029SOL    HW232550   1.950   2.084   2.013 -0.2741 -0.5988 -1.2727
 7030SOL     OW32551   4.645   2.681   2.990  0.1720 -0.4248 -0.0570
 7030SOL    HW132552   4.631   2.627   2.912  0.5904  0.6250 -0.8747
 7030SOL    HW232553   4.591   2.649   3.062 -0.6622 -1.3897 -1.1144
 7031SOL     OW32554   4.390   0.696  17.038 -0.1805 -0.2043 -0.0940
 7031SOL    HW132555   4.344   0.778  17.019 -0.8979 -0.9813 -1.7828
 7031SOL    HW232556   4.317   0.642  17.068  0.4670 -1.9200 -1.6435
 7032SOL     OW32557   2.180   4.057  16.883  0.6761  0.3463  0.1228
 7032SOL    HW132558   2.220   4.137  16.849  1.2204  1.2802  2.9454
 7032SOL    HW232559   2.126   4.036  16.807  0.6543  0.6928  0.0421
 7033SOL     OW32560   1.496   0.505   9.016  0.2783  0.5808  0.2772
 7033SOL    HW132561   1.430   0.467   9.073  0.7059 -1.9246 -0.8823
 7033SOL    HW232562   1.446   0.499   8.934  1.2931 -0.0580 -0.3005
 7034SOL     OW32563   1.752   2.851  12.683  0.0304 -0.2863  0.5808
 7034SOL    HW132564   1.714   2.885  12.764 -1.4381  1.6022 -0.8765
 7034SOL    HW232565   1.676   2.827  12.630  0.2475  0.1944  0.0418
 7035SOL     OW32566   2.816   1.671   4.741  0.1865  0.5809 -0.3436
 7035SOL    HW132567   2.774   1.753   4.713  0.0388  1.3282  2.0713
 7035SOL    HW232568   2.906   1.685   4.712  1.1542 -2.2477  1.3429
 7036SOL     OW32569   2.687   0.726  15.261  0.2666  0.2741 -0.1498
 7036SOL    HW132570   2.757   0.788  15.242  3.7506 -2.8815  2.3309
 7036SOL    HW232571   2.649   0.773  15.335 -1.1760 -0.8084 -0.2086
 7037SOL     OW32572   1.364   3.936  12.525  0.3519 -0.7812 -0.3204
 7037SOL    HW132573   1.308   3.968  12.455  0.6117  2.6049  1.0296
 7037SOL    HW232574   1.436   3.999  12.524 -0.0072 -0.3437  0.8585
 7038SOL     OW32575   1.125   3.814  12.621 -0.6122  0.2836 -0.2107
 7038SOL    HW132576   1.184   3.832  12.547  1.0136  1.3865  1.3299
 7038SOL    HW232577   1.122   3.906  12.650 -1.8046 -0.1030  0.9009
 7039SOL     OW32578   3.509   1.113  14.428  0.5789  0.1251 -0.0701
 7039SOL    HW132579   3.492   1.023  14.454  2.7734 -0.5300 -0.9526
 7039SOL    HW232580   3.434   1.125  14.369  1.1265 -1.1890 -1.0225
 7040SOL     OW32581   4.544   3.940   2.637 -0.1378  0.2408 -1.2484
 7040SOL    HW132582   4.629   3.979   2.656 -0.5718  0.4181  0.3313
 7040SOL    HW232583   4.507   4.008   2.581 -0.8414  0.2269 -0.8085
 7041SOL     OW32584   1.817   4.669  14.054  0.0794  0.3780 -0.3047
 7041SOL    HW132585   1.879   4.611  14.011 -0.3277  0.6475 -1.2570
 7041SOL    HW232586   1.742   4.620  14.019 -0.8218  2.0107 -0.7267
 7042SOL     OW32587   1.964   0.453   8.011  0.0888 -0.1839  0.6293
 7042SOL    HW132588   1.890   0.496   7.969  1.8009  2.8841  0.7572
 7042SOL    HW232589   1.982   0.514   8.082  2.2070  0.1730 -0.2204
 7043SOL     OW32590   2.580   0.284   2.001  0.4728  0.1302  0.1624
 7043SOL    HW132591   2.535   0.321   1.925  0.0891 -0.1217  0.2703
 7043SOL    HW232592   2.611   0.205   1.956 -1.5780 -0.9017  0.5691
 7044SOL     OW32593   1.517   4.285  16.033 -0.3297  0.2701  0.4873
 7044SOL    HW132594   1.464   4.363  16.052 -0.0817  0.4975  0.2522
 7044SOL    HW232595   1.575   4.278  16.108  0.1843  0.0268  0.0667
 7045SOL     OW32596   1.137   4.343   1.907 -0.2435 -0.0871 -0.0954
 7045SOL    HW132597   1.056   4.342   1.958 -2.1571 -1.8785 -3.1841
 7045SOL    HW232598   1.156   4.253   1.878 -1.5789 -0.3311 -0.2175
 7046SOL     OW32599   2.021   3.463   6.268 -0.4033  0.6042 -0.0622
 7046SOL    HW132600   2.094   3.416   6.307 -0.7543  0.8495  0.9019
 7046SOL    HW232601   1.969   3.394   6.227 -3.0983  0.2039  4.0454
 7047SOL     OW32602   0.314   0.730   3.894 -0.1851 -0.1543  0.0299
 7047SOL    HW132603   0.395   0.767   3.858  0.2176 -1.2574 -0.2031
 7047SOL    HW232604   0.288   0.660   3.834 -1.7797  0.5713 -0.1216
 7048SOL     OW32605   3.601   4.206   1.266  0.5644  1.0874 -0.4677
 7048SOL    HW132606   3.519   4.157   1.269  0.8678  0.5359 -0.9710
 7048SOL    HW232607   3.590   4.252   1.349 -0.1014 -0.5166  0.3475
 7049SOL     OW32608   1.714   2.643   7.248 -0.7846  0.0905  0.4123
 7049SOL    HW132609   1.623   2.617   7.236 -0.7747 -0.1799  0.9541
 7049SOL    HW232610   1.756   2.562   7.220 -0.7245  0.8858 -1.7966
 7050SOL     OW32611   0.006   0.956   0.160 -0.0767  0.0461  0.0941
 7050SOL    HW132612   4.673   0.895   0.208 -0.2788 -0.9115 -1.3792
 7050SOL    HW232613   0.089   0.911   0.173 -0.9813 -1.8603 -0.7114
 7051SOL     OW32614   0.728   4.696  15.497 -0.0768  0.0883  0.6503
 7051SOL    HW132615   0.792   4.712  15.427  0.1983  1.2854  1.1670
 7051SOL    HW232616   0.708   0.064  15.514 -2.6452 -0.2019 -0.9064
 7052SOL     OW32617   1.333   2.630  16.865 -0.4164  0.6236 -0.0938
 7052SOL    HW132618   1.364   2.720  16.873 -0.3403  0.7338 -1.6596
 7052SOL    HW232619   1.254   2.634  16.919  0.1962 -0.8510  0.9037
 7053SOL     OW32620   2.720   4.201   5.142  0.2541  0.1799 -0.3974
 7053SOL    HW132621   2.778   4.257   5.091  0.3674  0.1929 -0.2538
 7053SOL    HW232622   2.640   4.185   5.092  0.2232  0.0872 -0.3204
 7054SOL     OW32623   1.549   3.032  16.652  0.0879 -0.9228  0.1161
 7054SOL    HW132624   1.531   3.120  16.619  0.5704 -0.6041  0.7114
 7054SOL    HW232625   1.522   2.988  16.572 -1.8331  0.1604  0.1649
 7055SOL     OW32626   3.614   0.827  16.768  0.9076  0.5261  0.1087
 7055SOL    HW132627   3.605   0.735  16.790 -3.9103  0.8542 -0.3476
 7055SOL    HW232628   3.522   0.856  16.769  1.1951  1.4406 -0.0475
 7056SOL     OW32629   3.664   1.325   4.310 -0.0522 -0.1081  0.3849
 7056SOL    HW132630   3.681   1.336   4.403  0.4376 -1.6081  0.4798
 7056SOL    HW232631   3.723   1.388   4.268  1.0930 -0.6488  1.1891
 7057SOL     OW32632   0.974   0.398   4.792 -0.1382  0.0673 -0.1701
 7057SOL    HW132633   0.932   0.326   4.840  1.2177 -0.5833  0.0491
 7057SOL    HW232634   0.954   0.377   4.701  4.5191 -1.4575 -0.8429
 7058SOL     OW32635   1.699   0.640   0.286 -0.3180  0.2780 -0.3362
 7058SOL    HW132636   1.695   0.733   0.264  1.7501  0.3007 -0.6401
 7058SOL    HW232637   1.735   0.626   0.374 -1.4547  2.6419  0.5142
 7059SOL     OW32638   3.691   4.695  16.426  0.1964  0.3146  0.1071
 7059SOL    HW132639   3.629   4.711  16.356 -0.6717  1.0662  1.0476
 7059SOL    HW232640   3.779   4.709  16.389  0.2928  0.1698  0.2795
 7060SOL     OW32641   0.245   0.548   4.187 -0.1580 -0.1912  0.3417
 7060SOL    HW132642   0.231   0.587   4.101  0.2142  0.7455  0.7127
 7060SOL    HW232643   0.176   0.587   4.242 -1.1820 -0.8813 -0.4433
 7061SOL     OW32644   2.480   1.029   6.470  0.3094 -0.3023  0.2392
 7061SOL    HW132645   2.472   1.124   6.460  0.0641 -0.2254  1.1381
 7061SOL    HW232646   2.550   1.022   6.536  1.7391 -0.5942 -1.3042
 7062SOL     OW32647   0.408   1.041   4.315  0.1923 -0.5485  0.1611
 7062SOL    HW132648   0.384   1.026   4.224 -0.0443 -1.4222  0.3642
 7062SOL    HW232649   0.407   1.136   4.327  0.9248 -0.7389  1.6968
 7063SOL     OW32650   1.193   1.947  16.510 -0.3764  0.1602 -0.3882
 7063SOL    HW132651   1.193   1.890  16.587  2.2327  1.6125  0.6956
 7063SOL    HW232652   1.105   1.921  16.483 -0.9138  0.6261  0.9129
 7064SOL     OW32653   1.791   0.831  15.733  0.6798  0.2246  0.1956
 7064SOL    HW132654   1.710   0.843  15.684 -0.3184  0.0365  1.7897
 7064SOL    HW232655   1.758   0.782  15.809 -0.0548  0.2535 -0.1050
 7065SOL     OW32656   3.168   3.109  15.825  0.0845 -0.2253 -0.5506
 7065SOL    HW132657   3.173   3.115  15.730 -0.0930  0.2240 -0.5302
 7065SOL    HW232658   3.186   3.198  15.856 -0.1644 -1.0315  1.9496
 7066SOL     OW32659   2.451   0.533   3.565  0.2565 -0.1680  0.2065
 7066SOL    HW132660   2.382   0.553   3.628 -0.2568  0.5441 -0.5783
 7066SOL    HW232661   2.395   0.500   3.494  1.3195  0.4559 -0.9167
 7067SOL     OW32662   3.751   0.924   2.479 -0.2397  0.4021 -0.1643
 7067SOL    HW132663   3.842   0.951   2.467 -0.7449  1.2481 -2.1991
 7067SOL    HW232664   3.714   0.999   2.431 -3.5460 -0.2455  1.3480
 7068SOL     OW32665   0.799   2.091   0.539 -0.7795 -0.6636  0.3036
 7068SOL    HW132666   0.866   2.056   0.480  0.8237 -1.7526  2.7872
 7068SOL    HW232667   0.855   2.153   0.584  0.4618 -1.0391 -0.7351
 7069SOL     OW32668   0.881   1.191   2.491 -0.4008  0.0456 -0.0450
 7069SOL    HW132669   0.958   1.184   2.435 -1.8496 -0.1096 -2.0036
 7069SOL    HW232670   0.827   1.224   2.420 -0.6480  1.0714  0.6149
 7070SOL     OW32671   4.675   4.590   3.039 -0.3794  0.1528 -0.8029
 7070SOL    HW132672   4.634   4.667   3.079  0.0720  0.6039 -1.2040
 7070SOL    HW232673   4.656   4.616   2.949 -1.3517  0.5429 -0.4925
 7071SOL     OW32674   3.383   0.712   1.214 -0.0631 -0.5581  0.0031
 7071SOL    HW132675   3.476   0.720   1.195  0.1613  1.5405  2.0489
 7071SOL    HW232676   3.351   0.640   1.159  0.0055  0.9061 -1.9485
 7072SOL     OW32677   0.869   1.562   1.721 -0.3073 -0.3423  0.6460
 7072SOL    HW132678   0.789   1.548   1.670  0.1503 -3.2600  0.7657
 7072SOL    HW232679   0.896   1.643   1.677 -0.2080 -1.3124 -1.0922
 7073SOL     OW32680   4.286   3.636   7.534  0.3152 -0.0025 -0.1101
 7073SOL    HW132681   4.275   3.719   7.579  0.7653 -1.2058  2.2288
 7073SOL    HW232682   4.365   3.658   7.484  0.2072  1.5014  0.3694
 7074SOL     OW32683   0.682   2.486   5.945 -0.2748 -0.0903  0.2741
 7074SOL    HW132684   0.769   2.480   5.906 -1.7385  0.8385 -3.1217
 7074SOL    HW232685   0.663   2.396   5.971  0.6291 -0.7180 -1.2333
 7075SOL     OW32686   4.202   2.405   6.992 -0.1049 -0.3838 -0.6207
 7075SOL    HW132687   4.115   2.391   6.955 -0.1372 -0.9848 -0.3201
 7075SOL    HW232688   4.200   2.500   7.002 -1.4146 -0.3490 -1.2232
 7076SOL     OW32689   1.030   3.226  17.479  0.3012 -0.2714 -0.0489
 7076SOL    HW132690   0.992   3.162  17.419 -2.0534  1.5053 -0.4848
 7076SOL    HW232691   1.072   3.167  17.540  1.9017 -0.0043 -0.8758
 7077SOL     OW32692   4.545   1.013   4.141 -0.0649  0.2870 -0.8830
 7077SOL    HW132693   4.526   1.060   4.222 -0.8458 -0.4397 -0.6493
 7077SOL    HW232694   4.626   0.965   4.157  0.0768  1.4593  1.8244
 7078SOL     OW32695   2.850   1.819   4.154  0.6148  0.2315 -0.8839
 7078SOL    HW132696   2.840   1.790   4.064  0.3372 -0.5838 -0.5886
 7078SOL    HW232697   2.945   1.818   4.151  0.5879 -1.0215 -1.1098
 7079SOL     OW32698   2.965   2.589  17.338  0.1836  0.3630 -0.2166
 7079SOL    HW132699   2.968   2.685  17.339  2.5211  0.3027  0.5588
 7079SOL    HW232700   3.017   2.573  17.417 -1.2509 -1.6723  0.3167
 7080SOL     OW32701   1.625   3.209   5.104  0.0779  0.2076 -0.2212
 7080SOL    HW132702   1.636   3.299   5.133  0.6680 -0.9558  3.1500
 7080SOL    HW232703   1.532   3.195   5.088  0.0420  0.2542 -0.0441
 7081SOL     OW32704   1.767   4.264  12.819 -0.1193 -0.7034  0.1155
 7081SOL    HW132705   1.762   4.286  12.726 -1.4261  0.9644  0.5760
 7081SOL    HW232706   1.728   4.177  12.822  1.2065 -1.3040 -0.1752
 7082SOL     OW32707   2.566   3.152  17.212  0.2459 -0.5030 -0.2356
 7082SOL    HW132708   2.635   3.185  17.269  0.1972  0.4544 -0.7368
 7082SOL    HW232709   2.491   3.200  17.245  1.2877 -1.4802  3.6084
 7083SOL     OW32710   2.245   2.249   5.210  0.3021 -0.2517 -0.0434
 7083SOL    HW132711   2.162   2.239   5.258 -1.3474 -1.5713 -3.2074
 7083SOL    HW232712   2.217   2.230   5.121  1.3039 -0.3145 -0.3314
 7084SOL     OW32713   2.000   2.939   2.364  0.5991  0.0619  0.4258
 7084SOL    HW132714   1.952   2.957   2.445 -1.8089  1.3441 -1.3068
 7084SOL    HW232715   2.038   2.850   2.365 -0.1347 -0.2598 -1.2111
 7085SOL     OW32716   4.254   4.602   8.580 -0.2178 -0.5596 -0.0367
 7085SOL    HW132717   4.340   4.634   8.554 -0.1983 -1.0880 -0.6318
 7085SOL    HW232718   4.268   4.512   8.548  1.5329 -0.5293  0.6196
 7086SOL     OW32719   4.707   3.537   2.064  0.5310 -0.1347 -0.1575
 7086SOL    HW132720   0.057   3.566   2.118  0.1196  0.8866 -0.1468
 7086SOL    HW232721   4.709   3.442   2.062  2.3014 -0.1079 -0.0516
 7087SOL     OW32722   3.021   4.221   3.183 -0.0683  0.6672  0.1090
 7087SOL    HW132723   3.097   4.175   3.219  0.9658  1.7032 -0.7572
 7087SOL    HW232724   3.057   4.286   3.123  0.3125  1.0737  0.7753
 7088SOL     OW32725   2.283   0.431   0.737  0.2172  0.0053  0.3322
 7088SOL    HW132726   2.342   0.408   0.808  1.5257  3.0362  0.2224
 7088SOL    HW232727   2.303   0.379   0.660  2.6953 -0.6142  1.4161
 7089SOL     OW32728   1.000   1.277   9.821  0.6834  0.3885  0.7568
 7089SOL    HW132729   0.942   1.350   9.795  0.1556 -0.3084 -0.0213
 7089SOL    HW232730   0.965   1.207   9.766 -0.8600  0.8088  1.2076
 7090SOL     OW32731   4.649   4.201   6.152 -0.3050 -0.3773  0.3318
 7090SOL    HW132732   4.641   4.123   6.207  0.4232 -0.5210  0.2339
 7090SOL    HW232733   4.698   4.160   6.081  3.2789  1.7514  1.6032
 7091SOL     OW32734   2.675   2.802   6.380 -0.1216  0.2893  0.5780
 7091SOL    HW132735   2.618   2.854   6.323  1.0676  0.3763 -0.5395
 7091SOL    HW232736   2.762   2.842   6.373 -0.5083  1.3124  1.7669
 7092SOL     OW32737   1.367   0.387   5.777 -0.2808  0.4013 -0.0942
 7092SOL    HW132738   1.379   0.384   5.872 -0.9382 -1.6991 -0.0619
 7092SOL    HW232739   1.291   0.445   5.772  1.4599  2.4294 -2.8422
 7093SOL     OW32740   2.441   3.616  16.000 -0.3600  0.1403  0.0027
 7093SOL    HW132741   2.472   3.528  15.980 -1.5176  0.6540 -3.9097
 7093SOL    HW232742   2.505   3.645  16.066 -0.2591 -1.2424  0.5250
 7094SOL     OW32743   1.780   3.434   4.104  0.0226  0.0045 -0.3593
 7094SOL    HW132744   1.778   3.526   4.077 -0.9245  0.6019  1.7471
 7094SOL    HW232745   1.796   3.435   4.199  1.0304 -0.8728 -0.5197
 7095SOL     OW32746   2.485   4.201   0.613 -0.1087 -0.0624  0.2770
 7095SOL    HW132747   2.489   4.292   0.584  3.0237  0.6660  2.8715
 7095SOL    HW232748   2.569   4.196   0.659  0.2914  0.7646 -0.3879
 7096SOL     OW32749   4.465   3.549   9.199  0.1882  0.0638 -0.1679
 7096SOL    HW132750   4.436   3.518   9.285 -0.7197  0.4780 -0.3207
 7096SOL    HW232751   4.525   3.478   9.178  0.9888 -0.3259  3.4417
 7097SOL     OW32752   0.588   2.042   2.151  0.0945 -0.5248  0.1464
 7097SOL    HW132753   0.579   1.958   2.196 -0.2246 -0.6230 -0.0947
 7097SOL    HW232754   0.662   2.018   2.096  0.4247 -3.2813  1.7733
 7098SOL     OW32755   3.456   0.297   5.874  0.7374 -0.1571  0.2005
 7098SOL    HW132756   3.446   0.204   5.854  0.7144  0.0311 -0.6798
 7098SOL    HW232757   3.445   0.331   5.785 -2.6390  0.8311  0.9904
 7099SOL     OW32758   1.893   3.558   5.273  0.2683 -0.6711 -0.4016
 7099SOL    HW132759   1.885   3.503   5.351 -0.7113 -1.6154 -1.1689
 7099SOL    HW232760   1.929   3.642   5.302 -1.9938 -0.3682  1.5348
 7100SOL     OW32761   4.382   4.703   7.803  0.6063  0.1958  0.4137
 7100SOL    HW132762   4.445   0.036   7.848  0.5394  0.9013 -0.3927
 7100SOL    HW232763   4.367   4.638   7.872  0.8302  0.1342  0.4028
 7101SOL     OW32764   0.899   3.783   2.166  0.5819  0.0068  0.2779
 7101SOL    HW132765   0.970   3.839   2.136  1.1017 -1.0883 -0.5605
 7101SOL    HW232766   0.935   3.694   2.166  0.4662 -0.0460  2.0958
 7102SOL     OW32767   1.554   2.072   1.769 -0.2085  0.4641  0.2524
 7102SOL    HW132768   1.521   1.988   1.740 -0.3021  0.2982  0.8400
 7102SOL    HW232769   1.521   2.068   1.859 -1.1860  0.9845 -0.0852
 7103SOL     OW32770   2.065   4.583   4.172  0.0896 -0.1991  0.1602
 7103SOL    HW132771   2.000   4.561   4.105  0.4881 -1.5674  0.2077
 7103SOL    HW232772   2.144   4.535   4.146 -0.9949 -1.2989 -1.1553
 7104SOL     OW32773   2.970   0.884   6.043  0.0945  0.2555 -0.1560
 7104SOL    HW132774   3.030   0.812   6.062 -0.0038  0.5900  1.3897
 7104SOL    HW232775   2.890   0.836   6.062 -0.6911  0.5193 -2.7213
 7105SOL     OW32776   4.542   3.672   8.403 -1.0000 -0.2589 -0.3210
 7105SOL    HW132777   4.607   3.622   8.452  1.0799  1.9225 -0.8123
 7105SOL    HW232778   4.471   3.687   8.465 -1.3520  3.6562 -1.6100
 7106SOL     OW32779   3.829   2.517   2.265 -0.3455 -0.1052 -0.1304
 7106SOL    HW132780   3.922   2.509   2.244 -0.7617 -2.7781 -1.0133
 7106SOL    HW232781   3.798   2.434   2.229  2.4056 -0.6992 -1.1191
 7107SOL     OW32782   0.717   1.923  13.569 -0.1859  0.5336  0.0667
 7107SOL    HW132783   0.756   1.919  13.482  0.1040 -0.7223  0.2592
 7107SOL    HW232784   0.636   1.873  13.556  1.4162 -1.5097 -2.0236
 7108SOL     OW32785   0.454   1.135   8.504  0.1138 -0.1473  0.2324
 7108SOL    HW132786   0.382   1.076   8.486  0.2047 -0.4876  0.9832
 7108SOL    HW232787   0.467   1.174   8.418 -0.1101 -0.2872  0.1351
 7109SOL     OW32788   2.278   0.089  15.410 -0.0289 -0.3669  0.1686
 7109SOL    HW132789   2.219   0.046  15.348 -0.7022 -0.9812  1.2290
 7109SOL    HW232790   2.210   0.123  15.468 -2.4734 -1.8177 -1.8434
 7110SOL     OW32791   1.969   2.229   2.339 -0.0803 -0.5713 -0.2712
 7110SOL    HW132792   1.947   2.139   2.360 -0.6982  0.1572  2.2429
 7110SOL    HW232793   1.974   2.256   2.431 -2.4394 -1.7237  0.1922
 7111SOL     OW32794   0.554   2.689  12.710 -0.1265  0.4887 -0.1970
 7111SOL    HW132795   0.493   2.626  12.749  1.5141  0.8305  2.9740
 7111SOL    HW232796   0.624   2.698  12.775  1.0976 -3.0733 -1.0371
 7112SOL     OW32797   3.430   3.321   2.210  0.2376  0.5804 -0.3490
 7112SOL    HW132798   3.335   3.308   2.202  0.6817 -1.6067 -1.8095
 7112SOL    HW232799   3.432   3.397   2.153 -1.0679  0.2369 -0.8608
 7113SOL     OW32800   1.989   3.372   8.943  0.0850 -0.1412 -0.1604
 7113SOL    HW132801   1.895   3.383   8.957  0.3900  2.1644 -0.0038
 7113SOL    HW232802   2.034   3.456   8.953 -0.0784 -0.4342  2.8560
 7114SOL     OW32803   0.663   1.005   4.426 -0.0172 -0.0273  0.1544
 7114SOL    HW132804   0.648   1.047   4.511  1.1287  1.3098 -0.3230
 7114SOL    HW232805   0.587   1.037   4.378  0.7371 -0.5615 -1.3946
 7115SOL     OW32806   4.518   3.286   8.275  0.3425 -0.2461 -0.1080
 7115SOL    HW132807   4.474   3.348   8.217 -0.8158 -0.7958  0.1848
 7115SOL    HW232808   4.454   3.217   8.290  0.7329 -0.3673  1.0804
 7116SOL     OW32809   4.547   2.695   6.387 -0.0470  0.2130  0.4100
 7116SOL    HW132810   4.592   2.666   6.467 -0.6707 -0.6163  0.4531
 7116SOL    HW232811   4.460   2.655   6.394  0.0153  0.2560  1.5227
 7117SOL     OW32812   2.622   0.152   5.912 -0.4094 -0.3411 -0.2411
 7117SOL    HW132813   2.674   0.105   5.977  0.4037  1.8575  0.6940
 7117SOL    HW232814   2.598   0.227   5.967 -0.5360 -1.0173  0.6147
 7118SOL     OW32815   1.821   1.067   5.689 -0.7217 -0.4527  0.0360
 7118SOL    HW132816   1.772   1.115   5.755 -0.9875 -0.4410 -0.1724
 7118SOL    HW232817   1.858   0.995   5.741 -1.4895  0.2764  1.6067
 7119SOL     OW32818   0.010   3.416  12.151  0.0734 -0.3854 -1.5290
 7119SOL    HW132819   0.104   3.399  12.159 -0.6032 -2.8021  0.8528
 7119SOL    HW232820   0.018   3.454  12.063  0.3926  1.0406 -0.8838
 7120SOL     OW32821   0.061   3.920  10.641  0.1985  0.0420 -0.1662
 7120SOL    HW132822   0.005   3.949  10.714 -1.4897  2.1488 -2.2992
 7120SOL    HW232823   0.033   3.829  10.629  0.4814 -0.4498  2.9364
 7121SOL     OW32824   3.370   1.502   8.232  0.3812  0.0043 -0.2108
 7121SOL    HW132825   3.318   1.421   8.237 -0.3770  0.5009 -0.1033
 7121SOL    HW232826   3.301   1.567   8.241 -1.5456 -2.1195  0.5013
 7122SOL     OW32827   2.389   1.435   6.893  0.2920 -0.3512 -0.0166
 7122SOL    HW132828   2.402   1.529   6.905  1.7346 -0.8845  2.7086
 7122SOL    HW232829   2.441   1.414   6.971 -2.5195 -0.8983  1.7171
 7123SOL     OW32830   2.025   3.610  15.455 -0.2708  0.6632 -0.0960
 7123SOL    HW132831   2.085   3.667  15.408 -0.3424  2.0972  1.5838
 7123SOL    HW232832   1.961   3.674  15.486 -0.0497  0.7160  0.2450
 7124SOL     OW32833   0.793   0.800  13.287  0.4467  0.1794  0.2393
 7124SOL    HW132834   0.760   0.800  13.377  1.3503 -0.5317  0.5696
 7124SOL    HW232835   0.886   0.782  13.301 -0.0263 -2.5755 -0.1937
 7125SOL     OW32836   1.432   0.792   1.001  0.1606  0.4601  0.0785
 7125SOL    HW132837   1.445   0.737   0.924 -0.0635 -1.4062  1.3714
 7125SOL    HW232838   1.510   0.847   0.996  1.5103 -1.1750  3.6004
 7126SOL     OW32839   2.975   2.345   6.383 -0.2353  0.6326 -0.2486
 7126SOL    HW132840   3.069   2.349   6.398 -0.2237 -0.2506 -0.0775
 7126SOL    HW232841   2.962   2.320   6.291 -2.7094  0.3718  0.1778
 7127SOL     OW32842   3.630   2.834   2.732  0.4058 -0.1117 -0.7257
 7127SOL    HW132843   3.719   2.859   2.757 -0.3468  2.6382 -0.7444
 7127SOL    HW232844   3.590   2.892   2.667  0.3284  0.5339 -0.1035
 7128SOL     OW32845   3.954   4.234  10.078 -0.1425 -0.2465  0.7308
 7128SOL    HW132846   3.959   4.246  10.173 -1.8346  0.5678  0.7108
 7128SOL    HW232847   4.025   4.296  10.061 -0.7316  0.5775  1.2775
 7129SOL     OW32848   4.263   1.861   5.176  0.1790  0.0707  0.3845
 7129SOL    HW132849   4.318   1.937   5.156  1.2200 -0.6017  0.6789
 7129SOL    HW232850   4.305   1.815   5.249 -2.6365 -0.8445  1.4410
 7130SOL     OW32851   1.341   2.532  14.839  0.5164 -0.2441  0.3677
 7130SOL    HW132852   1.269   2.513  14.899  1.8893 -2.4102  1.3316
 7130SOL    HW232853   1.314   2.483  14.761 -0.8266 -0.0905  0.7355
 7131SOL     OW32854   0.918   0.040   5.803  0.3341  0.1694 -0.1300
 7131SOL    HW132855   0.951   0.070   5.718  1.1750  0.9985  0.4855
 7131SOL    HW232856   1.002   0.022   5.846  0.1828 -1.4843 -0.5438
 7132SOL     OW32857   1.699   1.925   4.218 -0.0318 -0.2486  0.1132
 7132SOL    HW132858   1.772   1.970   4.174  0.8893 -0.6149  1.2785
 7132SOL    HW232859   1.735   1.894   4.301 -1.5052 -1.3709  0.3207
 7133SOL     OW32860   3.101   3.470   6.871 -0.2988  0.4403  0.2690
 7133SOL    HW132861   3.047   3.407   6.823  0.5461  2.1570 -2.9048
 7133SOL    HW232862   3.189   3.434   6.865 -1.3811 -2.3350  0.9557
 7134SOL     OW32863   1.090   1.218  11.530 -0.4060  0.0998  0.1784
 7134SOL    HW132864   1.087   1.268  11.449 -0.1322  1.3948  0.9570
 7134SOL    HW232865   1.184   1.204  11.546 -0.1166  1.1072 -0.6751
 7135SOL     OW32866   1.026   0.871   3.397  0.0784  0.3155  0.1631
 7135SOL    HW132867   1.053   0.780   3.410  0.8709  0.5710  0.2983
 7135SOL    HW232868   1.041   0.885   3.491  0.2880 -0.5800  0.2636
 7136SOL     OW32869   2.504   4.640   6.327 -0.3685  0.1769  0.3094
 7136SOL    HW132870   2.574   4.603   6.381  0.8972  0.6895 -0.9831
 7136SOL    HW232871   2.548   4.698   6.265  3.6397 -2.2980  0.8220
 7137SOL     OW32872   3.631   3.247  11.500  1.0315  0.6501  0.4127
 7137SOL    HW132873   3.677   3.223  11.580  3.0458 -2.1093 -1.5773
 7137SOL    HW232874   3.709   3.293  11.467 -0.8032  1.1999 -3.0981
 7138SOL     OW32875   2.913   2.855   5.680  0.4965  0.1432  0.2701
 7138SOL    HW132876   2.964   2.824   5.755  0.1602  1.0924  0.9009
 7138SOL    HW232877   2.946   2.798   5.611  1.5804 -0.3847  1.2357
 7139SOL     OW32878   1.817   0.404  13.953 -0.2180  0.4601 -0.1461
 7139SOL    HW132879   1.869   0.403  13.872 -1.3502 -0.8585 -0.8496
 7139SOL    HW232880   1.752   0.471  13.933 -0.2678  0.6842  0.7451
 7140SOL     OW32881   0.697   2.898   7.331 -0.3888  0.4848 -0.1369
 7140SOL    HW132882   0.697   2.812   7.289  0.6338  1.1712 -1.5266
 7140SOL    HW232883   0.616   2.884   7.382 -0.0096 -0.4884  0.1908
 7141SOL     OW32884   4.400   0.656   6.149 -0.0864 -0.2915  0.3201
 7141SOL    HW132885   4.401   0.561   6.147  1.1780 -0.2546 -0.3342
 7141SOL    HW232886   4.466   0.694   6.091 -1.4649  0.7154 -0.5882
 7142SOL     OW32887   1.114   4.553  15.871 -0.5335 -0.1217 -0.2366
 7142SOL    HW132888   1.026   4.552  15.834 -0.3669  1.9371 -0.6792
 7142SOL    HW232889   1.141   4.467  15.840  1.2296 -0.1358  1.3418
 7143SOL     OW32890   1.652   4.352  13.463  0.1743  0.2719 -0.1879
 7143SOL    HW132891   1.576   4.293  13.458 -0.6759  1.3083  0.4579
 7143SOL    HW232892   1.602   4.430  13.437 -0.5893 -0.0633  0.2511
 7144SOL     OW32893   1.031   2.627   6.910 -0.5951  0.1073 -0.0456
 7144SOL    HW132894   0.988   2.546   6.882  1.1657 -0.7032 -0.4241
 7144SOL    HW232895   0.972   2.682   6.961 -0.3285 -0.5044  0.9192
 7145SOL     OW32896   0.884   3.430   0.001  0.1109  0.1914  0.0265
 7145SOL    HW132897   0.867   3.377  17.621  0.0070 -1.0709  0.9109
 7145SOL    HW232898   0.980   3.431   0.009  0.0193 -1.5261  1.5843
 7146SOL     OW32899   0.007   0.377  13.583  0.3276 -0.8987 -0.2538
 7146SOL    HW132900   0.065   0.445  13.548  2.2947 -1.7145  1.3848
 7146SOL    HW232901   0.053   0.347  13.662 -2.3510 -0.0435  1.6256
 7147SOL     OW32902   2.135   4.395   0.687  0.1556  0.3688  0.1111
 7147SOL    HW132903   2.212   4.393   0.744  2.0511 -0.0144 -2.4291
 7147SOL    HW232904   2.077   4.416   0.760 -0.3870 -4.5759  1.1114
 7148SOL     OW32905   4.638   0.044   1.773  0.1108 -0.1424 -0.2549
 7148SOL    HW132906   4.714   0.103   1.777  0.0700  0.1184 -3.6493
 7148SOL    HW232907   4.662   4.716   1.697  0.8738 -2.3936  1.5146
 7149SOL     OW32908   3.617   3.026   3.677  0.3202  0.5396 -0.2608
 7149SOL    HW132909   3.651   3.110   3.646  1.2683 -0.1439 -1.0580
 7149SOL    HW232910   3.696   2.972   3.672 -0.6564 -0.9488  0.3134
 7150SOL     OW32911   3.661   3.008   1.353 -0.2357 -1.3891  0.2678
 7150SOL    HW132912   3.594   3.067   1.320 -0.5660 -2.1863 -0.4746
 7150SOL    HW232913   3.637   2.982   1.442 -0.6664 -1.6682  0.0699
 7151SOL     OW32914   3.924   0.080  14.019  0.7035 -0.4180  0.2230
 7151SOL    HW132915   3.841   0.126  14.031  0.1436 -1.4768  0.5029
 7151SOL    HW232916   3.900   4.712  14.002 -1.3750  0.3944 -1.2194
 7152SOL     OW32917   4.666   4.500   4.752  0.0187  0.2860  0.8683
 7152SOL    HW132918   4.646   4.571   4.814 -1.5469 -0.9329  1.7891
 7152SOL    HW232919   0.024   4.527   4.711 -0.3097 -1.5809 -1.0015
 7153SOL     OW32920   2.819   4.361   7.710  0.1351 -0.6664  0.8100
 7153SOL    HW132921   2.888   4.361   7.777  0.7495 -0.6903  0.1773
 7153SOL    HW232922   2.745   4.358   7.771 -1.3560 -1.8090 -1.0709
 7154SOL     OW32923   0.479   0.512   2.422  0.3279 -0.6974  0.3249
 7154SOL    HW132924   0.542   0.545   2.358 -0.5378  2.0551  0.9036
 7154SOL    HW232925   0.415   0.583   2.426  1.5896  0.4153  0.6425
 7155SOL     OW32926   4.176   4.098   5.963  0.3777  0.5823 -0.1258
 7155SOL    HW132927   4.139   4.036   6.027 -0.1762  0.2135 -0.8090
 7155SOL    HW232928   4.108   4.103   5.896  1.3588 -1.0638 -1.2553
 7156SOL     OW32929   0.391   3.532   0.993  0.6047  0.6289  0.1457
 7156SOL    HW132930   0.354   3.607   1.041 -2.7080 -2.1402  1.9011
 7156SOL    HW232931   0.434   3.488   1.065 -1.3514  0.7390  1.3951
 7157SOL     OW32932   1.620   2.796  13.814 -0.6754  0.1262  0.2085
 7157SOL    HW132933   1.537   2.751  13.805 -0.3415 -0.2742 -0.8465
 7157SOL    HW232934   1.673   2.731  13.860 -1.8274 -0.0796  1.2480
 7158SOL     OW32935   2.803   0.427   2.046  0.1987 -0.3330  0.6061
 7158SOL    HW132936   2.816   0.460   1.957 -0.0863  0.9729  1.0461
 7158SOL    HW232937   2.724   0.376   2.030 -0.9449  1.2634  1.1896
 7159SOL     OW32938   2.330   0.271  15.177  0.0522  0.3558 -0.4658
 7159SOL    HW132939   2.361   0.202  15.236  0.8189 -0.1002 -1.3994
 7159SOL    HW232940   2.344   0.352  15.225 -0.9829 -0.0200  0.4796
 7160SOL     OW32941   3.282   3.074   1.786  0.3880 -0.1266  0.0993
 7160SOL    HW132942   3.309   3.006   1.725  0.2841  1.1831 -1.3985
 7160SOL    HW232943   3.205   3.039   1.831  0.3490 -1.8416 -1.3169
 7161SOL     OW32944   3.935   1.093  10.234  0.0586  0.1419 -0.3139
 7161SOL    HW132945   3.904   1.184  10.233 -0.0417  0.0890 -1.9951
 7161SOL    HW232946   3.994   1.091  10.310  1.5321 -0.5480 -1.4743
 7162SOL     OW32947   1.063   2.773  14.850 -0.6340  0.0859 -0.2736
 7162SOL    HW132948   1.117   2.759  14.772  1.6971 -1.2538  1.5653
 7162SOL    HW232949   0.972   2.771  14.823 -0.2673 -0.0339 -1.5392
 7163SOL     OW32950   3.361   3.088   7.606 -0.1998 -0.3996  0.6970
 7163SOL    HW132951   3.425   3.019   7.622  2.8571  2.0350 -1.0071
 7163SOL    HW232952   3.285   3.061   7.657 -0.4578 -0.4394  0.2961
 7164SOL     OW32953   0.728   3.055   4.302  0.0764  0.0083 -0.1876
 7164SOL    HW132954   0.734   3.131   4.244  1.7674 -0.5575 -0.7435
 7164SOL    HW232955   0.711   2.984   4.240  2.1875  0.2941 -1.0952
 7165SOL     OW32956   2.686   2.461  13.963 -0.2153 -0.5508 -0.1776
 7165SOL    HW132957   2.679   2.545  13.918  0.3356 -2.3790 -3.6917
 7165SOL    HW232958   2.619   2.408  13.921 -0.9841 -0.4461  0.9180
 7166SOL     OW32959   4.384   4.008   4.782 -0.0901  0.3019  0.3241
 7166SOL    HW132960   4.391   3.970   4.695 -2.6490  1.2115 -0.3065
 7166SOL    HW232961   4.336   3.941   4.832 -1.5294  3.4530  3.1985
 7167SOL     OW32962   4.709   2.914   6.677 -0.1601  0.4149 -0.1420
 7167SOL    HW132963   0.068   2.958   6.658 -0.0960  0.0620 -0.6737
 7167SOL    HW232964   4.714   2.909   6.772  2.9959  1.4336 -0.2400
 7168SOL     OW32965   3.434   1.990   9.073  0.3076  0.0540 -0.3583
 7168SOL    HW132966   3.515   1.946   9.098 -0.6543 -0.8937  1.1636
 7168SOL    HW232967   3.465   2.042   8.999 -3.3466  2.1082 -0.4685
 7169SOL     OW32968   3.487   2.983   6.074  0.3956 -0.0328 -0.3076
 7169SOL    HW132969   3.501   3.077   6.071 -0.1617  0.0815  0.6378
 7169SOL    HW232970   3.426   2.973   6.001  0.9945  0.7760 -0.9082
 7170SOL     OW32971   2.507   4.007   0.949 -0.0631  0.5199  0.4044
 7170SOL    HW132972   2.544   3.929   0.908 -0.5716  0.5172 -0.0414
 7170SOL    HW232973   2.582   4.058   0.918 -0.6615 -0.4832 -2.6125
 7171SOL     OW32974   0.214   4.359   8.591  0.2762  0.4158 -0.3386
 7171SOL    HW132975   0.131   4.396   8.620  0.7933  0.2012  1.4279
 7171SOL    HW232976   0.180   4.278   8.553 -2.5797 -1.0627  5.4230
 7172SOL     OW32977   1.609   1.933  13.848  0.1892  0.6479  0.5890
 7172SOL    HW132978   1.611   1.838  13.845 -1.9632  0.5926  1.4323
 7172SOL    HW232979   1.524   1.944  13.807 -0.6146  0.2693  2.1491
 7173SOL     OW32980   2.650   0.274   7.677 -0.5619  0.0979 -0.5545
 7173SOL    HW132981   2.603   0.348   7.637 -0.1973  1.3791  1.4243
 7173SOL    HW232982   2.617   0.204   7.620  1.8435 -1.1934 -0.3623
 7174SOL     OW32983   4.022   1.309  14.158  0.0293  0.1602  0.5156
 7174SOL    HW132984   4.021   1.358  14.241 -0.7249  0.9905  0.0107
 7174SOL    HW232985   4.034   1.370  14.085 -3.0082  0.2077  0.0719
 7175SOL     OW32986   1.352   3.723  12.942  0.1555 -0.1243  0.1233
 7175SOL    HW132987   1.398   3.804  12.965 -1.0411  1.2209 -2.2562
 7175SOL    HW232988   1.420   3.678  12.891 -1.3772 -1.1780 -0.9844
 7176SOL     OW32989   0.220   3.313  16.768 -0.5739 -0.3756  0.1094
 7176SOL    HW132990   0.248   3.232  16.810 -0.2975  0.7109  1.9910
 7176SOL    HW232991   0.294   3.370  16.746  1.9855 -3.4332  0.8972
 7177SOL     OW32992   4.060   3.380   3.998  0.1600 -0.0698  0.2626
 7177SOL    HW132993   4.031   3.307   4.051 -0.2650 -0.9884 -1.2329
 7177SOL    HW232994   3.989   3.441   4.015  1.3033  0.9312  1.4946
 7178SOL     OW32995   1.295   2.335  13.836 -0.3919  0.7010  0.0262
 7178SOL    HW132996   1.233   2.310  13.767 -0.0644  2.1164 -0.7677
 7178SOL    HW232997   1.343   2.407  13.796 -1.0875 -0.2383 -2.4880
 7179SOL     OW32998   2.753   1.498  17.634 -0.2869 -0.1863  0.4586
 7179SOL    HW132999   2.754   1.475   0.029  0.2461  0.1115  0.5273
 7179SOL    HW233000   2.789   1.586  17.645 -0.0940 -0.2674  0.4823
 7180SOL     OW33001   4.109   3.336   1.317 -0.5273 -0.2728  0.5379
 7180SOL    HW133002   4.106   3.396   1.391  0.5458  1.5201 -0.8736
 7180SOL    HW233003   4.027   3.358   1.273 -2.0095 -0.2120  3.3606
 7181SOL     OW33004   2.494   3.871  12.778  0.7233  0.0937  0.2900
 7181SOL    HW133005   2.542   3.831  12.851 -1.5087 -1.4227  0.9238
 7181SOL    HW233006   2.530   3.959  12.791 -0.7900  0.8061 -0.4046
 7182SOL     OW33007   0.394   2.440   8.441  0.6991 -0.0915  0.4126
 7182SOL    HW133008   0.490   2.442   8.450  0.7604  0.6238 -0.3412
 7182SOL    HW233009   0.358   2.499   8.507  1.3621  2.0854 -1.1597
 7183SOL     OW33010   2.472   2.238   8.641 -0.1705 -0.4907 -0.3499
 7183SOL    HW133011   2.460   2.304   8.710 -0.2571 -0.7425 -0.1205
 7183SOL    HW233012   2.495   2.162   8.694 -0.1458 -0.1353  0.1521
 7184SOL     OW33013   4.626   2.699   2.349  0.0792  0.5661 -0.1054
 7184SOL    HW133014   4.675   2.637   2.403  0.7782  0.1207 -1.2556
 7184SOL    HW233015   4.592   2.635   2.286 -0.0276  1.2064 -0.6988
 7185SOL     OW33016   3.000   3.444   6.253 -0.3055  0.1510  0.4666
 7185SOL    HW133017   2.959   3.433   6.167  0.2612  1.3541  0.0484
 7185SOL    HW233018   2.934   3.495   6.300 -0.4103 -0.8453  1.4055
 7186SOL     OW33019   2.659   1.515   6.718  0.0458 -0.5057  0.0187
 7186SOL    HW133020   2.629   1.591   6.769  0.3285 -0.6984  0.4766
 7186SOL    HW233021   2.686   1.560   6.639  0.0244 -0.6395 -0.0639
 7187SOL     OW33022   3.063   0.507   6.748  0.0339  0.5629 -0.4867
 7187SOL    HW133023   3.139   0.512   6.806 -1.0163 -0.2305  0.9513
 7187SOL    HW233024   3.084   0.424   6.706  1.6089  0.3890  0.6470
 7188SOL     OW33025   1.699   1.421   3.763 -0.2851 -0.0175  0.3292
 7188SOL    HW133026   1.612   1.449   3.794  0.4607 -1.3083  3.6467
 7188SOL    HW233027   1.752   1.497   3.787 -0.6068  1.3110 -3.2616
 7189SOL     OW33028   3.540   1.491   7.019  0.5089 -0.5249  0.2555
 7189SOL    HW133029   3.448   1.508   7.040  0.1446 -0.0551 -1.7228
 7189SOL    HW233030   3.575   1.502   7.107 -0.5928 -1.9301  0.8705
 7190SOL     OW33031   2.280   0.131   2.818 -0.0900 -0.1391 -0.0771
 7190SOL    HW133032   2.332   0.051   2.817  0.2866  0.0947  0.5941
 7190SOL    HW233033   2.334   0.190   2.764  0.9579 -0.6435  0.4176
 7191SOL     OW33034   2.280   3.475   1.788 -0.5228  0.0097 -0.0411
 7191SOL    HW133035   2.324   3.432   1.715 -0.7370  0.2947 -0.3367
 7191SOL    HW233036   2.347   3.534   1.823  0.2431 -1.1895  0.4896
 7192SOL     OW33037   3.907   0.259   3.646 -0.3447  0.0358  0.1865
 7192SOL    HW133038   3.850   0.262   3.569  1.3685  0.9889 -1.0661
 7192SOL    HW233039   3.948   0.346   3.638 -3.3033  1.5035  0.8873
 7193SOL     OW33040   3.654   4.334   6.564 -0.0301  0.0867 -0.6531
 7193SOL    HW133041   3.688   4.419   6.537 -0.4074  0.8412  1.2319
 7193SOL    HW233042   3.584   4.360   6.624 -0.2148  3.0244 -2.1350
 7194SOL     OW33043   0.231   3.041  10.077  0.2802  0.5652 -0.3779
 7194SOL    HW133044   0.143   3.009  10.053  0.9277 -1.1156 -0.4865
 7194SOL    HW233045   0.249   3.108  10.010  1.7197 -0.9320 -1.4798
 7195SOL     OW33046   0.564   2.036   0.796 -0.0199  0.0180 -0.0107
 7195SOL    HW133047   0.540   2.126   0.819 -0.5626 -0.9818  3.3465
 7195SOL    HW233048   0.512   1.980   0.852 -0.4076  0.6638  0.2713
 7196SOL     OW33049   0.921   4.298   4.673  0.7262  0.5028  0.5367
 7196SOL    HW133050   0.952   4.374   4.723 -1.9475  1.5108  0.6181
 7196SOL    HW233051   1.010   4.274   4.646  0.6845  1.2625 -0.2877
 7197SOL     OW33052   2.254   2.893   1.179  0.1864  0.0082  0.1915
 7197SOL    HW133053   2.164   2.923   1.188  0.2694  0.0719  0.7964
 7197SOL    HW233054   2.297   2.965   1.132  1.5062 -1.0048 -0.1627
 7198SOL     OW33055   4.504   0.173   1.995 -0.1031  0.5115 -0.3296
 7198SOL    HW133056   4.419   0.165   1.953 -0.2606 -0.6126  0.2045
 7198SOL    HW233057   4.562   0.134   1.930  0.3914 -0.1524  0.5057
 7199SOL     OW33058   3.180   0.162   8.800 -0.0382 -0.2570  0.0718
 7199SOL    HW133059   3.273   0.140   8.796  0.4838  2.2221 -1.1977
 7199SOL    HW233060   3.175   0.157   8.895  1.8238 -0.3237  0.1608
 7200SOL     OW33061   3.392   0.018  15.027 -0.2077  0.4159 -0.9449
 7200SOL    HW133062   3.348   0.044  14.945 -1.8263 -2.1658 -0.8779
 7200SOL    HW233063   3.395   0.105  15.068 -1.7307  0.2136 -0.4173
 7201SOL     OW33064   2.838   3.405   4.906 -0.0155 -0.3956 -0.1153
 7201SOL    HW133065   2.867   3.405   4.815  0.2850  0.2438 -0.0146
 7201SOL    HW233066   2.889   3.331   4.938 -0.0008 -0.3010  0.0781
 7202SOL     OW33067   4.580   1.562  15.466 -0.1328 -0.3169  0.1396
 7202SOL    HW133068   4.547   1.651  15.462 -0.3862 -0.3836  0.8682
 7202SOL    HW233069   4.539   1.529  15.546 -2.0682 -0.0509 -0.7530
 7203SOL     OW33070   2.779   0.594   2.789  0.3353 -0.3049  0.0131
 7203SOL    HW133071   2.711   0.534   2.820  1.7042 -0.9818  1.6810
 7203SOL    HW233072   2.744   0.617   2.703  2.8176  0.4598 -0.7821
 7204SOL     OW33073   4.111   0.998  12.693 -0.0443 -0.3520 -0.2710
 7204SOL    HW133074   4.188   1.038  12.653  0.6568 -1.9858 -0.5645
 7204SOL    HW233075   4.159   0.930  12.741 -0.7589 -0.9050 -0.3307
 7205SOL     OW33076   1.748   1.958   2.245 -0.4137  0.1279 -0.0169
 7205SOL    HW133077   1.783   1.984   2.330  0.6555  1.3396 -0.8252
 7205SOL    HW233078   1.654   1.971   2.261 -0.0273  2.8723 -0.0132
 7206SOL     OW33079   2.907   0.760   2.965 -0.4980 -0.7820 -0.2026
 7206SOL    HW133080   2.853   0.726   2.894 -0.8051 -1.4799  0.3604
 7206SOL    HW233081   2.855   0.840   2.972  0.5611 -0.0385 -0.8235
 7207SOL     OW33082   0.466   1.261   8.278  0.3112  0.6173 -0.2366
 7207SOL    HW133083   0.437   1.262   8.187 -1.6142 -0.6657  0.3526
 7207SOL    HW233084   0.433   1.347   8.305 -2.5110 -0.5124 -0.0113
 7208SOL     OW33085   4.096   0.195   6.048  0.3398 -0.0347 -0.0682
 7208SOL    HW133086   4.044   0.256   5.997 -1.3151 -0.1593  1.4623
 7208SOL    HW233087   4.181   0.219   6.012  0.9950  0.3513  1.7385
 7209SOL     OW33088   3.733   0.701   2.823 -0.0354  0.5329  0.5793
 7209SOL    HW133089   3.707   0.608   2.821  2.0929 -0.0319 -0.9687
 7209SOL    HW233090   3.703   0.721   2.912  0.4096 -2.0899  1.3432
 7210SOL     OW33091   4.287   2.377   1.990 -0.0048 -0.6236  0.0839
 7210SOL    HW133092   4.356   2.440   2.010  0.6026 -1.5616  0.9311
 7210SOL    HW233093   4.329   2.326   1.920 -1.4111 -1.1713 -0.3645
 7211SOL     OW33094   1.065   3.712   1.068  0.0529  0.0421 -0.8977
 7211SOL    HW133095   0.987   3.749   1.025 -1.4468  0.0792  1.8259
 7211SOL    HW233096   1.105   3.678   0.988  0.4013 -1.1343 -0.2113
 7212SOL     OW33097   1.462   1.318   0.163 -0.0102 -0.6892  0.3254
 7212SOL    HW133098   1.487   1.379   0.232 -2.5095 -0.1012  0.6820
 7212SOL    HW233099   1.375   1.353   0.147  0.0586  0.3990  2.4000
 7213SOL     OW33100   3.282   2.560   3.752  0.0605 -0.5317 -0.4808
 7213SOL    HW133101   3.309   2.530   3.665  0.9166 -0.3506 -0.2716
 7213SOL    HW233102   3.209   2.620   3.736 -1.0292 -1.2349  1.8878
 7214SOL     OW33103   0.737   3.139   1.543 -0.3476  0.1589  0.2794
 7214SOL    HW133104   0.745   3.230   1.569  1.9460  0.6089 -2.0354
 7214SOL    HW233105   0.779   3.141   1.457  2.0285 -0.3662  1.4300
 7215SOL     OW33106   1.540   1.827   5.901  0.7296 -0.3739  0.3055
 7215SOL    HW133107   1.471   1.861   5.844  0.9970  2.4154  1.6399
 7215SOL    HW233108   1.503   1.859   5.984  1.0489  0.3764  0.1533
 7216SOL     OW33109   4.008   0.280   8.528 -0.0857 -0.4868  0.2679
 7216SOL    HW133110   3.927   0.285   8.477 -0.3873 -3.3754  0.4916
 7216SOL    HW233111   3.979   0.213   8.589  1.5755 -0.6911  0.8463
 7217SOL     OW33112   4.431   3.091   5.138  0.2923 -0.1741  0.0825
 7217SOL    HW133113   4.349   3.140   5.131  0.1465 -0.1784  1.6412
 7217SOL    HW233114   4.422   3.038   5.217  0.4420 -0.1251  0.1333
 7218SOL     OW33115   0.670   0.711   7.367 -0.5010  0.0728  0.0607
 7218SOL    HW133116   0.683   0.644   7.433  0.1452 -0.9806 -1.1239
 7218SOL    HW233117   0.741   0.772   7.390 -1.9604  1.0216  2.0178
 7219SOL     OW33118   0.173   0.997   6.528  0.3504 -0.2982 -0.5768
 7219SOL    HW133119   0.138   1.002   6.439 -1.9944 -1.0342  0.2939
 7219SOL    HW233120   0.097   0.962   6.574 -0.0396  0.6674 -0.4824
 7220SOL     OW33121   2.683   3.406  16.230  0.4425  0.1832 -0.4341
 7220SOL    HW133122   2.766   3.415  16.277 -0.3714  1.6671  0.7020
 7220SOL    HW233123   2.664   3.489  16.187  1.8302  1.1638  0.8511
 7221SOL     OW33124   0.286   4.211   3.107  0.0371  0.1654 -0.0003
 7221SOL    HW133125   0.286   4.278   3.039  0.9831  1.6452  1.4867
 7221SOL    HW233126   0.219   4.252   3.162 -0.6794  0.1775 -0.8730
 7222SOL     OW33127   1.922   3.646   7.686 -0.8729  0.2926 -0.0206
 7222SOL    HW133128   1.931   3.733   7.647  0.8223 -1.4321 -3.4426
 7222SOL    HW233129   1.829   3.628   7.700 -0.7780  0.2404  0.5524
 7223SOL     OW33130   4.334   3.995   0.787 -0.6087 -0.8029  0.1944
 7223SOL    HW133131   4.307   4.065   0.846 -0.0020 -0.1791 -0.2587
 7223SOL    HW233132   4.267   3.932   0.813  0.8801 -2.0864  0.9695
 7224SOL     OW33133   0.344   3.045   1.475 -0.2509  0.4169  0.0793
 7224SOL    HW133134   0.269   3.103   1.465  0.0622  0.5568 -1.4989
 7224SOL    HW233135   0.376   3.032   1.386 -1.4226  1.6635 -0.5139
 7225SOL     OW33136   0.526   0.943  12.070 -0.0204  0.7509 -0.0083
 7225SOL    HW133137   0.560   0.898  12.147  2.0998  0.5879 -1.0270
 7225SOL    HW233138   0.610   0.976  12.038 -1.1799  2.4343 -1.3468
 7226SOL     OW33139   0.107   1.970   2.397  0.4169  0.4909 -0.1832
 7226SOL    HW133140   0.022   1.947   2.359  0.5390  1.7873 -1.2661
 7226SOL    HW233141   0.168   1.953   2.325  2.1300 -0.7976  1.5955
 7227SOL     OW33142   1.608   2.924  15.645 -0.4199  0.1776  0.3385
 7227SOL    HW133143   1.635   2.862  15.713 -0.7063  0.8499  1.0582
 7227SOL    HW233144   1.568   2.860  15.585  1.7628  0.3506 -1.2906
 7228SOL     OW33145   1.056   1.831   3.007  0.5151  0.1683 -0.0132
 7228SOL    HW133146   1.012   1.759   3.052  0.0979  0.4306  0.0003
 7228SOL    HW233147   1.084   1.791   2.925 -1.0580 -0.4796 -0.2263
 7229SOL     OW33148   1.255   4.337  10.242 -0.1056  0.4039 -0.6801
 7229SOL    HW133149   1.331   4.295  10.282 -0.7969  1.4887  1.7605
 7229SOL    HW233150   1.248   4.418  10.293  0.1463  0.7144 -1.1442
 7230SOL     OW33151   1.745   3.057   7.395  0.3023 -0.1386  0.4084
 7230SOL    HW133152   1.660   3.028   7.426 -0.6362 -0.3363 -2.3740
 7230SOL    HW233153   1.790   2.973   7.394 -0.8615 -0.7587  0.6101
 7231SOL     OW33154   3.852   3.845   6.264  0.2648  0.1287  0.7782
 7231SOL    HW133155   3.817   3.757   6.257 -2.7764  1.4484 -0.6535
 7231SOL    HW233156   3.773   3.887   6.231  1.8119  1.2239 -1.5907
 7232SOL     OW33157   4.154   1.355  12.796 -0.7681  0.2632  0.4812
 7232SOL    HW133158   4.224   1.291  12.811 -1.7535 -0.9826 -0.1834
 7232SOL    HW233159   4.207   1.434  12.790 -0.2177 -0.3118 -2.4468
 7233SOL     OW33160   2.295   0.072   4.485  0.2019  0.3356  0.3822
 7233SOL    HW133161   2.366   0.032   4.434 -0.9817  1.3424 -2.0619
 7233SOL    HW233162   2.220   0.013   4.471  1.0929 -0.5376 -0.7270
 7234SOL     OW33163   3.201   2.563   4.791  0.1569  0.4182 -0.0779
 7234SOL    HW133164   3.136   2.630   4.772 -1.4148 -0.6621  1.4584
 7234SOL    HW233165   3.145   2.502   4.840 -1.3618  2.1527  0.3269
 7235SOL     OW33166   3.103   4.107  11.596 -0.6206  0.4563  0.6635
 7235SOL    HW133167   3.133   4.021  11.625 -1.9205  0.0961  0.9493
 7235SOL    HW233168   3.170   4.129  11.530  0.3375 -3.0202  0.5028
 7236SOL     OW33169   1.507   1.707  10.544  0.5669  0.0449 -0.6263
 7236SOL    HW133170   1.549   1.749  10.619  1.1296 -0.7297 -0.5077
 7236SOL    HW233171   1.489   1.780  10.486 -1.2225 -0.2453 -0.4289
 7237SOL     OW33172   2.048   2.659  16.962 -0.3253 -0.2863 -0.3588
 7237SOL    HW133173   2.089   2.736  17.003 -0.9873  0.7358 -1.6116
 7237SOL    HW233174   2.016   2.692  16.878 -2.0106 -1.2585 -0.1054
 7238SOL     OW33175   1.212   3.175  14.353  0.3350 -0.0787  0.0973
 7238SOL    HW133176   1.184   3.214  14.270  0.8497  0.2311  0.0687
 7238SOL    HW233177   1.305   3.173  14.333  0.4692 -1.5968  0.8377
 7239SOL     OW33178   2.413   2.212   9.700 -0.2991 -0.2411 -0.4881
 7239SOL    HW133179   2.379   2.253   9.780 -0.2398  0.5484 -0.8726
 7239SOL    HW233180   2.374   2.124   9.708 -3.0402  1.0119  0.0190
 7240SOL     OW33181   2.293   3.134   8.674  0.2093  0.1589  0.5331
 7240SOL    HW133182   2.203   3.144   8.641 -0.3521 -0.8412  1.7685
 7240SOL    HW233183   2.273   3.155   8.765 -0.8459  0.3085  0.2743
 7241SOL     OW33184   0.214   2.586   1.748  0.3428  0.1662 -0.1867
 7241SOL    HW133185   0.221   2.658   1.685  5.5723  0.7776  1.1638
 7241SOL    HW233186   0.119   2.578   1.739  0.5157 -3.0642  0.8858
 7242SOL     OW33187   0.601   2.724  17.648  0.8087 -0.1895  0.0965
 7242SOL    HW133188   0.681   2.708  17.599  0.7227 -0.4999  0.0599
 7242SOL    HW233189   0.537   2.704  17.581  0.4668  0.3200  0.2737
 7243SOL     OW33190   2.772   2.193   2.705 -0.3534  0.4138 -0.4344
 7243SOL    HW133191   2.841   2.228   2.649 -0.3480  0.9992 -0.0695
 7243SOL    HW233192   2.705   2.202   2.637  0.2673 -0.6441 -1.1800
 7244SOL     OW33193   3.852   0.570   9.268 -0.1304 -0.5170 -0.2455
 7244SOL    HW133194   3.829   0.533   9.354  1.7823 -1.2429 -0.0458
 7244SOL    HW233195   3.891   0.485   9.246  2.2258  0.2384  1.0252
 7245SOL     OW33196   1.243   3.771   1.278  0.1928 -0.4720  0.1912
 7245SOL    HW133197   1.209   3.732   1.198  2.0040  0.4399 -1.0012
 7245SOL    HW233198   1.305   3.839   1.251 -1.3210  0.8922  0.1415
 7246SOL     OW33199   2.239   0.391   9.988  0.7722  0.5366  0.1498
 7246SOL    HW133200   2.298   0.384  10.063  2.1476  0.1058 -0.9841
 7246SOL    HW233201   2.294   0.399   9.911  1.4838 -0.6025  0.5514
 7247SOL     OW33202   1.582   1.668   3.174  0.0960  0.6662 -0.3198
 7247SOL    HW133203   1.579   1.733   3.104 -1.5823  0.1030 -0.7650
 7247SOL    HW233204   1.652   1.707   3.227  0.8224  1.2222 -1.6588
 7248SOL     OW33205   4.087   2.966   7.644  0.2222  0.2209  0.0285
 7248SOL    HW133206   4.129   3.039   7.689 -0.1189  1.3487 -1.4731
 7248SOL    HW233207   4.003   3.006   7.618  1.4117  1.6835 -1.5520
 7249SOL     OW33208   3.100   4.328   6.872 -0.0364  0.0656 -0.3245
 7249SOL    HW133209   3.101   4.329   6.968  2.0814  1.1837 -0.3408
 7249SOL    HW233210   3.087   4.236   6.850 -0.6752 -0.7583  3.4489
 7250SOL     OW33211   3.468   2.881   2.478 -0.3022 -0.1823 -0.2377
 7250SOL    HW133212   3.505   2.931   2.406  0.4075 -0.6316 -0.1832
 7250SOL    HW233213   3.518   2.800   2.465  0.0503 -0.0408  0.2595
 7251SOL     OW33214   0.628   4.669  10.140 -0.5304 -0.2353 -0.0215
 7251SOL    HW133215   0.705   0.000  10.127 -2.3781  2.5358  0.8112
 7251SOL    HW233216   0.566   0.013  10.165 -1.3039 -1.3375  1.0800
 7252SOL     OW33217   3.494   1.252   6.851 -0.1545 -0.0614  0.4534
 7252SOL    HW133218   3.516   1.318   6.916 -1.4346 -1.4853  2.3437
 7252SOL    HW233219   3.404   1.278   6.833 -0.9758 -0.6406  3.7438
 7253SOL     OW33220   4.710   2.851   9.193  0.3576 -0.7044  0.1950
 7253SOL    HW133221   4.665   2.767   9.191  0.5246 -0.8132  1.0650
 7253SOL    HW233222   0.035   2.848   9.275  0.8986 -0.8022 -0.1309
 7254SOL     OW33223   1.249   4.596   7.809  0.3539 -0.4099 -0.1369
 7254SOL    HW133224   1.238   4.624   7.719 -0.2750 -2.4218 -0.6870
 7254SOL    HW233225   1.157   4.586   7.836  0.2722 -0.2011 -0.3436
 7255SOL     OW33226   1.481   4.657   6.765  0.7558  0.9367  0.0074
 7255SOL    HW133227   1.396   4.701   6.762 -1.2761 -2.9499  0.5403
 7255SOL    HW233228   1.540   0.003   6.739  1.5173 -0.3930 -1.8622
 7256SOL     OW33229   0.555   2.638   2.937 -0.0581 -0.0030 -0.1448
 7256SOL    HW133230   0.607   2.690   2.876 -0.6087 -0.1064 -0.7045
 7256SOL    HW233231   0.474   2.631   2.887  0.5135  0.0193 -1.1003
 7257SOL     OW33232   4.189   1.252   0.945 -0.0089  0.2561 -0.4597
 7257SOL    HW133233   4.260   1.288   0.891  0.7511  2.7352  2.2235
 7257SOL    HW233234   4.187   1.157   0.934 -4.4868  0.1447  1.2292
 7258SOL     OW33235   2.730   2.400   7.188  0.1477 -0.4492 -0.1693
 7258SOL    HW133236   2.727   2.380   7.282 -1.1495 -0.6171 -0.2510
 7258SOL    HW233237   2.816   2.368   7.161 -0.2062  1.0880 -3.1133
 7259SOL     OW33238   2.670   0.306   4.364 -0.4151  0.3122 -0.3972
 7259SOL    HW133239   2.673   0.340   4.275 -1.0662  0.0470 -0.5199
 7259SOL    HW233240   2.749   0.252   4.370 -1.7778 -1.8995 -2.2282
 7260SOL     OW33241   4.563   0.204   0.098 -1.0701  0.4102  0.5383
 7260SOL    HW133242   4.561   0.146   0.021  1.1700 -0.0027  0.7893
 7260SOL    HW233243   4.646   0.183   0.141  0.5546  2.7291 -1.4550
 7261SOL     OW33244   3.479   4.292  12.113 -0.0345 -0.3667 -0.1073
 7261SOL    HW133245   3.503   4.373  12.158  0.9194 -0.8873  0.3104
 7261SOL    HW233246   3.555   4.237  12.130  0.2085 -0.5127 -1.6501
 7262SOL     OW33247   2.716   4.218   6.816  0.6984 -0.6154  0.6728
 7262SOL    HW133248   2.679   4.130   6.807  1.6207 -0.8352 -1.0666
 7262SOL    HW233249   2.772   4.209   6.739 -0.3217  1.4029 -0.3001
 7263SOL     OW33250   1.986   3.003   2.661 -0.3446  0.2768 -0.2118
 7263SOL    HW133251   2.059   3.058   2.633  1.0844 -0.5504  1.8712
 7263SOL    HW233252   2.018   2.959   2.739  0.4989  0.3686 -0.5068
 7264SOL     OW33253   3.099   0.183  12.279 -0.2692  0.5494 -0.5227
 7264SOL    HW133254   3.093   0.234  12.360 -1.2794 -0.3754 -0.0176
 7264SOL    HW233255   3.052   0.103  12.303  0.4241  0.1059 -0.6597
 7265SOL     OW33256   4.312   1.740   1.031  0.2273  0.4187 -0.5204
 7265SOL    HW133257   4.255   1.722   0.956 -0.2612  3.0420 -0.7570
 7265SOL    HW233258   4.265   1.798   1.091 -0.3517  0.0769 -0.6469
 7266SOL     OW33259   3.863   3.962   6.700  0.1455 -0.6893 -0.8031
 7266SOL    HW133260   3.768   3.973   6.690 -0.1836 -1.2865  1.4986
 7266SOL    HW233261   3.880   4.055   6.686  1.5643 -0.7601  0.4849
 7267SOL     OW33262   4.558   3.838   0.600  0.1206  0.0605  0.6007
 7267SOL    HW133263   4.485   3.899   0.611  0.1681  0.1013  0.6845
 7267SOL    HW233264   4.621   3.884   0.544 -2.9390  1.3884 -1.8312
 7268SOL     OW33265   1.130   2.927   5.044  0.6156 -0.9178  0.1358
 7268SOL    HW133266   1.164   3.014   5.026 -0.4045 -0.8680 -1.5988
 7268SOL    HW233267   1.035   2.930   5.030  0.5252 -0.9571  0.7155
 7269SOL     OW33268   2.211   0.254  10.517  0.0217 -0.4873 -0.2998
 7269SOL    HW133269   2.257   0.231  10.597 -1.5491 -1.4630  0.3216
 7269SOL    HW233270   2.277   0.232  10.451  2.0309 -0.8296  1.8608
 7270SOL     OW33271   3.390   2.847   6.283  0.0785 -0.4049 -0.2695
 7270SOL    HW133272   3.424   2.873   6.197 -2.5910  4.0598 -0.0190
 7270SOL    HW233273   3.327   2.912   6.313  0.2689  0.1903 -1.1619
 7271SOL     OW33274   1.494   0.894   4.047  0.4938 -0.0567 -0.4780
 7271SOL    HW133275   1.576   0.939   4.064 -0.3999  1.9554 -1.5041
 7271SOL    HW233276   1.455   0.958   3.987  1.4022  2.0131  1.1500
 7272SOL     OW33277   2.759   0.944  15.650  0.6004 -0.0625 -0.2877
 7272SOL    HW133278   2.706   0.895  15.713  3.3077  1.2192  2.9464
 7272SOL    HW233279   2.707   1.024  15.657 -0.0878 -0.4308 -1.1059
 7273SOL     OW33280   4.687   0.102   8.328  0.2134 -0.0169  0.7867
 7273SOL    HW133281   4.693   0.033   8.395  1.1340 -2.1840 -1.5374
 7273SOL    HW233282   4.608   0.149   8.355 -0.2707 -0.0135 -0.6396
 7274SOL     OW33283   1.335   3.003  13.632  0.0214  0.1365 -0.1431
 7274SOL    HW133284   1.425   2.981  13.608  0.7124  4.3430 -1.2616
 7274SOL    HW233285   1.330   3.073  13.566 -0.5132 -0.1926 -0.4576
 7275SOL     OW33286   1.827   2.385   5.638  0.2003 -0.8109 -0.2005
 7275SOL    HW133287   1.807   2.348   5.552 -0.5988  0.5884 -0.6138
 7275SOL    HW233288   1.746   2.374   5.687  0.8528 -0.6539  0.9205
 7276SOL     OW33289   3.091   3.035   9.058 -0.1270 -0.2063  0.0126
 7276SOL    HW133290   3.032   3.003   9.126 -0.8243  0.8675 -0.0884
 7276SOL    HW233291   3.062   2.971   8.992 -0.5307  1.0668 -1.0588
 7277SOL     OW33292   3.168   3.011   7.185 -0.5078  0.3877 -0.4822
 7277SOL    HW133293   3.111   3.055   7.121 -1.5459 -0.5317 -0.1965
 7277SOL    HW233294   3.143   3.057   7.265  0.1147  1.4178 -0.8827
 7278SOL     OW33295   1.473   0.451   1.696 -0.2915 -0.7119 -0.2894
 7278SOL    HW133296   1.452   0.372   1.647  2.4742 -0.7217 -1.4558
 7278SOL    HW233297   1.469   0.512   1.622  0.2617 -0.0037  0.2661
 7279SOL     OW33298   3.562   4.515   2.138  0.0784  0.2263  0.0564
 7279SOL    HW133299   3.511   4.438   2.111 -1.0561 -0.0587  3.0157
 7279SOL    HW233300   3.544   4.574   2.065 -0.7357  0.5116  0.4907
 7280SOL     OW33301   2.887   0.014  15.495  0.8031 -0.4433  0.0868
 7280SOL    HW133302   2.955   4.703  15.552  1.1333  0.4463  0.2291
 7280SOL    HW233303   2.928   0.002  15.410 -3.2190  2.3718 -2.2574
 7281SOL     OW33304   3.667   2.336   0.614  0.5040  0.2962 -0.1498
 7281SOL    HW133305   3.662   2.425   0.647  1.2522  1.4005 -3.0384
 7281SOL    HW233306   3.662   2.282   0.693  2.0443 -1.2007 -1.0456
 7282SOL     OW33307   4.693   0.332   4.039 -0.4485  0.5398  0.4335
 7282SOL    HW133308   4.685   0.425   4.059 -0.5329  0.1160  2.4201
 7282SOL    HW233309   4.670   0.317   3.947  0.9064 -0.3476  0.2420
 7283SOL     OW33310   1.739   2.450   6.188  0.3846 -1.0850  0.9185
 7283SOL    HW133311   1.774   2.493   6.266  1.8637 -0.0097 -0.3256
 7283SOL    HW233312   1.789   2.489   6.116  3.0893  0.9817  3.9196
 7284SOL     OW33313   4.554   2.684  15.414 -0.3293  0.0335 -0.2028
 7284SOL    HW133314   4.610   2.735  15.356  0.4247 -3.5148 -2.5855
 7284SOL    HW233315   4.616   2.644  15.476 -0.1569  0.2655 -0.2282
 7285SOL     OW33316   0.365   2.496  10.941  0.0256  1.0704  0.0091
 7285SOL    HW133317   0.403   2.522  11.025 -0.1079  1.0770  0.0686
 7285SOL    HW233318   0.418   2.548  10.881  0.8374  0.7745  0.4735
 7286SOL     OW33319   4.316   2.808  11.387 -0.1604  0.0359  0.1298
 7286SOL    HW133320   4.311   2.871  11.459 -2.1580  0.8722 -0.7315
 7286SOL    HW233321   4.321   2.858  11.305 -1.0082  1.8099  1.1551
 7287SOL     OW33322   4.588   0.047   2.272 -0.0616  0.4367  0.2229
 7287SOL    HW133323   4.668   0.088   2.306  0.9369 -0.9156 -0.5156
 7287SOL    HW233324   4.575   0.083   2.184  0.4723  1.0235  0.3862
 7288SOL     OW33325   0.714   0.714   2.801  0.6938 -0.0642 -0.4937
 7288SOL    HW133326   0.724   0.729   2.707 -2.3912 -0.5859 -0.9155
 7288SOL    HW233327   0.624   0.745   2.806  0.6740 -0.1844 -0.0892
 7289SOL     OW33328   2.107   2.304   8.546  0.6640 -0.6525  0.5476
 7289SOL    HW133329   2.163   2.228   8.563  1.5741  0.0904  0.8458
 7289SOL    HW233330   2.118   2.348   8.630  0.4203  0.7359 -0.1559
 7290SOL     OW33331   0.149   4.098   4.539 -0.1580  0.5821 -0.1618
 7290SOL    HW133332   0.080   4.157   4.569 -1.6795 -1.2086 -0.1083
 7290SOL    HW233333   0.222   4.153   4.512  1.5643 -1.3815  0.4855
 7291SOL     OW33334   3.404   2.088   8.209 -0.1667 -0.2825  0.5989
 7291SOL    HW133335   3.325   2.078   8.155  1.6279 -0.6824 -1.9425
 7291SOL    HW233336   3.366   2.130   8.286  1.7824 -2.2060  2.6129
 7292SOL     OW33337   2.428   4.112   7.275  0.0024 -0.0325  0.5932
 7292SOL    HW133338   2.481   4.037   7.303  1.0033  0.7836  0.8379
 7292SOL    HW233339   2.343   4.073   7.298  0.3025 -1.8459 -1.3096
 7293SOL     OW33340   2.087   4.050   2.686 -0.2768  0.6006 -0.2514
 7293SOL    HW133341   2.077   4.112   2.757  0.6211  0.0574  0.3468
 7293SOL    HW233342   2.163   4.006   2.724 -1.0916 -0.6739 -0.0894
 7294SOL     OW33343   4.365   1.262   6.189  0.0010 -0.2345  0.3741
 7294SOL    HW133344   4.365   1.311   6.271  0.9369  0.5617 -0.1147
 7294SOL    HW233345   4.320   1.325   6.132  0.6027 -0.0214  0.1414
 7295SOL     OW33346   3.090   4.398  10.766  0.4749 -0.1802  0.0799
 7295SOL    HW133347   3.157   4.403  10.834  0.9187 -0.9059 -0.3129
 7295SOL    HW233348   3.073   4.485  10.728 -1.5151 -0.2996  0.7054
 7296SOL     OW33349   0.752   1.324   4.577 -0.0545  0.4067  0.1461
 7296SOL    HW133350   0.813   1.251   4.590 -1.4530 -0.9404 -0.8774
 7296SOL    HW233351   0.741   1.351   4.668 -1.5066 -1.1057  0.4179
 7297SOL     OW33352   2.735   4.335   0.694  0.0708  0.5863  0.2311
 7297SOL    HW133353   2.715   4.425   0.720 -0.5507  0.4867  0.0956
 7297SOL    HW233354   2.751   4.350   0.600 -0.1686 -1.2385 -0.0944
 7298SOL     OW33355   2.682   2.508   5.688 -0.2910 -0.1939 -0.1220
 7298SOL    HW133356   2.637   2.424   5.680  0.6353 -0.9585  2.5190
 7298SOL    HW233357   2.754   2.489   5.748  0.2256  2.6134  0.1473
 7299SOL     OW33358   1.708   1.480   7.694 -0.2274 -0.0593 -0.8321
 7299SOL    HW133359   1.680   1.389   7.689 -0.4853  0.0313 -1.0932
 7299SOL    HW233360   1.801   1.464   7.710  0.2567  1.8343 -1.7239
 7300SOL     OW33361   2.930   1.003   4.272 -0.1615 -0.5188 -0.7331
 7300SOL    HW133362   2.967   1.059   4.340 -0.1195 -1.2869 -0.1171
 7300SOL    HW233363   2.836   1.015   4.286  0.3700  0.6021  1.8988
 7301SOL     OW33364   4.023   0.578   8.375  0.2899  0.0248 -0.4983
 7301SOL    HW133365   3.982   0.594   8.290  0.4140  0.3025 -0.5053
 7301SOL    HW233366   3.980   0.641   8.434 -0.9476  1.1908 -2.6550
 7302SOL     OW33367   4.699   4.278   9.362 -0.0237  0.2330 -0.0191
 7302SOL    HW133368   4.627   4.225   9.395  0.8900 -1.2062 -0.3174
 7302SOL    HW233369   4.667   4.299   9.274 -1.6211 -1.7850  0.0759
 7303SOL     OW33370   0.043   2.256   5.481 -0.4636  0.1021 -0.1527
 7303SOL    HW133371   4.706   2.329   5.491  0.0514  0.8649 -2.5917
 7303SOL    HW233372   4.706   2.183   5.471 -1.6563  0.5349  3.8502
 7304SOL     OW33373   3.288   2.019   4.564 -0.2950  0.4827 -0.1172
 7304SOL    HW133374   3.203   2.064   4.561 -0.1151  0.9509  1.4762
 7304SOL    HW233375   3.342   2.097   4.564  0.2590  0.0991 -0.3709
 7305SOL     OW33376   2.130   1.232   6.908  0.0537 -0.3213  0.1101
 7305SOL    HW133377   2.221   1.259   6.915 -0.0755  0.0909  0.1977
 7305SOL    HW233378   2.131   1.143   6.945 -0.4380  0.7669  2.7107
 7306SOL     OW33379   4.036   1.253   9.981 -0.0984  0.0544 -0.3025
 7306SOL    HW133380   4.111   1.313   9.982  0.9934 -1.3240 -0.1519
 7306SOL    HW233381   3.978   1.286  10.050 -0.3098 -2.0691  0.5299
 7307SOL     OW33382   3.685   4.100  12.918  0.4106 -0.1967  0.5225
 7307SOL    HW133383   3.674   4.009  12.945 -0.1974 -0.3771 -0.3463
 7307SOL    HW233384   3.636   4.134  12.992  1.1684  0.7523  0.5947
 7308SOL     OW33385   2.317   3.042  15.831  0.3538  0.3819 -0.6461
 7308SOL    HW133386   2.234   3.086  15.813 -0.1821 -0.0572  0.7765
 7308SOL    HW233387   2.342   3.083  15.915  0.7312  1.7836 -1.4419
 7309SOL     OW33388   3.070   2.754   5.861  0.2969 -0.0237  0.0199
 7309SOL    HW133389   3.119   2.684   5.815 -1.4071 -1.9573  1.1545
 7309SOL    HW233390   3.068   2.740   5.956 -1.0745  0.5038  0.0592
 7310SOL     OW33391   0.561   0.647   1.385  0.4740  0.0730  0.5745
 7310SOL    HW133392   0.618   0.712   1.343  1.3989 -1.3355 -0.3906
 7310SOL    HW233393   0.551   0.601   1.301 -0.0834  0.1869  0.5807
 7311SOL     OW33394   1.346   1.094   8.376 -0.0385  0.1465 -0.3706
 7311SOL    HW133395   1.366   1.143   8.296 -2.4745  0.3588 -0.8447
 7311SOL    HW233396   1.269   1.049   8.341  1.5441 -1.1638 -2.1500
 7312SOL     OW33397   0.675   0.622   2.241  0.0491 -0.0473 -0.1215
 7312SOL    HW133398   0.635   0.705   2.264 -0.6286 -0.4207  0.0312
 7312SOL    HW233399   0.699   0.639   2.150 -0.8345  0.8755 -0.1784
 7313SOL     OW33400   2.774   0.260   6.667 -0.0294 -0.0188  0.4074
 7313SOL    HW133401   2.846   0.317   6.636  1.2024 -1.4186  0.7094
 7313SOL    HW233402   2.808   0.246   6.755  0.6055 -0.3517  0.1148
 7314SOL     OW33403   1.601   2.961  13.573 -0.3959  0.0971 -0.1180
 7314SOL    HW133404   1.688   2.996  13.554 -0.5296  1.8703  2.5127
 7314SOL    HW233405   1.616   2.927  13.661  0.0550 -1.7629 -0.9123
 7315SOL     OW33406   4.694   2.002  16.430  0.2113  0.0087  0.5716
 7315SOL    HW133407   4.633   1.930  16.418 -1.5058  1.4947  0.3653
 7315SOL    HW233408   0.042   1.981  16.370  0.4891 -0.0288  0.9163
 7316SOL     OW33409   4.092   2.160   5.951 -0.1608  0.3618 -0.0048
 7316SOL    HW133410   4.017   2.206   5.989 -0.9177 -0.7817 -0.1144
 7316SOL    HW233411   4.095   2.195   5.862  0.5336 -0.0344 -0.1407
 7317SOL     OW33412   4.593   4.368   0.651  0.1944 -0.3463 -0.1168
 7317SOL    HW133413   4.600   4.329   0.739 -2.4304  0.3870  0.4117
 7317SOL    HW233414   4.653   4.443   0.658  0.4302 -0.6785  1.6501
 7318SOL     OW33415   3.408   2.687  12.262  0.0724 -0.1513  0.0101
 7318SOL    HW133416   3.481   2.626  12.250  0.6559  0.4406  0.5179
 7318SOL    HW233417   3.337   2.632  12.294 -0.1945  0.9652  1.3275
 7319SOL     OW33418   3.803   2.927   9.913  0.5516  0.2033 -0.8260
 7319SOL    HW133419   3.754   3.004   9.941  1.1840  0.4085 -0.2661
 7319SOL    HW233420   3.833   2.911  10.003  0.5910  0.5895 -0.7697
 7320SOL     OW33421   3.143   3.779   5.910  0.4367 -0.0419  0.1579
 7320SOL    HW133422   3.094   3.787   5.992 -1.9459  0.7574 -1.3570
 7320SOL    HW233423   3.180   3.867   5.901  0.3451  0.0551  0.7299
 7321SOL     OW33424   2.119   4.282   0.292 -0.4438  0.6957 -0.1862
 7321SOL    HW133425   2.149   4.370   0.315  0.0934  0.5889 -0.4820
 7321SOL    HW233426   2.038   4.299   0.244 -1.6407 -1.1038  1.2128
 7322SOL     OW33427   1.144   3.241   3.783  0.2988 -0.0780  0.1640
 7322SOL    HW133428   1.182   3.320   3.821 -2.8760  1.7016 -0.3204
 7322SOL    HW233429   1.066   3.270   3.735  0.9223  1.3584  0.0266
 7323SOL     OW33430   4.288   4.528   5.267 -0.1878  0.0833 -0.0887
 7323SOL    HW133431   4.292   4.570   5.182  1.7246  0.4208  0.1622
 7323SOL    HW233432   4.359   4.463   5.264 -2.0857 -2.0739  1.0743
 7324SOL     OW33433   2.761   0.275   6.977 -0.5588  0.0730 -0.0006
 7324SOL    HW133434   2.830   0.306   7.035 -0.4238 -0.5108  0.1507
 7324SOL    HW233435   2.818   0.216   6.928  1.3592  1.3639  0.6962
 7325SOL     OW33436   3.511   1.674   6.264  0.2155  0.5934  0.3097
 7325SOL    HW133437   3.600   1.639   6.259 -0.5621 -1.1230 -1.5859
 7325SOL    HW233438   3.516   1.712   6.352 -0.3598  0.7251  0.2865
 7326SOL     OW33439   1.188   1.742   6.123  0.2010  0.0043 -0.1541
 7326SOL    HW133440   1.146   1.821   6.089 -0.4362 -0.0812  0.4292
 7326SOL    HW233441   1.221   1.777   6.206  3.4075  0.4178 -1.5776
 7327SOL     OW33442   3.808   0.256   8.909  0.1097 -0.6291  0.0344
 7327SOL    HW133443   3.901   0.260   8.929  0.3578 -0.8625 -1.0638
 7327SOL    HW233444   3.806   0.178   8.854  1.0542 -1.2702  0.9140
 7328SOL     OW33445   2.510   1.893   5.097 -0.0983  0.6891  0.6236
 7328SOL    HW133446   2.600   1.864   5.087  0.0130  0.3270  2.6650
 7328SOL    HW233447   2.487   1.843   5.176  1.2942 -2.6084 -1.0957
 7329SOL     OW33448   3.730   1.521   9.302 -0.2756 -0.0799  0.1915
 7329SOL    HW133449   3.763   1.549   9.388 -0.0899 -1.9515  0.7321
 7329SOL    HW233450   3.636   1.523   9.318 -0.4820  0.5065 -1.1002
 7330SOL     OW33451   4.466   1.394   9.671  0.0056  0.0347  0.0773
 7330SOL    HW133452   4.406   1.463   9.701 -0.8993  0.5046 -2.8036
 7330SOL    HW233453   4.529   1.381   9.741 -0.2527  0.7262  0.4437
 7331SOL     OW33454   2.906   4.107   8.473  0.2705 -0.0206 -0.0141
 7331SOL    HW133455   2.898   4.080   8.564  0.1850 -1.4830 -0.4561
 7331SOL    HW233456   2.983   4.052   8.455 -1.1371 -1.5668 -1.2707
 7332SOL     OW33457   1.345   0.422   7.938 -0.1677 -0.2314  0.1526
 7332SOL    HW133458   1.341   0.518   7.941  0.5897 -0.0961 -2.4325
 7332SOL    HW233459   1.422   0.405   7.884  0.2921  0.3462  0.6391
 7333SOL     OW33460   2.504   2.905   5.251  0.4484 -0.2495  0.5727
 7333SOL    HW133461   2.433   2.845   5.277 -0.5370  1.1883  1.1854
 7333SOL    HW233462   2.455   2.973   5.204  0.7525 -0.8754 -0.6433
 7334SOL     OW33463   4.480   3.597   2.192  0.0463 -0.2416 -0.2159
 7334SOL    HW133464   4.551   3.574   2.132  0.5363 -3.4638  1.5963
 7334SOL    HW233465   4.525   3.623   2.272 -0.1238 -1.0756  0.1519
 7335SOL     OW33466   3.772   0.442  11.123 -0.0359 -0.3593  0.5043
 7335SOL    HW133467   3.719   0.441  11.202 -0.6606 -0.7637  0.0786
 7335SOL    HW233468   3.834   0.514  11.135  1.5453 -1.8178  1.0924
 7336SOL     OW33469   1.674   2.498   7.915  0.2223 -0.0579  0.3591
 7336SOL    HW133470   1.695   2.535   8.001 -1.4361 -1.8880  1.5458
 7336SOL    HW233471   1.696   2.566   7.852  0.8100  1.5518  2.3078
 7337SOL     OW33472   1.300   4.548   8.519  0.0949 -0.1426 -0.3635
 7337SOL    HW133473   1.209   4.564   8.494  0.3530 -0.2162 -1.3508
 7337SOL    HW233474   1.297   4.464   8.565 -1.9657 -0.2362 -0.6321
 7338SOL     OW33475   1.204   1.896   0.528 -0.5998  0.2978 -0.0981
 7338SOL    HW133476   1.126   1.856   0.491  0.2174  1.2580 -2.8685
 7338SOL    HW233477   1.259   1.895   0.449 -1.5149 -1.3269 -0.7082
 7339SOL     OW33478   0.480   3.456   1.943  0.5870  0.3477  0.3490
 7339SOL    HW133479   0.395   3.451   1.987  2.0954  1.4411  3.4432
 7339SOL    HW233480   0.505   3.366   1.921  1.6264  0.8235 -0.4332
 7340SOL     OW33481   2.210   1.920   8.228 -0.3984 -0.0583 -0.2034
 7340SOL    HW133482   2.249   2.007   8.225  1.4134 -0.8345  0.8540
 7340SOL    HW233483   2.118   1.936   8.246 -0.5160 -0.4375 -0.4624
 7341SOL     OW33484   3.644   1.058   3.016 -0.1599 -0.0966  0.0925
 7341SOL    HW133485   3.695   1.047   3.097  0.4139 -1.6497 -0.4869
 7341SOL    HW233486   3.582   0.985   3.021  0.6935 -0.7997  0.3209
 7342SOL     OW33487   1.442   0.651  14.865  0.5317  0.1827  0.1940
 7342SOL    HW133488   1.396   0.722  14.821  2.6370  1.1083 -0.5346
 7342SOL    HW233489   1.502   0.619  14.797  2.1309 -0.1494  1.7589
 7343SOL     OW33490   2.220   3.756   1.593 -0.1551  0.3738  0.1755
 7343SOL    HW133491   2.273   3.835   1.599 -1.2362  1.3834 -3.7980
 7343SOL    HW233492   2.189   3.749   1.683  0.7209  0.9977  0.5202
 7344SOL     OW33493   0.301   0.123   0.934  0.5136 -0.4287 -0.2197
 7344SOL    HW133494   0.251   0.200   0.959 -0.7150 -0.6534 -2.0586
 7344SOL    HW233495   0.390   0.143   0.965  0.6670  0.8672 -1.4985
 7345SOL     OW33496   1.976   0.353   8.964  0.4737  0.5604 -0.0732
 7345SOL    HW133497   1.989   0.386   9.053  0.5247 -0.3096  0.2506
 7345SOL    HW233498   2.029   0.273   8.960 -0.6325 -0.1973  0.3446
 7346SOL     OW33499   2.146   0.916   3.326 -0.0325  0.3760  1.3524
 7346SOL    HW133500   2.172   1.008   3.322 -1.4277  0.7810  1.6198
 7346SOL    HW233501   2.088   0.906   3.250  0.1696 -0.7918  1.3586
 7347SOL     OW33502   2.017   2.658   7.620 -0.4478 -0.0234 -0.7593
 7347SOL    HW133503   2.043   2.735   7.672  0.0644 -0.8687  0.2214
 7347SOL    HW233504   2.102   2.615   7.616 -0.0344  0.6156  1.2628
 7348SOL     OW33505   2.830   3.036   9.979  0.2808 -0.1667  0.2589
 7348SOL    HW133506   2.895   3.003  10.040  1.0035  0.1119 -0.3656
 7348SOL    HW233507   2.818   2.976   9.906 -1.5166  0.0347  0.3860
 7349SOL     OW33508   0.817   4.345   6.375  0.0940 -0.1871 -0.5124
 7349SOL    HW133509   0.770   4.394   6.308  3.1117  1.2070 -1.6122
 7349SOL    HW233510   0.893   4.403   6.381 -0.2848  0.2510  0.0454
 7350SOL     OW33511   4.400   0.921  14.834  0.1926  0.0446  0.2705
 7350SOL    HW133512   4.441   0.878  14.909 -0.1420 -3.6045 -1.6485
 7350SOL    HW233513   4.320   0.870  14.846 -0.1223  0.6351  0.6881
 7351SOL     OW33514   4.701   0.559   7.414  0.0535  0.1738  0.0592
 7351SOL    HW133515   4.612   0.539   7.386  0.0564  2.0844 -1.3549
 7351SOL    HW233516   0.024   0.476   7.425  0.1169  0.3123  0.8333
 7352SOL     OW33517   1.588   3.321   5.552 -0.4431 -0.3311  0.1440
 7352SOL    HW133518   1.529   3.355   5.620 -1.4026  1.3751 -1.5352
 7352SOL    HW233519   1.527   3.263   5.508 -0.3525  0.2792 -0.7801
 7353SOL     OW33520   0.995   1.583  11.939 -0.0844  0.1619 -0.8675
 7353SOL    HW133521   0.967   1.546  11.855  3.6329 -1.2321 -1.4520
 7353SOL    HW233522   1.080   1.541  11.943  1.1626  2.5775 -2.2026
 7354SOL     OW33523   3.758   1.434   6.874 -0.4561 -0.0853 -0.3448
 7354SOL    HW133524   3.701   1.383   6.817  0.6554 -1.5153 -0.1587
 7354SOL    HW233525   3.693   1.467   6.937  0.9579  0.3706  0.8962
 7355SOL     OW33526   2.492   0.199  12.119  0.6213  0.1255 -0.2978
 7355SOL    HW133527   2.485   0.171  12.028 -0.4068  1.8785 -0.7437
 7355SOL    HW233528   2.440   0.280  12.118 -0.7125 -0.7467 -1.0242
 7356SOL     OW33529   2.553   2.083   8.865 -0.6835  0.2226  0.2679
 7356SOL    HW133530   2.590   2.070   8.952 -1.4796  1.5982  0.8049
 7356SOL    HW233531   2.463   2.054   8.880 -1.2099 -0.2957 -3.7376
 7357SOL     OW33532   2.735   3.180   6.191 -0.7103 -0.3561 -0.0568
 7357SOL    HW133533   2.755   3.262   6.146 -0.7441 -0.9867 -1.2111
 7357SOL    HW233534   2.782   3.121   6.133 -0.9832 -0.1184 -0.5201
 7358SOL     OW33535   3.802   2.355  10.211 -0.6806  0.5612 -0.3867
 7358SOL    HW133536   3.874   2.416  10.228  1.5225 -2.0189 -0.4350
 7358SOL    HW233537   3.781   2.392  10.125 -0.4468  1.5464 -0.0204
 7359SOL     OW33538   0.201   0.115   5.229  0.4564 -0.2723 -0.3553
 7359SOL    HW133539   0.198   0.031   5.275 -0.5138 -0.2678 -0.4231
 7359SOL    HW233540   0.129   0.159   5.273  3.0273  1.6140  1.9972
 7360SOL     OW33541   1.954   3.098   4.151 -0.8001  0.1063  0.4791
 7360SOL    HW133542   2.006   3.018   4.148 -1.5539 -0.4323  2.0844
 7360SOL    HW233543   2.021   3.165   4.166 -0.9467  0.3621 -0.0204
 7361SOL     OW33544   0.358   4.461   1.807 -0.1212  0.0340  0.2221
 7361SOL    HW133545   0.339   4.388   1.866  0.8598 -0.0978  0.3736
 7361SOL    HW233546   0.454   4.464   1.805 -0.1860  0.0343 -3.3136
 7362SOL     OW33547   1.897   3.910  14.475 -0.2719 -0.4250  0.2046
 7362SOL    HW133548   1.836   3.910  14.401  0.6027 -0.1804 -0.5192
 7362SOL    HW233549   1.946   3.990  14.456  0.1970  0.0388  3.2982
 7363SOL     OW33550   0.323   1.237   4.654 -0.0080  0.3083 -0.6448
 7363SOL    HW133551   0.240   1.191   4.643 -0.0321  0.5849 -1.6101
 7363SOL    HW233552   0.302   1.284   4.735 -1.2222 -0.9791 -0.2154
 7364SOL     OW33553   3.922   0.787   6.467 -0.1112 -0.3212  0.6537
 7364SOL    HW133554   4.015   0.767   6.454 -0.4145 -0.2273 -1.7255
 7364SOL    HW233555   3.919   0.875   6.430 -2.9066  0.2086  2.1940
 7365SOL     OW33556   1.598   2.734   8.545  0.0897  0.3523  0.1279
 7365SOL    HW133557   1.673   2.720   8.488 -0.3712 -0.3312 -0.3151
 7365SOL    HW233558   1.609   2.675   8.620  1.7604  0.7228  0.1713
 7366SOL     OW33559   1.355   4.366  15.586 -0.3888  0.4640  0.2360
 7366SOL    HW133560   1.276   4.362  15.640 -0.0249  0.4076  0.7672
 7366SOL    HW233561   1.352   4.287  15.532 -0.5867 -0.9098  2.2219
 7367SOL     OW33562   1.167   2.846   2.940 -0.4639  0.1817  0.3143
 7367SOL    HW133563   1.229   2.776   2.960 -0.7533  0.0722  0.8281
 7367SOL    HW233564   1.106   2.837   3.014 -0.9933 -2.3008 -0.4254
 7368SOL     OW33565   4.473   2.557   4.649 -0.1360  0.5305  0.6947
 7368SOL    HW133566   4.546   2.592   4.598 -0.5110  1.1028  0.5501
 7368SOL    HW233567   4.487   2.463   4.638 -1.1774  0.6052 -1.3581
 7369SOL     OW33568   2.800   2.778   7.611  0.6011 -0.0446  0.6405
 7369SOL    HW133569   2.759   2.701   7.651  0.0698 -0.9394 -1.6624
 7369SOL    HW233570   2.737   2.820   7.552  1.3897  0.1359 -0.0617
 7370SOL     OW33571   0.687   2.213  16.277  0.4920  0.1038  0.1375
 7370SOL    HW133572   0.733   2.139  16.317  1.3303  0.0673 -0.9155
 7370SOL    HW233573   0.599   2.221  16.315 -0.2991 -1.0883 -1.4504
 7371SOL     OW33574   0.862   1.126   6.760 -0.2360 -0.3587 -0.4981
 7371SOL    HW133575   0.894   1.216   6.760 -0.2083 -0.3727  1.8165
 7371SOL    HW233576   0.768   1.140   6.745  0.0063  1.7801 -0.0000
 7372SOL     OW33577   0.759   4.476   3.359 -0.6519  0.0067  0.0882
 7372SOL    HW133578   0.748   4.396   3.410 -2.6554 -0.8581 -1.7258
 7372SOL    HW233579   0.673   4.517   3.362 -0.0320  1.2694  0.6345
 7373SOL     OW33580   4.710   4.182   1.326 -0.1366  0.0141 -0.3200
 7373SOL    HW133581   0.074   4.143   1.320 -0.7684 -1.5811  0.8507
 7373SOL    HW233582   4.676   4.138   1.404  3.6109 -1.6712  0.3978
 7374SOL     OW33583   0.282   2.546  10.138 -0.0410  0.4985  0.3869
 7374SOL    HW133584   0.230   2.517  10.064 -0.6559  1.5628  0.3975
 7374SOL    HW233585   0.334   2.466  10.141  0.0918  0.5653 -0.0535
 7375SOL     OW33586   4.625   2.096  12.441  0.0418 -0.2923  0.3652
 7375SOL    HW133587   4.684   2.121  12.512  0.2964  0.7182 -0.2071
 7375SOL    HW233588   4.551   2.156  12.456  1.9320  1.8459  1.1257
 7376SOL     OW33589   2.889   3.492  12.907  0.2716 -0.2194  0.5921
 7376SOL    HW133590   2.961   3.553  12.922 -0.4461  0.3880  1.5456
 7376SOL    HW233591   2.887   3.444  12.990 -0.2089 -0.0839  0.6561
 7377SOL     OW33592   4.083   3.677   1.441 -0.8403  0.6314  0.1209
 7377SOL    HW133593   4.155   3.741   1.433 -0.7966  0.4057 -1.2797
 7377SOL    HW233594   4.114   3.606   1.496  2.2461  0.4058 -1.8923
 7378SOL     OW33595   1.417   4.546   0.051  0.2255  0.2554  0.3638
 7378SOL    HW133596   1.428   4.454   0.027 -1.7219  0.0072  0.4141
 7378SOL    HW233597   1.471   4.553   0.130  0.1873 -1.0095  0.5065
 7379SOL     OW33598   2.070   3.920   5.991  0.0485 -0.0028  0.1357
 7379SOL    HW133599   2.063   3.980   6.065  1.1944 -1.2406  1.2522
 7379SOL    HW233600   2.023   3.841   6.018 -0.6061  0.3037 -0.1061
 7380SOL     OW33601   4.067   0.425   4.985 -0.7246 -0.3732  0.2697
 7380SOL    HW133602   3.991   0.451   4.933 -0.9230 -1.0938  0.2007
 7380SOL    HW233603   4.064   0.329   4.981 -0.8062 -0.2952 -1.5379
 7381SOL     OW33604   0.049   3.519  11.903 -0.0345  0.0504  0.3191
 7381SOL    HW133605   0.023   3.598  11.856 -0.3093  1.4616  2.8669
 7381SOL    HW233606   0.121   3.497  11.844 -0.6390  1.5455 -0.9854
 7382SOL     OW33607   0.980   2.146  13.478 -0.3077 -0.3681  1.0946
 7382SOL    HW133608   1.011   2.150  13.388  0.2616 -3.4188  1.1613
 7382SOL    HW233609   0.898   2.096  13.473  0.0836 -1.0063  0.9910
 7383SOL     OW33610   1.729   2.248   2.182  0.3552  0.2886 -0.1231
 7383SOL    HW133611   1.733   2.169   2.128 -1.9650  0.0576  0.0529
 7383SOL    HW233612   1.818   2.256   2.217 -0.3624  4.4636  0.7267
 7384SOL     OW33613   4.564   0.165   5.730  0.5992 -0.7896 -0.0125
 7384SOL    HW133614   4.626   0.129   5.668  0.4668  0.3330 -0.7951
 7384SOL    HW233615   4.625   0.209   5.790 -0.3838 -1.2870  1.3662
 7385SOL     OW33616   1.032   3.159   6.764 -0.5271  0.1822 -0.2971
 7385SOL    HW133617   1.054   3.117   6.847 -0.3326  3.1424  1.1511
 7385SOL    HW233618   1.026   3.089   6.699  0.9700  1.8394 -2.2311
 7386SOL     OW33619   2.158   2.890  13.969  0.5694 -0.8093 -0.0868
 7386SOL    HW133620   2.080   2.945  13.971  0.3766 -1.1034  0.3309
 7386SOL    HW233621   2.141   2.834  13.893 -1.1810  0.0317 -0.3275
 7387SOL     OW33622   0.173   4.094  11.109 -0.6598  0.7034  0.1267
 7387SOL    HW133623   0.120   4.105  11.031  0.7697  0.5512 -0.8737
 7387SOL    HW233624   0.263   4.105  11.077 -1.3988 -0.4365 -2.3723
 7388SOL     OW33625   0.173   0.223   1.773 -0.2319 -0.1493 -0.1569
 7388SOL    HW133626   0.220   0.184   1.699 -0.9451 -0.3833 -0.4898
 7388SOL    HW233627   0.194   0.315   1.754 -0.8639  0.1869  0.7899
 7389SOL     OW33628   4.718   1.314  15.441  0.7377 -0.0859  0.0582
 7389SOL    HW133629   4.678   1.397  15.467  0.9682 -0.2724  1.0190
 7389SOL    HW233630   0.061   1.348  15.381 -0.3739 -0.9257 -1.6350
 7390SOL     OW33631   1.470   2.562   4.276  0.5132  0.2735 -1.1633
 7390SOL    HW133632   1.508   2.647   4.299 -0.5508  0.3839  0.1978
 7390SOL    HW233633   1.435   2.582   4.188 -1.2376  1.9170 -0.1105
 7391SOL     OW33634   2.540   2.471   3.829  0.1303 -0.7593 -0.3649
 7391SOL    HW133635   2.618   2.457   3.775  0.7330  0.9586  0.0549
 7391SOL    HW233636   2.477   2.487   3.759  0.7556 -0.5884 -0.8861
 7392SOL     OW33637   1.687   1.626  12.008 -0.5568 -0.2750  0.0700
 7392SOL    HW133638   1.608   1.600  12.056  0.5233 -0.2542  1.8666
 7392SOL    HW233639   1.740   1.547  12.021  0.1150 -0.1553 -1.9742
 7393SOL     OW33640   3.712   2.564   9.473 -0.1776  0.0703 -0.1746
 7393SOL    HW133641   3.679   2.620   9.544  0.2307 -0.9998  0.8612
 7393SOL    HW233642   3.678   2.480   9.507 -0.0072  0.5616  1.2009
 7394SOL     OW33643   3.248   4.406   4.825  0.4544  0.0199  0.2221
 7394SOL    HW133644   3.230   4.347   4.752 -3.8130  1.2239  0.3120
 7394SOL    HW233645   3.193   4.482   4.810 -2.0036 -1.8916 -0.4969
 7395SOL     OW33646   1.265   0.174   8.949 -0.1663  0.8366 -0.4629
 7395SOL    HW133647   1.283   0.112   9.020  2.3280  0.1078 -1.7157
 7395SOL    HW233648   1.174   0.150   8.935  0.1066  0.5909 -1.7865
 7396SOL     OW33649   2.637   1.762   6.852 -0.1356 -0.8919 -0.1099
 7396SOL    HW133650   2.639   1.829   6.920  3.9137 -0.0194 -1.1444
 7396SOL    HW233651   2.688   1.810   6.787 -0.1980 -0.0233  0.4881
 7397SOL     OW33652   3.445   0.163  11.852  0.0593  0.3724  0.3633
 7397SOL    HW133653   3.524   0.109  11.859  2.0784  3.4074  0.7732
 7397SOL    HW233654   3.445   0.176  11.757  2.4630 -2.6909 -0.0827
 7398SOL     OW33655   2.299   1.787   4.253  0.4063  0.0824  0.8388
 7398SOL    HW133656   2.315   1.753   4.165  1.2032  0.0162  1.0087
 7398SOL    HW233657   2.394   1.791   4.269 -0.0914  0.5154  3.5147
 7399SOL     OW33658   1.635   0.045  10.631 -0.0572 -0.4789  0.2609
 7399SOL    HW133659   1.548   0.080  10.613 -0.8960 -3.0440 -0.7092
 7399SOL    HW233660   1.664   0.019  10.543  0.7169 -0.5626  0.5402
 7400SOL     OW33661   3.087   2.257   8.276 -0.2359 -0.1519  0.0992
 7400SOL    HW133662   3.049   2.314   8.343  3.2108  0.2097  1.7736
 7400SOL    HW233663   3.051   2.300   8.199 -0.6302  2.0178  1.4816
 7401SOL     OW33664   1.106   2.602   8.000  0.0871 -0.5534 -0.0359
 7401SOL    HW133665   1.069   2.529   8.050 -2.1201  0.1348 -0.6935
 7401SOL    HW233666   1.139   2.649   8.076  2.3528  0.6533 -1.7725
 7402SOL     OW33667   3.608   2.690   9.728  0.4871  0.3967  0.0273
 7402SOL    HW133668   3.675   2.666   9.793  0.4544 -1.2443 -0.5304
 7402SOL    HW233669   3.624   2.783   9.714 -0.0040  0.2321 -1.5759
 7403SOL     OW33670   4.474   2.127  15.264  0.2415  0.4280  0.3689
 7403SOL    HW133671   4.542   2.115  15.198  1.9944 -0.6608  2.3736
 7403SOL    HW233672   4.442   2.037  15.276 -0.8843  0.7178 -0.4687
 7404SOL     OW33673   3.425   3.224   5.213  0.5255  0.5847 -0.5622
 7404SOL    HW133674   3.464   3.282   5.147  0.3609  1.1203 -0.1837
 7404SOL    HW233675   3.333   3.246   5.205  0.4523  0.3352 -0.4032
 7405SOL     OW33676   0.949   3.996  11.233 -0.4561 -0.0361  0.8748
 7405SOL    HW133677   0.931   3.948  11.152  0.5787  0.2752  0.4638
 7405SOL    HW233678   0.974   3.920  11.285 -2.5806  0.9311  3.2976
 7406SOL     OW33679   1.317   2.417   3.979 -0.4769  0.1935  0.2230
 7406SOL    HW133680   1.324   2.507   4.011  2.1309  0.1532 -0.2138
 7406SOL    HW233681   1.291   2.377   4.061  2.3555 -1.3211  0.3730
 7407SOL     OW33682   3.608   0.360   2.574 -0.1360  0.1686 -0.1943
 7407SOL    HW133683   3.623   0.339   2.482  1.0096 -0.0496  0.0506
 7407SOL    HW233684   3.630   0.275   2.612 -1.5203  0.1955  0.6719
 7408SOL     OW33685   3.550   0.040   3.895  0.1096 -0.2008  0.1803
 7408SOL    HW133686   3.543   4.695   3.828  1.0266 -0.4649  0.3472
 7408SOL    HW233687   3.533   4.715   3.976 -1.7333 -1.2130 -0.8184
 7409SOL     OW33688   0.094   4.159   1.837  0.8367  0.4433 -0.1867
 7409SOL    HW133689   0.027   4.206   1.788  0.5544  1.1871  0.9184
 7409SOL    HW233690   0.064   4.068   1.836 -1.4964  1.1988  0.8794
 7410SOL     OW33691   2.037   2.713   4.803 -0.3939 -0.0132 -0.0675
 7410SOL    HW133692   1.999   2.628   4.781 -1.8730  0.9430 -1.2858
 7410SOL    HW233693   2.100   2.723   4.732  1.4522  2.4654  1.9404
 7411SOL     OW33694   3.436   2.114   3.600 -0.5846 -0.5909  0.4513
 7411SOL    HW133695   3.400   2.147   3.682 -2.1019 -1.9305  0.3247
 7411SOL    HW233696   3.404   2.024   3.598 -1.8397 -0.1431  0.3378
 7412SOL     OW33697   4.525   3.122   5.768 -0.0259 -0.2109  0.6467
 7412SOL    HW133698   4.511   3.180   5.693  2.3143 -1.0913 -0.4679
 7412SOL    HW233699   4.618   3.111   5.747  0.2269 -3.6092  3.5460
 7413SOL     OW33700   1.510   4.688   2.346 -0.4860 -0.6977  0.6193
 7413SOL    HW133701   1.509   0.008   2.262 -4.7656 -0.9898  0.4879
 7413SOL    HW233702   1.434   0.014   2.376 -0.6173 -1.0844  0.9466
 7414SOL     OW33703   3.417   4.519  10.362  0.1271 -0.0265 -0.3237
 7414SOL    HW133704   3.482   4.477  10.306  0.0746  3.4477 -3.0375
 7414SOL    HW233705   3.367   4.573  10.300 -0.2197  1.3087  1.1106
 7415SOL     OW33706   3.352   4.052   1.592 -0.8286  0.3445 -0.1144
 7415SOL    HW133707   3.340   3.963   1.557  1.4348 -1.0408  2.6240
 7415SOL    HW233708   3.314   4.101   1.520 -1.5777  2.0111  1.4134
 7416SOL     OW33709   3.410   2.365  16.102 -0.8749 -0.2466  0.2194
 7416SOL    HW133710   3.373   2.420  16.171 -2.4321 -0.2433 -0.6044
 7416SOL    HW233711   3.346   2.388  16.034 -0.5740  0.3618  0.1415
 7417SOL     OW33712   2.711   0.162  15.701  0.2382 -0.0940 -0.4076
 7417SOL    HW133713   2.788   0.218  15.707 -0.0548  0.2403  0.2423
 7417SOL    HW233714   2.727   0.113  15.620 -0.1442  1.1278 -1.2124
 7418SOL     OW33715   1.818   2.284  17.222 -0.4526 -0.3925  0.2475
 7418SOL    HW133716   1.800   2.253  17.133 -1.1956  2.3933 -0.5960
 7418SOL    HW233717   1.862   2.365  17.194 -3.1628  1.4862  1.4573
 7419SOL     OW33718   4.269   2.631  11.897  0.0559  0.8405  0.3133
 7419SOL    HW133719   4.365   2.633  11.898  0.0913 -1.3177  2.9583
 7419SOL    HW233720   4.245   2.618  11.988 -0.5348 -0.3474 -0.0067
 7420SOL     OW33721   2.183   4.687   8.661 -0.3751 -0.0351  0.7746
 7420SOL    HW133722   2.212   0.049   8.691 -0.7092  0.3753 -0.0806
 7420SOL    HW233723   2.113   4.707   8.598  0.1927 -2.1340 -0.5256
 7421SOL     OW33724   0.230   2.404   4.858 -0.0558 -0.4407  0.0306
 7421SOL    HW133725   0.135   2.398   4.869 -0.0095  0.4074  0.8515
 7421SOL    HW233726   0.241   2.499   4.866 -2.2824 -0.2780  1.3266
 7422SOL     OW33727   3.440   2.773   8.934  0.3640  0.2153 -0.0309
 7422SOL    HW133728   3.457   2.859   8.972  0.4335  0.2742 -0.1935
 7422SOL    HW233729   3.518   2.719   8.950 -1.0537 -1.9467 -0.3021
 7423SOL     OW33730   2.182   3.409   2.472  0.8434 -0.4679  0.0218
 7423SOL    HW133731   2.240   3.402   2.396  0.2762 -0.4738 -0.4087
 7423SOL    HW233732   2.109   3.351   2.450  1.4200 -1.1822  0.0195
 7424SOL     OW33733   1.904   0.679  17.330 -0.9335  0.0236 -0.0402
 7424SOL    HW133734   1.923   0.740  17.258  3.3613 -3.1037 -1.5277
 7424SOL    HW233735   1.908   0.735  17.407  0.3107  2.0393 -1.5579
 7425SOL     OW33736   2.199   2.772  11.342 -0.1593 -0.0619 -0.0577
 7425SOL    HW133737   2.157   2.840  11.394  0.5848 -0.7468  1.4275
 7425SOL    HW233738   2.134   2.742  11.278 -0.7562  0.1188  0.4711
 7426SOL     OW33739   4.408   4.703  14.868 -0.1395  0.4404 -0.5760
 7426SOL    HW133740   4.455   4.620  14.858  0.0212  0.4629 -0.0113
 7426SOL    HW233741   4.439   0.023  14.789  0.3226  1.2097  0.0366
 7427SOL     OW33742   2.316   3.415   5.874 -0.7077 -0.3566 -0.6179
 7427SOL    HW133743   2.305   3.374   5.788 -1.1038 -3.0846  0.7417
 7427SOL    HW233744   2.274   3.354   5.934  1.4753 -0.1282  1.1324
 7428SOL     OW33745   3.596   3.786   6.961  0.3819  0.4598  0.4711
 7428SOL    HW133746   3.514   3.804   6.916 -0.0827 -2.0346  0.3283
 7428SOL    HW233747   3.589   3.699   6.999  3.6147  1.2033  2.8119
 7429SOL     OW33748   2.229   0.630   4.103  0.2433  0.5583  0.3880
 7429SOL    HW133749   2.160   0.572   4.071  0.6976  0.2486 -0.0437
 7429SOL    HW233750   2.203   0.643   4.194  1.7187 -1.8507  1.1600
 7430SOL     OW33751   2.445   3.657   1.024  0.3758  0.6595  0.1585
 7430SOL    HW133752   2.500   3.735   1.016 -1.5315  1.9260 -0.4992
 7430SOL    HW233753   2.403   3.652   0.939  0.6361 -0.1060  0.0789
 7431SOL     OW33754   3.930   0.977   5.166 -0.0275 -0.4790 -0.4452
 7431SOL    HW133755   3.874   1.050   5.139  0.3021  0.7058  1.9958
 7431SOL    HW233756   3.970   1.010   5.247 -0.1945  2.5861 -1.6070
 7432SOL     OW33757   1.238   1.322  10.702  0.5847 -0.8201 -0.5472
 7432SOL    HW133758   1.324   1.284  10.681  1.9282  1.7525  0.2999
 7432SOL    HW233759   1.250   1.350  10.793  2.0377  0.4494 -1.1228
 7433SOL     OW33760   0.565   4.383   8.239 -0.4218 -0.2818  0.0686
 7433SOL    HW133761   0.581   4.398   8.146  1.4979 -0.2659  0.4166
 7433SOL    HW233762   0.471   4.365   8.229 -0.2321  0.2539 -2.7153
 7434SOL     OW33763   2.235   1.425  17.154  0.3312 -0.1680 -0.0191
 7434SOL    HW133764   2.254   1.509  17.111  0.9943 -0.8079 -0.9575
 7434SOL    HW233765   2.307   1.420  17.218  1.8442  2.1631 -1.5108
 7435SOL     OW33766   4.525   2.600  11.862  0.5744 -0.7470  0.4250
 7435SOL    HW133767   4.587   2.563  11.925 -0.3177  0.4410  1.9844
 7435SOL    HW233768   4.550   2.549  11.785  1.6719  0.1080  0.2086
 7436SOL     OW33769   0.006   2.983  11.356  0.5905 -0.3995 -0.3823
 7436SOL    HW133770   0.092   2.953  11.384  0.6503  0.5429  0.4682
 7436SOL    HW233771   4.696   2.921  11.293 -0.6469  1.1657 -1.2506
 7437SOL     OW33772   1.550   0.234  16.035 -0.7421 -0.3780  0.1565
 7437SOL    HW133773   1.514   0.318  16.062  0.0972  0.2621 -0.6940
 7437SOL    HW233774   1.623   0.262  15.979 -1.7170 -0.3309 -1.0917
 7438SOL     OW33775   2.027   1.921  12.431 -0.8507 -0.0093  0.0964
 7438SOL    HW133776   1.951   1.978  12.442 -0.2807  0.5330  1.2448
 7438SOL    HW233777   1.984   1.843  12.396 -1.0267 -0.2542  0.8658
 7439SOL     OW33778   4.213   1.953  10.445 -0.2663 -0.7280  0.3542
 7439SOL    HW133779   4.253   2.034  10.414  1.2922 -2.2683 -1.6998
 7439SOL    HW233780   4.272   1.883  10.414 -0.2718  0.0288 -1.3416
 7440SOL     OW33781   0.290   3.826   9.581  0.1477 -0.4637  0.0820
 7440SOL    HW133782   0.283   3.867   9.495  2.0609 -1.1833 -0.4150
 7440SOL    HW233783   0.236   3.885   9.634  0.3903  1.6552 -2.0084
 7441SOL     OW33784   2.765   0.110   0.941 -0.3947  0.7862  0.8800
 7441SOL    HW133785   2.767   0.106   1.036 -2.7704 -0.1105  0.8968
 7441SOL    HW233786   2.844   0.061   0.921 -1.0039 -0.0160  0.4188
 7442SOL     OW33787   0.735   2.306   2.630  0.3412  0.1080  0.0275
 7442SOL    HW133788   0.727   2.397   2.601  1.9327 -0.1481 -1.1733
 7442SOL    HW233789   0.721   2.257   2.550 -0.7158 -1.0236  0.9099
 7443SOL     OW33790   4.599   1.226  11.794  0.1874 -0.5709 -0.0370
 7443SOL    HW133791   4.652   1.168  11.739  0.1316  1.6104 -2.4135
 7443SOL    HW233792   4.510   1.200  11.772  0.0966 -0.9875  0.8264
 7444SOL     OW33793   3.994   0.071   7.791 -0.3079 -0.0496  0.2506
 7444SOL    HW133794   4.028   0.145   7.843  0.2594 -0.5094  0.5394
 7444SOL    HW233795   4.016   4.721   7.848  1.2627  0.6878  0.6001
 7445SOL     OW33796   2.172   2.753   4.368 -0.7887  0.5430  0.4374
 7445SOL    HW133797   2.081   2.754   4.399 -0.7683 -1.4516  0.5594
 7445SOL    HW233798   2.207   2.837   4.395  1.6138 -0.3316 -0.0187
 7446SOL     OW33799   0.643   3.553   2.671  0.2365  0.5992  0.1928
 7446SOL    HW133800   0.677   3.524   2.755  0.6585 -1.9416 -0.8547
 7446SOL    HW233801   0.601   3.635   2.695  2.3792  1.9915 -0.7653
 7447SOL     OW33802   0.085   3.987   9.615 -0.3244  0.2668 -0.3666
 7447SOL    HW133803   0.041   3.912   9.655 -1.6235  1.5872  0.6795
 7447SOL    HW233804   0.011   4.021   9.566 -0.4763  1.2465  0.5302
 7448SOL     OW33805   1.824   2.555   9.031  0.2390 -0.7064 -0.4568
 7448SOL    HW133806   1.901   2.498   9.035  0.6250 -0.3586 -3.1363
 7448SOL    HW233807   1.843   2.631   9.086 -0.5103 -0.4900 -0.4930
 7449SOL     OW33808   1.620   0.865   4.514 -0.5919 -0.7397  0.0472
 7449SOL    HW133809   1.672   0.870   4.594  3.0695  0.6966 -2.4387
 7449SOL    HW233810   1.686   0.840   4.450  0.0924  0.8224  0.1408
 7450SOL     OW33811   3.766   0.964   1.999  0.8656 -0.1268  0.1448
 7450SOL    HW133812   3.734   1.039   2.049 -0.2853 -0.3100 -0.3224
 7450SOL    HW233813   3.776   0.905   2.074 -0.6221  0.3809  0.7443
 7451SOL     OW33814   0.180   0.111   0.007  0.1139 -0.2818  0.6276
 7451SOL    HW133815   0.139   0.146   0.086 -0.5981 -2.4134  1.2121
 7451SOL    HW233816   0.114   0.112  17.636 -0.2561 -0.1179  0.9886
 7452SOL     OW33817   1.965   1.022  12.390  0.2955  0.3505  0.1632
 7452SOL    HW133818   2.039   1.034  12.331 -0.0494 -0.0726 -0.3623
 7452SOL    HW233819   1.909   0.955  12.350  2.9155 -0.6246 -1.8512
 7453SOL     OW33820   4.628   3.143   6.517 -0.1213  0.2739 -0.4779
 7453SOL    HW133821   4.570   3.067   6.522  2.1999 -1.5288 -0.4206
 7453SOL    HW233822   4.629   3.173   6.427  2.3230  0.0773 -0.5260
 7454SOL     OW33823   4.409   2.044   3.682  0.3843  0.0440 -0.0104
 7454SOL    HW133824   4.421   2.134   3.710 -1.7455  0.2742  0.1849
 7454SOL    HW233825   4.483   2.027   3.624 -0.5929 -1.0217 -0.9407
 7455SOL     OW33826   2.008   2.756   6.646 -0.3663  0.1152 -0.0856
 7455SOL    HW133827   2.091   2.799   6.625  0.8476 -0.9031  2.6482
 7455SOL    HW233828   1.971   2.816   6.710 -0.9089 -1.1739  0.8185
 7456SOL     OW33829   3.302   0.866   5.844 -0.6503 -0.1534 -0.0732
 7456SOL    HW133830   3.264   0.780   5.861 -1.0876 -0.1572 -1.0976
 7456SOL    HW233831   3.225   0.920   5.827  0.3872  0.6289 -2.3092
 7457SOL     OW33832   1.143   1.667   4.993  0.8623 -0.1034 -0.0518
 7457SOL    HW133833   1.061   1.655   5.042  1.4465  0.1188  0.9793
 7457SOL    HW233834   1.101   1.682   4.908  0.2225 -0.8732  0.1227
 7458SOL     OW33835   3.220   1.235   4.299 -0.0388  0.4260  1.0507
 7458SOL    HW133836   3.180   1.249   4.213  0.8305 -0.4634  0.5048
 7458SOL    HW233837   3.246   1.143   4.287 -5.1850 -0.5559 -2.3811
 7459SOL     OW33838   0.069   4.718   4.489 -0.0044 -0.2201  0.4926
 7459SOL    HW133839   0.104   4.662   4.558 -1.6865 -0.0733  1.4606
 7459SOL    HW233840   0.032   0.065   4.541  2.4068  1.6360 -0.3220
 7460SOL     OW33841   4.090   2.081   0.402 -0.2505 -0.5697 -0.6253
 7460SOL    HW133842   4.089   2.134   0.482 -0.2298 -1.2949 -0.1392
 7460SOL    HW233843   4.027   2.132   0.351  0.5928 -0.5221 -1.6174
 7461SOL     OW33844   4.359   0.019   3.571 -0.0860 -0.0335 -0.5003
 7461SOL    HW133845   4.407   4.660   3.576  2.2654  1.4343  1.0697
 7461SOL    HW233846   4.318   0.013   3.657 -1.8146 -0.4525 -1.3457
 7462SOL     OW33847   3.824   1.023   3.802  0.1498  0.3338 -0.3141
 7462SOL    HW133848   3.834   0.931   3.827 -0.5922  0.7777  1.6615
 7462SOL    HW233849   3.895   1.069   3.846  0.3549 -1.1159  0.9023
 7463SOL     OW33850   3.712   2.574   6.472 -0.3708 -0.1572 -0.5479
 7463SOL    HW133851   3.690   2.666   6.454  0.4064 -0.0238 -0.8175
 7463SOL    HW233852   3.628   2.545   6.506 -0.2101 -0.9628 -0.8418
 7464SOL     OW33853   3.108   0.813  13.503  0.4984  0.0945  0.1441
 7464SOL    HW133854   3.064   0.739  13.544 -2.1142  0.9865 -1.0261
 7464SOL    HW233855   3.060   0.889  13.534 -0.4411 -0.0775 -0.8859
 7465SOL     OW33856   0.390   4.106  10.132 -0.3004  0.2448  0.2947
 7465SOL    HW133857   0.323   4.104  10.064  0.6684 -1.3967 -0.6091
 7465SOL    HW233858   0.356   4.175  10.188  0.7134  0.8077  0.2297
 7466SOL     OW33859   1.888   2.946  13.911  0.2606  0.5220  0.0338
 7466SOL    HW133860   1.931   2.929  13.827  0.6828  3.0551 -0.2706
 7466SOL    HW233861   1.805   2.904  13.891  0.4378  0.7530 -1.2448
 7467SOL     OW33862   2.188   2.366   6.493 -0.3628 -0.1631 -0.1371
 7467SOL    HW133863   2.266   2.366   6.549  0.2507  0.5739 -0.9846
 7467SOL    HW233864   2.121   2.347   6.558  2.0110 -1.0803  2.0568
 7468SOL     OW33865   1.657   0.449   4.209 -0.6115 -0.1526 -0.2716
 7468SOL    HW133866   1.712   0.417   4.281 -0.8277 -0.7197 -0.3577
 7468SOL    HW233867   1.672   0.378   4.146  0.3457 -1.3511  1.2978
 7469SOL     OW33868   4.321   2.760   4.296 -0.4094 -0.3591 -0.0954
 7469SOL    HW133869   4.280   2.703   4.230 -0.9734  0.9269 -0.8518
 7469SOL    HW233870   4.282   2.722   4.375 -2.5918 -0.3808 -1.1737
 7470SOL     OW33871   2.659   0.191   0.235  0.0456 -0.2981 -0.4849
 7470SOL    HW133872   2.667   0.167   0.328  2.1434 -0.2458 -0.6517
 7470SOL    HW233873   2.565   0.208   0.238  0.4598  1.9656 -0.4508
 7471SOL     OW33874   1.305   1.711   3.866  0.2234 -0.4285 -0.5748
 7471SOL    HW133875   1.379   1.652   3.880 -0.4920 -1.1215  0.3646
 7471SOL    HW233876   1.344   1.796   3.883  1.9466 -1.2827 -0.2365
 7472SOL     OW33877   1.685   0.043  11.087  0.0066  0.0955 -0.6758
 7472SOL    HW133878   1.732   4.691  11.122 -1.0783 -0.9913 -1.5382
 7472SOL    HW233879   1.705   0.113  11.148  0.0546 -0.3524 -0.1753
 7473SOL     OW33880   0.779   0.861   3.454 -0.2337 -0.4997 -0.8195
 7473SOL    HW133881   0.871   0.856   3.428 -0.7877 -1.3335 -2.6400
 7473SOL    HW233882   0.758   0.784   3.400 -1.3343 -0.9451  0.2390
 7474SOL     OW33883   2.759   4.158   5.443  0.0693  0.4326  0.0257
 7474SOL    HW133884   2.733   4.142   5.352 -0.2965 -0.6574  0.3260
 7474SOL    HW233885   2.672   4.168   5.481  1.5264 -1.1567  3.7324
 7475SOL     OW33886   3.479   1.782   5.759  0.1924 -0.3151  0.3652
 7475SOL    HW133887   3.487   1.795   5.853  1.3529 -0.2769  0.2554
 7475SOL    HW233888   3.555   1.824   5.718 -1.1973  0.5883 -1.2898
 7476SOL     OW33889   2.134   3.148   8.897  0.2481  0.0860  0.2585
 7476SOL    HW133890   2.182   3.194   8.967  0.1521  0.8623 -0.1827
 7476SOL    HW233891   2.065   3.213   8.886 -1.2634 -0.9163  4.0192
 7477SOL     OW33892   3.474   0.290  15.403 -0.1335 -0.4590 -0.9055
 7477SOL    HW133893   3.511   0.370  15.366  0.8651 -1.2409 -1.5983
 7477SOL    HW233894   3.406   0.340  15.448 -1.1737 -0.6490 -2.2939
 7478SOL     OW33895   0.928   1.065   5.218 -0.2455  0.2759  0.3220
 7478SOL    HW133896   0.889   0.987   5.178 -2.4883  0.7897  1.4814
 7478SOL    HW233897   0.979   1.105   5.148 -1.0373 -0.4015 -0.6295
 7479SOL     OW33898   1.134   3.567   4.228 -0.3780 -0.0446  0.8226
 7479SOL    HW133899   1.062   3.629   4.240  1.3621  1.8281  1.6425
 7479SOL    HW233900   1.204   3.617   4.269  1.9488 -0.6424 -2.3982
 7480SOL     OW33901   0.537   4.009   9.632  0.0513  0.1216  0.2204
 7480SOL    HW133902   0.520   4.053   9.549  1.5293 -2.0930 -1.2648
 7480SOL    HW233903   0.447   3.978   9.640  0.1457 -0.1398  0.2828
 7481SOL     OW33904   3.228   2.929   3.145  0.1833  0.4929  0.5769
 7481SOL    HW133905   3.164   2.994   3.174 -1.6727 -1.8017  1.6586
 7481SOL    HW233906   3.314   2.969   3.151  1.4662 -2.1559  0.1854
 7482SOL     OW33907   3.599   4.326   5.412  0.1126 -0.1689 -0.5007
 7482SOL    HW133908   3.564   4.394   5.355 -0.7005  0.4798  0.7823
 7482SOL    HW233909   3.674   4.373   5.448 -2.3594  1.9068  1.9650
 7483SOL     OW33910   1.932   0.645  10.116  0.4933 -0.1894  0.3419
 7483SOL    HW133911   1.846   0.615  10.143 -0.0211  1.0691  0.1002
 7483SOL    HW233912   1.955   0.704  10.188  3.1317  0.1068 -0.7447
 7484SOL     OW33913   3.070   2.245  11.765  0.3033  0.3560  0.1383
 7484SOL    HW133914   3.060   2.329  11.809  0.4401  0.6523 -0.3919
 7484SOL    HW233915   3.134   2.260  11.695 -1.2673 -0.8412 -1.5810
 7485SOL     OW33916   2.224   0.929   6.451  0.1046  0.5654  0.1758
 7485SOL    HW133917   2.192   1.014   6.480 -1.7665  0.7836 -2.5033
 7485SOL    HW233918   2.319   0.943   6.449 -0.2383  2.8973  0.2709
 7486SOL     OW33919   0.573   4.076   5.967 -0.4108 -0.3890  0.1017
 7486SOL    HW133920   0.666   4.062   5.989 -0.3725 -0.0395  0.1599
 7486SOL    HW233921   0.520   4.019   6.023  0.8999 -0.2982  1.4411
 7487SOL     OW33922   3.292   0.039   2.635 -0.2751 -0.3248 -0.3341
 7487SOL    HW133923   3.202   0.070   2.644 -0.9838 -1.8230 -2.3817
 7487SOL    HW233924   3.281   4.696   2.567 -0.7397  0.4193 -0.9955
 7488SOL     OW33925   0.665   3.761   8.974  0.1395  0.1070  0.0396
 7488SOL    HW133926   0.699   3.848   8.954 -0.6741  0.5524  0.5485
 7488SOL    HW233927   0.573   3.772   8.950  0.7036 -0.1184 -2.2395
 7489SOL     OW33928   3.201   0.802   2.960  0.0285  0.6715  0.3508
 7489SOL    HW133929   3.169   0.871   3.018 -0.8214  0.0128  0.6564
 7489SOL    HW233930   3.116   0.778   2.924  1.0741 -3.0483  0.3851
 7490SOL     OW33931   0.218   1.601   8.663 -0.0153 -0.5403  0.4091
 7490SOL    HW133932   0.231   1.617   8.757 -1.0565 -0.7810  0.5955
 7490SOL    HW233933   0.223   1.693   8.637  2.2878 -0.6076  0.5569
 7491SOL     OW33934   1.581   0.988   3.593 -0.2513 -0.1190  0.8615
 7491SOL    HW133935   1.537   1.054   3.539  0.2487 -0.7411 -0.2829
 7491SOL    HW233936   1.540   0.906   3.566  0.7066 -0.5318  0.6708
 7492SOL     OW33937   4.498   2.845   0.416 -0.4239  0.1772  0.0818
 7492SOL    HW133938   4.511   2.884   0.502 -0.0293  1.5571 -0.5920
 7492SOL    HW233939   4.514   2.919   0.357  3.4066 -0.1301  0.7096
 7493SOL     OW33940   2.333   3.814   7.018 -0.4917  0.4530  0.2419
 7493SOL    HW133941   2.280   3.833   7.096 -1.0092  0.6263 -0.1515
 7493SOL    HW233942   2.418   3.843   7.052 -1.4520  2.6591  0.7415
 7494SOL     OW33943   3.049   3.698   4.437 -0.3712 -0.6557  0.3561
 7494SOL    HW133944   2.975   3.731   4.386 -0.8847 -0.4739  1.2205
 7494SOL    HW233945   3.008   3.653   4.511 -1.3426  0.2595  0.3766
 7495SOL     OW33946   0.742   4.623  15.997  0.7080 -0.2221  0.0863
 7495SOL    HW133947   0.781   4.629  16.085  1.1110  0.2912 -0.1236
 7495SOL    HW233948   0.764   4.533  15.971 -0.0476 -0.3619 -0.0708
 7496SOL     OW33949   3.624   2.973   9.619  0.1956  0.1571 -0.4136
 7496SOL    HW133950   3.559   3.015   9.562 -1.6424  0.8085  2.1434
 7496SOL    HW233951   3.677   3.048   9.645 -0.3331  0.3884 -0.0093
 7497SOL     OW33952   4.204   4.129   6.571  0.1702 -0.8036 -0.2050
 7497SOL    HW133953   4.114   4.148   6.546  0.8916 -1.4479 -3.3218
 7497SOL    HW233954   4.232   4.216   6.599 -3.0825  0.9684 -2.4114
 7498SOL     OW33955   3.023   1.289   2.863  0.5512  0.6774 -0.2401
 7498SOL    HW133956   3.110   1.259   2.888  0.3938  0.1830 -0.2766
 7498SOL    HW233957   3.002   1.259   2.775 -0.1722 -1.6241  0.6858
 7499SOL     OW33958   4.339   0.447  15.017  0.3088 -0.6555  0.3128
 7499SOL    HW133959   4.328   0.492  14.933  2.0489  1.9987  1.4901
 7499SOL    HW233960   4.313   0.358  14.994 -0.9018 -0.1239 -0.3541
 7500SOL     OW33961   3.796   0.571   7.182 -0.6132  0.0565  0.1308
 7500SOL    HW133962   3.819   0.505   7.117  1.1459  2.0239 -1.2772
 7500SOL    HW233963   3.884   0.597   7.211  1.0454 -2.3888 -2.7264
 7501SOL     OW33964   3.316   4.237   5.480  0.0579  0.3053  0.1256
 7501SOL    HW133965   3.293   4.326   5.456  1.1070  0.6909  0.4986
 7501SOL    HW233966   3.411   4.235   5.469  0.0890  1.1729  0.2615
 7502SOL     OW33967   3.454   1.915  12.634 -0.5608 -0.5641  0.1366
 7502SOL    HW133968   3.491   1.995  12.595 -0.3595 -0.3251  0.8109
 7502SOL    HW233969   3.506   1.848  12.591  2.6501  2.2243 -0.3966
 7503SOL     OW33970   0.264   1.272   6.306 -0.1724 -0.4283 -0.3731
 7503SOL    HW133971   0.252   1.246   6.398 -0.4093  1.9064  0.2612
 7503SOL    HW233972   0.286   1.190   6.264  0.1138 -0.9601  0.8034
 7504SOL     OW33973   2.465   3.752  14.809 -0.2786  0.1739  0.0513
 7504SOL    HW133974   2.547   3.777  14.765 -0.2582 -1.3371 -0.7837
 7504SOL    HW233975   2.447   3.661  14.786 -2.2001  0.4602  0.4543
 7505SOL     OW33976   2.598   4.586   6.599 -0.0998 -0.3210 -0.0389
 7505SOL    HW133977   2.576   4.547   6.684 -1.7932 -0.9244 -0.7439
 7505SOL    HW233978   2.569   4.678   6.601 -1.4408 -0.7729  1.3935
 7506SOL     OW33979   2.022   4.703  11.110  0.4689  0.0233  0.1744
 7506SOL    HW133980   1.983   0.044  11.052  2.0083  0.5104 -0.3149
 7506SOL    HW233981   2.010   0.019  11.196  0.4823 -2.9975  1.5735
 7507SOL     OW33982   0.148   4.440   6.312  0.0257 -0.0284 -0.2335
 7507SOL    HW133983   0.164   4.507   6.379 -0.3727 -0.2835  0.1176
 7507SOL    HW233984   0.055   4.426   6.327 -0.0380  1.6551  0.8796
 7508SOL     OW33985   1.364   4.384  10.833 -0.0886  0.3893  0.4526
 7508SOL    HW133986   1.357   4.290  10.819 -0.5585  0.2822  1.4249
 7508SOL    HW233987   1.294   4.408  10.772  1.2974  0.9448 -0.9073
 7509SOL     OW33988   3.027   0.766   8.751 -0.3805  0.3769 -0.2014
 7509SOL    HW133989   3.053   0.812   8.671  0.5157 -2.2321 -1.4025
 7509SOL    HW233990   3.006   0.841   8.807 -0.7019 -0.6244  1.0314
 7510SOL     OW33991   1.326   3.146  11.279 -0.3352  0.0783  0.8102
 7510SOL    HW133992   1.248   3.183  11.321 -0.0138  1.5112  0.1424
 7510SOL    HW233993   1.347   3.204  11.206 -2.3305  0.3060  0.4246
 7511SOL     OW33994   1.900   0.837  12.612 -0.6636 -0.6666 -0.2390
 7511SOL    HW133995   1.871   0.747  12.602 -0.0600 -0.7749 -1.0869
 7511SOL    HW233996   1.878   0.877  12.527 -2.3154 -0.5177  0.2619
 7512SOL     OW33997   4.428   2.052   5.047  0.2835  0.1148  0.1117
 7512SOL    HW133998   4.522   2.067   5.056 -0.0955  2.9314 -0.8413
 7512SOL    HW233999   4.417   2.125   4.986  1.3804 -1.5734 -2.1032
 7513SOL     OW34000   4.032   2.118   9.510 -0.0478  0.1490  0.0610
 7513SOL    HW134001   3.938   2.115   9.529  0.2774 -0.0809  1.6014
 7513SOL    HW234002   4.061   2.049   9.569  0.6793  1.1702  0.8893
 7514SOL     OW34003   2.422   1.863   3.511 -0.2611  0.4925 -0.2859
 7514SOL    HW134004   2.454   1.810   3.438  1.9620  1.5041 -0.0334
 7514SOL    HW234005   2.505   1.904   3.536  0.0145  0.7771 -1.6898
 7515SOL     OW34006   0.554   0.183  10.398 -0.0176 -0.1769 -0.1128
 7515SOL    HW134007   0.513   0.215  10.318 -0.7465 -0.1852  0.2591
 7515SOL    HW234008   0.627   0.245  10.403  0.0884 -0.1966 -1.2378
 7516SOL     OW34009   2.203   0.028   3.937 -0.5343  0.2910  0.2104
 7516SOL    HW134010   2.243   0.046   3.852  0.3555 -0.0300  0.5659
 7516SOL    HW234011   2.238   4.666   3.960 -0.8793  0.2210  0.4883
 7517SOL     OW34012   2.262   3.661  10.837  0.0320 -0.5924  0.0780
 7517SOL    HW134013   2.291   3.585  10.887  1.6923  0.8252  1.2417
 7517SOL    HW234014   2.322   3.730  10.863 -2.2405  1.8092 -1.1179
 7518SOL     OW34015   0.250   1.189   7.212  0.4349 -0.5487 -0.2634
 7518SOL    HW134016   0.294   1.274   7.204  1.7394 -1.1888  0.1472
 7518SOL    HW234017   0.238   1.184   7.307 -2.1570 -1.2515 -0.6220
 7519SOL     OW34018   2.959   2.447   8.416 -0.5118  0.0737 -0.1991
 7519SOL    HW134019   2.879   2.498   8.430 -0.4893  0.2023 -0.5409
 7519SOL    HW234020   2.992   2.431   8.504  0.5677  0.1421 -0.6023
 7520SOL     OW34021   2.523   0.936   6.890  0.8551  0.2010 -0.0915
 7520SOL    HW134022   2.555   1.025   6.902  0.0334  0.6847 -1.5015
 7520SOL    HW234023   2.573   0.923   6.809  1.7210 -2.2191  0.8137
 7521SOL     OW34024   2.314   3.007  13.611 -0.1349  0.0775  0.1578
 7521SOL    HW134025   2.309   3.044  13.699  1.7834  1.3207 -0.2581
 7521SOL    HW234026   2.364   2.926  13.627  0.5299  0.7793  1.6640
 7522SOL     OW34027   0.758   1.430   2.100 -0.4142 -0.0448  0.1075
 7522SOL    HW134028   0.662   1.431   2.102 -0.4182 -0.1137 -0.0578
 7522SOL    HW234029   0.776   1.496   2.167 -0.1748 -1.8315  1.8458
 7523SOL     OW34030   3.822   2.023  11.502 -0.3002  0.0669 -0.0785
 7523SOL    HW134031   3.907   2.044  11.462 -1.3937 -0.6677 -2.7414
 7523SOL    HW234032   3.761   2.069  11.445 -1.0527 -1.1223 -0.2237
 7524SOL     OW34033   0.840   3.944  11.834 -0.2750 -0.6934 -0.7724
 7524SOL    HW134034   0.918   3.911  11.878 -1.7413 -1.1581  1.4931
 7524SOL    HW234035   0.878   3.980  11.754  1.4219  1.6163  1.0701
 7525SOL     OW34036   3.154   3.413   1.276  0.1617 -0.0863 -0.3657
 7525SOL    HW134037   3.150   3.502   1.312 -0.7879 -0.1270 -0.3871
 7525SOL    HW234038   3.248   3.394   1.285  0.7114  1.8884 -2.0649
 7526SOL     OW34039   1.415   2.496   2.628 -0.0766  0.3239  0.1031
 7526SOL    HW134040   1.495   2.538   2.597 -0.9135  0.3297 -2.0489
 7526SOL    HW234041   1.400   2.428   2.561 -0.0388  1.2570 -0.8524
 7527SOL     OW34042   2.118   2.894  13.257  0.3318 -0.2594  0.2173
 7527SOL    HW134043   2.205   2.857  13.239  0.1722 -1.1607  1.2848
 7527SOL    HW234044   2.134   2.979  13.297  0.7811 -1.2656  2.1904
 7528SOL     OW34045   3.064   3.953   5.030  0.0142  0.3690  0.7022
 7528SOL    HW134046   3.110   4.036   5.020  0.0050  0.0461 -1.8976
 7528SOL    HW234047   2.998   3.955   5.099 -0.9429  0.9654 -0.2394
 7529SOL     OW34048   0.885   1.861   6.377  0.3364 -0.1239  0.5757
 7529SOL    HW134049   0.821   1.798   6.411 -0.0543 -0.4238 -0.7181
 7529SOL    HW234050   0.941   1.855   6.454  0.1554  1.4558  0.8331
 7530SOL     OW34051   3.642   3.597   8.959 -0.7526  0.4287  0.1657
 7530SOL    HW134052   3.584   3.541   8.907  0.3626  1.5360 -2.2900
 7530SOL    HW234053   3.593   3.604   9.041  0.4755 -1.1476  1.0298
 7531SOL     OW34054   3.753   3.883  12.053 -0.1954  0.8703  0.8340
 7531SOL    HW134055   3.821   3.877  11.985  0.3734  1.5969  1.3353
 7531SOL    HW234056   3.698   3.811  12.023 -0.6513  2.3442 -1.8325
 7532SOL     OW34057   1.250   0.655  10.749 -0.5232  0.2058 -0.8694
 7532SOL    HW134058   1.180   0.622  10.805  0.4250 -0.0421  0.1773
 7532SOL    HW234059   1.195   0.700  10.685  0.4826 -1.1260 -2.6615
 7533SOL     OW34060   0.230   0.810   7.139 -0.0890 -0.3148  0.0780
 7533SOL    HW134061   0.293   0.881   7.127  1.1571 -1.4405 -0.0134
 7533SOL    HW234062   0.263   0.747   7.075 -0.1722  2.0192 -2.2599
 7534SOL     OW34063   2.944   0.033  15.190  0.5516  0.1701 -0.1772
 7534SOL    HW134064   2.975   0.121  15.167  2.3902 -0.6435 -0.7593
 7534SOL    HW234065   3.015   4.695  15.181  2.5445  1.8807  3.6541
 7535SOL     OW34066   2.075   1.754   5.413 -0.5639  0.2751  0.8157
 7535SOL    HW134067   2.014   1.695   5.457  1.3383 -3.6424 -1.7012
 7535SOL    HW234068   2.007   1.814   5.382  1.0802  0.5087 -2.3199
 7536SOL     OW34069   0.814   4.556   8.246 -0.1252 -0.2162  0.4452
 7536SOL    HW134070   0.785   4.596   8.164  0.8833  0.1783  0.2828
 7536SOL    HW234071   0.829   4.466   8.218  2.9824  0.9286 -1.5620
 7537SOL     OW34072   1.055   1.494   6.517 -0.0875  0.1155 -0.2871
 7537SOL    HW134073   1.039   1.497   6.422 -3.6060  1.4681  0.3499
 7537SOL    HW234074   1.144   1.462   6.531  0.0694  1.0266  0.7238
 7538SOL     OW34075   4.220   3.222   4.811 -0.0812 -0.1190 -0.1299
 7538SOL    HW134076   4.276   3.148   4.833 -2.7610 -1.8577  0.8710
 7538SOL    HW234077   4.169   3.234   4.892 -0.1724  0.6389 -0.2983
 7539SOL     OW34078   0.282   4.130   5.019 -0.7129  0.0541  0.2422
 7539SOL    HW134079   0.268   4.191   5.092  0.3122  2.8695 -1.9239
 7539SOL    HW234080   0.223   4.055   5.030  0.7492 -1.2711 -0.8772
 7540SOL     OW34081   3.414   2.165   7.746 -0.1702 -0.5139 -0.0876
 7540SOL    HW134082   3.437   2.098   7.810 -2.0469  1.2068  2.3733
 7540SOL    HW234083   3.379   2.119   7.669  1.1958 -0.7013 -0.5920
 7541SOL     OW34084   3.555   3.911   1.981 -0.4258 -0.5618 -0.8394
 7541SOL    HW134085   3.588   3.839   2.035 -0.5597 -0.1636 -0.2151
 7541SOL    HW234086   3.467   3.914   2.019 -0.1711  1.0898 -0.3413
 7542SOL     OW34087   3.682   1.134  14.049 -0.3799 -0.2103 -0.3515
 7542SOL    HW134088   3.615   1.164  13.986 -1.9245 -0.7153  1.0467
 7542SOL    HW234089   3.647   1.169  14.131  3.3590 -0.7184  1.4421
 7543SOL     OW34090   1.734   1.031  12.765  0.0153  0.5624 -0.3154
 7543SOL    HW134091   1.782   0.955  12.733 -1.1109 -0.4127  0.3302
 7543SOL    HW234092   1.745   1.021  12.859  0.6138  0.4922 -0.3919
 7544SOL     OW34093   2.185   1.894   8.633 -0.0853  0.2388 -0.2064
 7544SOL    HW134094   2.115   1.959   8.634  0.0639  0.3302  3.2135
 7544SOL    HW234095   2.151   1.830   8.696  1.8283 -0.4375  0.1470
 7545SOL     OW34096   3.330   1.773   9.416 -0.5789  0.1889 -0.1759
 7545SOL    HW134097   3.245   1.730   9.403 -1.3454  1.3013  1.1404
 7545SOL    HW234098   3.392   1.732   9.355  1.1148 -1.0931  2.3885
 7546SOL     OW34099   3.762   3.325  17.597 -0.5809  0.3775 -0.6803
 7546SOL    HW134100   3.769   3.392  17.529 -0.0033  2.4039  1.3514
 7546SOL    HW234101   3.790   3.381  17.669 -1.1762  0.0536 -0.2004
 7547SOL     OW34102   2.279   1.780   7.200 -0.2492 -0.4560  0.1325
 7547SOL    HW134103   2.344   1.729   7.152 -1.9798 -0.0348 -2.6548
 7547SOL    HW234104   2.296   1.869   7.170  1.3578 -1.0297 -0.6623
 7548SOL     OW34105   1.907   4.370  14.581  0.0091 -0.2166  0.0065
 7548SOL    HW134106   1.905   4.403  14.491  1.6367 -0.1390  0.0049
 7548SOL    HW234107   1.991   4.408  14.606  0.5680 -2.5512  1.6749
 7549SOL     OW34108   0.519   4.376   4.819 -0.0154  0.6656  0.2784
 7549SOL    HW134109   0.574   4.373   4.741  0.9522  2.7105  0.8890
 7549SOL    HW234110   0.575   4.341   4.889 -1.6005 -1.3823  0.5350
 7550SOL     OW34111   0.015   4.723   5.557 -0.5218 -0.0042  0.4819
 7550SOL    HW134112   0.074   4.655   5.589 -0.5577  0.2943  1.1811
 7550SOL    HW234113   4.720   4.700   5.466  0.8724  1.4759 -0.1663
 7551SOL     OW34114   3.233   4.087   3.267 -0.2781 -0.0517 -0.0144
 7551SOL    HW134115   3.301   4.142   3.229  0.6131 -1.7429 -0.8594
 7551SOL    HW234116   3.251   4.089   3.361 -0.1731 -1.5076 -0.0041
 7552SOL     OW34117   1.330   1.989   1.191  0.1007  0.3069  0.3052
 7552SOL    HW134118   1.235   1.991   1.200  0.0346 -1.6506  0.1547
 7552SOL    HW234119   1.334   2.058   1.124 -0.8550 -1.7290 -1.8505
 7553SOL     OW34120   4.287   2.650   0.344  0.1515  0.2992 -0.3600
 7553SOL    HW134121   4.314   2.571   0.390 -0.2982  0.3951  0.0673
 7553SOL    HW234122   4.345   2.718   0.378 -0.8872  1.3468 -0.6448
 7554SOL     OW34123   1.867   1.095   6.687 -0.1639  0.0594 -0.2635
 7554SOL    HW134124   1.831   1.180   6.662  0.7659  0.4193 -0.3773
 7554SOL    HW234125   1.952   1.085   6.643  0.1552  0.1162  0.3364
 7555SOL     OW34126   0.430   0.891   9.387  0.2062  0.1002 -0.3939
 7555SOL    HW134127   0.410   0.800   9.370 -0.9904  0.3288 -0.1872
 7555SOL    HW234128   0.452   0.886   9.481 -0.8561 -0.5735 -0.1865
 7556SOL     OW34129   4.687   2.015   8.092  0.3007  0.3811 -0.2680
 7556SOL    HW134130   0.005   1.989   8.174 -1.0768  1.1349  0.6723
 7556SOL    HW234131   4.656   1.929   8.063 -1.1820  0.4268  1.1481
 7557SOL     OW34132   4.183   4.712  16.468  0.3515 -0.3491  0.2590
 7557SOL    HW134133   4.217   0.004  16.380  1.4167  0.6336  0.8404
 7557SOL    HW234134   4.236   4.633  16.485 -0.1734 -0.2987  2.1025
 7558SOL     OW34135   3.463   1.223  13.945 -0.0721  0.1518  0.0979
 7558SOL    HW134136   3.469   1.238  13.851  0.1165 -1.6715 -0.1782
 7558SOL    HW234137   3.369   1.203  13.952 -0.0847 -1.0671 -3.6599
 7559SOL     OW34138   3.218   3.469   1.890 -0.4805 -0.0467 -0.1743
 7559SOL    HW134139   3.146   3.412   1.916  0.1156 -1.0855 -0.7827
 7559SOL    HW234140   3.252   3.497   1.974  0.0974 -2.6565  0.4714
 7560SOL     OW34141   3.404   0.432   8.731  0.0014 -0.2358 -0.4272
 7560SOL    HW134142   3.361   0.398   8.809  2.3950  0.0191  0.9726
 7560SOL    HW234143   3.490   0.445   8.770 -0.7238  1.4314  0.6135
 7561SOL     OW34144   4.484   0.057   5.216 -0.3762 -0.2021 -0.5660
 7561SOL    HW134145   4.419   0.077   5.148 -1.0307 -1.0521 -0.2019
 7561SOL    HW234146   4.456   0.115   5.288  2.3802 -1.8749  1.8533
 7562SOL     OW34147   2.007   3.291   4.975 -0.3103  0.0556  0.5032
 7562SOL    HW134148   2.038   3.254   5.058 -1.9334 -1.4528  0.4240
 7562SOL    HW234149   2.001   3.381   5.009  0.6041 -0.3064  1.6211
 7563SOL     OW34150   4.108   1.883   5.870 -0.0234 -0.0089 -0.1356
 7563SOL    HW134151   4.149   1.954   5.919 -1.5973  0.8472 -0.0791
 7563SOL    HW234152   4.086   1.824   5.942 -0.4796  0.0377 -0.2369
 7564SOL     OW34153   3.737   3.071   6.463 -0.0354 -0.8420 -0.2616
 7564SOL    HW134154   3.666   3.098   6.522  0.3334  1.5429 -0.9433
 7564SOL    HW234155   3.698   2.994   6.421 -2.7697 -0.4790  1.5512
 7565SOL     OW34156   0.772   0.962   9.434  0.3294  0.5430 -0.0060
 7565SOL    HW134157   0.745   0.921   9.351 -0.7100  0.3566  0.4192
 7565SOL    HW234158   0.700   0.942   9.494  1.1627  2.1530  1.5061
 7566SOL     OW34159   1.598   2.533  17.007 -0.3632  0.9190  0.4813
 7566SOL    HW134160   1.539   2.580  17.066 -1.5078  0.6560 -0.4570
 7566SOL    HW234161   1.626   2.603  16.947 -0.9734  0.9787  0.2676
 7567SOL     OW34162   0.708   1.862  10.283 -0.8962 -0.0834 -0.1091
 7567SOL    HW134163   0.726   1.924  10.213 -0.4840 -1.7455 -1.4762
 7567SOL    HW234164   0.692   1.780  10.235  0.0720 -1.1246  1.3593
 7568SOL     OW34165   2.377   1.802   9.045  0.2413 -0.0760  0.2800
 7568SOL    HW134166   2.304   1.847   9.086  0.4563  0.5553 -0.0301
 7568SOL    HW234167   2.447   1.859   9.077 -1.7735  2.3708  0.2169
 7569SOL     OW34168   0.750   1.745  11.496  0.2289  0.0223 -0.2128
 7569SOL    HW134169   0.773   1.794  11.576 -3.0301  0.3292  0.5422
 7569SOL    HW234170   0.717   1.661  11.527  0.4205 -0.5015 -1.4407
 7570SOL     OW34171   1.113   2.051   0.722  0.4035 -0.1662 -0.3531
 7570SOL    HW134172   1.159   1.998   0.657 -1.9923 -1.5969 -0.8411
 7570SOL    HW234173   1.045   1.990   0.748  1.2665 -1.7696 -1.8691
 7571SOL     OW34174   2.366   0.050   6.994 -0.2486 -0.1301  0.2004
 7571SOL    HW134175   2.283   0.082   7.031 -0.3793  2.8456 -2.7332
 7571SOL    HW234176   2.423   0.120   7.026 -0.2969 -0.1236  0.2743
 7572SOL     OW34177   0.599   2.919   6.508  0.2913 -0.0931 -0.3583
 7572SOL    HW134178   0.524   2.860   6.503 -0.0843  0.4599 -1.2335
 7572SOL    HW234179   0.620   2.920   6.415  0.7754  1.2173 -0.2416
 7573SOL     OW34180   0.554   4.704   1.072  0.4931 -0.2434 -0.0740
 7573SOL    HW134181   0.540   0.051   1.008 -0.2789 -0.4194 -0.1006
 7573SOL    HW234182   0.649   4.707   1.082  0.4281  0.4331  0.3397
 7574SOL     OW34183   3.070   0.542   7.376  0.6882  0.4615 -0.0607
 7574SOL    HW134184   3.035   0.612   7.321 -1.7188  1.6439  3.0034
 7574SOL    HW234185   3.100   0.594   7.450  0.1899  0.4890  0.1198
 7575SOL     OW34186   4.459   4.694   4.381 -0.1046 -0.0392 -0.1314
 7575SOL    HW134187   4.534   4.638   4.358 -0.8603 -1.5208  1.0431
 7575SOL    HW234188   4.430   4.707   4.290 -1.2408  0.6407  0.3279
 7576SOL     OW34189   4.539   3.392  16.803 -0.3276 -0.4032  0.1129
 7576SOL    HW134190   4.570   3.344  16.880 -0.3736  0.6418  0.7803
 7576SOL    HW234191   4.590   3.472  16.808  0.0710 -0.4244 -3.5213
 7577SOL     OW34192   3.005   1.238   3.526 -0.1486  0.3338  0.3581
 7577SOL    HW134193   2.976   1.180   3.456  1.6515 -0.2978  0.1489
 7577SOL    HW234194   2.923   1.283   3.549 -2.0978 -1.7154 -2.5362
 7578SOL     OW34195   3.641   1.504   3.739 -0.5474  0.3083 -0.0652
 7578SOL    HW134196   3.625   1.598   3.737 -1.4905  0.1520  0.2899
 7578SOL    HW234197   3.701   1.491   3.665 -2.5227  0.2280 -1.6457
 7579SOL     OW34198   3.143   4.137   4.348 -0.6910  0.0600 -0.7078
 7579SOL    HW134199   3.054   4.131   4.382 -0.5876  2.4283 -0.0387
 7579SOL    HW234200   3.183   4.059   4.386  1.4666  1.7611  0.5794
 7580SOL     OW34201   2.566   3.334   2.040  0.2641 -0.1100 -0.3877
 7580SOL    HW134202   2.535   3.399   1.978  1.1559 -0.8132 -1.5790
 7580SOL    HW234203   2.611   3.386   2.106  0.3284  0.2160 -0.6898
 7581SOL     OW34204   4.010   3.826  12.204 -0.0450 -0.3785  0.4015
 7581SOL    HW134205   4.004   3.747  12.258  0.7335 -1.9325 -1.7800
 7581SOL    HW234206   3.917   3.847  12.207  0.4197  1.5972  0.9278
 7582SOL     OW34207   3.381   4.456  16.187 -0.3059 -0.0340 -0.0572
 7582SOL    HW134208   3.347   4.440  16.099 -1.8118  1.0437  0.3515
 7582SOL    HW234209   3.394   4.550  16.198  0.2511  0.0736 -1.6445
 7583SOL     OW34210   3.742   3.545  17.421 -0.4875  0.3135 -0.0800
 7583SOL    HW134211   3.667   3.540  17.362 -1.9864 -1.1637  1.9704
 7583SOL    HW234212   3.756   3.639  17.431  2.7526 -0.1815  0.2275
 7584SOL     OW34213   3.687   4.210   8.875  0.2018 -0.4693 -0.7071
 7584SOL    HW134214   3.604   4.223   8.830 -0.3309  2.1372  0.9777
 7584SOL    HW234215   3.685   4.272   8.948 -0.1123 -1.2116 -0.0820
 7585SOL     OW34216   2.913   3.003   5.202  0.1884  0.4707 -0.4748
 7585SOL    HW134217   2.948   3.039   5.283  0.5433 -0.4972 -0.2030
 7585SOL    HW234218   2.850   2.941   5.238  0.3917  0.2437 -0.5124
 7586SOL     OW34219   0.111   3.332   4.073  0.1045  0.5694  0.2335
 7586SOL    HW134220   0.068   3.323   4.158 -0.3631 -0.3577 -0.1000
 7586SOL    HW234221   0.029   3.337   4.025 -0.6987 -0.0554  1.5620
 7587SOL     OW34222   2.406   0.399   0.978 -0.5203  0.1186  0.1011
 7587SOL    HW134223   2.473   0.437   1.035  0.1790 -1.0079  0.0302
 7587SOL    HW234224   2.413   0.312   1.018  0.9922  0.5453  0.7502
 7588SOL     OW34225   1.332   3.068   5.740 -0.0023  0.1651  0.1979
 7588SOL    HW134226   1.340   3.095   5.831  0.4539 -3.5165  1.2556
 7588SOL    HW234227   1.270   2.996   5.754 -1.1032  1.3274  1.2760
 7589SOL     OW34228   3.527   2.482   6.017  0.5099  0.3904 -0.5511
 7589SOL    HW134229   3.444   2.512   6.056  0.5540 -2.8219  2.0103
 7589SOL    HW234230   3.545   2.400   6.062 -0.4436 -1.5234 -3.6841
 7590SOL     OW34231   4.391   1.069   6.679  0.0522 -0.4992 -0.3798
 7590SOL    HW134232   4.391   1.112   6.765 -0.7510  0.9588 -1.1119
 7590SOL    HW234233   4.297   1.071   6.662 -0.1352  1.2504  0.8433
 7591SOL     OW34234   3.944   2.608   1.717  0.0843 -0.2584  0.2115
 7591SOL    HW134235   3.965   2.550   1.645  1.0149  2.3068 -1.5755
 7591SOL    HW234236   3.885   2.673   1.679 -1.4161 -1.4109  0.5714
 7592SOL     OW34237   4.709   0.740   1.771  0.1005  0.1522 -0.0675
 7592SOL    HW134238   4.699   0.835   1.771 -1.3762  0.0075 -0.8428
 7592SOL    HW234239   4.684   0.719   1.680  0.7889  0.1511 -0.2574
 7593SOL     OW34240   1.103   0.961   8.326 -0.2424  0.0542  0.7892
 7593SOL    HW134241   1.043   0.900   8.369  0.6021 -2.1593 -1.1194
 7593SOL    HW234242   1.040   1.030   8.305  0.4701  0.2893 -0.5712
 7594SOL     OW34243   4.051   4.571   1.321 -0.0873 -0.1140 -0.3628
 7594SOL    HW134244   4.050   4.601   1.230  1.2989  1.2193  0.0516
 7594SOL    HW234245   4.123   4.626   1.351 -1.2866 -0.0335  2.4135
 7595SOL     OW34246   3.243   1.721   6.728 -0.0835 -0.3591  0.6867
 7595SOL    HW134247   3.222   1.801   6.680  0.1346 -0.3215  0.6534
 7595SOL    HW234248   3.161   1.672   6.718 -0.0434 -0.3195  0.1722
 7596SOL     OW34249   3.377   4.204   0.697 -0.6196 -0.7828 -0.3866
 7596SOL    HW134250   3.343   4.227   0.611  1.5087  1.7918 -0.5229
 7596SOL    HW234251   3.434   4.129   0.680 -0.0512 -1.0669  2.7286
 7597SOL     OW34252   3.941   1.024   1.098 -0.3144  0.3662  0.1361
 7597SOL    HW134253   4.014   1.066   1.142  0.0607  0.1589 -0.2895
 7597SOL    HW234254   3.966   1.033   1.006  0.0602 -1.1642  0.0994
 7598SOL     OW34255   1.234   3.581   5.966  0.0285  0.6144  0.8039
 7598SOL    HW134256   1.244   3.488   5.943 -1.2330  0.5749  0.4018
 7598SOL    HW234257   1.153   3.581   6.017 -0.4933  1.7064 -0.0167
 7599SOL     OW34258   4.043   0.217   2.366 -0.2773 -0.2914  0.2912
 7599SOL    HW134259   4.118   0.269   2.394 -2.0004  2.1738  0.3596
 7599SOL    HW234260   4.082   0.132   2.346  0.4123  0.1804 -0.4272
 7600SOL     OW34261   1.259   2.694  16.230 -0.2682 -0.0452 -0.9664
 7600SOL    HW134262   1.204   2.698  16.151 -0.2180  3.3480 -0.8263
 7600SOL    HW234263   1.280   2.601  16.232  1.5843  0.3847 -0.6749
 7601SOL     OW34264   0.440   1.822   9.980 -0.3486  0.7409 -0.7272
 7601SOL    HW134265   0.422   1.876   9.904 -0.9506  2.3618  0.5615
 7601SOL    HW234266   0.473   1.891  10.037  0.7589 -0.0547 -0.4044
 7602SOL     OW34267   2.075   1.757   4.393 -0.0652  0.2991 -0.1077
 7602SOL    HW134268   2.058   1.847   4.420  0.7242  0.1237  0.9882
 7602SOL    HW234269   2.137   1.770   4.322 -0.1545 -2.5758 -0.7472
 7603SOL     OW34270   3.773   2.521   9.949  0.6362  0.6036 -0.3262
 7603SOL    HW134271   3.867   2.530   9.937  0.4796  2.5033 -0.1022
 7603SOL    HW234272   3.752   2.596  10.004  0.5980  2.7181 -3.2372
 7604SOL     OW34273   1.317   3.860   0.359 -0.3920  0.3255  0.3338
 7604SOL    HW134274   1.246   3.828   0.304  0.9336  0.9104 -1.7549
 7604SOL    HW234275   1.359   3.776   0.377  2.9527  1.7716 -0.6210
 7605SOL     OW34276   1.500   1.524  11.628 -0.4390  0.0652  0.6087
 7605SOL    HW134277   1.592   1.506  11.649 -0.2770  0.2268  0.0208
 7605SOL    HW234278   1.516   1.597  11.569 -1.6399 -0.7853 -0.7558
 7606SOL     OW34279   1.207   4.680  11.446  0.0635 -0.1337 -0.3030
 7606SOL    HW134280   1.245   4.593  11.436  0.0768 -0.3135  1.3094
 7606SOL    HW234281   1.155   4.674  11.527 -1.0437 -0.8086 -1.0688
 7607SOL     OW34282   4.335   3.357   5.972  0.2276  0.7307 -0.1432
 7607SOL    HW134283   4.347   3.295   6.044  0.4899 -0.9748 -1.6743
 7607SOL    HW234284   4.405   3.421   5.987  0.3917  0.4147  0.4115
 7608SOL     OW34285   3.796   2.579   3.318  0.1267  0.1950 -0.4015
 7608SOL    HW134286   3.869   2.629   3.280 -0.0813  0.6445 -0.2052
 7608SOL    HW234287   3.729   2.645   3.299 -2.1992 -2.2157 -0.5979
 7609SOL     OW34288   3.953   2.223   7.568  0.0862 -0.0605 -0.1909
 7609SOL    HW134289   3.944   2.310   7.608  1.0255 -0.0237 -0.0517
 7609SOL    HW234290   3.868   2.221   7.526 -1.0833  0.7079  2.1599
 7610SOL     OW34291   3.220   2.393   3.980  0.4497  0.8277  0.4124
 7610SOL    HW134292   3.258   2.453   3.916 -0.1543 -0.3584 -1.0467
 7610SOL    HW234293   3.286   2.331   4.011  0.6791  1.4129  1.0980
 7611SOL     OW34294   0.202   2.123   3.625 -0.8348 -0.6237  0.1013
 7611SOL    HW134295   0.168   2.082   3.545  0.7255  1.0822 -1.4282
 7611SOL    HW234296   0.294   2.138   3.604 -0.4607 -2.6187  0.2643
 7612SOL     OW34297   4.119   3.116   3.366  0.0461  0.1521  0.5821
 7612SOL    HW134298   4.044   3.058   3.350 -0.8093  1.7452 -1.1857
 7612SOL    HW234299   4.177   3.073   3.429  0.5348  0.0131  0.0428
 7613SOL     OW34300   0.791   1.832   6.123  0.0328  0.5750 -0.1742
 7613SOL    HW134301   0.726   1.903   6.115 -0.9364 -0.2881  0.0908
 7613SOL    HW234302   0.836   1.868   6.199  0.0815  0.0424  0.0438
 7614SOL     OW34303   1.235   4.507   5.670  0.1306  0.0981 -0.1930
 7614SOL    HW134304   1.142   4.486   5.661  0.2885 -1.0842  0.9613
 7614SOL    HW234305   1.262   4.494   5.579 -2.7192  0.0496 -1.0331
 7615SOL     OW34306   1.680   4.467   4.097 -0.3015  0.1483  0.4039
 7615SOL    HW134307   1.764   4.480   4.052 -0.1514 -0.7414  0.4254
 7615SOL    HW234308   1.700   4.410   4.171 -2.5487 -0.7223  0.3466
 7616SOL     OW34309   0.340   1.556  10.227  0.4807 -0.9203 -0.5071
 7616SOL    HW134310   0.295   1.603  10.157 -0.2298  0.3788  0.8362
 7616SOL    HW234311   0.376   1.625  10.283 -2.6809 -0.7695  1.3123
 7617SOL     OW34312   0.301   2.981   6.713  0.5178  0.2584  0.3519
 7617SOL    HW134313   0.303   3.076   6.726  0.8361  0.4161 -0.8685
 7617SOL    HW234314   0.363   2.953   6.780 -0.3423 -0.5913  0.7839
 7618SOL     OW34315   3.505   4.618   6.029  0.0490 -0.6171  0.2880
 7618SOL    HW134316   3.512   4.636   6.123  1.1053 -1.5293  0.3850
 7618SOL    HW234317   3.597   4.599   6.010  0.4564  1.6565 -0.0338
 7619SOL     OW34318   3.994   2.605   4.796 -0.5049  0.1931  0.1564
 7619SOL    HW134319   3.985   2.694   4.831 -0.7073  0.6020 -0.9348
 7619SOL    HW234320   3.907   2.596   4.758 -1.0051  1.0190  1.1121
 7620SOL     OW34321   4.010   2.722   8.877 -0.3158  0.1543 -0.0144
 7620SOL    HW134322   4.030   2.815   8.864  2.5462 -0.1398  2.2747
 7620SOL    HW234323   4.072   2.701   8.947 -0.1340 -2.9259 -1.1307
 7621SOL     OW34324   0.706   4.602   5.768 -0.6318  0.6049  0.1276
 7621SOL    HW134325   0.774   4.669   5.762 -0.5721  0.2919 -2.5052
 7621SOL    HW234326   0.730   4.550   5.845  3.0029  0.4180 -1.1158
 7622SOL     OW34327   2.085   2.823   6.225  0.7832 -0.0411 -0.3393
 7622SOL    HW134328   2.011   2.820   6.165  1.3657 -3.5798 -0.9207
 7622SOL    HW234329   2.094   2.734   6.260 -0.3921 -0.3141 -0.7470
 7623SOL     OW34330   1.525   0.865  15.660  0.5924 -0.3051 -0.4249
 7623SOL    HW134331   1.469   0.797  15.624 -0.9184 -0.3571  2.0603
 7623SOL    HW234332   1.466   0.941  15.656 -0.0150 -0.7061  1.3223
 7624SOL     OW34333   3.482   1.250   5.486  0.2887 -0.3082  0.4061
 7624SOL    HW134334   3.520   1.217   5.568 -2.3841 -1.5030  1.1607
 7624SOL    HW234335   3.434   1.168   5.470  1.0091 -0.2643 -1.9827
 7625SOL     OW34336   1.472   2.436   3.745  0.1249 -0.2503  0.3008
 7625SOL    HW134337   1.540   2.482   3.792  0.8086 -1.2084  0.2620
 7625SOL    HW234338   1.408   2.428   3.815  0.4937  1.6744  0.8467
 7626SOL     OW34339   2.954   2.449   4.637  0.5595 -0.1204 -0.2607
 7626SOL    HW134340   2.867   2.416   4.659 -0.5121  0.3444 -3.8319
 7626SOL    HW234341   2.945   2.544   4.647  0.7466 -0.3851  2.4795
 7627SOL     OW34342   3.550   2.734  14.121  0.8881  0.3766 -0.8283
 7627SOL    HW134343   3.492   2.801  14.085  0.2619  0.9619  1.2842
 7627SOL    HW234344   3.632   2.768  14.085  1.4473 -0.0867  0.0094
 7628SOL     OW34345   0.784   2.968   9.472 -0.0108 -0.2388  0.0990
 7628SOL    HW134346   0.737   2.966   9.388  0.4429 -0.9712 -0.1389
 7628SOL    HW234347   0.743   2.896   9.521 -3.1772  1.0724 -0.5900
 7629SOL     OW34348   1.884   3.767   6.899  0.4478 -0.2484 -0.6037
 7629SOL    HW134349   1.820   3.832   6.928  0.9585  0.2444 -0.5719
 7629SOL    HW234350   1.914   3.809   6.818 -0.2572  0.9518 -0.2476
 7630SOL     OW34351   2.538   2.541   2.661 -0.3295 -0.2434  0.0793
 7630SOL    HW134352   2.602   2.609   2.683  1.8638 -2.2819  0.0748
 7630SOL    HW234353   2.532   2.540   2.565 -3.1684 -0.0688  0.2538
 7631SOL     OW34354   1.574   2.914   6.673 -0.2508 -0.2309  0.3269
 7631SOL    HW134355   1.509   2.907   6.743 -2.4966  0.7790 -1.6618
 7631SOL    HW234356   1.527   2.899   6.591  1.0404 -2.3064 -0.0084
 7632SOL     OW34357   2.404   2.907   3.400 -0.3728 -0.3444  0.4211
 7632SOL    HW134358   2.407   2.898   3.304  0.8803  2.3534  0.2060
 7632SOL    HW234359   2.337   2.972   3.421 -0.5989 -0.8063  1.1289
 7633SOL     OW34360   1.539   4.620   5.282 -0.0401 -0.1166 -0.3861
 7633SOL    HW134361   1.603   4.566   5.236 -1.8292 -1.1887 -1.6178
 7633SOL    HW234362   1.514   4.687   5.218 -5.0312 -2.0657 -0.5330
 7634SOL     OW34363   0.570   2.449   9.360 -0.4814  0.0510 -0.2038
 7634SOL    HW134364   0.640   2.504   9.394  0.1848 -0.4316 -0.8127
 7634SOL    HW234365   0.615   2.402   9.290 -1.2421  0.2156 -0.8068
 7635SOL     OW34366   1.752   1.618   7.312 -0.3560  0.3993 -0.0894
 7635SOL    HW134367   1.755   1.706   7.275 -1.3909 -0.8294 -3.0308
 7635SOL    HW234368   1.678   1.626   7.373  0.1672  1.0637  0.4594
 7636SOL     OW34369   4.483   1.533   7.670  0.2964 -0.3131  0.0039
 7636SOL    HW134370   4.497   1.617   7.627 -2.9880  0.5987  0.6790
 7636SOL    HW234371   4.430   1.564   7.743  0.4880  1.7079 -0.7196
 7637SOL     OW34372   3.467   0.295  14.964 -0.5906 -0.0629 -0.5154
 7637SOL    HW134373   3.408   0.260  14.898 -0.8314  1.7588 -1.2780
 7637SOL    HW234374   3.552   0.282  14.922 -1.0028 -4.0223 -0.0830
 7638SOL     OW34375   3.419   2.119   3.328  0.3884  0.0889 -0.2687
 7638SOL    HW134376   3.411   2.126   3.423 -0.5913 -2.5828 -0.1621
 7638SOL    HW234377   3.441   2.210   3.308  0.8951 -0.0495 -0.3498
 7639SOL     OW34378   1.392   3.209   8.612 -0.0627  0.7174 -0.0569
 7639SOL    HW134379   1.452   3.137   8.597  0.5812  1.5943 -1.7370
 7639SOL    HW234380   1.418   3.231   8.702 -1.0885  0.1411  0.3781
 7640SOL     OW34381   4.247   4.069   2.035  0.2063 -0.0292 -0.2731
 7640SOL    HW134382   4.176   4.133   2.032  0.5739  0.3378 -1.2128
 7640SOL    HW234383   4.200   4.008   1.979  0.2462 -3.8008  3.7804
 7641SOL     OW34384   4.713   3.118   5.170  0.1022 -0.1603 -0.3756
 7641SOL    HW134385   0.027   3.030   5.165 -1.6136 -0.8730 -1.0109
 7641SOL    HW234386   4.622   3.107   5.141 -0.2779  2.1837 -0.0174
 7642SOL     OW34387   0.465   3.329   6.581  0.1826 -0.0538 -0.1836
 7642SOL    HW134388   0.448   3.311   6.674 -1.4296 -1.7772 -0.7900
 7642SOL    HW234389   0.559   3.342   6.585 -0.2452  3.6584 -2.6639
 7643SOL     OW34390   2.980   0.597  17.007  0.1403 -0.3308  0.6514
 7643SOL    HW134391   2.934   0.662  17.060 -0.9956 -0.3639 -0.2860
 7643SOL    HW234392   3.016   0.549  17.081  0.3060  0.9691  1.4080
 7644SOL     OW34393   4.008   2.179  15.157 -0.0404  0.0688 -0.2897
 7644SOL    HW134394   4.057   2.101  15.183 -0.8985  0.2216  1.7314
 7644SOL    HW234395   4.084   2.235  15.142  2.2274 -2.3288  2.4643
 7645SOL     OW34396   2.940   1.061   7.041 -0.0039 -0.2871 -0.0878
 7645SOL    HW134397   3.014   1.090   7.094 -1.6663 -0.7863  2.5260
 7645SOL    HW234398   2.979   0.983   7.002 -0.6766  0.2188 -1.7666
 7646SOL     OW34399   1.035   3.894   3.340  0.3562 -0.6484 -0.7280
 7646SOL    HW134400   1.127   3.896   3.313  0.8273  1.2073  0.9366
 7646SOL    HW234401   1.000   3.964   3.285  0.2664 -0.3380 -0.2738
 7647SOL     OW34402   3.105   2.488   6.967  0.4211  0.4926 -0.2062
 7647SOL    HW134403   3.044   2.460   6.899  1.0392  1.2448 -1.0756
 7647SOL    HW234404   3.089   2.581   6.981  1.1060  0.2739  2.0040
 7648SOL     OW34405   4.244   2.833  10.882 -0.0922 -0.2457 -0.0551
 7648SOL    HW134406   4.333   2.810  10.855  0.1234  1.3155 -0.6706
 7648SOL    HW234407   4.222   2.906  10.824 -2.1132 -1.0452 -0.2978
 7649SOL     OW34408   0.147   1.396   0.598  0.1379  0.1978  0.4843
 7649SOL    HW134409   0.223   1.378   0.543  0.3936  0.8598  0.6163
 7649SOL    HW234410   0.072   1.404   0.539 -0.2782  0.6287  1.0692
 7650SOL     OW34411   1.207   3.401   6.867  0.1040 -0.3807  0.3830
 7650SOL    HW134412   1.158   3.437   6.941  0.9345  2.1727 -0.2799
 7650SOL    HW234413   1.254   3.476   6.829 -0.8912  0.1854  0.2906
 7651SOL     OW34414   4.038   4.633   1.908  0.3858  0.3639 -0.0165
 7651SOL    HW134415   3.996   4.718   1.896  1.5752  0.7552 -1.3294
 7651SOL    HW234416   3.971   4.584   1.862  0.3207 -0.1243  0.5937
 7652SOL     OW34417   0.155   1.471  12.184 -0.6318 -0.1978  0.2360
 7652SOL    HW134418   0.094   1.475  12.110 -0.7092  0.7073  0.3498
 7652SOL    HW234419   0.118   1.540  12.240 -0.1894 -0.0122  0.2991
 7653SOL     OW34420   1.980   4.374   4.386 -0.4362  0.2332 -0.1134
 7653SOL    HW134421   2.032   4.368   4.467 -0.0939 -1.4316 -0.4575
 7653SOL    HW234422   2.055   4.387   4.328 -1.4498  1.6670 -1.0792
 7654SOL     OW34423   0.251   4.385   9.949  0.3237  0.8763 -0.2416
 7654SOL    HW134424   0.337   4.398   9.988  0.2024  1.0224 -0.0240
 7654SOL    HW234425   0.247   4.290   9.940 -0.7239  1.1482 -2.6706
 7655SOL     OW34426   0.370   2.928   4.704  0.4329  0.0707  0.2017
 7655SOL    HW134427   0.449   2.874   4.704  0.0335 -0.5231 -0.0669
 7655SOL    HW234428   0.366   2.939   4.609  0.5614  0.4024  0.2368
 7656SOL     OW34429   4.115   2.211   9.284  0.2105  0.3218  0.3163
 7656SOL    HW134430   4.076   2.176   9.363  0.8727  1.7208  1.2702
 7656SOL    HW234431   4.084   2.143   9.224  0.5052  0.1675  0.3406
 7657SOL     OW34432   4.627   4.642   9.103 -0.1200 -0.4998 -0.3764
 7657SOL    HW134433   4.550   4.628   9.049  0.5516 -0.1609 -1.4354
 7657SOL    HW234434   4.634   0.012   9.120  0.0833 -0.3427 -1.3244
 7658SOL     OW34435   2.092   3.527   5.061 -0.0984 -0.1124  0.3602
 7658SOL    HW134436   2.005   3.545   5.097 -0.1677 -0.4668  0.3739
 7658SOL    HW234437   2.143   3.568   5.132 -0.5079  0.3010  0.4134
 7659SOL     OW34438   4.630   4.242   5.128  0.4646 -0.2451 -0.1121
 7659SOL    HW134439   4.610   4.334   5.109 -1.0675 -0.5659 -0.1130
 7659SOL    HW234440   4.643   4.210   5.038 -2.2105 -0.8210 -0.3114
 7660SOL     OW34441   4.379   2.273   4.875  0.3150 -0.4560 -1.2074
 7660SOL    HW134442   4.295   2.318   4.887  1.2446  0.3038  2.6445
 7660SOL    HW234443   4.344   2.205   4.817  0.8888 -0.8483 -1.0892
 7661SOL     OW34444   4.424   0.561   6.717 -0.4444 -0.2702 -0.3576
 7661SOL    HW134445   4.458   0.526   6.634 -0.7026 -4.1087  1.1800
 7661SOL    HW234446   4.502   0.553   6.771 -0.7502 -2.0372 -0.1698
 7662SOL     OW34447   2.398   0.647   9.471 -0.0061  0.6551 -0.9701
 7662SOL    HW134448   2.304   0.665   9.476  0.5361  2.9763  0.6365
 7662SOL    HW234449   2.388   0.559   9.436  0.5001  1.1549 -2.3806
 7663SOL     OW34450   0.001   3.972  10.077  0.0146  0.3793  0.2895
 7663SOL    HW134451   0.030   3.884  10.054 -0.0663  0.1801  0.9514
 7663SOL    HW234452   0.032   3.977  10.168 -0.9224  1.4590  0.5580
 7664SOL     OW34453   0.361   1.108  17.382  0.0078  0.8501  0.0410
 7664SOL    HW134454   0.338   1.106  17.475 -0.9594  0.0319 -0.2144
 7664SOL    HW234455   0.347   1.199  17.358 -0.9692  1.1457  1.7410
 7665SOL     OW34456   4.717   4.706   7.439 -0.1274  0.4112 -0.0805
 7665SOL    HW134457   4.654   4.672   7.375 -3.4354  0.7760  2.9137
 7665SOL    HW234458   4.694   4.643   7.508  1.6325 -0.9956 -0.7732
 7666SOL     OW34459   0.131   0.832   5.114 -0.0821 -0.0572  0.3055
 7666SOL    HW134460   0.066   0.892   5.149 -0.2146  0.2025 -0.3860
 7666SOL    HW234461   0.082   0.750   5.116 -0.3991  0.1380  0.3857
 7667SOL     OW34462   0.830   3.413   9.734 -0.1623 -0.4242  0.0109
 7667SOL    HW134463   0.751   3.359   9.731 -0.3376 -0.2301  1.1985
 7667SOL    HW234464   0.858   3.376   9.818  3.4322 -1.9128 -1.8063
 7668SOL     OW34465   3.918   4.055  15.386  0.4896 -0.2041  1.0720
 7668SOL    HW134466   4.010   4.078  15.379  0.3807 -0.1322 -0.2070
 7668SOL    HW234467   3.911   3.991  15.314 -1.8033  1.4053 -0.1476
 7669SOL     OW34468   1.160   2.852   5.752  0.3313  0.5257  0.0333
 7669SOL    HW134469   1.088   2.870   5.813  2.7344  3.6801  1.9454
 7669SOL    HW234470   1.181   2.761   5.775 -0.8087  0.2114 -0.1346
 7670SOL     OW34471   3.083   3.142  10.994  0.3369 -0.1373  0.4164
 7670SOL    HW134472   3.009   3.204  11.004  0.6397  0.1501  0.8998
 7670SOL    HW234473   3.156   3.193  11.029  0.5962  0.0660 -0.4417
 7671SOL     OW34474   3.565   3.117   2.297 -0.1594  0.0246  0.0902
 7671SOL    HW134475   3.659   3.131   2.311 -0.1150 -0.9609  0.7860
 7671SOL    HW234476   3.520   3.200   2.282 -0.4348  0.2551  2.0730
 7672SOL     OW34477   1.757   0.348   5.885  0.0604  0.5301 -0.5095
 7672SOL    HW134478   1.792   0.302   5.961  2.1824 -0.3398 -2.0197
 7672SOL    HW234479   1.677   0.387   5.920  0.5285  0.8199  0.2464
 7673SOL     OW34480   4.384   3.624  16.960  0.1493  0.0635 -0.1129
 7673SOL    HW134481   4.332   3.700  16.987  0.7029  0.1427  0.7625
 7673SOL    HW234482   4.352   3.558  17.022 -0.0383 -1.7373 -2.1426
 7674SOL     OW34483   1.382   2.364   5.109 -0.6122  0.2924  0.1671
 7674SOL    HW134484   1.438   2.296   5.145  1.3740  1.2318 -1.1163
 7674SOL    HW234485   1.335   2.398   5.185 -0.9135 -0.0186  0.1144
 7675SOL     OW34486   0.711   3.457   3.734  0.1252  0.2254 -0.0547
 7675SOL    HW134487   0.677   3.517   3.801 -0.0237  2.2651 -1.9805
 7675SOL    HW234488   0.656   3.480   3.660 -0.3033 -1.3014 -0.2006
 7676SOL     OW34489   0.831   2.831   6.942 -0.2690 -0.4215 -0.0025
 7676SOL    HW134490   0.893   2.904   6.946 -0.4732 -0.1605 -1.8836
 7676SOL    HW234491   0.836   2.805   6.850 -1.6233  0.8869 -0.4474
 7677SOL     OW34492   3.922   2.378   6.922  0.5040  0.2679  0.2033
 7677SOL    HW134493   3.892   2.303   6.870 -0.3098 -0.3908  1.6182
 7677SOL    HW234494   3.836   2.416   6.939  0.0619  0.3661 -2.1468
 7678SOL     OW34495   0.288   1.338  17.283 -0.1285 -0.2640 -0.1176
 7678SOL    HW134496   0.230   1.306  17.214 -0.2422 -2.2965  0.9279
 7678SOL    HW234497   0.267   1.432  17.279 -0.3761 -0.4244 -2.3100
 7679SOL     OW34498   2.175   0.773   7.959 -0.3830  0.4060  0.0794
 7679SOL    HW134499   2.141   0.862   7.951 -0.6604  0.1620 -1.6411
 7679SOL    HW234500   2.183   0.740   7.869  1.1053  2.7705 -0.6434
 7680SOL     OW34501   2.644   0.001   3.816  0.1428  0.0975 -0.4611
 7680SOL    HW134502   2.649   4.639   3.777  0.2434 -0.3922  0.6159
 7680SOL    HW234503   2.721   0.036   3.772  0.5806  2.6206  2.2882
 7681SOL     OW34504   3.363   4.636   9.186 -0.2654  0.1257  0.6622
 7681SOL    HW134505   3.293   4.578   9.154 -0.2563  0.0501  0.7788
 7681SOL    HW234506   3.338   4.645   9.278  3.0460 -0.0238  1.5844
 7682SOL     OW34507   1.362   1.769   1.359 -0.1888  0.0753 -0.3325
 7682SOL    HW134508   1.349   1.845   1.303 -0.4673 -1.7781 -2.7786
 7682SOL    HW234509   1.303   1.788   1.433 -0.9190 -2.7988 -0.1738
 7683SOL     OW34510   4.578   1.390  10.762  0.6437  0.2619  0.0346
 7683SOL    HW134511   4.641   1.401  10.833  0.8488 -2.1507  0.2275
 7683SOL    HW234512   4.640   1.375  10.691  0.6016 -0.8142  0.2226
 7684SOL     OW34513   1.459   2.863  16.921 -0.1448  0.4111 -0.2010
 7684SOL    HW134514   1.430   2.953  16.914  0.5085  0.6569  0.2732
 7684SOL    HW234515   1.547   2.864  16.957 -0.5383  0.7731  0.7355
 7685SOL     OW34516   4.615   3.883   5.201 -1.1191 -0.0299 -1.0418
 7685SOL    HW134517   4.596   3.790   5.203  0.6426 -0.3946 -1.0293
 7685SOL    HW234518   4.558   3.910   5.272 -0.1586  0.4486 -0.4551
 7686SOL     OW34519   1.682   3.249   3.370 -0.0625  0.1663  0.0155
 7686SOL    HW134520   1.693   3.232   3.464 -1.3752 -1.9788 -0.2014
 7686SOL    HW234521   1.622   3.176   3.352 -1.8097  1.8533 -1.0107
 7687SOL     OW34522   2.145   2.697   2.387  0.4008 -0.3781  0.3013
 7687SOL    HW134523   2.185   2.672   2.470  0.8162 -2.3239 -0.5007
 7687SOL    HW234524   2.077   2.633   2.367 -0.0735  0.0081  0.6819
 7688SOL     OW34525   3.785   4.473   3.178  0.3190  0.0426 -0.4880
 7688SOL    HW134526   3.854   4.410   3.196 -0.2626 -0.1520  1.0669
 7688SOL    HW234527   3.744   4.444   3.096 -0.6188 -1.0267  0.3633
 7689SOL     OW34528   1.973   4.052   4.209  0.0852  0.0603  0.2070
 7689SOL    HW134529   2.053   4.004   4.188  0.4671  0.1298  1.5127
 7689SOL    HW234530   1.939   4.065   4.121 -0.0030  2.0278  0.5311
 7690SOL     OW34531   2.006   2.494   4.298  0.2739 -0.3626 -0.4762
 7690SOL    HW134532   1.977   2.429   4.234  2.5216 -2.0347  0.2244
 7690SOL    HW234533   1.930   2.552   4.305  0.6391  0.5061 -4.0215
 7691SOL     OW34534   2.447   2.344   4.067  0.5190  0.7586 -0.1134
 7691SOL    HW134535   2.389   2.391   4.007 -0.6670  0.0788  0.5014
 7691SOL    HW234536   2.516   2.333   4.002  1.0631 -0.5682  0.6943
 7692SOL     OW34537   4.011   4.450   5.202 -0.3050  0.1520 -0.0971
 7692SOL    HW134538   3.990   4.364   5.238 -2.3843  0.6327 -0.1678
 7692SOL    HW234539   4.096   4.461   5.245 -0.5288 -0.1384  0.4191
 7693SOL     OW34540   0.860   0.417   5.239 -0.1443  0.0859  0.4847
 7693SOL    HW134541   0.854   0.324   5.215 -0.0721 -0.1968  1.5633
 7693SOL    HW234542   0.776   0.446   5.203 -1.0863 -0.8721  1.8831
 7694SOL     OW34543   3.827   3.375   5.512  0.1843 -0.6579 -0.4277
 7694SOL    HW134544   3.737   3.401   5.530  0.6157  0.7441 -0.3217
 7694SOL    HW234545   3.877   3.457   5.511 -0.7142 -0.1190 -0.7017
 7695SOL     OW34546   1.170   0.111   2.742  0.0837  0.2100  0.1241
 7695SOL    HW134547   1.223   0.078   2.669  2.8706  1.4434  1.5787
 7695SOL    HW234548   1.134   0.030   2.777  0.7694 -0.3102 -0.3622
 7696SOL     OW34549   3.162   4.396   6.591 -0.0966  0.0158 -0.3496
 7696SOL    HW134550   3.123   4.404   6.678  0.2674  1.5382 -0.3346
 7696SOL    HW234551   3.111   4.327   6.548 -1.6038  1.7190 -1.2445
 7697SOL     OW34552   1.636   2.877   2.269 -0.1020  0.6072 -0.1160
 7697SOL    HW134553   1.564   2.841   2.321  0.3981 -1.4941 -0.8636
 7697SOL    HW234554   1.667   2.806   2.212 -0.9582 -0.6400  0.9523
 7698SOL     OW34555   3.798   2.658   3.997  0.1507  0.4186 -0.1959
 7698SOL    HW134556   3.766   2.727   4.055 -1.0975 -2.1079  2.1554
 7698SOL    HW234557   3.875   2.632   4.047 -0.9069  0.2396  1.3485
 7699SOL     OW34558   0.514   3.195   4.558 -0.4137 -0.2051 -0.2608
 7699SOL    HW134559   0.421   3.187   4.578 -0.3955 -3.8242 -1.6091
 7699SOL    HW234560   0.512   3.177   4.464  2.1322  0.1739 -0.4022
 7700SOL     OW34561   4.105   4.225   3.829  0.2437  0.0157 -0.3061
 7700SOL    HW134562   4.059   4.147   3.798  1.0789 -1.2769  1.6499
 7700SOL    HW234563   4.062   4.250   3.911 -0.6845 -1.4011 -0.3609
 7701SOL     OW34564   3.423   3.830   8.056  0.4028 -0.1755  0.0272
 7701SOL    HW134565   3.496   3.820   8.117 -0.0653 -0.4797  0.5311
 7701SOL    HW234566   3.362   3.892   8.097 -0.2422 -1.0849  0.4360
 7702SOL     OW34567   0.110   2.416   4.586 -0.1577 -0.0837  0.2738
 7702SOL    HW134568   0.147   2.404   4.673  0.4636 -2.1415 -0.2747
 7702SOL    HW234569   0.123   2.510   4.572 -0.1973  0.1810  1.9600
 7703SOL     OW34570   1.619   1.143   7.324  0.0434  0.0645 -0.4169
 7703SOL    HW134571   1.702   1.116   7.287  1.2728  1.2052  1.4839
 7703SOL    HW234572   1.641   1.230   7.359 -0.4952  0.1063 -0.1770
 7704SOL     OW34573   1.069   1.389  11.340 -0.2421  0.4996 -0.8873
 7704SOL    HW134574   1.044   1.475  11.305 -1.3245 -0.9315 -3.6504
 7704SOL    HW234575   1.045   1.335  11.264  0.3249 -0.6835 -0.2150
 7705SOL     OW34576   3.947   2.959   9.397  0.3970 -0.2773  0.4709
 7705SOL    HW134577   3.980   2.919   9.477 -1.6225 -0.8967  0.9996
 7705SOL    HW234578   4.019   3.013   9.367 -0.5362  1.6788  1.7867
 7706SOL     OW34579   3.992   1.930   4.570  0.0273  0.1654 -0.2776
 7706SOL    HW134580   3.952   1.849   4.538  0.2935  0.0897 -0.4185
 7706SOL    HW234581   3.981   1.986   4.493  0.9943  0.0185 -0.5225
 7707SOL     OW34582   3.914   3.389   7.502 -0.2227 -0.1035  0.7381
 7707SOL    HW134583   3.891   3.455   7.436  2.3481  0.6213  0.5756
 7707SOL    HW234584   3.892   3.304   7.464 -1.3188  0.4546  0.1249
 7708SOL     OW34585   2.902   0.254   4.057 -0.2626 -0.7284  0.2538
 7708SOL    HW134586   2.989   0.216   4.065 -0.7832 -2.0099 -0.1387
 7708SOL    HW234587   2.914   0.309   3.980 -0.5021 -3.5251 -1.7868
 7709SOL     OW34588   1.040   1.151   5.473 -0.0073  0.0581  0.1572
 7709SOL    HW134589   1.023   1.113   5.386  1.5250 -1.8895  0.7227
 7709SOL    HW234590   1.017   1.071   5.520 -1.9695 -0.2454 -1.2959
 7710SOL     OW34591   1.055   3.538  16.448  0.0994 -0.3576 -0.4745
 7710SOL    HW134592   1.066   3.616  16.501 -1.2694  0.6245 -1.6527
 7710SOL    HW234593   0.996   3.561  16.376  0.4444  3.5916  0.5423
 7711SOL     OW34594   1.244   1.448   1.566 -0.0476 -0.2016  0.4229
 7711SOL    HW134595   1.187   1.506   1.515  2.5905  2.3770  0.4154
 7711SOL    HW234596   1.255   1.504   1.643  0.1881  1.8823 -1.1561
 7712SOL     OW34597   1.299   4.642   8.216  0.2934 -0.2043 -0.1655
 7712SOL    HW134598   1.266   4.716   8.165 -1.3300 -0.6293  0.2677
 7712SOL    HW234599   1.225   4.582   8.224 -0.0113 -0.0963 -2.0790
 7713SOL     OW34600   1.626   3.676   4.608 -0.4205  0.1566 -0.0458
 7713SOL    HW134601   1.566   3.603   4.622 -0.0870 -0.1083  0.0046
 7713SOL    HW234602   1.695   3.655   4.671 -0.5665  3.4951  1.2554
 7714SOL     OW34603   2.242   0.919   2.648  0.2170 -1.0905 -0.3448
 7714SOL    HW134604   2.256   1.010   2.621 -2.5782 -0.8132 -0.8381
 7714SOL    HW234605   2.164   0.931   2.702  0.0312 -1.8649 -0.4535
 7715SOL     OW34606   1.378   4.632   4.838  0.4202 -0.2748 -0.0311
 7715SOL    HW134607   1.434   4.554   4.830 -0.9471 -1.1753 -0.8889
 7715SOL    HW234608   1.442   4.699   4.863 -1.3863  0.8958  1.3790
 7716SOL     OW34609   2.102   0.525  10.506 -0.0323 -0.8273 -0.1310
 7716SOL    HW134610   2.072   0.507  10.595  0.4656  0.1062  0.2181
 7716SOL    HW234611   2.136   0.445  10.466  1.9139 -0.7107  1.3167
 7717SOL     OW34612   2.330   4.423   0.509 -0.1624  0.0954 -0.4688
 7717SOL    HW134613   2.259   4.411   0.572  1.9335  0.0235  1.8346
 7717SOL    HW234614   2.318   4.514   0.479  2.1458  0.5300 -0.0320
 7718SOL     OW34615   1.865   2.515   6.425  0.2446 -0.3644 -0.2461
 7718SOL    HW134616   1.947   2.562   6.409 -1.4280  3.1033  1.2898
 7718SOL    HW234617   1.853   2.517   6.520 -0.4511 -2.5435 -0.2767
 7719SOL     OW34618   3.018   2.165   4.565  0.3242 -0.7323 -0.2009
 7719SOL    HW134619   3.026   2.251   4.605  0.8184 -0.5476 -0.6936
 7719SOL    HW234620   2.949   2.193   4.504  2.1265  0.9763 -1.4339
 7720SOL     OW34621   0.821   4.384   5.252 -0.3803  0.6903  0.0376
 7720SOL    HW134622   0.774   4.419   5.176 -1.1642  0.7164  0.5407
 7720SOL    HW234623   0.899   4.437   5.234 -1.4604  1.8459 -1.2143
 7721SOL     OW34624   3.442   1.248   3.994  0.7486  0.1210 -0.1860
 7721SOL    HW134625   3.498   1.307   4.044  0.9178  1.1990 -1.6405
 7721SOL    HW234626   3.499   1.242   3.918  1.0400  3.3774 -0.1985
 7722SOL     OW34627   4.115   2.930   7.269  0.2142  0.0691  0.4532
 7722SOL    HW134628   4.121   2.975   7.185  0.2235  2.6693  1.8451
 7722SOL    HW234629   4.082   3.008   7.313 -1.1455 -0.8138  0.9759
 7723SOL     OW34630   0.734   3.234   5.074 -0.2983  0.1260  0.2501
 7723SOL    HW134631   0.660   3.261   5.019  0.1945  0.2745 -0.3386
 7723SOL    HW234632   0.708   3.258   5.163 -0.4878 -0.9919  0.4963
 7724SOL     OW34633   1.870   1.720   6.586  0.6881  0.3322 -0.5281
 7724SOL    HW134634   1.928   1.742   6.513  0.6371 -0.5847 -0.8496
 7724SOL    HW234635   1.930   1.742   6.657 -0.5899 -0.3512  0.7546
 7725SOL     OW34636   1.098   1.777   1.571  0.0869 -0.6739 -0.4455
 7725SOL    HW134637   1.092   1.720   1.495 -1.8258  0.3964 -1.1093
 7725SOL    HW234638   1.006   1.801   1.580  0.2146 -0.5119  0.4700
 7726SOL     OW34639   4.228   0.230   7.010 -0.5626  0.6122  0.1303
 7726SOL    HW134640   4.285   0.204   7.083  0.8220 -1.8490 -1.8528
 7726SOL    HW234641   4.290   0.243   6.938 -0.8009  0.1318 -0.1584
 7727SOL     OW34642   0.973   3.015   1.658  0.4203  0.0421 -0.1298
 7727SOL    HW134643   0.984   2.922   1.639  0.2817 -0.0626  0.3099
 7727SOL    HW234644   0.888   3.029   1.616 -1.1426 -1.7302  2.4332
 7728SOL     OW34645   3.597   2.318   9.896  0.2895  0.1851  0.0604
 7728SOL    HW134646   3.650   2.396   9.911  0.3151 -0.2544  2.2702
 7728SOL    HW234647   3.561   2.342   9.811 -0.9596  2.3891  1.1834
 7729SOL     OW34648   3.598   3.788   5.796  0.2420 -0.1621  0.0932
 7729SOL    HW134649   3.515   3.779   5.844  2.8606 -1.0644  4.3799
 7729SOL    HW234650   3.669   3.807   5.856 -0.6318  1.2740  0.6783
 7730SOL     OW34651   4.486   1.982   6.886  0.1651  0.2834  0.1450
 7730SOL    HW134652   4.579   1.988   6.906  0.0978  0.8015  0.3144
 7730SOL    HW234653   4.455   2.067   6.918  2.9105  2.3412 -2.6101
 7731SOL     OW34654   3.482   0.321   8.199 -0.2589 -0.0593  0.0943
 7731SOL    HW134655   3.509   0.406   8.164 -1.6320  0.6987  0.8685
 7731SOL    HW234656   3.513   0.332   8.289 -2.2961 -0.5068  0.8413
 7732SOL     OW34657   0.044   3.036   6.966  0.3999  0.5286  0.3723
 7732SOL    HW134658   0.133   3.064   6.988  0.3163 -0.5301  2.0436
 7732SOL    HW234659   0.042   2.941   6.976 -0.4137  0.3195 -1.8753
 7733SOL     OW34660   2.047   3.090   4.815  0.6343 -0.1944  0.3136
 7733SOL    HW134661   2.041   3.175   4.858 -2.3771 -0.7070  0.9334
 7733SOL    HW234662   1.964   3.041   4.812  1.9761 -2.4191 -0.2887
 7734SOL     OW34663   3.906   2.791  13.638  0.1287  0.1441 -0.1202
 7734SOL    HW134664   3.977   2.842  13.599  0.0271 -0.0976 -0.6182
 7734SOL    HW234665   3.869   2.859  13.695 -1.0845  0.2213 -1.0064
 7735SOL     OW34666   3.965   1.947  11.158 -0.1184 -0.0914 -0.1021
 7735SOL    HW134667   3.994   2.034  11.129 -2.0080  1.7893  3.5605
 7735SOL    HW234668   4.042   1.900  11.188 -0.5708  0.3995  1.8604
 7736SOL     OW34669   3.496   3.122   8.236  0.0571  0.3154  0.1235
 7736SOL    HW134670   3.576   3.081   8.202  0.7365  0.6103  1.3881
 7736SOL    HW234671   3.469   3.049   8.291 -0.8600  0.7003  0.1824
 7737SOL     OW34672   0.488   1.657   6.116 -0.0185  0.5165 -0.1963
 7737SOL    HW134673   0.455   1.698   6.036 -1.4867 -1.4918 -0.6127
 7737SOL    HW234674   0.485   1.727   6.181  0.9391  1.3402 -1.0378
 7738SOL     OW34675   4.103   3.408  12.659  0.4015 -0.3194 -0.2384
 7738SOL    HW134676   4.163   3.475  12.627 -1.2011  2.2469  2.1957
 7738SOL    HW234677   4.017   3.438  12.629 -0.2855 -0.8408  1.1975
 7739SOL     OW34678   2.613   3.767   5.182  0.3286 -0.3080 -0.1638
 7739SOL    HW134679   2.612   3.739   5.273 -1.7242 -0.2182 -0.1627
 7739SOL    HW234680   2.630   3.685   5.137  2.0801 -1.5361  2.7367
 7740SOL     OW34681   1.853   1.020  15.931  0.1504 -0.6007 -0.6248
 7740SOL    HW134682   1.814   0.967  15.862 -0.8631 -1.2535  0.4528
 7740SOL    HW234683   1.789   1.091  15.923  0.4960  0.1003  2.5997
 7741SOL     OW34684   3.285   1.631   3.132  0.2880 -0.3818  0.5487
 7741SOL    HW134685   3.243   1.714   3.113  0.4568 -0.2852  0.5985
 7741SOL    HW234686   3.291   1.639   3.227  1.0696  2.3822  0.2679
 7742SOL     OW34687   3.329   1.816   5.468 -0.3788  0.0888 -0.0012
 7742SOL    HW134688   3.384   1.776   5.535  0.4239  0.4137 -0.4701
 7742SOL    HW234689   3.242   1.827   5.509  0.1497  1.9982  0.6309
 7743SOL     OW34690   3.231   3.782   2.709 -0.5188  0.2675  0.3946
 7743SOL    HW134691   3.209   3.694   2.678 -0.7724  0.2014  0.7613
 7743SOL    HW234692   3.312   3.770   2.758 -1.6421  0.5627  2.3225
 7744SOL     OW34693   2.638   0.174   8.189 -0.0150 -0.4945 -0.8456
 7744SOL    HW134694   2.673   0.108   8.129  1.4304  1.0078 -1.6817
 7744SOL    HW234695   2.609   0.239   8.124 -2.1926 -1.6999 -1.0688
 7745SOL     OW34696   3.866   1.946   9.825 -0.2509 -0.5755  0.1969
 7745SOL    HW134697   3.800   1.985   9.881  0.5863 -0.4662  1.1179
 7745SOL    HW234698   3.853   1.986   9.739  0.3194 -1.6889 -0.4207
 7746SOL     OW34699   1.718   1.878   7.205  0.4202 -0.3993 -0.0863
 7746SOL    HW134700   1.673   1.883   7.121  0.2490 -1.3886 -0.0597
 7746SOL    HW234701   1.804   1.907   7.175  0.7708 -0.6570  0.6597
 7747SOL     OW34702   3.818   0.179  12.246  0.3748  0.1440 -0.3331
 7747SOL    HW134703   3.861   0.094  12.252  2.1725  0.7686 -4.1695
 7747SOL    HW234704   3.898   0.230  12.257  0.6075  0.0546 -1.5966
 7748SOL     OW34705   1.263   3.594   3.380 -0.3416  0.4818  0.0502
 7748SOL    HW134706   1.274   3.562   3.290 -2.7718  1.8201 -0.7111
 7748SOL    HW234707   1.172   3.567   3.394  0.1999 -0.1381  2.3968
 7749SOL     OW34708   4.627   1.663   1.064 -0.0399 -0.4810 -0.3012
 7749SOL    HW134709   4.538   1.638   1.091  0.0055 -0.6594 -0.3159
 7749SOL    HW234710   4.665   1.579   1.040 -0.0212 -0.5017 -0.1989
 7750SOL     OW34711   4.291   3.895   9.162  0.1122 -0.2082  0.6161
 7750SOL    HW134712   4.277   3.956   9.234 -1.5253  0.0929  0.0334
 7750SOL    HW234713   4.382   3.866   9.175  0.2098  0.5378  1.5461
 7751SOL     OW34714   2.345   3.869   0.062 -0.1367 -0.8589  0.2766
 7751SOL    HW134715   2.259   3.877   0.102  0.2984  0.7616  0.8774
 7751SOL    HW234716   2.334   3.780   0.027  1.8780 -0.6605 -0.8503
 7752SOL     OW34717   2.881   3.379   7.898 -0.5928  0.5373  0.3085
 7752SOL    HW134718   2.868   3.474   7.903  0.2698  0.8804 -3.5277
 7752SOL    HW234719   2.949   3.366   7.963  0.0483 -1.7134 -0.8127
 7753SOL     OW34720   3.405   3.768   0.824  0.0383 -0.7058 -0.2067
 7753SOL    HW134721   3.344   3.715   0.772 -1.9882 -1.0855  2.5592
 7753SOL    HW234722   3.426   3.844   0.769 -2.3167 -0.6980 -1.1082
 7754SOL     OW34723   2.294   3.476   6.489  0.3094  0.0426  0.0709
 7754SOL    HW134724   2.268   3.407   6.428  0.2599 -0.8863  1.1249
 7754SOL    HW234725   2.267   3.424   6.565 -1.1558  0.2270 -0.3195
 7755SOL     OW34726   2.105   1.865   0.520 -0.5605 -0.3181  0.8331
 7755SOL    HW134727   2.069   1.919   0.450  2.3481  0.2445 -0.2191
 7755SOL    HW234728   2.103   1.931   0.589 -1.0410 -1.8368  2.2624
 7756SOL     OW34729   0.068   3.680  10.003 -0.4564  0.0711 -0.0334
 7756SOL    HW134730   0.085   3.679  10.097  1.4851  1.5532 -0.3517
 7756SOL    HW234731   0.131   3.612   9.979  0.8133  1.7338 -1.3915
 7757SOL     OW34732   3.774   0.475  17.492 -0.0131  0.0775  0.0285
 7757SOL    HW134733   3.731   0.416  17.430  2.0796 -0.9374 -0.4717
 7757SOL    HW234734   3.725   0.557  17.487 -0.3913 -0.2490 -1.5782
 7758SOL     OW34735   3.479   4.445   2.402  0.1430 -0.4094  0.3298
 7758SOL    HW134736   3.511   4.535   2.393  0.9542 -0.8571 -1.2580
 7758SOL    HW234737   3.509   4.401   2.322  1.6118 -0.0066  0.6618
 7759SOL     OW34738   0.010   3.436   6.373 -0.3373 -0.1859  0.1133
 7759SOL    HW134739   0.048   3.496   6.309  0.3058  0.7379  1.3609
 7759SOL    HW234740   0.064   3.361   6.349  0.3618 -0.1900  1.7209
 7760SOL     OW34741   1.782   3.975   5.479  0.4722  0.5972 -0.2566
 7760SOL    HW134742   1.698   3.930   5.469  1.8908 -1.6098 -2.1607
 7760SOL    HW234743   1.842   3.930   5.420  1.1266  0.4862  0.4932
 7761SOL     OW34744   0.919   3.417   5.865 -0.5141 -0.1805 -0.7143
 7761SOL    HW134745   0.854   3.384   5.927 -2.7727  1.7003 -2.0467
 7761SOL    HW234746   0.992   3.357   5.879  1.1298  2.0145  0.0785
 7762SOL     OW34747   2.929   3.315  13.791  0.1848 -0.1842 -0.3783
 7762SOL    HW134748   2.943   3.268  13.873 -2.1074 -0.6649 -0.2392
 7762SOL    HW234749   2.952   3.247  13.728  0.5877 -1.0762  0.7350
 7763SOL     OW34750   1.882   3.709   9.148  0.0618 -0.1224  0.0011
 7763SOL    HW134751   1.836   3.738   9.227 -0.2731  1.4328 -0.7733
 7763SOL    HW234752   1.973   3.700   9.176  0.1652 -2.9134 -1.1826
 7764SOL     OW34753   4.559   3.310   5.545 -0.4174 -0.2395 -0.8459
 7764SOL    HW134754   4.539   3.400   5.521 -0.0156 -0.5599 -2.3868
 7764SOL    HW234755   4.650   3.316   5.518 -0.3938  1.1776 -0.4387
 7765SOL     OW34756   0.472   1.526   3.272  0.3691  0.4686 -0.3599
 7765SOL    HW134757   0.392   1.499   3.226 -1.2526  0.2346  2.6345
 7765SOL    HW234758   0.518   1.576   3.204 -0.0060  0.0007 -0.9563
 7766SOL     OW34759   4.437   0.133   8.838  0.2209  0.8179  0.0988
 7766SOL    HW134760   4.432   0.047   8.881 -1.0031  1.1458  0.6061
 7766SOL    HW234761   4.465   0.102   8.752 -1.2194  2.0112 -0.7968
 7767SOL     OW34762   0.599   1.635   9.138 -0.7912 -0.1308  0.7790
 7767SOL    HW134763   0.671   1.675   9.188 -0.5287 -0.8428  0.9651
 7767SOL    HW234764   0.618   1.542   9.126 -1.9223 -0.3738  0.8366
 7768SOL     OW34765   1.198   3.488   9.417 -0.3149  0.2595  0.1773
 7768SOL    HW134766   1.110   3.523   9.401 -1.0872 -1.4406  0.6371
 7768SOL    HW234767   1.178   3.407   9.465 -1.5048  0.2043 -0.3924
 7769SOL     OW34768   3.099   1.210  17.670  0.3725 -0.3511  0.4012
 7769SOL    HW134769   3.016   1.164  17.682 -0.5506  1.0934 -0.4774
 7769SOL    HW234770   3.092   1.271   0.046 -0.3103 -1.1746  1.0311
 7770SOL     OW34771   1.556   4.584   4.434  0.2140 -0.3157 -0.1032
 7770SOL    HW134772   1.470   4.627   4.436  0.0916 -0.6381  1.9031
 7770SOL    HW234773   1.608   4.664   4.424  1.3411 -0.7025  2.6432
 7771SOL     OW34774   3.455   0.926  15.149  0.3267 -0.1223 -0.3799
 7771SOL    HW134775   3.500   0.842  15.149  0.4077 -0.0584 -3.3296
 7771SOL    HW234776   3.501   0.976  15.082  1.5588  1.0819  1.3713
 7772SOL     OW34777   2.730   2.601  12.681 -0.7420 -0.0014 -0.9540
 7772SOL    HW134778   2.769   2.535  12.739  2.1354  1.8836 -0.7597
 7772SOL    HW234779   2.777   2.681  12.704  1.2189 -1.3448 -0.2417
 7773SOL     OW34780   1.337   1.431  15.624 -0.2086 -0.2047 -0.1588
 7773SOL    HW134781   1.346   1.503  15.561 -1.1448 -0.0946 -0.1656
 7773SOL    HW234782   1.327   1.358  15.564  1.8912  0.1371 -0.9337
 7774SOL     OW34783   2.933   1.454   8.063  0.0213  0.5013  0.3826
 7774SOL    HW134784   2.871   1.510   8.109 -0.4458  0.6346 -0.4085
 7774SOL    HW234785   3.019   1.490   8.085 -0.1329  0.6665  0.7093
 7775SOL     OW34786   4.390   1.704   2.260 -0.8276  0.3540  0.3806
 7775SOL    HW134787   4.373   1.798   2.261 -0.6197  0.3974 -0.4848
 7775SOL    HW234788   4.314   1.667   2.305 -0.3914  0.4060  1.1572
 7776SOL     OW34789   2.245   3.832   5.790 -0.2863 -0.1654  0.1587
 7776SOL    HW134790   2.171   3.871   5.836 -1.1989 -0.0843 -1.3842
 7776SOL    HW234791   2.306   3.859   5.859 -0.4993 -2.0088  1.0606
 7777SOL     OW34792   1.297   1.280   3.723  0.1054  0.0529  0.5079
 7777SOL    HW134793   1.245   1.216   3.674  0.8589 -0.3415  0.2215
 7777SOL    HW234794   1.251   1.358   3.693 -3.6675 -1.8385  1.3124
 7778SOL     OW34795   4.363   3.344  10.061  0.2728  0.2940  0.1337
 7778SOL    HW134796   4.456   3.325  10.074  0.2242  0.4961  0.8226
 7778SOL    HW234797   4.353   3.390  10.145  0.3394 -1.2096  0.9809
 7779SOL     OW34798   0.875   2.760   1.558  0.0657  0.4208  0.2716
 7779SOL    HW134799   0.922   2.687   1.518  0.7760 -0.0326  1.9363
 7779SOL    HW234800   0.823   2.710   1.621  0.2787 -0.8439 -0.5699
 7780SOL     OW34801   2.804   0.713  13.787 -0.4032  0.2141 -0.4729
 7780SOL    HW134802   2.799   0.808  13.792 -1.7325  0.0824  0.6676
 7780SOL    HW234803   2.716   0.691  13.758  0.0334 -0.7365 -1.0909
 7781SOL     OW34804   0.569   2.254   0.507 -0.3599 -0.0078 -0.1059
 7781SOL    HW134805   0.645   2.198   0.525 -0.6800 -0.6975 -0.9108
 7781SOL    HW234806   0.529   2.264   0.593 -2.4029 -4.3713 -0.5098
 7782SOL     OW34807   1.515   3.041   3.268  0.0473 -0.0424  0.0337
 7782SOL    HW134808   1.427   3.076   3.250  0.1179 -1.2988 -2.8155
 7782SOL    HW234809   1.522   2.968   3.205  2.7390 -0.6163  1.0151
 7783SOL     OW34810   3.147   2.943  12.132  0.4108 -0.1706 -0.2853
 7783SOL    HW134811   3.125   2.898  12.051 -1.1147  1.1965 -0.6457
 7783SOL    HW234812   3.083   2.904  12.191  0.5702 -0.8501 -0.5634
 7784SOL     OW34813   3.114   3.810   3.334  0.1950 -0.4596  0.2011
 7784SOL    HW134814   3.117   3.867   3.257  1.2278  0.4983  0.9585
 7784SOL    HW234815   3.156   3.853   3.408 -2.1887 -1.0735  1.9000
 7785SOL     OW34816   4.333   0.989   7.046 -0.4186 -0.1005 -0.0307
 7785SOL    HW134817   4.276   0.964   6.974  1.4919 -1.9796 -0.9181
 7785SOL    HW234818   4.374   1.061   6.998  0.5533  0.4551  1.6204
 7786SOL     OW34819   0.318   0.324   6.406 -0.7828 -0.2944  1.3374
 7786SOL    HW134820   0.312   0.400   6.465  1.4592 -0.8091  2.2383
 7786SOL    HW234821   0.225   0.311   6.387 -0.5275 -1.0166  0.6316
 7787SOL     OW34822   3.751   4.567   8.661 -0.0222 -0.4778  0.0475
 7787SOL    HW134823   3.787   4.498   8.606  0.5939 -0.5016  0.4793
 7787SOL    HW234824   3.687   4.606   8.602 -2.5507 -0.9201  2.4801
 7788SOL     OW34825   3.473   1.266  14.640  0.1728 -0.3590 -0.5313
 7788SOL    HW134826   3.485   1.203  14.569 -1.1130 -2.0946  0.7874
 7788SOL    HW234827   3.489   1.339  14.580 -2.3816 -0.5316 -1.4710
 7789SOL     OW34828   1.562   1.645   8.621 -0.2059  0.1264  0.5302
 7789SOL    HW134829   1.571   1.551   8.601  2.5266  0.4559  0.1598
 7789SOL    HW234830   1.552   1.646   8.716  1.3619 -2.6081  0.7297
 7790SOL     OW34831   4.570   4.305   5.501  0.0003  0.6987 -0.0727
 7790SOL    HW134832   4.550   4.243   5.571  2.6931 -0.4798 -0.3474
 7790SOL    HW234833   4.574   4.386   5.551  1.4798  1.1190 -0.8652
 7791SOL     OW34834   4.199   1.251   4.499 -0.3686 -0.3613  0.1526
 7791SOL    HW134835   4.272   1.268   4.559 -0.4323  0.6783 -0.0622
 7791SOL    HW234836   4.210   1.310   4.425 -0.3291  0.3447  0.7276
 7792SOL     OW34837   1.546   4.157  15.538  0.5772  0.2031 -0.5075
 7792SOL    HW134838   1.633   4.123  15.515  2.0029  1.1629  3.3952
 7792SOL    HW234839   1.501   4.078  15.569 -1.2585  2.2089  1.9185
 7793SOL     OW34840   0.111   2.701   3.925 -0.0134  0.4646 -0.0629
 7793SOL    HW134841   0.128   2.618   3.969  0.5398  0.0316 -1.1045
 7793SOL    HW234842   0.074   2.667   3.844  1.7366  0.1783 -0.7389
 7794SOL     OW34843   2.419   3.869   7.757  0.0705 -0.1534 -0.2954
 7794SOL    HW134844   2.346   3.897   7.701 -1.1017 -1.5921  0.5220
 7794SOL    HW234845   2.492   3.897   7.702 -0.6622 -0.2687 -1.3321
 7795SOL     OW34846   0.781   4.290  15.691 -0.0995 -0.0295  0.0071
 7795SOL    HW134847   0.726   4.238  15.631 -1.0295  2.3946 -1.2532
 7795SOL    HW234848   0.867   4.273  15.653 -0.4529 -0.5126 -0.5858
 7796SOL     OW34849   3.407   2.800   2.003  0.3079 -0.0143  0.3574
 7796SOL    HW134850   3.389   2.877   2.057  0.1225  1.8168 -2.3244
 7796SOL    HW234851   3.316   2.771   1.999  0.0711  0.8471 -0.4318
 7797SOL     OW34852   4.005   2.831   4.512  0.0414  0.1429  0.0149
 7797SOL    HW134853   4.027   2.908   4.564  0.3092  0.4434 -0.5371
 7797SOL    HW234854   4.084   2.778   4.527 -1.1236 -2.6578 -3.7848
 7798SOL     OW34855   0.814   3.165  16.553  0.2504 -0.2177 -0.6783
 7798SOL    HW134856   0.740   3.200  16.505 -0.9808 -0.9360  0.6853
 7798SOL    HW234857   0.860   3.248  16.561  1.4393 -1.0418  1.1727
 7799SOL     OW34858   3.858   0.035   9.979  0.3084 -0.7652  0.4618
 7799SOL    HW134859   3.893   4.720  10.059 -1.5240 -2.3718  0.4847
 7799SOL    HW234860   3.887   0.124   9.998  2.6935 -1.9848  2.5165
 7800SOL     OW34861   3.049   2.200   4.858  0.0029 -0.1029 -0.3160
 7800SOL    HW134862   3.067   2.107   4.871  0.6426 -0.3968 -3.1297
 7800SOL    HW234863   2.989   2.191   4.784  1.4599  1.0204 -1.6388
 7801SOL     OW34864   1.813   3.804  12.993  0.4843  0.0264 -0.4628
 7801SOL    HW134865   1.810   3.825  13.086  1.1995 -1.1800 -0.1673
 7801SOL    HW234866   1.822   3.709  13.000 -0.6038  0.0112  0.7370
 7802SOL     OW34867   1.411   2.749   1.252  0.0390  0.0220  0.0878
 7802SOL    HW134868   1.506   2.754   1.246  0.0432  2.0735  1.5950
 7802SOL    HW234869   1.393   2.736   1.159 -0.8317 -1.1659  0.4193
 7803SOL     OW34870   0.957   2.649   2.410  0.4908  0.7372  0.4210
 7803SOL    HW134871   0.958   2.555   2.430  0.4007  0.9222  1.2972
 7803SOL    HW234872   0.951   2.642   2.315  4.0937 -0.6568  0.2588
 7804SOL     OW34873   2.176   2.992   9.239  0.4333 -0.0883  0.0201
 7804SOL    HW134874   2.130   2.929   9.184 -2.7396  0.4432  2.0430
 7804SOL    HW234875   2.185   3.069   9.183 -0.3100 -0.7010 -0.9411
 7805SOL     OW34876   0.692   1.594   5.352  0.1093  0.3589  0.7597
 7805SOL    HW134877   0.766   1.548   5.392 -1.7706 -1.3086  2.3023
 7805SOL    HW234878   0.739   1.676   5.337  2.3224 -0.7783  1.4984
 7806SOL     OW34879   0.745   2.548   7.754 -0.0939 -0.1904 -0.2182
 7806SOL    HW134880   0.740   2.514   7.665 -0.7782 -0.9000  0.0965
 7806SOL    HW234881   0.675   2.614   7.755  0.6175  0.5395  1.6174
 7807SOL     OW34882   1.560   1.038   4.733  0.0182 -0.4415  0.2975
 7807SOL    HW134883   1.643   0.990   4.738  0.7265  0.6798 -0.7818
 7807SOL    HW234884   1.519   0.998   4.656 -0.0989  2.6652 -1.2350
 7808SOL     OW34885   0.355   1.518   4.544 -0.7644  0.0176 -0.8434
 7808SOL    HW134886   0.313   1.516   4.458  1.6213  0.4683 -2.0279
 7808SOL    HW234887   0.375   1.425   4.558 -1.8941 -0.1310 -0.2453
 7809SOL     OW34888   1.678   3.941   2.466  0.2019  0.0946 -0.5735
 7809SOL    HW134889   1.623   4.015   2.444 -2.4733 -1.7829 -0.1757
 7809SOL    HW234890   1.704   3.901   2.383  0.0842 -2.3550  0.5409
 7810SOL     OW34891   3.116   0.224   2.501  0.2610  0.0766 -0.9552
 7810SOL    HW134892   3.057   0.296   2.479 -2.3878 -1.5996  0.7582
 7810SOL    HW234893   3.182   0.238   2.433  0.1795 -0.1586 -1.0827
 7811SOL     OW34894   1.584   3.318   9.577  0.5415 -0.0019 -0.0112
 7811SOL    HW134895   1.559   3.242   9.630  1.8212 -0.7566 -0.5045
 7811SOL    HW234896   1.545   3.390   9.626 -1.0994  0.4419 -1.9793
 7812SOL     OW34897   3.890   2.627   2.581 -0.7276 -0.5361  0.0628
 7812SOL    HW134898   3.954   2.566   2.545 -1.9677 -1.7170 -0.1832
 7812SOL    HW234899   3.911   2.639   2.674 -1.9880  1.7671  0.0423
 7813SOL     OW34900   2.169   4.057   5.407 -0.2124  0.0512  0.2516
 7813SOL    HW134901   2.211   4.138   5.379 -1.8062  1.6522  2.4952
 7813SOL    HW234902   2.079   4.083   5.426  0.2681  0.2014  2.3405
 7814SOL     OW34903   1.263   3.432   2.598 -0.6071  0.2077  0.2323
 7814SOL    HW134904   1.175   3.395   2.601 -0.5571 -0.0056 -0.8772
 7814SOL    HW234905   1.311   3.349   2.598  0.6193  0.9146 -1.5724
 7815SOL     OW34906   3.586   1.013  13.010  0.6336  0.3430  0.5813
 7815SOL    HW134907   3.668   0.964  13.012  0.4539  0.0431  0.7125
 7815SOL    HW234908   3.523   0.947  13.039  0.9257  0.5569  1.6850
 7816SOL     OW34909   1.822   4.300   2.815  0.0921  0.4222  0.8751
 7816SOL    HW134910   1.814   4.219   2.765  0.3083 -0.5731  2.4437
 7816SOL    HW234911   1.870   4.353   2.751  1.5402 -0.1491  1.5088
 7817SOL     OW34912   4.613   3.963   4.558  0.0962 -0.4196  0.4763
 7817SOL    HW134913   4.539   3.928   4.509  0.1405  0.8014 -0.4580
 7817SOL    HW234914   4.603   4.058   4.549 -0.2920 -0.7611 -2.4967
 7818SOL     OW34915   2.972   2.394  15.943 -0.1472  0.4755  0.3667
 7818SOL    HW134916   2.942   2.417  15.855 -1.1966 -0.5939  0.4361
 7818SOL    HW234917   3.022   2.315  15.919 -0.2179  0.3520  0.6185
 7819SOL     OW34918   1.906   3.176   0.356  0.6834  0.3865  0.3614
 7819SOL    HW134919   1.929   3.089   0.323  2.6614  0.4270  1.6530
 7819SOL    HW234920   1.832   3.159   0.415 -0.4924  0.7477 -0.9970
 7820SOL     OW34921   1.209   2.187   1.470  0.0566 -0.0658 -0.0815
 7820SOL    HW134922   1.301   2.184   1.442  0.3325  0.9822  0.6776
 7820SOL    HW234923   1.162   2.164   1.390 -2.6588  2.1574  0.8478
 7821SOL     OW34924   0.823   3.572   7.489  0.2785 -0.1437  0.1587
 7821SOL    HW134925   0.815   3.617   7.406  0.5228 -0.2657  0.0673
 7821SOL    HW234926   0.795   3.640   7.550  1.5014 -0.9996  1.6927
 7822SOL     OW34927   3.455   0.509   1.043  0.1278  0.3169 -0.5460
 7822SOL    HW134928   3.505   0.431   1.068  0.1882  0.4148 -0.3619
 7822SOL    HW234929   3.366   0.480   1.025 -0.4492  1.1468  1.0388
 7823SOL     OW34930   2.811   2.104  16.961  0.2484  0.4083  0.5989
 7823SOL    HW134931   2.724   2.101  16.921  0.7963  0.3504 -0.5807
 7823SOL    HW234932   2.817   2.198  16.978 -2.5968  0.3774  1.8039
 7824SOL     OW34933   4.480   2.194   1.049 -0.4122  0.3550 -0.1357
 7824SOL    HW134934   4.392   2.160   1.036 -1.0049  1.0645  2.1408
 7824SOL    HW234935   4.460   2.248   1.125 -0.6592 -0.1695  0.1703
 7825SOL     OW34936   0.086   1.743   3.975 -0.3494  0.0599 -0.6981
 7825SOL    HW134937   0.033   1.685   3.920  1.5258  0.5570 -3.0430
 7825SOL    HW234938   0.162   1.771   3.923  0.2176 -2.0962 -1.0430
 7826SOL     OW34939   2.129   1.955   1.295 -0.2650 -0.2091 -0.1373
 7826SOL    HW134940   2.109   2.039   1.253 -0.3979  0.0176  0.3895
 7826SOL    HW234941   2.097   1.896   1.226  2.5499 -0.0408 -1.6031
 7827SOL     OW34942   1.296   1.452   7.779 -0.1216 -0.2151  0.4001
 7827SOL    HW134943   1.268   1.455   7.688  0.7656  2.5859  0.2153
 7827SOL    HW234944   1.373   1.508   7.775 -1.7610  1.7833 -3.0152
 7828SOL     OW34945   3.213   1.532  13.491 -0.4667 -0.7188  0.3772
 7828SOL    HW134946   3.143   1.586  13.455  1.4297  1.7816  0.4610
 7828SOL    HW234947   3.204   1.453  13.437  1.4223 -0.3009 -0.5502
 7829SOL     OW34948   2.035   3.083   5.675 -0.3271 -0.7609  0.9015
 7829SOL    HW134949   2.044   2.994   5.642  1.3732  1.0358 -3.5683
 7829SOL    HW234950   2.008   3.076   5.766  2.5320  0.0223  1.8298
 7830SOL     OW34951   2.931   1.815   3.531  0.0204 -0.3056 -0.0349
 7830SOL    HW134952   2.909   1.907   3.545 -1.4249 -0.8719  1.5128
 7830SOL    HW234953   2.862   1.786   3.591  2.1022 -0.4469  2.2887
 7831SOL     OW34954   1.121   4.408   7.418  0.2990 -0.3409  0.1967
 7831SOL    HW134955   1.209   4.392   7.453 -0.0033 -2.6041 -0.0657
 7831SOL    HW234956   1.143   4.442   7.331  1.4191 -0.2499  0.5113
 7832SOL     OW34957   4.713   0.560  12.434 -0.4492  0.0364 -0.3799
 7832SOL    HW134958   0.047   0.524  12.367 -1.4796 -1.7893 -0.2901
 7832SOL    HW234959   4.635   0.538  12.384 -0.9855  0.7199  0.1693
 7833SOL     OW34960   2.827   4.121   5.815  0.2929 -0.3021  0.0947
 7833SOL    HW134961   2.813   4.060   5.743  0.4886 -0.4117  0.1493
 7833SOL    HW234962   2.841   4.065   5.892  1.4708  0.3363  0.3390
 7834SOL     OW34963   0.952   2.744   7.659  0.5971 -0.7026 -0.0944
 7834SOL    HW134964   1.042   2.754   7.690  1.0797  2.2110 -2.4100
 7834SOL    HW234965   0.921   2.674   7.716  1.2843 -0.2566  0.8412
 7835SOL     OW34966   1.591   3.849   7.723  0.0620 -0.2454  0.3458
 7835SOL    HW134967   1.619   3.764   7.687  1.7691  1.4539 -2.3085
 7835SOL    HW234968   1.497   3.837   7.736 -0.1346  0.6647 -0.2927
 7836SOL     OW34969   4.065   1.146   7.062  0.0154 -0.6911 -0.1788
 7836SOL    HW134970   4.046   1.079   7.128 -0.7903  0.9494  1.2253
 7836SOL    HW234971   4.000   1.120   6.997 -0.5364 -2.3345  1.0098
 7837SOL     OW34972   3.121   1.051  13.353 -0.1441 -0.0461 -0.0668
 7837SOL    HW134973   3.062   1.059  13.428 -1.1472 -0.6665 -0.7827
 7837SOL    HW234974   3.083   0.973  13.312 -1.8132  1.0514 -0.6362
 7838SOL     OW34975   0.214   2.609  11.918 -0.0052  0.2144  0.1626
 7838SOL    HW134976   0.298   2.642  11.887 -0.8033  2.0683 -0.0773
 7838SOL    HW234977   0.174   2.605  11.831 -2.9412  0.0736  1.4935
 7839SOL     OW34978   1.450   1.525   7.234  0.3153 -0.2533 -0.6827
 7839SOL    HW134979   1.540   1.524   7.201  0.0193  0.5594 -1.5071
 7839SOL    HW234980   1.408   1.469   7.169  2.2397  0.4796 -2.5321
 7840SOL     OW34981   4.595   4.508  11.921 -0.3401  0.7379 -0.0424
 7840SOL    HW134982   4.554   4.441  11.867 -1.9073  1.0102  0.8053
 7840SOL    HW234983   4.632   4.573  11.861  0.2494 -0.7845 -1.3448
 7841SOL     OW34984   4.080   3.985  15.644 -0.2986  0.3871 -0.3381
 7841SOL    HW134985   4.012   4.002  15.579 -1.4725  0.4408  0.8858
 7841SOL    HW234986   4.124   3.906  15.613  1.9129  0.5377  2.4070
 7842SOL     OW34987   1.465   2.729   9.314 -0.0724 -0.2552 -0.2156
 7842SOL    HW134988   1.395   2.710   9.251 -0.9747  0.6273  0.5251
 7842SOL    HW234989   1.402   2.767   9.376  2.7199  2.4854  0.9493
 7843SOL     OW34990   2.302   3.884   0.367 -0.0425  0.5148 -0.9589
 7843SOL    HW134991   2.238   3.950   0.395  0.7600  0.5730  0.7009
 7843SOL    HW234992   2.262   3.801   0.394  0.0095  0.5179 -0.8736
 7844SOL     OW34993   2.045   4.658   4.455  0.6631 -0.5186  0.7501
 7844SOL    HW134994   1.958   4.695   4.469  0.9034  0.2008  0.2932
 7844SOL    HW234995   2.048   4.628   4.365 -0.6943  0.6930  0.3050
 7845SOL     OW34996   4.034   4.293   1.354 -0.0559  0.8120  0.0150
 7845SOL    HW134997   4.127   4.289   1.332  0.6101 -0.1694  2.9260
 7845SOL    HW234998   4.017   4.387   1.350 -0.8943  0.7598  2.1662
 7846SOL     OW34999   1.720   3.784  13.286  0.0063 -0.3286 -0.6386
 7846SOL    HW135000   1.686   3.873  13.296  2.6444  0.3847  2.1372
 7846SOL    HW235001   1.723   3.738  13.370 -0.0908 -1.0623 -1.0350
 7847SOL     OW35002   1.345   1.599   8.333  0.1858 -0.2909 -1.0018
 7847SOL    HW135003   1.373   1.511   8.356 -0.8019 -0.0160  1.1995
 7847SOL    HW235004   1.291   1.616   8.410 -0.2943 -0.4697 -1.3013
 7848SOL     OW35005   4.448   2.212   9.752  0.3163 -0.3428  0.0890
 7848SOL    HW135006   4.488   2.156   9.686 -2.5703  0.7826 -2.6419
 7848SOL    HW235007   4.394   2.150   9.802  0.7488 -0.8535 -0.0798
 7849SOL     OW35008   2.521   1.529  15.400  0.1569 -0.0138 -0.6710
 7849SOL    HW135009   2.444   1.497  15.353  1.1792 -1.5423 -1.3122
 7849SOL    HW235010   2.565   1.445  15.419  1.0622  0.8087  0.8264
 7850SOL     OW35011   3.692   3.584   3.449 -0.2382  0.1955 -0.2612
 7850SOL    HW135012   3.756   3.529   3.403 -0.8321 -1.2270  0.6084
 7850SOL    HW235013   3.642   3.617   3.375 -1.5957  0.5323  0.8083
 7851SOL     OW35014   4.523   3.365   0.933 -0.1102  0.8694 -0.0737
 7851SOL    HW135015   4.598   3.387   0.990  0.1055  0.0784 -0.0428
 7851SOL    HW235016   4.447   3.365   0.991 -0.0219 -0.4434  0.0412
 7852SOL     OW35017   1.179   4.010   4.888  0.6388  0.0841  0.6456
 7852SOL    HW135018   1.091   4.031   4.857  0.6301 -0.7983  0.0649
 7852SOL    HW235019   1.211   4.096   4.914 -1.9814  1.4916 -0.8939
 7853SOL     OW35020   0.588   0.467   1.154 -0.0952 -0.1196  0.5151
 7853SOL    HW135021   0.586   0.487   1.060 -2.1826  1.5288  0.8920
 7853SOL    HW235022   0.518   0.402   1.160 -2.6976  2.5556 -0.7251
 7854SOL     OW35023   2.795   3.670  14.949 -0.2541  0.0340  0.3349
 7854SOL    HW135024   2.873   3.649  15.001  0.7900 -1.4443 -1.8096
 7854SOL    HW235025   2.747   3.587  14.945  1.5537 -0.9092 -2.4222
 7855SOL     OW35026   0.570   0.818   5.822  0.3714  0.4254 -0.2278
 7855SOL    HW135027   0.501   0.756   5.797  0.6155 -0.8055  2.1116
 7855SOL    HW235028   0.625   0.835   5.745  0.7623 -0.8483 -0.2349
 7856SOL     OW35029   4.161   2.883  13.166  0.5483  0.0911 -0.1128
 7856SOL    HW135030   4.068   2.898  13.185  0.9705  1.4208  0.8709
 7856SOL    HW235031   4.178   2.927  13.083 -0.4091  1.0319  0.1929
 7857SOL     OW35032   0.944   2.577  14.103 -0.5616  0.8258 -0.7618
 7857SOL    HW135033   0.976   2.498  14.060 -1.3795 -0.7748  1.6047
 7857SOL    HW235034   0.901   2.547  14.183 -1.5514  0.1505 -1.5435
 7858SOL     OW35035   3.570   1.944   6.087 -0.2749  0.4859  0.1582
 7858SOL    HW135036   3.617   1.960   6.169 -3.3833  2.9069  1.4704
 7858SOL    HW235037   3.645   1.942   6.028 -0.4198  3.0438 -0.1134
 7859SOL     OW35038   3.276   2.421  16.487 -0.3615 -0.2341  0.4868
 7859SOL    HW135039   3.364   2.388  16.476  0.3534  0.9131  2.6816
 7859SOL    HW235040   3.263   2.468  16.404  0.1924  1.0440  1.1200
 7860SOL     OW35041   4.705   3.699  10.280 -0.0099  0.2008 -0.3212
 7860SOL    HW135042   0.050   3.765  10.272  2.5789 -2.3983  0.5595
 7860SOL    HW235043   4.676   3.714  10.370  1.1003  0.3751  0.0065
 7861SOL     OW35044   2.121   2.043   6.519 -0.3365 -0.0568  0.3618
 7861SOL    HW135045   2.110   2.134   6.492 -0.8666 -0.5984 -1.2504
 7861SOL    HW235046   2.048   2.028   6.579  1.8807 -0.4335  3.0124
 7862SOL     OW35047   0.302   1.014   4.997  0.3972 -0.0504  0.2443
 7862SOL    HW135048   0.363   0.955   4.952 -1.1162 -1.8655  0.5985
 7862SOL    HW235049   0.225   0.959   5.012  0.0952  0.2454 -0.2122
 7863SOL     OW35050   2.537   2.813   3.830  0.7824 -0.9246  0.1123
 7863SOL    HW135051   2.552   2.897   3.787  1.4115 -1.8470 -1.4896
 7863SOL    HW235052   2.506   2.766   3.752 -1.3267  1.0706 -0.2425
 7864SOL     OW35053   4.673   1.758  11.328  0.4582 -0.4021  0.1268
 7864SOL    HW135054   4.681   1.727  11.418 -2.2231 -3.0388 -0.5612
 7864SOL    HW235055   4.647   1.850  11.337  0.9942 -0.3063  0.7037
 7865SOL     OW35056   1.790   3.172   2.655  0.1058  0.4463  0.0562
 7865SOL    HW135057   1.847   3.096   2.667  0.8459  1.1578  0.9523
 7865SOL    HW235058   1.762   3.151   2.565  0.1238 -0.1121  0.1789
 7866SOL     OW35059   1.188   0.540   4.884 -0.1677 -0.7814  0.2723
 7866SOL    HW135060   1.148   0.575   4.964 -1.3426  0.5916 -0.9192
 7866SOL    HW235061   1.120   0.485   4.845  0.5258 -0.3442 -1.5592
 7867SOL     OW35062   2.572   3.829  10.375  0.2293 -0.4151 -0.4690
 7867SOL    HW135063   2.537   3.741  10.387  1.3465 -0.6498  0.9756
 7867SOL    HW235064   2.656   3.805  10.337  0.3996 -1.8109  0.8331
 7868SOL     OW35065   0.194   2.148  16.593 -0.1904  0.5368 -0.7193
 7868SOL    HW135066   0.156   2.231  16.620  1.5353  0.5494  1.6281
 7868SOL    HW235067   0.130   2.131  16.523 -0.4771 -2.1829  0.2035
 7869SOL     OW35068   2.899   2.662   4.815 -0.2212 -0.1990 -0.3128
 7869SOL    HW135069   2.814   2.635   4.850 -0.6921  3.6791  1.5180
 7869SOL    HW235070   2.922   2.724   4.884 -2.1528 -0.0154  0.1700
 7870SOL     OW35071   0.872   0.401  13.902  0.4773 -0.0224  0.4453
 7870SOL    HW135072   0.843   0.491  13.885  0.2230 -0.4643 -1.5415
 7870SOL    HW235073   0.891   0.403  13.995 -1.0373  0.6697  0.7428
 7871SOL     OW35074   1.829   0.601   0.533  0.2305  0.1837  0.5619
 7871SOL    HW135075   1.867   0.688   0.529  0.4540  0.0039 -1.0211
 7871SOL    HW235076   1.910   0.554   0.555  0.8705 -0.3750 -2.9687
 7872SOL     OW35077   3.725   4.134   9.809 -0.1766 -0.7065  0.0151
 7872SOL    HW135078   3.660   4.066   9.791 -1.8836  0.3090  2.4098
 7872SOL    HW235079   3.788   4.086   9.863 -0.5475 -2.0628 -0.7446
 7873SOL     OW35080   0.661   2.453   4.457 -0.4609  0.2722 -0.2891
 7873SOL    HW135081   0.622   2.370   4.485  1.7147 -1.3207 -1.9316
 7873SOL    HW235082   0.678   2.435   4.364 -1.3957 -0.0753 -0.3930
 7874SOL     OW35083   4.268   4.181   0.954  0.0395 -0.5868  0.6377
 7874SOL    HW135084   4.181   4.206   0.922  0.5250 -1.6350 -1.5225
 7874SOL    HW235085   4.273   4.220   1.041  0.1568 -2.9060  1.6676
 7875SOL     OW35086   2.652   2.222  13.619  0.3597 -0.1816  0.0754
 7875SOL    HW135087   2.566   2.265  13.622 -0.1838 -1.2279 -0.6635
 7875SOL    HW235088   2.718   2.292  13.618 -1.3983  1.4815 -1.9568
 7876SOL     OW35089   0.044   2.926   4.401 -0.1947 -0.0243  0.1493
 7876SOL    HW135090   0.112   2.864   4.427 -0.1092 -0.3446 -0.8417
 7876SOL    HW235091   0.029   2.897   4.311 -2.6146  0.9917  0.2362
 7877SOL     OW35092   0.078   0.626   7.736 -0.0306  0.0412 -0.0692
 7877SOL    HW135093   4.714   0.615   7.769  0.1276 -0.2269  0.2617
 7877SOL    HW235094   0.060   0.631   7.642 -1.6226  0.4532  0.2632
 7878SOL     OW35095   1.543   0.574   3.747  0.4465 -0.1371 -0.3083
 7878SOL    HW135096   1.462   0.613   3.781  0.0661 -0.9652 -0.2490
 7878SOL    HW235097   1.539   0.485   3.783 -0.8380  1.4492  3.4428
 7879SOL     OW35098   4.371   0.937   3.747  0.1487  0.7966 -0.3497
 7879SOL    HW135099   4.346   0.963   3.836  0.6542  1.2892 -0.3555
 7879SOL    HW235100   4.465   0.954   3.745  0.7745 -2.6655 -0.8979
 7880SOL     OW35101   2.934   4.496   0.461  0.0635 -1.1136 -0.4060
 7880SOL    HW135102   2.911   4.559   0.392  1.1713 -0.9330 -0.6042
 7880SOL    HW235103   2.972   4.563   0.517 -1.7373  0.2215 -0.7540
 7881SOL     OW35104   0.707   0.113   7.004  0.5402 -0.1300  0.2271
 7881SOL    HW135105   0.612   0.102   6.993  0.2448  0.8834  1.7746
 7881SOL    HW235106   0.720   0.189   7.060  1.0291 -1.7072  2.2619
 7882SOL     OW35107   3.992   4.004  17.521  0.2393 -0.0312  0.1768
 7882SOL    HW135108   4.040   4.009  17.603 -0.3641 -0.1799  0.5441
 7882SOL    HW235109   3.937   4.082  17.521 -1.5601 -1.2882 -0.0454
 7883SOL     OW35110   3.971   3.449  17.210 -0.5060  0.5908 -0.3255
 7883SOL    HW135111   3.939   3.360  17.224  1.0641  0.2808  1.2990
 7883SOL    HW235112   3.934   3.493  17.287  0.2640  0.3957  0.1557
 7884SOL     OW35113   3.572   1.636   2.263 -0.1122 -0.1109  0.1113
 7884SOL    HW135114   3.651   1.619   2.315 -0.5040  1.1891  1.1050
 7884SOL    HW235115   3.595   1.588   2.182 -0.7179 -2.8651  1.5601
 7885SOL     OW35116   0.998   2.323   0.706  0.3214  0.5735 -0.0434
 7885SOL    HW135117   1.056   2.327   0.630  0.5542  0.1548  0.1117
 7885SOL    HW235118   1.061   2.277   0.761  0.2715 -0.5906 -0.9684
 7886SOL     OW35119   1.006   4.110   3.174 -0.3320  0.5103  0.1249
 7886SOL    HW135120   1.041   4.197   3.194 -0.2366 -0.0152  2.2491
 7886SOL    HW235121   0.970   4.125   3.087  1.1428  0.8794 -0.4153
 7887SOL     OW35122   4.685   2.179   8.493 -0.5308  0.1704  0.0474
 7887SOL    HW135123   4.621   2.251   8.495 -0.9720 -0.2260  0.2388
 7887SOL    HW235124   0.003   2.179   8.407  3.1104 -0.4368  1.8304
 7888SOL     OW35125   1.064   2.082   2.868 -0.2240 -0.5091 -0.1865
 7888SOL    HW135126   1.127   2.030   2.917  0.6746 -0.0324 -0.8326
 7888SOL    HW235127   1.010   2.016   2.825  0.9557 -0.9627 -0.9677
 7889SOL     OW35128   1.615   1.395  13.005  0.8661  0.1292 -0.1454
 7889SOL    HW135129   1.671   1.354  13.070  1.5158 -0.5890 -1.1579
 7889SOL    HW235130   1.679   1.389  12.934  1.7911 -0.3530  0.7273
 7890SOL     OW35131   2.560   4.542   2.969  0.4817 -0.2130  0.4796
 7890SOL    HW135132   2.648   4.570   2.995 -0.0100 -0.0157  1.9429
 7890SOL    HW235133   2.541   4.599   2.895  1.8522 -0.0748  0.2388
 7891SOL     OW35134   4.046   0.199   0.883  0.7403 -0.5199 -0.1921
 7891SOL    HW135135   4.119   0.159   0.835  0.7053  2.4958 -2.7717
 7891SOL    HW235136   3.980   0.197   0.814  1.4439 -1.0921 -0.8432
 7892SOL     OW35137   1.712   4.167   7.238 -0.1113  0.2321 -0.3165
 7892SOL    HW135138   1.747   4.091   7.284 -0.5758 -1.0513 -2.0813
 7892SOL    HW235139   1.777   4.229   7.271  0.0016 -0.6347  1.1053
 7893SOL     OW35140   3.798   1.066   4.636 -0.2364  0.3435  0.9367
 7893SOL    HW135141   3.792   1.152   4.594 -0.6150  0.2115  0.7315
 7893SOL    HW235142   3.856   1.017   4.577 -0.3014  1.7358 -0.2909
 7894SOL     OW35143   0.645   2.462  12.503 -0.0127  0.6121 -0.6233
 7894SOL    HW135144   0.674   2.550  12.525  1.5396 -0.0968  0.1755
 7894SOL    HW235145   0.708   2.447  12.432 -0.7712  1.3634 -1.4572
 7895SOL     OW35146   0.695   3.649   4.688  0.1291 -0.6108 -0.0773
 7895SOL    HW135147   0.701   3.555   4.704 -2.6162 -0.8125 -0.2467
 7895SOL    HW235148   0.611   3.643   4.642  0.4335  0.8681 -0.8201
 7896SOL     OW35149   4.493   2.306   5.860 -0.2375 -0.2953 -0.3898
 7896SOL    HW135150   4.464   2.216   5.872 -0.9365 -0.0708 -0.3778
 7896SOL    HW235151   4.416   2.355   5.887 -1.4854 -0.1813 -4.1620
 7897SOL     OW35152   3.111   4.294   9.262 -0.4824 -0.4851 -0.3130
 7897SOL    HW135153   3.043   4.296   9.330  0.8048 -1.7443  1.0168
 7897SOL    HW235154   3.178   4.338   9.315 -1.2188  0.8328 -0.4649
 7898SOL     OW35155   3.244   0.640   0.774  0.4038 -0.3571 -0.3644
 7898SOL    HW135156   3.202   0.572   0.826 -0.8141  1.6366  1.2389
 7898SOL    HW235157   3.287   0.697   0.838 -0.2089 -1.4663  1.0098
 7899SOL     OW35158   4.469   1.796  16.019  0.1082 -0.2406 -0.6822
 7899SOL    HW135159   4.545   1.850  16.040  0.0049 -0.4204  0.1605
 7899SOL    HW235160   4.506   1.710  16.036 -2.4960 -0.8656  1.8002
 7900SOL     OW35161   0.676   2.883   2.038 -0.1815 -0.1776  0.2443
 7900SOL    HW135162   0.672   2.978   2.025  2.8146 -0.4143 -2.1972
 7900SOL    HW235163   0.713   2.877   2.126 -1.5552  2.3820  1.0141
 7901SOL     OW35164   1.794   3.546   3.686  0.3387  0.0217  0.1411
 7901SOL    HW135165   1.738   3.622   3.707  1.4360 -0.0330  3.2038
 7901SOL    HW235166   1.777   3.551   3.591  0.9581 -0.1406  0.0276
 7902SOL     OW35167   3.155   1.720   9.790 -0.0221 -0.1430 -0.0717
 7902SOL    HW135168   3.228   1.780   9.775  0.6291 -1.0043 -0.3618
 7902SOL    HW235169   3.119   1.722   9.701  0.0672 -1.1422 -0.1311
 7903SOL     OW35170   2.556   1.974  13.719 -0.2886  0.0341 -0.4424
 7903SOL    HW135171   2.596   2.051  13.680 -0.3106 -0.0486 -0.6269
 7903SOL    HW235172   2.574   1.985  13.813 -0.6474 -1.3847 -0.2134
 7904SOL     OW35173   1.811   1.261   0.165 -0.1478  0.8485 -0.2994
 7904SOL    HW135174   1.879   1.305   0.216  1.2562 -0.0881 -1.3220
 7904SOL    HW235175   1.755   1.225   0.234  0.8179  1.4455  0.8033
 7905SOL     OW35176   3.683   1.056   6.209  0.5766 -0.0698 -0.5820
 7905SOL    HW135177   3.666   0.962   6.205 -2.5003  0.4710 -0.2462
 7905SOL    HW235178   3.778   1.064   6.206  0.5491  1.6825  3.5523
 7906SOL     OW35179   2.636   2.996  14.048  0.0440 -0.1535  0.4036
 7906SOL    HW135180   2.582   2.917  14.045  0.2566 -0.3449  1.3658
 7906SOL    HW235181   2.693   2.961  14.117 -0.3572 -0.9255  0.3468
 7907SOL     OW35182   0.879   4.272   1.997  0.1423  0.0919 -0.6999
 7907SOL    HW135183   0.788   4.243   1.991 -0.1100  0.7043  0.1005
 7907SOL    HW235184   0.917   4.184   1.999  2.2063  0.9530 -2.7192
 7908SOL     OW35185   4.673   0.598   4.114  0.4180 -0.0364 -0.0421
 7908SOL    HW135186   4.705   0.688   4.124  1.0064 -0.4500  1.7258
 7908SOL    HW235187   4.589   0.603   4.158 -0.2160  0.3536 -1.2956
 7909SOL     OW35188   2.129   2.724   3.553  0.6224 -0.6676 -0.4161
 7909SOL    HW135189   2.143   2.751   3.644  1.0353  1.8142 -1.1998
 7909SOL    HW235190   2.105   2.808   3.513 -1.4942 -0.6149  0.9688
 7910SOL     OW35191   1.265   3.511   6.474 -0.1753 -0.7324  0.2186
 7910SOL    HW135192   1.245   3.508   6.381  0.6705  4.2157 -0.1579
 7910SOL    HW235193   1.177   3.489   6.506 -0.1091  1.4375  1.9200
 7911SOL     OW35194   1.810   2.284   2.900  0.6983 -0.0313  0.7384
 7911SOL    HW135195   1.832   2.201   2.857  0.5716  1.0831 -1.4941
 7911SOL    HW235196   1.725   2.309   2.863  0.5414  0.7373  1.6341
 7912SOL     OW35197   3.461   0.440   9.633  0.1480  0.4850 -0.2719
 7912SOL    HW135198   3.542   0.398   9.662  0.3208  0.4834 -0.7486
 7912SOL    HW235199   3.478   0.520   9.584 -1.4902  1.6921  1.1396
 7913SOL     OW35200   2.067   0.497  16.624 -0.3847 -0.1704  0.5536
 7913SOL    HW135201   2.023   0.579  16.646  1.2977  0.0705  3.0447
 7913SOL    HW235202   2.068   0.503  16.528 -0.4949  2.5993  0.7278
 7914SOL     OW35203   3.435   3.294   8.539 -0.0047  0.2012 -0.6385
 7914SOL    HW135204   3.352   3.319   8.498  0.4877  2.6264 -0.1537
 7914SOL    HW235205   3.425   3.201   8.557  1.0765  0.0126 -1.0401
 7915SOL     OW35206   3.310   0.759   2.272 -0.2329  0.2716 -0.3341
 7915SOL    HW135207   3.240   0.759   2.338  0.5685  0.9411  0.5232
 7915SOL    HW235208   3.366   0.832   2.300 -0.8054  0.5854  0.0146
 7916SOL     OW35209   0.177   0.303   9.041  0.3438  0.4393  0.0372
 7916SOL    HW135210   0.115   0.240   9.078  2.2648 -0.6960  1.2689
 7916SOL    HW235211   0.178   0.376   9.103  0.2215  0.6215 -0.1721
 7917SOL     OW35212   2.996   0.399   2.253 -0.0693  0.2287  0.2084
 7917SOL    HW135213   2.938   0.426   2.182 -2.0676  1.6460  2.3950
 7917SOL    HW235214   2.928   0.380   2.318  2.3440 -2.1582  2.0447
 7918SOL     OW35215   2.291   3.803   3.922 -0.7073  0.2080  0.3484
 7918SOL    HW135216   2.324   3.732   3.868 -1.7653 -1.0596  1.3734
 7918SOL    HW235217   2.303   3.882   3.869 -1.9982 -0.9673 -1.7136
 7919SOL     OW35218   1.716   3.338   3.846 -0.3156 -0.1383  0.1414
 7919SOL    HW135219   1.729   3.377   3.933  1.2649 -2.9188  1.1655
 7919SOL    HW235220   1.748   3.414   3.798 -1.0853  0.0725 -0.0255
 7920SOL     OW35221   0.889   1.220   7.805  0.2202 -0.1155 -0.0707
 7920SOL    HW135222   0.857   1.141   7.849  1.4893 -0.0790  0.9267
 7920SOL    HW235223   0.921   1.274   7.878 -0.6387  0.2789  0.0151
 7921SOL     OW35224   3.811   0.292  16.588  0.0539  0.2202 -0.2087
 7921SOL    HW135225   3.837   0.229  16.521  0.0381  1.0343 -0.9745
 7921SOL    HW235226   3.866   0.364  16.559 -1.0497  1.9672  2.1094
 7922SOL     OW35227   0.713   0.813   1.228 -0.4616 -0.3447 -0.1433
 7922SOL    HW135228   0.639   0.851   1.180  0.8236 -0.0667 -1.8916
 7922SOL    HW235229   0.752   0.759   1.159 -0.6070  0.0006 -0.4980
 7923SOL     OW35230   4.460   0.984  14.304 -0.0020 -0.1821 -0.0011
 7923SOL    HW135231   4.442   1.071  14.341  1.0372 -0.0247  0.1303
 7923SOL    HW235232   4.382   0.932  14.324 -0.3769 -0.0311 -1.0973
 7924SOL     OW35233   2.780   1.330   7.438  0.5309  0.5090 -0.1460
 7924SOL    HW135234   2.837   1.286   7.375 -1.1278  0.2238 -1.4680
 7924SOL    HW235235   2.755   1.410   7.391  2.0070  1.1195  0.1274
 7925SOL     OW35236   0.829   4.159   2.377 -0.2061 -0.2483 -0.5144
 7925SOL    HW135237   0.766   4.187   2.311  0.5133  0.4569 -0.9134
 7925SOL    HW235238   0.811   4.066   2.391  0.2370 -0.1063  1.0411
 7926SOL     OW35239   4.707   3.483  11.564 -0.6399 -0.3906  0.1076
 7926SOL    HW135240   4.723   3.503  11.471 -0.5319  0.1605  0.2428
 7926SOL    HW235241   0.066   3.479  11.611 -0.8487  0.7626  0.5835
 7927SOL     OW35242   1.876   3.610   8.012  0.0574  0.1162  0.1374
 7927SOL    HW135243   1.835   3.524   8.002  1.6850 -0.6822  0.1272
 7927SOL    HW235244   1.966   3.580   8.027  0.0674  0.0622 -0.0294
 7928SOL     OW35245   4.670   1.317   5.890  0.1223 -0.1791 -0.7852
 7928SOL    HW135246   4.646   1.275   5.972  1.1966  0.6878 -0.0366
 7928SOL    HW235247   4.671   1.238   5.835  1.6993 -0.5871 -0.1655
 7929SOL     OW35248   3.465   0.959  14.747  0.1306  0.7276 -0.4872
 7929SOL    HW135249   3.420   0.898  14.805 -1.2951  1.8526 -0.4186
 7929SOL    HW235250   3.437   0.920  14.664 -1.1101  1.9110 -0.6088
 7930SOL     OW35251   0.950   3.282   9.127 -0.2939  0.1466  0.0350
 7930SOL    HW135252   0.900   3.356   9.092  2.0192  1.6811  0.0019
 7930SOL    HW235253   0.959   3.310   9.218  0.6148  1.7269 -0.5363
 7931SOL     OW35254   0.382   3.532   2.626  0.9139  0.5475  0.8313
 7931SOL    HW135255   0.378   3.495   2.538 -1.0918  0.6767  0.8740
 7931SOL    HW235256   0.477   3.534   2.637  1.2635 -3.2277 -1.3540
 7932SOL     OW35257   4.574   1.649  10.844  0.4071  0.1428 -0.2116
 7932SOL    HW135258   4.667   1.666  10.858  0.6552 -2.2239  1.0795
 7932SOL    HW235259   4.559   1.554  10.841 -0.4928  0.2208  1.9739
 7933SOL     OW35260   1.847   4.449  14.872  0.2864 -0.0812  0.4280
 7933SOL    HW135261   1.851   4.425  14.779  1.5146  1.5582  0.0540
 7933SOL    HW235262   1.818   4.540  14.874  1.3249  0.3095 -1.7397
 7934SOL     OW35263   1.581   1.981   5.402  0.1529 -0.3946  0.3337
 7934SOL    HW135264   1.535   1.927   5.466  0.2582  0.2229  0.9262
 7934SOL    HW235265   1.516   1.993   5.332  2.5211 -2.2246 -2.1887
 7935SOL     OW35266   2.324   4.212   4.458  0.0965  0.3905  0.5593
 7935SOL    HW135267   2.274   4.255   4.527  1.2264 -1.4355  2.5355
 7935SOL    HW235268   2.268   4.229   4.382 -0.0589  0.3838  0.6737
 7936SOL     OW35269   2.732   3.078   6.852  0.4525  1.1239 -0.0331
 7936SOL    HW135270   2.764   3.026   6.777 -0.6312  1.8987 -1.0334
 7936SOL    HW235271   2.703   3.161   6.815  0.6779  1.3413  0.2857
 7937SOL     OW35272   3.449   0.951   3.948 -0.3819 -0.7231 -0.3904
 7937SOL    HW135273   3.479   1.041   3.962 -1.1701 -0.7438  1.4060
 7937SOL    HW235274   3.427   0.953   3.855 -0.9221  2.1772 -0.2162
 7938SOL     OW35275   3.431   2.101   8.809  0.2089  0.2450 -0.2555
 7938SOL    HW135276   3.432   2.182   8.757  0.5925 -0.3128 -1.1017
 7938SOL    HW235277   3.476   2.039   8.753  0.6059 -0.9776  1.3985
 7939SOL     OW35278   1.793   1.171   3.861 -0.2806  0.4301 -0.0777
 7939SOL    HW135279   1.776   1.247   3.805 -0.4334  1.1957  1.0088
 7939SOL    HW235280   1.700   1.154   3.875  0.8310 -3.2479  2.8088
 7940SOL     OW35281   3.491   2.738   5.601  0.0253 -0.1726  0.0203
 7940SOL    HW135282   3.538   2.683   5.663 -2.5463 -1.9992  0.3967
 7940SOL    HW235283   3.567   2.786   5.571  1.8094 -2.1515  1.3968
 7941SOL     OW35284   3.190   1.383   4.690 -0.1107 -0.4012 -0.3739
 7941SOL    HW135285   3.175   1.438   4.613  1.2687 -0.3414 -0.5954
 7941SOL    HW235286   3.279   1.413   4.711 -0.0241 -0.4532 -0.6668
 7942SOL     OW35287   0.076   0.615   0.982  0.5272  0.1764  0.7395
 7942SOL    HW135288   0.022   0.590   0.907  0.7375  3.0283 -0.3446
 7942SOL    HW235289   0.128   0.535   0.997  1.9823  0.7727 -1.0702
 7943SOL     OW35290   0.135   4.221   5.664 -0.8473  0.2148 -0.2268
 7943SOL    HW135291   0.133   4.203   5.570 -2.0191 -1.0106  0.0473
 7943SOL    HW235292   0.051   4.181   5.687 -0.2571 -0.2782  1.1130
 7944SOL     OW35293   0.160   4.252   6.862 -0.0438  0.0801 -0.1103
 7944SOL    HW135294   0.075   4.210   6.877  0.5052 -0.1970  2.2688
 7944SOL    HW235295   0.143   4.316   6.793  0.9244  1.0664  0.5598
 7945SOL     OW35296   0.816   3.659   3.424  0.6178  0.1098 -0.1039
 7945SOL    HW135297   0.850   3.737   3.379  0.7513 -0.8033 -1.5977
 7945SOL    HW235298   0.884   3.593   3.411 -1.2759 -1.7819 -0.2829
 7946SOL     OW35299   0.273   2.023   8.227 -0.3403 -0.5557 -0.1483
 7946SOL    HW135300   0.209   2.094   8.219 -0.5944 -0.8847 -1.0151
 7946SOL    HW235301   0.219   1.960   8.273 -0.4949  0.3031  0.8604
 7947SOL     OW35302   2.248   1.339   9.688  0.6888  0.3123  0.3895
 7947SOL    HW135303   2.324   1.335   9.746  1.1546 -1.5810 -0.3795
 7947SOL    HW235304   2.193   1.300   9.756  0.1998 -1.6827 -1.1545
 7948SOL     OW35305   0.874   3.775   4.058  1.1414  0.1183  0.3212
 7948SOL    HW135306   0.919   3.857   4.035  1.1430 -0.3388 -1.2911
 7948SOL    HW235307   0.944   3.718   4.025  0.7923 -0.9089  1.3431
 7949SOL     OW35308   1.474   1.847   4.643  0.0924 -0.6399  0.3881
 7949SOL    HW135309   1.395   1.876   4.689  0.9204 -0.0610  1.4350
 7949SOL    HW235310   1.451   1.754   4.635 -1.1156 -0.3579  0.5798
 7950SOL     OW35311   0.863   4.472   4.254  0.0996 -0.1384 -0.4036
 7950SOL    HW135312   0.947   4.469   4.208  0.9266 -3.2902  1.2908
 7950SOL    HW235313   0.833   4.562   4.244  1.0545  0.3465  1.0473
 7951SOL     OW35314   0.662   3.662   8.496  0.1932 -0.2005  0.2303
 7951SOL    HW135315   0.743   3.619   8.524  0.7808  0.0097 -1.1492
 7951SOL    HW235316   0.646   3.618   8.413  1.3279 -0.7044  0.2773
 7952SOL     OW35317   1.358   4.144   5.905  0.4707  0.1704  0.1619
 7952SOL    HW135318   1.406   4.219   5.871  3.8603 -0.5550  3.3973
 7952SOL    HW235319   1.290   4.188   5.957  0.2674  1.0586 -0.8475
 7953SOL     OW35320   1.724   1.953  13.316 -0.0365  0.7578  0.2563
 7953SOL    HW135321   1.712   1.917  13.403  0.9667  1.0579  0.5200
 7953SOL    HW235322   1.751   1.870  13.277  0.4881  1.1077 -0.1281
 7954SOL     OW35323   1.945   3.503   5.877  0.1037 -0.4384 -0.0620
 7954SOL    HW135324   1.931   3.512   5.783  0.2164 -0.2896 -0.0641
 7954SOL    HW235325   1.859   3.469   5.903 -0.0607  0.8715  1.1081
 7955SOL     OW35326   3.947   0.811   6.761  0.3581  0.2905  0.3790
 7955SOL    HW135327   3.925   0.776   6.675  2.3853  1.4360 -0.5910
 7955SOL    HW235328   3.993   0.743   6.811  0.2034 -0.1768 -0.1204
 7956SOL     OW35329   1.509   3.875  14.793  0.0517  0.2522  0.1071
 7956SOL    HW135330   1.558   3.929  14.731 -0.9698 -0.0827 -0.9866
 7956SOL    HW235331   1.500   3.785  14.763 -1.6740  0.9678 -1.5111
 7957SOL     OW35332   1.662   4.574  16.187 -0.0769  0.3421 -0.2186
 7957SOL    HW135333   1.706   4.637  16.243 -0.7161 -1.9321  2.8333
 7957SOL    HW235334   1.571   4.605  16.192  0.2422  1.1563  0.3504
 7958SOL     OW35335   0.689   4.169   7.943  0.0717  0.5953  0.2980
 7958SOL    HW135336   0.672   4.138   8.032  1.6542 -0.5090  0.2000
 7958SOL    HW235337   0.671   4.263   7.955 -2.9809  0.0352  0.1836
 7959SOL     OW35338   1.404   4.344   9.966  0.5471  0.2204 -0.5429
 7959SOL    HW135339   1.338   4.334   9.897  0.0990 -0.9035  0.0571
 7959SOL    HW235340   1.343   4.351  10.039  3.2770  0.4200  1.6982
 7960SOL     OW35341   0.081   1.834   7.490 -0.1542  0.5638 -0.1096
 7960SOL    HW135342   0.116   1.922   7.507  1.7855  0.3879 -3.1888
 7960SOL    HW235343   0.121   1.788   7.564  0.0418 -2.1531 -1.9343
 7961SOL     OW35344   1.663   4.141   4.561  0.2042  0.3004  0.4234
 7961SOL    HW135345   1.754   4.115   4.573 -0.0254 -0.7716 -0.1006
 7961SOL    HW235346   1.610   4.066   4.588  2.4765 -1.4246  0.0981
 7962SOL     OW35347   2.049   0.750  10.354  0.4267 -0.0641 -0.5584
 7962SOL    HW135348   2.128   0.756  10.299  1.0069 -0.1592  0.2760
 7962SOL    HW235349   2.061   0.673  10.409 -1.0245 -0.7557 -1.2049
 7963SOL     OW35350   3.457   1.110  17.337  0.4403  0.1749 -0.2280
 7963SOL    HW135351   3.460   1.021  17.371  1.5840 -0.5881 -2.2893
 7963SOL    HW235352   3.544   1.142  17.362  0.8746 -1.9859  1.0432
 7964SOL     OW35353   1.573   4.662  10.864 -0.0607 -0.5769 -0.4001
 7964SOL    HW135354   1.603   4.676  10.774 -0.6487  0.3753 -0.4402
 7964SOL    HW235355   1.643   4.711  10.906 -0.7752 -1.0379  1.3000
 7965SOL     OW35356   4.667   0.534   6.813  0.3030 -0.5088 -0.5722
 7965SOL    HW135357   4.687   0.604   6.875 -1.2204  1.5243 -2.3800
 7965SOL    HW235358   0.008   0.473   6.848 -0.8713 -0.6180  1.4218
 7966SOL     OW35359   3.068   1.151   9.686 -0.3543 -0.3517 -0.2938
 7966SOL    HW135360   3.145   1.201   9.714 -0.3770  0.4314 -1.6543
 7966SOL    HW235361   3.096   1.127   9.598  0.3521 -0.4682 -0.0325
 7967SOL     OW35362   4.086   0.234   8.949 -0.2587  0.1593 -0.2023
 7967SOL    HW135363   4.166   0.246   8.898 -1.3735  0.5120 -1.8805
 7967SOL    HW235364   4.113   0.161   9.004 -0.8914  0.0393 -0.0454
 7968SOL     OW35365   0.126   0.528   3.242  0.2474 -0.1377  0.5800
 7968SOL    HW135366   0.134   0.600   3.179  0.4166  0.5497  1.3888
 7968SOL    HW235367   0.032   0.508   3.236  0.2595  0.0978 -0.5549
 7969SOL     OW35368   4.194   3.762   5.616 -0.4821 -0.1778 -0.1023
 7969SOL    HW135369   4.132   3.737   5.684 -0.0333 -0.8335  0.0718
 7969SOL    HW235370   4.280   3.739   5.654 -1.1401  0.6623  1.8989
 7970SOL     OW35371   1.464   0.037   7.890 -0.0536  0.4073 -0.7369
 7970SOL    HW135372   1.421   0.088   7.959 -1.7997 -0.0972 -1.4457
 7970SOL    HW235373   1.398   4.693   7.876 -1.4943  1.1977  2.1918
 7971SOL     OW35374   4.324   0.178  14.306  0.3979 -0.3657 -0.0465
 7971SOL    HW135375   4.246   0.127  14.284 -1.0733  2.4204 -1.2975
 7971SOL    HW235376   4.386   0.105  14.307 -0.2075 -0.8504  2.2654
 7972SOL     OW35377   2.281   3.110   4.181 -0.5771 -0.7415  0.1505
 7972SOL    HW135378   2.293   3.065   4.265  1.3975 -0.5438 -0.0140
 7972SOL    HW235379   2.273   3.204   4.198  0.6985 -0.2902 -1.6938
 7973SOL     OW35380   1.019   2.837   8.367  0.0940 -0.2567  0.0572
 7973SOL    HW135381   1.072   2.758   8.355 -0.9900 -0.9790  0.0225
 7973SOL    HW235382   1.054   2.887   8.440 -1.1058 -0.8854  1.0669
 7974SOL     OW35383   0.897   3.766   3.119 -0.3121  0.0131  0.8311
 7974SOL    HW135384   0.946   3.771   3.036  0.5101 -2.9284  1.1611
 7974SOL    HW235385   0.948   3.819   3.180  1.4513  0.4197 -0.9707
 7975SOL     OW35386   3.983   3.450   8.164 -0.1888  0.1559  0.2680
 7975SOL    HW135387   4.029   3.520   8.118 -1.9444 -0.2325 -2.0864
 7975SOL    HW235388   4.051   3.388   8.190 -1.6467 -0.1803  3.3541
 7976SOL     OW35389   3.549   3.847  14.705 -0.2087 -0.9283  0.0177
 7976SOL    HW135390   3.599   3.904  14.647 -0.3058  0.6932  1.5353
 7976SOL    HW235391   3.600   3.766  14.703  1.9243  0.4062 -0.0361
 7977SOL     OW35392   4.546   4.414  11.640 -0.3064  0.3961 -0.7954
 7977SOL    HW135393   4.525   4.351  11.571  2.0952  0.3002 -1.4271
 7977SOL    HW235394   4.472   4.404  11.701  0.8780  1.0874  0.7587
 7978SOL     OW35395   2.745   2.831   5.288 -0.3096 -0.2772 -0.6263
 7978SOL    HW135396   2.660   2.856   5.253 -0.7452 -0.3698  0.3693
 7978SOL    HW235397   2.721   2.800   5.375  1.0138  0.1711 -0.0869
 7979SOL     OW35398   0.610   2.927   8.817 -0.7077 -0.4967  0.2457
 7979SOL    HW135399   0.691   2.877   8.803 -0.5303  0.0178 -0.6356
 7979SOL    HW235400   0.626   2.979   8.895  1.1901  0.1065 -0.5259
 7980SOL     OW35401   0.392   1.491  11.593  0.3767  0.2279  0.4532
 7980SOL    HW135402   0.482   1.467  11.613  0.4694  1.2486  1.2265
 7980SOL    HW235403   0.339   1.424  11.638  1.7978 -1.8867 -0.9985
 7981SOL     OW35404   1.941   3.915   7.599 -0.3705 -0.3372  0.8225
 7981SOL    HW135405   1.900   3.979   7.656 -1.0212 -1.5605  1.7162
 7981SOL    HW235406   1.902   3.929   7.513  3.5317  1.6909 -0.6340
 7982SOL     OW35407   2.110   1.402   5.807  0.0610 -0.3256  0.3225
 7982SOL    HW135408   2.122   1.332   5.744 -4.3624 -0.5919 -0.2319
 7982SOL    HW235409   2.173   1.370   5.872  2.9381  0.1500 -2.2372
 7983SOL     OW35410   0.001   1.950   7.194  0.1085 -0.0950  0.1797
 7983SOL    HW135411   0.056   1.872   7.207  0.0386 -0.1002  0.4492
 7983SOL    HW235412   4.643   1.923   7.236  0.1052 -0.4390 -0.0477
 7984SOL     OW35413   2.799   3.938   5.130  0.0325  0.0477 -0.4561
 7984SOL    HW135414   2.790   4.032   5.149  1.1621 -0.3184  1.9774
 7984SOL    HW235415   2.735   3.902   5.190  1.0915 -0.6875  0.2342
 7985SOL     OW35416   3.805   3.721   3.962  0.2903  0.4619  0.2886
 7985SOL    HW135417   3.775   3.698   3.874 -1.1684  0.8061  0.7082
 7985SOL    HW235418   3.816   3.634   4.001  0.1688  1.3634  2.3478
 7986SOL     OW35419   0.474   2.769   1.728  0.3234 -0.3050  0.0687
 7986SOL    HW135420   0.512   2.856   1.724  2.0878 -1.1255 -0.8877
 7986SOL    HW235421   0.526   2.719   1.665 -1.3877 -2.6047  0.4589
 7987SOL     OW35422   1.830   1.125   2.452 -0.0802  0.3660  0.4117
 7987SOL    HW135423   1.824   1.109   2.358 -1.0548  0.2981  0.4832
 7987SOL    HW235424   1.809   1.219   2.453 -3.0414 -0.2857 -0.2924
 7988SOL     OW35425   1.419   1.436   6.290 -0.1819  0.3206  0.4151
 7988SOL    HW135426   1.426   1.369   6.222 -0.6974  0.7323 -0.0419
 7988SOL    HW235427   1.485   1.501   6.267  1.5225 -1.1008  1.2277
 7989SOL     OW35428   4.041   2.736   7.811  0.7726 -0.2238 -0.6451
 7989SOL    HW135429   4.094   2.757   7.888  0.0363  1.6088 -0.6402
 7989SOL    HW235430   4.067   2.811   7.756 -0.1216  1.2866  0.9906
 7990SOL     OW35431   2.635   3.565   5.007 -0.6163  1.1221 -0.2406
 7990SOL    HW135432   2.560   3.508   4.996  0.7215 -1.2284  2.6308
 7990SOL    HW235433   2.711   3.510   4.987 -0.7361  2.0563 -3.1296
 7991SOL     OW35434   3.289   4.065   8.650 -0.3692 -0.2416  0.1459
 7991SOL    HW135435   3.278   4.124   8.576  2.1640 -0.0823 -0.1130
 7991SOL    HW235436   3.258   3.984   8.609  0.4877 -0.5379  0.0801
 7992SOL     OW35437   1.682   4.353   1.721  0.0182 -0.1057 -0.9889
 7992SOL    HW135438   1.710   4.444   1.705  1.0395 -0.2392  0.0822
 7992SOL    HW235439   1.759   4.300   1.738  0.8614  1.3574 -0.2225
 7993SOL     OW35440   0.572   0.222   0.918 -0.4112 -0.1427 -0.1881
 7993SOL    HW135441   0.503   0.284   0.896 -2.3080 -2.1267  0.0887
 7993SOL    HW235442   0.584   0.184   0.831 -0.7942  2.1619 -1.2382
 7994SOL     OW35443   4.332   1.413   3.147 -0.8548 -0.3463  0.4500
 7994SOL    HW135444   4.271   1.486   3.158  0.7947  1.0000  0.6138
 7994SOL    HW235445   4.293   1.340   3.195 -0.8842 -0.8350 -0.3187
 7995SOL     OW35446   0.679   2.204  14.387 -0.1124  0.1821 -0.3662
 7995SOL    HW135447   0.762   2.222  14.343  0.2540  0.3135  0.3851
 7995SOL    HW235448   0.702   2.148  14.461  0.4662  0.7205 -0.1380
 7996SOL     OW35449   2.123   0.421   4.484 -0.5187  0.3491  0.2039
 7996SOL    HW135450   2.128   0.509   4.448 -0.4864  0.2222 -0.1047
 7996SOL    HW235451   2.213   0.418   4.517 -1.2929 -0.0641  2.2603
 7997SOL     OW35452   4.473   3.308   7.347 -0.4893 -0.1916 -0.0643
 7997SOL    HW135453   4.566   3.301   7.329 -0.4435 -2.1268  0.9355
 7997SOL    HW235454   4.476   3.278   7.438 -0.4376 -1.2565 -0.4227
 7998SOL     OW35455   0.955   4.400  16.761 -0.8484  0.0382  0.0949
 7998SOL    HW135456   0.952   4.305  16.768 -2.4868  0.1329  0.4957
 7998SOL    HW235457   1.048   4.423  16.756 -0.8629 -0.0282 -0.4597
 7999SOL     OW35458   0.889   0.844   1.739 -0.3556  0.4562  0.7081
 7999SOL    HW135459   0.902   0.805   1.652 -2.7373  2.2009 -0.4237
 7999SOL    HW235460   0.796   0.864   1.745 -0.0544  1.7661  0.8920
 8000SOL     OW35461   2.468   3.011   2.072 -0.4075 -0.1576  0.2493
 8000SOL    HW135462   2.418   3.026   2.152  2.5936  1.2941  1.8763
 8000SOL    HW235463   2.469   2.915   2.076  3.0724 -0.1243  1.0419
 8001SOL     OW35464   4.411   0.281   6.810 -0.0063 -0.1751  0.4303
 8001SOL    HW135465   4.497   0.272   6.769 -0.7344 -0.5401 -1.0175
 8001SOL    HW235466   4.424   0.371   6.841 -0.8889  0.9714 -2.4619
 8002SOL     OW35467   3.087   0.615   2.725 -0.5116  0.0485  0.0013
 8002SOL    HW135468   3.124   0.533   2.758 -0.3487  0.2083  0.2117
 8002SOL    HW235469   2.997   0.613   2.757 -0.7632  2.0543 -0.5989
 8003SOL     OW35470   0.022   1.816  17.677  0.4586  0.0873 -0.3946
 8003SOL    HW135471   4.699   1.858  17.605 -0.5680  0.7367  0.6472
 8003SOL    HW235472   0.091   1.882  17.688  2.7757 -2.6612  1.5350
 8004SOL     OW35473   2.573   2.015   9.144  0.4229  0.3815 -0.0987
 8004SOL    HW135474   2.663   2.040   9.167 -0.5046  2.9880  0.6774
 8004SOL    HW235475   2.543   1.996   9.233 -0.6222 -1.5656 -0.8767
 8005SOL     OW35476   3.453   1.817   7.224 -0.3444  0.7919  0.0125
 8005SOL    HW135477   3.458   1.830   7.318 -1.4588 -3.3869  0.6687
 8005SOL    HW235478   3.539   1.848   7.195  0.3812 -0.0397  1.2767
 8006SOL     OW35479   4.544   1.137  13.340  0.0966 -0.1426 -0.0244
 8006SOL    HW135480   4.557   1.152  13.247 -0.5059  1.8662  0.2247
 8006SOL    HW235481   4.615   1.083  13.375  0.1205 -0.1572 -0.0968
 8007SOL     OW35482   3.681   2.740  10.503  0.8662 -0.1542 -0.3877
 8007SOL    HW135483   3.684   2.645  10.500  1.6370 -0.1170 -1.0216
 8007SOL    HW235484   3.754   2.765  10.446  0.1364  0.6606 -0.9761
 8008SOL     OW35485   3.111   2.275   9.300  0.0779  0.3796 -0.1849
 8008SOL    HW135486   3.105   2.363   9.337  1.0545  0.2183  0.3664
 8008SOL    HW235487   3.072   2.227   9.373 -0.4135 -0.8702 -1.2636
 8009SOL     OW35488   0.720   3.660   9.685  0.1633  0.2112 -0.5361
 8009SOL    HW135489   0.776   3.582   9.686  2.5563  1.8836 -0.9380
 8009SOL    HW235490   0.768   3.710   9.751  1.0506  1.4793 -2.1225
 8010SOL     OW35491   2.627   0.397   9.520  0.2866  0.0116  0.1679
 8010SOL    HW135492   2.699   0.348   9.482  0.1922  0.6421 -0.8261
 8010SOL    HW235493   2.607   0.343   9.597 -2.2477  0.9487  0.1892
 8011SOL     OW35494   3.502   2.699   0.383 -0.1466 -0.3434  0.1707
 8011SOL    HW135495   3.589   2.676   0.415 -0.1212  0.3675  0.6196
 8011SOL    HW235496   3.463   2.725   0.466  1.3769  1.1130  0.4120
 8012SOL     OW35497   3.655   0.752   4.525 -0.2522  0.0534 -0.1953
 8012SOL    HW135498   3.578   0.699   4.504  0.4369 -0.9955 -0.1218
 8012SOL    HW235499   3.627   0.823   4.467 -1.7561 -1.4656 -1.3262
 8013SOL     OW35500   0.300   2.450   1.156 -0.2866  0.4983 -0.6436
 8013SOL    HW135501   0.205   2.446   1.166 -0.1648  1.3205  0.8621
 8013SOL    HW235502   0.321   2.496   1.074 -1.2502  1.9722 -0.0550
 8014SOL     OW35503   0.429   1.799   6.631  0.3137  0.5430 -0.3178
 8014SOL    HW135504   0.412   1.705   6.638 -1.1473  0.5661 -3.5946
 8014SOL    HW235505   0.373   1.829   6.560  0.4557 -3.4833 -2.1507
 8015SOL     OW35506   3.456   1.360  13.468  0.4264  0.2841 -0.0260
 8015SOL    HW135507   3.518   1.401  13.407 -1.9380  3.6384 -0.2078
 8015SOL    HW235508   3.428   1.294  13.404 -0.3442  0.2970  0.2962
 8016SOL     OW35509   1.599   3.560   5.747 -0.2205 -0.6584  0.0464
 8016SOL    HW135510   1.656   3.540   5.821  0.5523  2.2916  0.2288
 8016SOL    HW235511   1.529   3.610   5.788  0.0957  0.4059 -0.7081
 8017SOL     OW35512   4.201   0.892   6.464  0.1616  0.3896 -0.0270
 8017SOL    HW135513   4.153   0.958   6.513 -0.8144 -0.9465  0.8094
 8017SOL    HW235514   4.230   0.943   6.388  0.3298 -2.1165 -1.6582
 8018SOL     OW35515   0.053   0.547   8.922  0.4598 -0.7800  0.4525
 8018SOL    HW135516   4.713   0.503   8.977 -2.8549 -0.3940 -3.1225
 8018SOL    HW235517   0.132   0.512   8.964  0.7407 -0.4920  0.1705
 8019SOL     OW35518   2.594   3.839   1.847  0.0809 -0.3459 -0.2879
 8019SOL    HW135519   2.611   3.928   1.814  2.5069 -0.7564 -0.1717
 8019SOL    HW235520   2.648   3.785   1.790  3.8721  2.9968  0.1508
 8020SOL     OW35521   4.368   2.925   3.056 -0.1955 -0.3128  0.1082
 8020SOL    HW135522   4.352   2.859   2.989 -0.0038  1.9440 -2.1705
 8020SOL    HW235523   4.343   3.003   3.006  1.7105 -0.2714 -0.7725
 8021SOL     OW35524   4.451   1.793  15.533  0.0628  0.4296  0.0453
 8021SOL    HW135525   4.503   1.835  15.602 -1.0558 -0.1316  1.2356
 8021SOL    HW235526   4.364   1.808  15.569  0.5336  1.9257  0.5516
 8022SOL     OW35527   0.022   2.044   9.063  0.3594 -0.2246 -0.0597
 8022SOL    HW135528   4.696   2.086   9.133 -0.0762  1.3452 -1.3087
 8022SOL    HW235529   0.079   2.113   9.029  0.4375  0.6462  1.8126
 8023SOL     OW35530   2.287   0.582   8.428  0.2027 -0.2464  0.1156
 8023SOL    HW135531   2.215   0.640   8.404 -0.4073 -0.4523  1.4003
 8023SOL    HW235532   2.320   0.629   8.505 -2.1559 -1.1485  1.6875
 8024SOL     OW35533   3.661   1.468   8.886 -0.0421  0.0033 -0.0956
 8024SOL    HW135534   3.748   1.431   8.867  0.9707  2.6793 -0.6583
 8024SOL    HW235535   3.639   1.404   8.954  0.1780 -0.3388 -0.3438
 8025SOL     OW35536   3.809   1.129   7.678 -0.0028 -0.0916  0.4254
 8025SOL    HW135537   3.762   1.062   7.726 -1.2845  1.2301  1.0008
 8025SOL    HW235538   3.854   1.179   7.746  2.0681  1.4137 -2.0194
 8026SOL     OW35539   0.231   2.058   9.324 -0.6942  0.4428  0.1203
 8026SOL    HW135540   0.286   2.122   9.369  1.3625 -1.8287  0.8672
 8026SOL    HW235541   0.253   2.065   9.231 -0.0024 -1.0197  0.1778
 8027SOL     OW35542   3.015   4.485   3.429 -0.0778 -0.2857  0.5043
 8027SOL    HW135543   3.091   4.445   3.470  0.4290 -0.3806 -0.5102
 8027SOL    HW235544   3.036   4.477   3.335 -2.2376  0.1235 -0.0117
 8028SOL     OW35545   1.801   0.380   3.373  0.9196 -0.1426  0.5503
 8028SOL    HW135546   1.746   0.379   3.294 -1.0451 -3.2680  1.9365
 8028SOL    HW235547   1.871   0.442   3.355  2.3873 -2.4971 -1.9735
 8029SOL     OW35548   0.533   4.274   5.751 -0.0038 -0.5180  1.0965
 8029SOL    HW135549   0.484   4.271   5.833  0.7581  2.9680  1.6992
 8029SOL    HW235550   0.479   4.235   5.683 -0.7935  0.9844  0.8720
 8030SOL     OW35551   4.633   1.358   8.124  0.1198 -0.0210  0.0021
 8030SOL    HW135552   4.712   1.408   8.143 -0.7622  0.7835  1.5097
 8030SOL    HW235553   4.606   1.329   8.211 -0.1028  1.3703  0.3822
 8031SOL     OW35554   2.317   2.965   7.289  0.1049  0.7873  0.2246
 8031SOL    HW135555   2.336   3.034   7.352  0.6584  1.0244 -0.1962
 8031SOL    HW235556   2.283   3.010   7.211 -0.2564 -0.6598 -0.4473
 8032SOL     OW35557   2.302   3.881   8.221 -0.0576  0.2380 -0.4813
 8032SOL    HW135558   2.344   3.959   8.256  1.0794 -0.3309 -0.5525
 8032SOL    HW235559   2.215   3.917   8.204  0.6544  1.6462 -1.1093
 8033SOL     OW35560   2.772   2.300  16.149  0.0522 -0.4231  0.4242
 8033SOL    HW135561   2.837   2.249  16.100  0.1137  3.0765 -3.1152
 8033SOL    HW235562   2.767   2.380  16.096 -0.8285 -1.8175 -1.5996
 8034SOL     OW35563   3.162   0.639  10.534 -0.3022  0.1495  0.3248
 8034SOL    HW135564   3.110   0.629  10.454  0.6630 -0.5140 -0.2200
 8034SOL    HW235565   3.252   0.628  10.503 -1.8431  1.7988 -4.7508
 8035SOL     OW35566   0.472   2.997  14.916  0.2640 -0.5326 -0.2169
 8035SOL    HW135567   0.383   3.013  14.884 -0.1897 -0.4939  1.0869
 8035SOL    HW235568   0.500   3.079  14.957  0.1084 -1.0253  0.8679
 8036SOL     OW35569   0.990   2.949   6.560  0.0726 -0.3776 -0.3279
 8036SOL    HW135570   1.002   2.866   6.514  3.3768  0.2369 -0.5972
 8036SOL    HW235571   0.912   2.920   6.606 -0.3912  2.1333  0.4745
 8037SOL     OW35572   4.481   1.497  16.101 -0.0986 -0.3913  0.0423
 8037SOL    HW135573   4.567   1.476  16.137  0.5712  3.0208  0.4166
 8037SOL    HW235574   4.427   1.442  16.158  0.7586 -0.9742  0.2929
 8038SOL     OW35575   0.314   2.587   2.868  0.3002 -0.4230 -1.0330
 8038SOL    HW135576   0.249   2.626   2.926  4.0602  1.1215  2.1430
 8038SOL    HW235577   0.292   2.494   2.866  0.4194 -0.5271  2.6221
 8039SOL     OW35578   0.920   2.105   2.455  0.3799  0.0604 -0.0391
 8039SOL    HW135579   0.943   2.082   2.545 -0.5171  0.6039  0.3270
 8039SOL    HW235580   1.002   2.075   2.416  0.4614 -1.5341  1.3523
 8040SOL     OW35581   0.017   0.682   6.601  0.6037 -0.0178  0.0016
 8040SOL    HW135582   4.719   0.634   6.680 -1.0807  2.5721  1.1067
 8040SOL    HW235583   0.001   0.771   6.634  1.6048  0.2337 -0.1864
 8041SOL     OW35584   0.333   4.272   4.424 -0.6332 -0.4206 -0.1466
 8041SOL    HW135585   0.342   4.366   4.438  0.0099 -0.3479 -1.0383
 8041SOL    HW235586   0.425   4.264   4.399 -0.2852 -0.2230  1.0624
 8042SOL     OW35587   0.861   3.571  15.739 -0.0445  0.4432  0.1545
 8042SOL    HW135588   0.772   3.605  15.736  0.0334  0.6939  0.7628
 8042SOL    HW235589   0.866   3.534  15.827 -0.2700 -4.4744 -1.9073
 8043SOL     OW35590   0.932   4.238   6.940 -0.0271 -0.2760 -0.2679
 8043SOL    HW135591   0.911   4.321   6.983  1.4803 -0.5372  0.9562
 8043SOL    HW235592   0.874   4.169   6.975 -0.1232  0.6048  1.3338
 8044SOL     OW35593   3.844   2.092  10.183  0.4046 -0.1075 -0.0201
 8044SOL    HW135594   3.768   2.076  10.127  0.6239  0.9251 -0.6136
 8044SOL    HW235595   3.834   2.184  10.208  3.5767  0.6119 -1.4022
 8045SOL     OW35596   2.041   4.648  15.745  1.0862  0.7899 -0.0319
 8045SOL    HW135597   1.979   4.576  15.752  1.4264  0.7542  2.7592
 8045SOL    HW235598   2.033   4.683  15.656  3.8735 -0.8861 -0.9352
 8046SOL     OW35599   1.896   2.681   5.648  0.1788 -0.0877 -0.0211
 8046SOL    HW135600   1.807   2.682   5.614  0.7508 -1.3794 -1.5374
 8046SOL    HW235601   1.920   2.594   5.619  0.9497 -0.1065  0.6483
 8047SOL     OW35602   2.038   3.563   2.114  0.4576 -0.7696  0.1549
 8047SOL    HW135603   1.985   3.592   2.040  1.3291  1.6325  0.4841
 8047SOL    HW235604   1.980   3.567   2.189 -0.8824  0.6892 -0.9620
 8048SOL     OW35605   1.389   3.681   9.537  0.5254 -0.1186  0.3005
 8048SOL    HW135606   1.435   3.616   9.590  1.5197  0.8443  0.5911
 8048SOL    HW235607   1.324   3.620   9.502 -0.5535  1.3683 -0.2933
 8049SOL     OW35608   0.572   4.414  10.040 -0.6197  0.6575 -0.0022
 8049SOL    HW135609   0.547   4.392   9.951 -0.8140  0.9135 -0.0110
 8049SOL    HW235610   0.652   4.465  10.028 -1.5685  1.3796 -3.1255
 8050SOL     OW35611   4.629   3.616   7.156  0.7481  0.2229  0.3254
 8050SOL    HW135612   4.570   3.543   7.134  2.1874 -1.1811  1.0973
 8050SOL    HW235613   4.710   3.569   7.177  0.1796 -0.9329 -0.0559
 8051SOL     OW35614   3.053   1.463   5.435  0.0260 -0.5885  0.3886
 8051SOL    HW135615   3.111   1.480   5.361 -0.8311 -0.6052 -0.2868
 8051SOL    HW235616   3.047   1.368   5.447  1.3674 -0.4103  2.4638
 8052SOL     OW35617   4.166   3.358   9.073  0.6955  0.9926  0.1998
 8052SOL    HW135618   4.199   3.445   9.051  1.7893  0.3552 -0.6975
 8052SOL    HW235619   4.076   3.365   9.040  1.3850 -0.8833 -2.1309
 8053SOL     OW35620   2.824   0.369   9.056  0.6169  0.2942  0.2236
 8053SOL    HW135621   2.774   0.329   8.985 -0.1385 -0.7718  1.3555
 8053SOL    HW235622   2.847   0.451   9.013  2.9397  0.2999  1.4943
 8054SOL     OW35623   1.742   0.917   9.133 -0.0512  0.2367  0.2076
 8054SOL    HW135624   1.668   0.861   9.110 -0.5906  1.5141 -1.2286
 8054SOL    HW235625   1.814   0.872   9.088 -1.1731 -0.9939 -0.3279
 8055SOL     OW35626   2.141   4.465   3.512 -0.0597  0.1215  0.0661
 8055SOL    HW135627   2.046   4.451   3.517 -0.2620  1.5829  0.2948
 8055SOL    HW235628   2.172   4.463   3.602  1.9165 -0.8881 -0.6383
 8056SOL     OW35629   0.472   0.441   8.017  0.0640 -0.3338  0.3518
 8056SOL    HW135630   0.440   0.355   8.044  2.3320 -0.8042  1.5812
 8056SOL    HW235631   0.391   0.472   7.977 -0.9177  0.8713  3.2155
 8057SOL     OW35632   0.256   3.365   5.057  0.2064 -0.5581  0.0874
 8057SOL    HW135633   0.225   3.291   5.004 -3.6545  1.1389 -0.0521
 8057SOL    HW235634   0.195   3.434   5.029 -0.7075 -1.4330 -0.1006
 8058SOL     OW35635   0.087   1.840   8.327  0.3687  0.6671 -0.5007
 8058SOL    HW135636   4.720   1.836   8.358  1.0121 -0.5617  1.2249
 8058SOL    HW235637   0.130   1.862   8.410 -2.0369  0.9672  0.6918
 8059SOL     OW35638   4.593   3.326  16.040 -0.3344  0.2522 -0.2086
 8059SOL    HW135639   4.605   3.360  16.129  0.5481 -0.0368 -0.2094
 8059SOL    HW235640   4.518   3.374  16.007  0.8170  2.3807  0.2797
 8060SOL     OW35641   4.130   1.822  12.061  0.9860  0.8207  0.0652
 8060SOL    HW135642   4.174   1.809  12.144  1.5583 -0.4558 -0.4437
 8060SOL    HW235643   4.177   1.762  12.003 -0.0603  1.1419 -1.1251
 8061SOL     OW35644   3.386   4.253   0.409  0.1637  0.2446  0.3804
 8061SOL    HW135645   3.427   4.180   0.362 -0.5026 -0.2474  0.5514
 8061SOL    HW235646   3.296   4.257   0.375 -0.2267  0.3103  1.4416
 8062SOL     OW35647   0.019   3.560  13.174 -0.3390  0.1459  0.0472
 8062SOL    HW135648   0.071   3.587  13.099  0.0728 -1.8812 -0.3972
 8062SOL    HW235649   0.018   3.641  13.224  2.0739  0.2175 -0.0045
 8063SOL     OW35650   0.526   2.640  10.737 -0.3864 -0.0085  0.5709
 8063SOL    HW135651   0.504   2.644  10.643  0.7982 -1.9313  0.2239
 8063SOL    HW235652   0.611   2.597  10.728 -0.9201 -0.9162 -0.0671
 8064SOL     OW35653   3.709   3.586   6.262 -0.3999  0.6666  1.2436
 8064SOL    HW135654   3.738   3.591   6.353  0.6528 -1.6270  1.0458
 8064SOL    HW235655   3.701   3.491   6.253 -2.0592  1.0459 -1.2281
 8065SOL     OW35656   0.366   2.533   6.729 -0.6067  0.6215 -0.1787
 8065SOL    HW135657   0.288   2.527   6.784 -0.1574  1.0365  0.5030
 8065SOL    HW235658   0.333   2.594   6.663 -0.4574  3.0118  1.9641
 8066SOL     OW35659   1.904   1.555   4.434 -0.3851 -0.0040 -0.0002
 8066SOL    HW135660   1.975   1.619   4.436 -1.1355  0.8405 -0.2264
 8066SOL    HW235661   1.907   1.521   4.523 -3.5679 -0.6785 -0.1735
 8067SOL     OW35662   3.918   0.462   5.672  0.0742  0.7626 -0.5893
 8067SOL    HW135663   3.890   0.549   5.646 -2.7134  0.4341  1.3514
 8067SOL    HW235664   3.858   0.397   5.634  1.1284 -0.0084 -0.9307
 8068SOL     OW35665   4.709   3.852   6.787  0.0735  0.5456 -0.0624
 8068SOL    HW135666   4.657   3.772   6.791 -0.3603  0.7672 -1.2599
 8068SOL    HW235667   4.654   3.929   6.793  1.7819  1.7404  0.3339
 8069SOL     OW35668   2.642   1.589   5.452  0.3505  0.2434 -0.3425
 8069SOL    HW135669   2.597   1.505   5.465 -0.5591  1.0543  1.7641
 8069SOL    HW235670   2.720   1.594   5.507  2.2429  1.5280 -3.1394
 8070SOL     OW35671   0.006   4.287  10.231  0.2426 -0.3519 -0.3322
 8070SOL    HW135672   0.091   4.251  10.259  1.0484  2.2757  0.6755
 8070SOL    HW235673   0.003   4.357  10.296  1.4077 -1.0213  0.4490
 8071SOL     OW35674   1.941   4.425   2.613 -0.1290  0.2360  0.1620
 8071SOL    HW135675   1.912   4.443   2.523  0.7299 -0.8243 -0.3257
 8071SOL    HW235676   1.996   4.502   2.627 -0.9770  0.6846  1.0451
 8072SOL     OW35677   1.469   4.390   8.269 -0.6135 -0.1507 -0.0850
 8072SOL    HW135678   1.494   4.415   8.180  1.3172 -1.1469  0.1919
 8072SOL    HW235679   1.380   4.354   8.259 -0.5965 -0.6900  1.7876
 8073SOL     OW35680   2.544   2.662   5.018 -0.8199 -0.2623 -0.1058
 8073SOL    HW135681   2.593   2.583   5.039  0.1142  0.4725  0.4802
 8073SOL    HW235682   2.468   2.639   5.073 -0.5702 -0.2621  0.2386
 8074SOL     OW35683   3.782   2.321   3.410 -0.3598  0.4096  0.4863
 8074SOL    HW135684   3.801   2.398   3.356  0.1610  1.1059  1.6539
 8074SOL    HW235685   3.864   2.307   3.457 -0.8813 -2.2246  0.5779
 8075SOL     OW35686   0.220   4.131  17.394  0.0276 -0.0073  0.5135
 8075SOL    HW135687   0.184   4.049  17.361  2.0233 -1.7878  2.8279
 8075SOL    HW235688   0.222   4.182  17.312 -1.1723  0.4026  0.7349
 8076SOL     OW35689   2.177   2.504   3.310 -0.3230  0.0097  0.1476
 8076SOL    HW135690   2.181   2.584   3.362  0.0383  0.1251 -0.0509
 8076SOL    HW235691   2.089   2.515   3.275  0.6536  2.7052 -1.5225
 8077SOL     OW35692   2.823   3.829  10.292 -0.1239 -0.1885  0.5359
 8077SOL    HW135693   2.841   3.854  10.202 -1.0205  1.1735  0.7331
 8077SOL    HW235694   2.889   3.878  10.341 -0.5856 -0.8699  1.8533
 8078SOL     OW35695   4.028   0.325   1.287  0.1420  0.1860  0.1183
 8078SOL    HW135696   4.098   0.356   1.229  0.3139  0.1191  0.2932
 8078SOL    HW235697   4.056   0.242   1.325 -1.2032  0.3829  1.5305
 8079SOL     OW35698   0.440   2.239   3.800  0.3444 -0.2399  0.0772
 8079SOL    HW135699   0.454   2.182   3.875  0.4564 -1.0609 -0.5660
 8079SOL    HW235700   0.506   2.306   3.816  1.9866 -1.2788 -2.3240
 8080SOL     OW35701   4.264   3.577   6.973 -0.5441 -0.5290 -0.4483
 8080SOL    HW135702   4.330   3.520   7.012 -1.6629 -0.6143  1.3345
 8080SOL    HW235703   4.252   3.546   6.883 -2.3712  0.7623 -0.6602
 8081SOL     OW35704   2.387   2.799  16.080 -0.5292  0.0508 -0.2659
 8081SOL    HW135705   2.429   2.747  16.148 -2.0327 -0.3898  0.3152
 8081SOL    HW235706   2.430   2.756  16.006  0.6097 -0.0607  0.4677
 8082SOL     OW35707   2.274   0.878   5.385  0.0335  0.7202  0.6394
 8082SOL    HW135708   2.306   0.801   5.339 -1.9575  0.3668 -0.1541
 8082SOL    HW235709   2.306   0.938   5.319 -1.7840  0.0376 -0.8567
 8083SOL     OW35710   4.630   2.005   6.340  0.2585 -0.5739  0.5484
 8083SOL    HW135711   4.592   2.056   6.412 -1.8336 -3.5391  1.5532
 8083SOL    HW235712   4.704   1.980   6.395  2.1190  1.9758 -0.8512
 8084SOL     OW35713   2.568   0.559   5.782 -0.1922 -0.3697 -0.0688
 8084SOL    HW135714   2.627   0.486   5.805 -0.1386 -1.2158 -2.9400
 8084SOL    HW235715   2.482   0.517   5.773 -0.4684  0.3781 -0.8918
 8085SOL     OW35716   2.722   1.907   4.602 -0.5954  0.8729 -0.2316
 8085SOL    HW135717   2.640   1.929   4.559 -1.2393 -1.1928 -0.0456
 8085SOL    HW235718   2.732   1.973   4.670 -1.7755  1.6849 -0.8401
 8086SOL     OW35719   2.537   1.833   8.400  0.5568  0.0652  0.0224
 8086SOL    HW135720   2.537   1.877   8.486 -0.7296  1.7948 -0.8676
 8086SOL    HW235721   2.451   1.858   8.365 -0.0347 -1.1611  0.6160
 8087SOL     OW35722   1.257   2.403  17.657  0.0536 -0.2632 -0.3342
 8087SOL    HW135723   1.163   2.393  17.674  0.6117 -2.0503  1.7809
 8087SOL    HW235724   1.242   2.384  17.564  0.8472 -0.9458 -0.3257
 8088SOL     OW35725   2.954   3.992   9.696  0.3206  0.0168  0.2249
 8088SOL    HW135726   2.926   4.084   9.695  0.2890 -0.0063 -1.2487
 8088SOL    HW235727   2.877   3.951   9.657 -0.5146  0.2702  1.6255
 8089SOL     OW35728   1.855   2.546   2.558  0.0836 -0.0732  0.1435
 8089SOL    HW135729   1.762   2.564   2.540  0.3200  1.1770  0.1263
 8089SOL    HW235730   1.886   2.627   2.600  0.3554 -1.3199  2.3449
 8090SOL     OW35731   1.925   2.741   9.250 -1.0420 -0.0038 -1.1541
 8090SOL    HW135732   1.855   2.801   9.225 -2.2574 -0.5736  0.8790
 8090SOL    HW235733   1.861   2.692   9.302  1.4298  0.2796  2.1585
 8091SOL     OW35734   0.598   4.102   4.260 -0.0591 -0.0594  0.2678
 8091SOL    HW135735   0.675   4.158   4.251  0.9032 -1.7578 -2.1502
 8091SOL    HW235736   0.615   4.063   4.345 -0.5906  0.5021  0.6269
 8092SOL     OW35737   3.510   2.184   1.734 -0.2568  0.3920 -0.5954
 8092SOL    HW135738   3.421   2.154   1.715 -0.2704  0.8208 -1.1957
 8092SOL    HW235739   3.551   2.112   1.783 -1.6058  0.4898  0.6818
 8093SOL     OW35740   2.690   1.444   4.745 -0.5783  0.7139  0.0746
 8093SOL    HW135741   2.733   1.427   4.661  1.1027 -0.1133  1.1092
 8093SOL    HW235742   2.723   1.533   4.760 -1.6802  1.0197  0.7274
 8094SOL     OW35743   0.798   2.472   0.453  0.0666 -0.3213  0.0456
 8094SOL    HW135744   0.708   2.453   0.476 -0.0765  1.3282  0.8394
 8094SOL    HW235745   0.846   2.450   0.533  1.5310  0.8275 -0.5015
 8095SOL     OW35746   1.245   1.098   5.756  0.0019 -0.4886  0.2989
 8095SOL    HW135747   1.331   1.057   5.745 -0.6105 -1.9906  1.1700
 8095SOL    HW235748   1.191   1.020   5.755 -0.7212 -0.0252  3.0221
 8096SOL     OW35749   1.662   2.713   4.559  0.1719  0.4867 -0.4213
 8096SOL    HW135750   1.582   2.668   4.588  0.7769 -1.5318 -1.9079
 8096SOL    HW235751   1.638   2.755   4.476  1.4666  0.2127 -0.9301
 8097SOL     OW35752   3.967   0.287  14.277 -0.1848 -0.4517 -0.5461
 8097SOL    HW135753   4.028   0.349  14.318 -0.1193 -0.6844 -0.2895
 8097SOL    HW235754   4.013   0.267  14.196  0.0982  1.1462 -0.7674
 8098SOL     OW35755   3.657   3.730  10.532  0.8859  0.5569  0.2629
 8098SOL    HW135756   3.741   3.685  10.528  0.5346 -0.0064 -0.6313
 8098SOL    HW235757   3.689   3.819  10.545 -0.2421  1.1097 -0.8382
 8099SOL     OW35758   0.269   1.976   1.375 -0.7498 -0.1843  0.4814
 8099SOL    HW135759   0.248   1.895   1.328 -1.4364  0.4787 -0.3765
 8099SOL    HW235760   0.184   2.019   1.363  0.0174  1.6539  1.6066
 8100SOL     OW35761   3.140   4.104   5.702  0.3494 -0.0426 -0.3244
 8100SOL    HW135762   3.193   4.139   5.630 -0.5890  0.5981 -0.7010
 8100SOL    HW235763   3.087   4.044   5.650 -1.2860 -0.8987  2.3458
 8101SOL     OW35764   4.228   3.583   0.561  0.1935  0.5677 -0.0933
 8101SOL    HW135765   4.206   3.569   0.653  2.2890 -1.7945  0.0682
 8101SOL    HW235766   4.182   3.507   0.524  0.1197  0.3352  0.4817
 8102SOL     OW35767   3.756   2.002   4.142 -0.2514 -0.0270  0.7079
 8102SOL    HW135768   3.801   2.068   4.090 -1.2408  0.6423  0.7090
 8102SOL    HW235769   3.755   1.921   4.089 -0.3915 -0.1751  0.9379
 8103SOL     OW35770   3.957   2.556  10.357  0.0241  0.1682 -0.0972
 8103SOL    HW135771   3.986   2.557  10.448  1.2589  1.2872 -0.5104
 8103SOL    HW235772   3.907   2.637  10.347 -0.8657 -0.4944 -1.0139
 8104SOL     OW35773   0.044   0.321   5.287  0.4618  0.2898 -0.6670
 8104SOL    HW135774   4.715   0.321   5.367 -0.0346  0.1786 -1.0025
 8104SOL    HW235775   0.102   0.395   5.308  0.3170  0.2588 -0.1657
 8105SOL     OW35776   1.360   2.720   6.333  0.4088  0.0820  0.5443
 8105SOL    HW135777   1.455   2.732   6.337  0.5716 -0.6293 -1.5741
 8105SOL    HW235778   1.341   2.725   6.427 -0.5163  0.1417  0.3476
 8106SOL     OW35779   1.141   2.896   4.309 -0.0631  0.8696 -0.3947
 8106SOL    HW135780   1.125   2.831   4.241 -0.0002  0.5243 -0.0856
 8106SOL    HW235781   1.127   2.977   4.260 -2.6874  0.7306  0.1063
 8107SOL     OW35782   4.052   0.473   3.502  0.0164  0.3420 -0.2142
 8107SOL    HW135783   4.087   0.435   3.422 -0.3330  0.6852 -0.5304
 8107SOL    HW235784   4.128   0.528   3.522  0.3417 -0.2989  0.3149
 8108SOL     OW35785   1.548   1.866   3.937 -0.6302 -0.2704 -0.6011
 8108SOL    HW135786   1.587   1.788   3.976  0.0154 -0.0134 -0.7214
 8108SOL    HW235787   1.539   1.923   4.013  1.1794 -1.2256  0.3147
 8109SOL     OW35788   3.679   4.174   3.288 -0.3771  0.7207 -0.8365
 8109SOL    HW135789   3.691   4.217   3.373 -0.3021  0.4092 -0.6874
 8109SOL    HW235790   3.587   4.197   3.271 -0.7676  0.6232  1.1351
 8110SOL     OW35791   1.932   2.264   9.244 -0.1671  0.7092  0.1537
 8110SOL    HW135792   2.002   2.280   9.308  1.9119  0.4510 -2.0514
 8110SOL    HW235793   1.847   2.283   9.283  0.8162  2.1015  1.6200
 8111SOL     OW35794   0.622   4.122   8.204  0.4700 -0.4522  0.7147
 8111SOL    HW135795   0.627   4.216   8.220 -2.2520 -0.3428  0.8447
 8111SOL    HW235796   0.531   4.099   8.188  0.4119  0.0796  0.2618
 8112SOL     OW35797   0.091   3.618   6.174  0.1548 -0.1609  0.6715
 8112SOL    HW135798   0.163   3.587   6.120 -2.8355 -0.4122 -3.1934
 8112SOL    HW235799   0.092   3.714   6.169  0.8375 -0.2502 -0.8668
 8113SOL     OW35800   1.829   0.834   4.340 -0.1265  0.4354 -0.2289
 8113SOL    HW135801   1.796   0.883   4.265  0.8652  1.1829 -0.1745
 8113SOL    HW235802   1.924   0.849   4.334  0.1868  0.3539  4.6496
 8114SOL     OW35803   3.573   2.008  14.384 -0.0506  0.0168 -0.3399
 8114SOL    HW135804   3.628   1.985  14.459 -3.3669 -1.3711  1.6549
 8114SOL    HW235805   3.503   1.943  14.380  0.5966 -0.8432  2.5722
 8115SOL     OW35806   1.225   1.709   8.769 -0.3168 -0.2783  0.3817
 8115SOL    HW135807   1.257   1.712   8.859  0.4064 -1.5285  0.1760
 8115SOL    HW235808   1.232   1.615   8.750 -0.8108 -0.3493  0.5706
 8116SOL     OW35809   1.109   0.689   4.597  0.0756  0.0986 -0.5914
 8116SOL    HW135810   1.059   0.745   4.538 -1.0897  0.3475  0.6256
 8116SOL    HW235811   1.042   0.647   4.651 -0.9171  1.3374 -0.8770
 8117SOL     OW35812   3.493   0.585   6.173 -0.1634 -0.2916 -0.2357
 8117SOL    HW135813   3.522   0.550   6.257  2.5276  1.5333 -0.3727
 8117SOL    HW235814   3.408   0.545   6.157 -0.7571  0.6189  0.6608
 8118SOL     OW35815   4.650   3.581   5.226 -0.2674 -0.1149  0.2986
 8118SOL    HW135816   0.005   3.634   5.229  0.3999 -1.0707 -0.3922
 8118SOL    HW235817   4.659   3.532   5.144  0.6900  0.2669  0.1745
 8119SOL     OW35818   4.511   1.257   0.253  0.1122 -0.3483  0.0175
 8119SOL    HW135819   4.497   1.313   0.176  0.6206 -0.6822 -0.3169
 8119SOL    HW235820   4.512   1.331   0.314  0.8043  1.1475 -1.7920
 8120SOL     OW35821   4.480   4.122   2.977  0.2949  0.0728 -0.5605
 8120SOL    HW135822   4.405   4.073   3.010  2.3721 -1.9389  1.1780
 8120SOL    HW235823   4.496   4.192   3.040 -0.9277 -1.2117  1.1534
 8121SOL     OW35824   2.397   0.247  15.701  0.8668  0.4873 -0.1523
 8121SOL    HW135825   2.420   0.170  15.649  2.7222 -0.0950  1.5647
 8121SOL    HW235826   2.461   0.314  15.682  0.0841  1.4657  0.6309
 8122SOL     OW35827   2.876   0.964  17.184 -0.7450 -0.6344 -0.3308
 8122SOL    HW135828   2.963   0.927  17.200 -0.8411 -1.5126 -1.8263
 8122SOL    HW235829   2.857   1.014  17.263 -0.8815  0.9723 -1.3784
 8123SOL     OW35830   0.204   3.457  16.132  0.2505 -0.2579  0.2400
 8123SOL    HW135831   0.248   3.445  16.216 -1.4877 -0.3540  1.1296
 8123SOL    HW235832   0.204   3.369  16.094 -0.7582  0.9262 -2.4775
 8124SOL     OW35833   4.286   2.138   8.004 -0.0906  0.3716 -0.3112
 8124SOL    HW135834   4.280   2.043   8.013 -1.3859  0.6580  1.9289
 8124SOL    HW235835   4.207   2.159   8.054 -0.3345 -1.2620 -0.0168
 8125SOL     OW35836   0.406   1.182   2.223 -0.0807  0.1415 -0.6043
 8125SOL    HW135837   0.351   1.105   2.226  1.2328 -0.8777 -2.2856
 8125SOL    HW235838   0.352   1.238   2.167  0.8521  0.0265 -1.6214
 8126SOL     OW35839   2.461   3.172   0.403  0.3636 -0.2257  1.3478
 8126SOL    HW135840   2.554   3.151   0.391  1.0415  2.3927  2.0162
 8126SOL    HW235841   2.441   3.239   0.337  2.3980  0.0062  0.9811
 8127SOL     OW35842   4.694   0.147   3.141  0.0034 -0.1171  0.1645
 8127SOL    HW135843   4.608   0.165   3.180  1.3899  0.9850  2.7387
 8127SOL    HW235844   4.667   0.166   3.051  0.9375  3.0936  0.5488
 8128SOL     OW35845   3.921   4.708   2.218  0.5479  0.5095  0.7969
 8128SOL    HW135846   3.996   4.715   2.158  1.0509  0.1490  1.3793
 8128SOL    HW235847   3.881   4.625   2.193  0.5553  0.7975 -0.1919
 8129SOL     OW35848   2.589   4.642  14.817  0.4790 -0.0273 -0.0800
 8129SOL    HW135849   2.662   4.685  14.862  1.8334 -3.1052  0.6695
 8129SOL    HW235850   2.627   4.626  14.731 -0.6251 -1.6329 -0.2696
 8130SOL     OW35851   1.593   1.381   7.049  0.2608  0.4104 -0.2568
 8130SOL    HW135852   1.556   1.315   6.991 -2.4351  3.2777 -1.7839
 8130SOL    HW235853   1.686   1.359   7.048  0.5495  1.6081  0.4230
 8131SOL     OW35854   1.223   3.309   5.870 -0.2859  0.2019  0.8937
 8131SOL    HW135855   1.248   3.269   5.786  0.7245  1.4743  0.5900
 8131SOL    HW235856   1.150   3.250   5.888  0.0065 -0.1858  0.8069
 8132SOL     OW35857   3.466   2.803   8.660  0.4266 -0.1056 -0.2450
 8132SOL    HW135858   3.416   2.725   8.636  1.2477  0.0710 -2.4928
 8132SOL    HW235859   3.443   2.810   8.753 -0.5477  1.4822 -0.6069
 8133SOL     OW35860   1.734   1.668  16.816 -0.0302  0.0882  0.2415
 8133SOL    HW135861   1.828   1.661  16.799 -0.3617 -1.1671 -1.0600
 8133SOL    HW235862   1.730   1.763  16.805 -2.7428  0.1560  2.0541
 8134SOL     OW35863   0.843   2.121   5.226 -0.1611  0.3201 -0.2219
 8134SOL    HW135864   0.831   2.150   5.135  0.6764  1.7230  0.1187
 8134SOL    HW235865   0.938   2.124   5.236 -0.2963  0.0520  1.1023
 8135SOL     OW35866   1.260   0.842  14.761 -0.0479 -0.2149  0.0871
 8135SOL    HW135867   1.210   0.903  14.816  0.1112 -0.7807  0.8572
 8135SOL    HW235868   1.210   0.844  14.679 -0.7625  0.8196  0.5423
 8136SOL     OW35869   2.547   0.617   1.862  0.3237 -0.5443  0.6346
 8136SOL    HW135870   2.633   0.649   1.838 -0.2334  1.0582  0.7769
 8136SOL    HW235871   2.525   0.548   1.799 -1.8250  0.6587  0.0600
 8137SOL     OW35872   2.909   4.454   2.788  0.1761  0.0134  0.0841
 8137SOL    HW135873   2.815   4.447   2.773  0.1129 -0.9079  0.9016
 8137SOL    HW235874   2.927   4.546   2.804  3.3636 -0.9265  1.9003
 8138SOL     OW35875   4.367   1.921  10.130 -0.6254  0.4368  0.4402
 8138SOL    HW135876   4.382   1.874  10.211  1.4771  2.7864  1.4045
 8138SOL    HW235877   4.445   1.974  10.113 -0.6966  0.8565  1.4485
 8139SOL     OW35878   3.229   0.017   9.400  0.0488 -0.5973 -0.2280
 8139SOL    HW135879   3.292   0.089   9.410 -2.6923  1.7737 -0.0277
 8139SOL    HW235880   3.169   0.034   9.473 -2.0692 -3.1364 -1.3871
 8140SOL     OW35881   2.379   1.343   4.017  0.3350 -0.3771  0.0490
 8140SOL    HW135882   2.373   1.286   4.094  3.2945  0.2106  0.7206
 8140SOL    HW235883   2.472   1.366   4.020 -0.1341  1.5158 -0.3629
 8141SOL     OW35884   3.646   3.698   2.102 -0.1860 -0.1203  0.0108
 8141SOL    HW135885   3.658   3.660   2.189  0.8610  3.5559  1.4667
 8141SOL    HW235886   3.707   3.642   2.053 -0.8732  0.5325 -1.5834
 8142SOL     OW35887   1.771   3.778   5.738  0.0759  0.1012 -0.7234
 8142SOL    HW135888   1.715   3.711   5.778  1.3946 -2.7879 -3.6999
 8142SOL    HW235889   1.835   3.731   5.684  1.7253  1.6148 -0.0630
 8143SOL     OW35890   1.971   2.312   2.588  0.4295  0.5470  0.5180
 8143SOL    HW135891   1.959   2.406   2.595  1.9047  0.7214  0.6647
 8143SOL    HW235892   1.888   2.275   2.619  1.0542  0.4514  2.0717
 8144SOL     OW35893   3.079   1.509   3.823 -0.1634  0.5466  0.0937
 8144SOL    HW135894   3.172   1.514   3.802 -0.0149 -0.4999  0.4975
 8144SOL    HW235895   3.054   1.493   3.732 -0.1430 -2.2308  0.5585
 8145SOL     OW35896   3.594   3.796   8.264  0.6716 -0.3755 -0.2860
 8145SOL    HW135897   3.656   3.723   8.257  0.9697 -0.4247  2.7985
 8145SOL    HW235898   3.659   3.864   8.283  0.7142 -0.0677 -1.5449
 8146SOL     OW35899   0.285   2.932   8.496 -0.1397  0.4249 -0.0049
 8146SOL    HW135900   0.197   2.968   8.495 -0.1608  0.3595 -0.3252
 8146SOL    HW235901   0.316   2.975   8.416  0.1368  0.3198  0.0428
 8147SOL     OW35902   3.860   4.388  11.421 -0.0416  0.7848  0.1220
 8147SOL    HW135903   3.849   4.371  11.327  1.4905  0.2358  0.0396
 8147SOL    HW235904   3.942   4.347  11.448 -0.6810  0.0162  0.9092
 8148SOL     OW35905   1.888   1.169  14.532  0.4745  0.2658  0.4431
 8148SOL    HW135906   1.852   1.224  14.602  0.3638  0.9062 -0.1236
 8148SOL    HW235907   1.976   1.207  14.528  1.0879 -1.3119 -0.9971
 8149SOL     OW35908   2.802   0.362   2.428 -0.3306  0.0393  0.2282
 8149SOL    HW135909   2.760   0.293   2.479 -2.1584  1.2304  0.3563
 8149SOL    HW235910   2.746   0.436   2.455 -1.6978 -1.3209  1.1605
 8150SOL     OW35911   3.128   4.585  15.224 -0.2931  0.0860 -0.7783
 8150SOL    HW135912   3.183   4.585  15.145 -1.7289 -0.8732 -1.7967
 8150SOL    HW235913   3.072   4.507  15.214  0.8666 -1.0876  2.0544
 8151SOL     OW35914   3.566   4.573   4.698 -0.0930  0.1876  0.0241
 8151SOL    HW135915   3.619   4.653   4.694  0.4593 -0.3116 -2.4299
 8151SOL    HW235916   3.492   4.608   4.650 -1.0322  0.0783  1.3948
 8152SOL     OW35917   3.621   3.020  10.155  0.0989 -0.6377 -0.4029
 8152SOL    HW135918   3.705   2.974  10.145  0.1875 -0.5494 -0.0409
 8152SOL    HW235919   3.633   3.100  10.105  1.9235 -1.2746 -1.0189
 8153SOL     OW35920   2.915   2.762  15.604 -0.6436 -0.1388  0.0795
 8153SOL    HW135921   2.943   2.671  15.598  1.7611  0.4034  3.0584
 8153SOL    HW235922   2.971   2.794  15.674 -0.5017  0.1840 -0.1823
 8154SOL     OW35923   4.657   0.896   3.755  0.2558  0.1993 -0.3599
 8154SOL    HW135924   4.705   0.831   3.704 -0.7515 -1.4582  0.8214
 8154SOL    HW235925   4.698   0.978   3.727  3.4306 -1.6310 -1.1470
 8155SOL     OW35926   3.379   2.482   9.268  0.0665 -0.1407 -0.8145
 8155SOL    HW135927   3.444   2.417   9.296 -0.1592  0.0313  0.1208
 8155SOL    HW235928   3.362   2.449   9.180 -0.2649  0.8378 -1.1206
 8156SOL     OW35929   4.349   3.681   5.393 -0.0828 -0.2579 -0.5863
 8156SOL    HW135930   4.326   3.754   5.334 -2.3824 -0.0869  0.5347
 8156SOL    HW235931   4.277   3.678   5.456  1.5150  1.3861  1.3397
 8157SOL     OW35932   2.647   4.247  14.099 -0.1300 -0.4771 -0.0285
 8157SOL    HW135933   2.554   4.227  14.105 -0.2678 -0.5405 -2.8316
 8157SOL    HW235934   2.676   4.165  14.060  1.7358 -0.9431  2.3381
 8158SOL     OW35935   0.720   2.027  13.816 -0.0350 -0.1385 -0.4185
 8158SOL    HW135936   0.636   1.994  13.845  0.8394 -2.8801 -1.0450
 8158SOL    HW235937   0.717   2.006  13.723  1.0202  2.8075 -1.1205
 8159SOL     OW35938   2.063   2.331  16.412  0.0114 -0.3810  0.4951
 8159SOL    HW135939   2.053   2.355  16.504 -0.3179  1.0019  0.1011
 8159SOL    HW235940   2.122   2.399  16.382  1.9540 -2.5140 -0.4743
 8160SOL     OW35941   4.157   1.969   9.155  0.0085 -0.4473 -0.5865
 8160SOL    HW135942   4.224   2.013   9.209 -0.6457  0.1182 -0.2387
 8160SOL    HW235943   4.211   1.894   9.130  0.5005  0.3393 -1.9503
 8161SOL     OW35944   1.497   2.406   0.072 -0.3456 -0.0411  0.2089
 8161SOL    HW135945   1.407   2.410   0.039  0.1631 -2.2516 -1.4984
 8161SOL    HW235946   1.516   2.317   0.040 -0.1267 -0.0284  0.3033
 8162SOL     OW35947   3.112   2.175   6.878  0.0617  0.1744  0.1724
 8162SOL    HW135948   3.162   2.135   6.949 -0.5613  2.0831  1.6772
 8162SOL    HW235949   3.048   2.228   6.926  1.1900  1.0437  0.7167
 8163SOL     OW35950   2.281   0.174   5.676  0.2896 -0.1947 -0.1848
 8163SOL    HW135951   2.293   0.125   5.758 -1.1699 -2.0650 -1.0980
 8163SOL    HW235952   2.223   0.117   5.626  1.1050 -0.3989 -0.8974
 8164SOL     OW35953   1.570   3.982   9.088 -0.2287 -0.0977 -0.3324
 8164SOL    HW135954   1.655   3.967   9.130 -0.6843  0.8039  0.9192
 8164SOL    HW235955   1.511   3.942   9.152 -0.6938  0.5060 -0.3868
 8165SOL     OW35956   2.565   2.845   8.795 -0.8792 -0.1886  0.2537
 8165SOL    HW135957   2.499   2.840   8.864 -2.2781  0.4504 -1.0332
 8165SOL    HW235958   2.597   2.935   8.809  1.4714 -1.1541  1.2188
 8166SOL     OW35959   1.596   2.633   2.486  0.1644 -0.7839 -0.2135
 8166SOL    HW135960   1.524   2.694   2.471  0.2555 -0.3321  1.1741
 8166SOL    HW235961   1.599   2.583   2.404 -1.0115  1.1495 -1.4420
 8167SOL     OW35962   0.880   1.442   3.711 -0.4229  0.2137  0.3614
 8167SOL    HW135963   0.835   1.524   3.688 -1.1420  0.0308  1.1017
 8167SOL    HW235964   0.956   1.474   3.759  1.5702 -1.8402 -1.4567
 8168SOL     OW35965   0.379   0.171   4.653 -0.1373  0.2296  0.3321
 8168SOL    HW135966   0.321   0.205   4.721 -1.1904 -0.7321 -0.0768
 8168SOL    HW235967   0.341   0.201   4.570  0.4318 -0.7345 -0.2874
 8169SOL     OW35968   0.965   0.175   6.165 -0.1960  0.4044 -0.2337
 8169SOL    HW135969   1.014   0.093   6.154 -3.7917 -1.7806  0.0928
 8169SOL    HW235970   0.878   0.137   6.156  0.0188  0.4432 -2.3612
 8170SOL     OW35971   0.653   3.515   1.531  0.4529  0.5780  0.0179
 8170SOL    HW135972   0.655   3.477   1.619 -0.3559  1.2224  0.3048
 8170SOL    HW235973   0.720   3.582   1.546  0.6733  0.9514 -2.5100
 8171SOL     OW35974   4.080   3.202   8.228 -0.3866  0.6578 -0.0162
 8171SOL    HW135975   4.012   3.192   8.162  0.3168  1.1825 -0.8350
 8171SOL    HW235976   4.027   3.195   8.307  0.6483 -0.5650  0.5613
 8172SOL     OW35977   0.638   4.064   7.525 -0.5949  0.2358 -0.1071
 8172SOL    HW135978   0.597   4.150   7.534 -0.3527  0.5776 -2.1696
 8172SOL    HW235979   0.673   4.043   7.611 -2.9943 -0.2828  0.7333
 8173SOL     OW35980   2.386   2.889  13.275  0.1313  0.2176  0.0555
 8173SOL    HW135981   2.452   2.906  13.207  1.2616 -1.1430  0.7977
 8173SOL    HW235982   2.361   2.979  13.297 -0.1133 -0.6928  3.4894
 8174SOL     OW35983   1.469   0.178   4.840  0.2293 -0.0589  0.7991
 8174SOL    HW135984   1.562   0.181   4.819 -0.0892  1.2026 -0.4815
 8174SOL    HW235985   1.448   0.271   4.831 -1.8838 -0.6703 -0.7537
 8175SOL     OW35986   1.032   2.895  10.860 -0.6931  0.0210  0.2958
 8175SOL    HW135987   1.056   2.923  10.772 -2.0851  1.0469  0.2291
 8175SOL    HW235988   1.080   2.954  10.918  1.0996 -0.6634 -0.5196
 8176SOL     OW35989   2.627   0.752   3.178 -0.0453 -0.0164  0.6184
 8176SOL    HW135990   2.639   0.809   3.101 -0.7118  0.7731  1.0990
 8176SOL    HW235991   2.623   0.673   3.124  1.0368  1.1197 -1.1339
 8177SOL     OW35992   1.584   4.651   3.760 -0.3034 -0.1123 -0.6765
 8177SOL    HW135993   1.645   4.695   3.819 -0.5930 -1.7477  0.8279
 8177SOL    HW235994   1.565   4.567   3.802 -0.1795 -1.1119 -2.6258
 8178SOL     OW35995   0.286   0.493   5.824  0.7446  0.3520  0.3736
 8178SOL    HW135996   0.378   0.474   5.804  0.1912 -2.5059  0.5270
 8178SOL    HW235997   0.259   0.532   5.741  2.2054 -2.1188 -1.2847
 8179SOL     OW35998   4.083   3.682   6.088  0.3978  0.1128  0.1532
 8179SOL    HW135999   4.097   3.612   6.152 -0.5770 -0.2147  0.0050
 8179SOL    HW236000   4.085   3.635   6.005 -0.4190 -0.0991  0.2540
 8180SOL     OW36001   0.839   2.591   5.025  0.2968 -0.0595  0.1955
 8180SOL    HW136002   0.877   2.603   4.938 -1.5841  2.8151 -0.2329
 8180SOL    HW236003   0.893   2.642   5.086  0.1751  0.7523 -0.3847
 8181SOL     OW36004   0.104   3.219   4.887  0.0335  0.3438  0.8867
 8181SOL    HW136005   0.025   3.261   4.853 -0.4206 -0.1599  1.3324
 8181SOL    HW236006   0.072   3.129   4.888  3.6757 -0.9712  0.0664
 8182SOL     OW36007   4.266   2.177   2.703  0.1616  0.1229 -0.1358
 8182SOL    HW136008   4.329   2.127   2.651 -0.2819 -1.0201  0.4236
 8182SOL    HW236009   4.191   2.117   2.703 -0.1697  0.5289 -0.4507
 8183SOL     OW36010   1.360   4.219   5.513  0.3727  0.3927 -0.0020
 8183SOL    HW136011   1.274   4.214   5.554 -0.0854  0.9370 -0.8991
 8183SOL    HW236012   1.362   4.294   5.453  0.6058  1.2021  1.0188
 8184SOL     OW36013   3.382   0.923   8.845 -0.1711  0.0297 -0.4380
 8184SOL    HW136014   3.339   0.919   8.759 -0.3705 -1.1747 -0.2823
 8184SOL    HW236015   3.310   0.894   8.901 -1.3996 -0.4696 -2.2782
 8185SOL     OW36016   2.097   1.931   9.985  0.0132  0.4701  0.4026
 8185SOL    HW136017   2.034   1.880   9.935  0.4742  0.0450  0.2479
 8185SOL    HW236018   2.127   1.873  10.056  2.9603  2.4189  0.7701
 8186SOL     OW36019   1.809   0.871   6.844  0.1466  0.6744 -0.3884
 8186SOL    HW136020   1.794   0.939   6.778  2.3536  1.8138  0.3014
 8186SOL    HW236021   1.864   0.806   6.800  2.1493 -0.0608  3.1797
 8187SOL     OW36022   3.719   2.474  10.478  0.4765  0.3230 -0.4133
 8187SOL    HW136023   3.733   2.431  10.394  1.8016  1.7740 -0.9376
 8187SOL    HW236024   3.806   2.469  10.517  1.3784 -0.4746 -2.5620
 8188SOL     OW36025   1.650   4.293   3.688  0.1288  0.0505 -0.1233
 8188SOL    HW136026   1.612   4.315   3.773  0.4771 -1.0680  0.3295
 8188SOL    HW236027   1.625   4.374   3.645  2.0035  0.9492  0.4775
 8189SOL     OW36028   2.009   3.864  15.623  0.2753  0.1650 -0.6945
 8189SOL    HW136029   2.062   3.796  15.664  0.0768  0.3459 -0.1411
 8189SOL    HW236030   2.072   3.930  15.593  1.5076  0.5718  2.8110
 8190SOL     OW36031   2.096   0.241   9.482 -0.1774 -0.3943  0.1833
 8190SOL    HW136032   2.118   0.150   9.466  0.7664 -0.1978  0.4173
 8190SOL    HW236033   2.016   0.225   9.533 -0.2723 -0.9652 -0.1440
 8191SOL     OW36034   4.559   0.998   9.629 -0.4962  0.4605  0.1135
 8191SOL    HW136035   4.468   1.022   9.642 -0.4342 -0.2374  1.7670
 8191SOL    HW236036   4.543   0.926   9.567  2.2978  1.7866 -2.1645
 8192SOL     OW36037   4.452   2.047   1.324 -0.1209  0.0339  0.0099
 8192SOL    HW136038   4.412   2.042   1.238 -0.5767 -1.9109  0.3404
 8192SOL    HW236039   4.463   2.142   1.326 -1.5440  0.2250 -1.1423
 8193SOL     OW36040   1.929   0.283   9.907 -0.0245  0.1793 -0.1956
 8193SOL    HW136041   1.916   0.260   9.815  0.7975 -0.6649 -0.1054
 8193SOL    HW236042   2.023   0.298   9.909 -0.1236  0.9158 -0.8741
 8194SOL     OW36043   0.092   2.200   4.081  0.7469  0.7652 -0.3213
 8194SOL    HW136044   0.026   2.150   4.033 -0.2185 -0.2806  2.1039
 8194SOL    HW236045   0.028   2.245   4.136  1.2339  2.3017 -1.0059
 8195SOL     OW36046   0.569   3.561   3.501  0.0359  0.2660  0.0494
 8195SOL    HW136047   0.540   3.490   3.445  0.2180 -0.2409  0.5974
 8195SOL    HW236048   0.635   3.614   3.456  2.5466 -2.4720  0.5567
 8196SOL     OW36049   0.369   1.790   5.913  0.2313  0.6120  0.3236
 8196SOL    HW136050   0.423   1.869   5.914  1.2984 -0.0872 -1.1969
 8196SOL    HW236051   0.285   1.827   5.888 -0.3796 -0.4878  0.7390
 8197SOL     OW36052   1.159   2.408   7.723  0.2580  0.0295 -0.2549
 8197SOL    HW136053   1.107   2.334   7.753  1.5537 -1.0903 -0.7794
 8197SOL    HW236054   1.208   2.436   7.801  1.5130 -1.0638 -0.6570
 8198SOL     OW36055   4.611   1.504   2.211 -0.6064 -0.0598  0.4299
 8198SOL    HW136056   4.627   1.579   2.155  1.1263  0.0048  1.0368
 8198SOL    HW236057   4.683   1.445   2.189 -0.3625  0.8714 -1.2157
 8199SOL     OW36058   0.823   4.132   4.916 -0.3130 -0.0829  0.7027
 8199SOL    HW136059   0.832   4.101   4.826 -3.2988  1.5525 -0.1460
 8199SOL    HW236060   0.892   4.199   4.912  0.0247 -0.5375 -1.1354
 8200SOL     OW36061   0.849   2.524   1.770 -0.6596  0.4325 -0.4943
 8200SOL    HW136062   0.775   2.560   1.818 -0.8219 -0.0819 -0.3660
 8200SOL    HW236063   0.881   2.463   1.837  1.0531  2.0261  0.1645
 8201SOL     OW36064   3.980   0.708   5.136 -0.1979 -0.5358  0.2589
 8201SOL    HW136065   3.966   0.800   5.158 -2.0543 -0.4411 -1.3194
 8201SOL    HW236066   4.024   0.719   5.052  0.6478 -1.9662  0.5153
 8202SOL     OW36067   4.151   4.156  15.837 -0.2494 -0.0776  0.7831
 8202SOL    HW136068   4.129   4.084  15.777  2.1372 -1.1924  1.2461
 8202SOL    HW236069   4.071   4.208  15.830  0.0496  0.1141 -1.2292
 8203SOL     OW36070   3.178   4.589   7.037  0.5608 -0.2120 -0.3663
 8203SOL    HW136071   3.102   4.647   7.048  0.5225 -0.8956  2.9854
 8203SOL    HW236072   3.185   4.531   7.112  1.2482  0.7696  0.3341
 8204SOL     OW36073   3.273   4.692  16.576  0.5912 -0.4796  0.0129
 8204SOL    HW136074   3.354   0.013  16.602 -1.7062  2.6104  1.7717
 8204SOL    HW236075   3.243   4.644  16.653 -0.2813  0.5566  0.3295
 8205SOL     OW36076   0.178   1.830   4.730  0.0387 -0.0685 -0.8195
 8205SOL    HW136077   0.222   1.753   4.765 -1.0124 -1.7204 -3.1714
 8205SOL    HW236078   0.186   1.892   4.803 -0.5341 -0.1679 -0.6774
 8206SOL     OW36079   4.541   2.841  12.839  0.3601  0.2649  0.4223
 8206SOL    HW136080   4.593   2.914  12.873 -1.1124  1.2983  0.4307
 8206SOL    HW236081   4.572   2.853  12.749  1.6743  1.6885  1.0536
 8207SOL     OW36082   1.006   2.175   4.477  0.1199  0.2107 -0.4292
 8207SOL    HW136083   0.954   2.210   4.404 -0.9319 -1.5014 -0.4951
 8207SOL    HW236084   1.095   2.161   4.446  0.7201  2.4203  0.2544
 8208SOL     OW36085   2.546   0.227   6.291  0.6649 -0.3526 -0.1763
 8208SOL    HW136086   2.515   0.258   6.206 -0.7128  0.8461  0.7746
 8208SOL    HW236087   2.534   0.301   6.351  3.2665  0.0340 -0.1459
 8209SOL     OW36088   1.592   1.440   0.372  0.1482  0.3677 -0.5024
 8209SOL    HW136089   1.607   1.387   0.451  0.0885 -1.0400 -1.4281
 8209SOL    HW236090   1.634   1.521   0.401 -1.5634  1.1077 -0.1464
 8210SOL     OW36091   0.560   3.853   5.446 -0.3654  0.1823  0.3027
 8210SOL    HW136092   0.580   3.886   5.534 -0.7097 -1.2165  0.9075
 8210SOL    HW236093   0.637   3.883   5.398 -1.4362  0.5210 -1.2037
 8211SOL     OW36094   3.369   3.792   1.498  0.1687  0.0755 -0.3654
 8211SOL    HW136095   3.377   3.718   1.558  0.9509 -0.0680 -0.6522
 8211SOL    HW236096   3.436   3.781   1.430  1.7257 -0.2078  1.2364
 8212SOL     OW36097   3.464   3.756   3.288 -0.1771 -0.1032  0.1193
 8212SOL    HW136098   3.545   3.806   3.300  0.0074 -0.3402 -0.1335
 8212SOL    HW236099   3.412   3.831   3.260  0.2297  0.0963 -0.1028
 8213SOL     OW36100   3.202   3.719   0.601 -0.3080  0.4875 -0.3135
 8213SOL    HW136101   3.243   3.635   0.580 -1.2370  0.0305 -0.2839
 8213SOL    HW236102   3.109   3.704   0.584 -0.0318 -2.0877  0.4468
 8214SOL     OW36103   4.348   4.367   3.821  0.3812 -1.0428 -0.0287
 8214SOL    HW136104   4.386   4.355   3.907  1.4769 -0.7273 -0.4744
 8214SOL    HW236105   4.262   4.326   3.833 -0.4549  1.0830  1.3130
 8215SOL     OW36106   3.610   3.587   2.359  0.7323 -0.4945 -0.4833
 8215SOL    HW136107   3.647   3.633   2.435  0.3215 -0.4260 -0.3252
 8215SOL    HW236108   3.534   3.539   2.391 -0.2270  1.0540 -0.4373
 8216SOL     OW36109   4.108   3.460   4.712 -0.3224 -0.2576  0.3282
 8216SOL    HW136110   4.051   3.488   4.783 -1.8622  0.8141 -1.3281
 8216SOL    HW236111   4.182   3.425   4.762 -0.1748  0.9481  0.9515
 8217SOL     OW36112   4.281   0.324   9.872 -0.1977 -0.0019  0.0393
 8217SOL    HW136113   4.291   0.229   9.884  1.9851  0.3333  0.9208
 8217SOL    HW236114   4.284   0.322   9.776  0.7716  0.2904  0.0646
 8218SOL     OW36115   2.332   4.007   6.414 -0.1175 -0.7621  0.0935
 8218SOL    HW136116   2.237   4.018   6.410 -0.0159  1.3004  3.1858
 8218SOL    HW236117   2.353   4.067   6.485 -0.3284  0.5498 -0.9541
 8219SOL     OW36118   0.991   0.365   8.747 -1.0773  0.1920 -0.0985
 8219SOL    HW136119   0.908   0.336   8.786 -1.4522  1.0147 -0.2968
 8219SOL    HW236120   1.038   0.282   8.738  1.1976  1.4511  0.1957
 8220SOL     OW36121   4.420   2.463  15.353  0.0113 -0.2836 -0.3330
 8220SOL    HW136122   4.478   2.534  15.378 -1.0059  0.7810 -1.0228
 8220SOL    HW236123   4.409   2.489  15.262 -2.2845  0.2551  0.0951
 8221SOL     OW36124   1.149   4.487   3.170 -0.1282  0.1149  0.1524
 8221SOL    HW136125   1.072   4.543   3.162  1.1867  1.9212  0.2210
 8221SOL    HW236126   1.215   4.544   3.131  0.9208 -2.6302 -2.1288
 8222SOL     OW36127   0.667   3.921   9.291  0.3543  0.7688  0.0183
 8222SOL    HW136128   0.582   3.965   9.293 -0.1657 -0.2692  0.6810
 8222SOL    HW236129   0.673   3.910   9.197 -0.3540 -2.7784  0.4131
 8223SOL     OW36130   3.056   1.545   9.221  0.0663  0.3847 -0.0427
 8223SOL    HW136131   3.080   1.637   9.234  1.1396  0.1390 -0.2400
 8223SOL    HW236132   3.048   1.507   9.308 -1.1310  0.7890  0.0157
 8224SOL     OW36133   2.295   1.399  15.301  0.2162 -0.4096 -0.5744
 8224SOL    HW136134   2.284   1.415  15.208 -1.6237  0.1043 -0.2637
 8224SOL    HW236135   2.218   1.344  15.317  1.5654 -2.1723 -0.1302
 8225SOL     OW36136   0.427   4.525   4.497  0.3268  0.3474  0.1377
 8225SOL    HW136137   0.425   4.606   4.446  0.5331 -0.1221 -0.6200
 8225SOL    HW236138   0.512   4.545   4.537  0.4418  0.9529 -0.4014
 8226SOL     OW36139   1.464   1.143   8.611  0.1215 -0.5319  0.0475
 8226SOL    HW136140   1.395   1.112   8.670 -1.6986  3.6038  0.0699
 8226SOL    HW236141   1.427   1.125   8.525 -1.7770 -2.2374  1.2299
 8227SOL     OW36142   2.474   0.837   2.386 -0.5522  0.1145  0.2164
 8227SOL    HW136143   2.525   0.875   2.315 -0.8417 -0.7902 -0.4843
 8227SOL    HW236144   2.397   0.890   2.406  0.0699  0.8373  0.6773
 8228SOL     OW36145   3.010   2.144  12.538  0.7178  0.2843  0.0316
 8228SOL    HW136146   3.063   2.068  12.561 -1.6850 -1.7761 -1.3063
 8228SOL    HW236147   2.942   2.133  12.605  1.4226  0.8105  0.8211
 8229SOL     OW36148   0.575   0.124   0.661  0.2170  0.1916  0.0939
 8229SOL    HW136149   0.509   0.136   0.593 -1.6696 -0.4896  1.8079
 8229SOL    HW236150   0.592   0.030   0.659 -0.4968  0.1224 -2.2839
 8230SOL     OW36151   3.801   4.484   3.974  0.1468 -0.3891  0.1136
 8230SOL    HW136152   3.806   4.548   4.045  2.9106  0.5832 -0.9450
 8230SOL    HW236153   3.853   4.414   4.015  1.2959 -0.3036 -1.2014
 8231SOL     OW36154   0.063   2.559   9.944  0.3287 -0.2131  0.5212
 8231SOL    HW136155   0.019   2.478   9.920  0.7406 -0.3228  0.1237
 8231SOL    HW236156   0.079   2.595   9.857 -0.9034 -1.7320 -0.3385
 8232SOL     OW36157   0.152   3.236  15.997 -0.0015  0.2854  0.0248
 8232SOL    HW136158   0.073   3.269  16.040 -0.7678 -0.4712 -0.7954
 8232SOL    HW236159   0.150   3.273  15.908 -3.6374  0.9776  0.3928
 8233SOL     OW36160   3.787   0.006  11.939 -0.3958 -0.0320  0.0417
 8233SOL    HW136161   3.771   4.690  12.025 -0.3724 -1.1122 -0.4513
 8233SOL    HW236162   3.869   0.053  11.953 -1.1113  0.9660  0.9248
 8234SOL     OW36163   0.643   2.179   7.396  0.8121  0.0950  0.7267
 8234SOL    HW136164   0.718   2.167   7.339  0.8834  1.5873  0.5167
 8234SOL    HW236165   0.573   2.190   7.332 -1.3340  0.9830  3.1861
 8235SOL     OW36166   0.713   4.577   4.968  0.4042 -0.3183  0.5710
 8235SOL    HW136167   0.634   4.629   4.952  0.6605 -0.1125 -0.0283
 8235SOL    HW236168   0.678   4.488   4.963 -0.5003  0.1128 -0.9260
 8236SOL     OW36169   1.426   0.660   6.553  0.8022  0.2250  0.0118
 8236SOL    HW136170   1.492   0.707   6.502  0.3269  1.8267  0.8781
 8236SOL    HW236171   1.347   0.713   6.541  1.0309  0.6312  0.3070
 8237SOL     OW36172   0.047   4.359   3.169  0.3983  0.2590  0.3589
 8237SOL    HW136173   4.720   4.430   3.132  1.2930  0.2592 -0.8881
 8237SOL    HW236174   4.696   4.316   3.209  0.6858  0.6530  1.3287
 8238SOL     OW36175   3.835   3.379   7.222  0.4132 -0.0578 -0.0182
 8238SOL    HW136176   3.841   3.288   7.250  1.4671  0.5794  1.8642
 8238SOL    HW236177   3.740   3.388   7.226  0.4642  1.1055 -1.4391
 8239SOL     OW36178   1.554   1.364   5.564  0.3282  0.5931  0.4332
 8239SOL    HW136179   1.496   1.385   5.491  1.1429  2.5693  0.3704
 8239SOL    HW236180   1.510   1.286   5.600  0.8221 -0.2239 -0.7197
 8240SOL     OW36181   2.101   3.302   7.873 -0.9404 -0.1261  0.1058
 8240SOL    HW136182   2.014   3.263   7.862 -1.0904  0.3496 -0.3930
 8240SOL    HW236183   2.075   3.386   7.835  1.7525  0.9560  0.6525
 8241SOL     OW36184   2.841   4.622   4.636  0.3090  0.1607 -0.6179
 8241SOL    HW136185   2.800   4.544   4.673 -0.2836  0.5113 -0.5393
 8241SOL    HW236186   2.784   4.656   4.567  0.2189  0.3894 -0.4328
 8242SOL     OW36187   1.410   0.664  15.529 -0.4443  0.0835 -0.1098
 8242SOL    HW136188   1.327   0.617  15.525 -1.4908  1.5857  3.1376
 8242SOL    HW236189   1.455   0.631  15.452  0.8931  0.1222  0.6452
 8243SOL     OW36190   0.780   1.893   8.350  0.4186 -0.4465  0.3746
 8243SOL    HW136191   0.826   1.903   8.267 -2.1104 -0.6499 -1.0443
 8243SOL    HW236192   0.831   1.833   8.405  0.8245  0.6453  1.2045
 8244SOL     OW36193   0.767   1.211   3.598 -0.4444 -0.0050  0.8722
 8244SOL    HW136194   0.704   1.269   3.556 -1.0961  0.1156  2.0326
 8244SOL    HW236195   0.827   1.282   3.621 -0.8125  0.7811 -0.6246
 8245SOL     OW36196   1.753   2.901  17.639 -0.3754  0.4346  0.9418
 8245SOL    HW136197   1.755   2.808  17.664 -0.2743  0.7389  2.0736
 8245SOL    HW236198   1.679   2.923  17.695 -2.0554 -0.7769 -0.8186
 8246SOL     OW36199   2.660   3.951   7.628 -0.3461  0.3857  0.2324
 8246SOL    HW136200   2.723   3.905   7.683 -1.5397 -3.1649 -1.3572
 8246SOL    HW236201   2.706   3.980   7.549 -0.1778  0.5000  0.3730
 8247SOL     OW36202   4.511   3.737   1.154 -0.7072 -0.3131 -0.4183
 8247SOL    HW136203   4.443   3.699   1.097  0.0693 -0.7148 -1.0870
 8247SOL    HW236204   4.559   3.796   1.096  0.7483 -0.8297  0.2701
 8248SOL     OW36205   2.644   1.128   6.094  0.6756 -0.8486 -0.1146
 8248SOL    HW136206   2.651   1.057   6.158 -0.2092 -1.2104 -0.4124
 8248SOL    HW236207   2.708   1.185   6.137  0.1046  0.5022 -1.0494
 8249SOL     OW36208   2.490   1.381   5.457  0.2966 -0.3406 -0.0681
 8249SOL    HW136209   2.424   1.312   5.448  0.8835 -0.9242  0.0706
 8249SOL    HW236210   2.438   1.449   5.414  1.6369  1.5805  1.3373
 8250SOL     OW36211   1.338   4.564  11.838 -0.0315 -0.2384  0.4648
 8250SOL    HW136212   1.296   4.643  11.803  0.6855 -0.3607 -0.6734
 8250SOL    HW236213   1.429   4.590  11.853  0.5675 -2.5620  0.7666
 8251SOL     OW36214   2.420   0.499   4.822 -0.1087  0.0478 -0.7708
 8251SOL    HW136215   2.452   0.412   4.842 -1.4854 -0.7817 -2.1332
 8251SOL    HW236216   2.395   0.485   4.731  1.5624  0.1498 -1.2562
 8252SOL     OW36217   4.615   4.187   9.923 -0.0946 -0.1663 -0.2977
 8252SOL    HW136218   4.688   4.201   9.862 -0.2153  1.6798 -0.0279
 8252SOL    HW236219   4.639   4.103   9.962 -0.9179  1.1509  3.0631
 8253SOL     OW36220   1.726   1.002   4.154 -0.2067 -0.0350 -0.4674
 8253SOL    HW136221   1.773   1.062   4.096  2.3419 -0.2984  1.3119
 8253SOL    HW236222   1.670   1.063   4.202 -0.5552  0.9554 -2.1286
 8254SOL     OW36223   0.436   2.563   0.903  0.6374 -0.1969 -0.1430
 8254SOL    HW136224   0.423   2.628   0.834  0.0125  0.3463  0.4876
 8254SOL    HW236225   0.456   2.615   0.981  0.7647 -1.6728  0.8113
 8255SOL     OW36226   4.547   2.480  10.247 -0.5028 -0.6853  0.4603
 8255SOL    HW136227   4.512   2.552  10.195 -0.6285 -0.0032  1.4934
 8255SOL    HW236228   4.608   2.523  10.305  0.1000 -0.8430 -0.0567
 8256SOL     OW36229   0.390   0.542   2.719  0.2209 -0.0286  0.3724
 8256SOL    HW136230   0.302   0.554   2.685  0.8023  1.7285 -0.5663
 8256SOL    HW236231   0.419   0.629   2.747  0.3725 -1.2165  3.9893
 8257SOL     OW36232   0.328   1.046   6.204  0.2724 -0.6263 -0.5473
 8257SOL    HW136233   0.331   0.957   6.239 -0.9603  0.0684  1.3007
 8257SOL    HW236234   0.398   1.032   6.140  0.5737 -2.1438  0.1174
 8258SOL     OW36235   0.086   4.351   6.575 -0.8576  0.0006  0.4298
 8258SOL    HW136236   4.720   4.382   6.565 -1.2454 -1.9266 -1.9707
 8258SOL    HW236237   0.074   4.264   6.537 -0.0150 -0.6803  1.6994
 8259SOL     OW36238   3.868   4.492   9.800 -0.4190 -0.1176  0.2184
 8259SOL    HW136239   3.879   4.571   9.852  0.7327 -0.2630  0.1856
 8259SOL    HW236240   3.808   4.519   9.731  0.7158  0.0456 -0.6942
 8260SOL     OW36241   4.004   0.529   5.359  0.4598  0.0511  0.7287
 8260SOL    HW136242   3.987   0.598   5.295  2.0474 -0.4321 -0.2078
 8260SOL    HW236243   3.917   0.488   5.365  0.1505  0.6560  0.3777
 8261SOL     OW36244   2.276   0.800   6.869 -0.3155  0.4085  0.1579
 8261SOL    HW136245   2.343   0.861   6.899  0.2856  0.8919 -2.1793
 8261SOL    HW236246   2.321   0.716   6.878 -3.1539 -1.2559 -1.0139
 8262SOL     OW36247   3.329   1.334  15.132 -0.1531  0.8985  0.3341
 8262SOL    HW136248   3.279   1.406  15.094 -1.5821  0.4100  1.2936
 8262SOL    HW236249   3.344   1.273  15.060 -2.3023  0.0160  0.6268
 8263SOL     OW36250   2.677   4.496  10.546 -0.3238 -0.3111 -0.0497
 8263SOL    HW136251   2.679   4.402  10.529 -0.1826 -0.4080  0.5096
 8263SOL    HW236252   2.601   4.512  10.488 -0.3853  2.2697  0.7207
 8264SOL     OW36253   0.161   4.543   9.159 -0.2681 -0.3075 -0.2109
 8264SOL    HW136254   0.241   4.595   9.160 -1.2479  1.2396 -3.1410
 8264SOL    HW236255   0.093   4.601   9.125 -0.7066  0.2325  1.6047
 8265SOL     OW36256   2.313   1.063   7.745  0.4094 -0.4557  0.3464
 8265SOL    HW136257   2.232   1.050   7.794  1.0928  1.0310  1.8836
 8265SOL    HW236258   2.358   1.132   7.794  0.3865 -0.1783 -0.0258
 8266SOL     OW36259   3.248   4.101   1.038  0.1056 -0.1620  0.4068
 8266SOL    HW136260   3.176   4.052   0.998  0.2874  0.4757 -0.6944
 8266SOL    HW236261   3.223   4.191   1.017 -0.3118 -0.2312  0.5993
 8267SOL     OW36262   0.879   2.255  13.831 -0.6111  0.0261 -0.4693
 8267SOL    HW136263   0.823   2.186  13.866 -1.2325  0.7080 -0.1253
 8267SOL    HW236264   0.825   2.284  13.757  1.2122  0.3326 -1.6917
 8268SOL     OW36265   0.469   1.090   7.629  0.0415  0.0644 -0.0950
 8268SOL    HW136266   0.477   1.169   7.577  0.0389 -0.3354 -0.7011
 8268SOL    HW236267   0.377   1.082   7.654  0.4159 -2.4513  0.4569
 8269SOL     OW36268   1.303   4.425   3.551  0.0556 -0.0952  0.0893
 8269SOL    HW136269   1.337   4.508   3.517 -1.4146 -0.3277 -1.9642
 8269SOL    HW236270   1.213   4.450   3.574  0.0708 -0.8810  0.9967
 8270SOL     OW36271   1.892   1.541   5.512 -0.3211  0.2937  0.7392
 8270SOL    HW136272   1.841   1.577   5.584  1.8391  1.2971  1.7419
 8270SOL    HW236273   1.875   1.447   5.517 -0.9885  0.3020 -1.3556
 8271SOL     OW36274   2.197   2.698   3.103  0.5143 -0.3598  0.2098
 8271SOL    HW136275   2.256   2.772   3.093  0.8847 -0.4851  1.5245
 8271SOL    HW236276   2.118   2.740   3.135 -0.1648 -2.3409  1.1453
 8272SOL     OW36277   1.739   0.803  14.796 -0.3481  0.1895 -0.6564
 8272SOL    HW136278   1.677   0.731  14.786  0.8499 -1.2249  1.9871
 8272SOL    HW236279   1.816   0.746  14.795  1.8185  3.0895  1.2318
 8273SOL     OW36280   3.492   0.937  15.736 -0.0644 -0.4024  0.1512
 8273SOL    HW136281   3.580   0.970  15.754 -0.5108  1.4783 -1.1159
 8273SOL    HW236282   3.443   1.015  15.761  0.5322  0.6408 -1.9367
 8274SOL     OW36283   4.691   1.402   0.978 -0.6717  0.1408  0.0559
 8274SOL    HW136284   0.040   1.394   1.039 -0.0455  0.8514 -0.6161
 8274SOL    HW236285   4.641   1.321   0.993 -1.5812  0.5461 -0.7442
 8275SOL     OW36286   3.877   0.201  13.430  0.2842 -0.4489  0.7448
 8275SOL    HW136287   3.823   0.196  13.350  1.5848  1.5943 -0.2553
 8275SOL    HW236288   3.917   0.287  13.420 -0.7993  0.1105  1.1383
 8276SOL     OW36289   4.086   1.636   8.358 -0.2846  0.6562 -0.1168
 8276SOL    HW136290   3.996   1.657   8.383 -0.3140 -0.7021  0.8764
 8276SOL    HW236291   4.082   1.543   8.337 -0.2692  0.5629  0.2881
 8277SOL     OW36292   2.969   3.044  16.028 -0.0892 -0.4588  0.2065
 8277SOL    HW136293   2.903   3.113  16.020 -0.2160 -0.6821 -0.6564
 8277SOL    HW236294   3.039   3.081  15.974  0.1805  0.7402  1.3660
 8278SOL     OW36295   2.099   1.607   4.717 -0.3437 -0.4235  0.1164
 8278SOL    HW136296   2.073   1.699   4.726 -1.5125 -0.8425  1.0521
 8278SOL    HW236297   2.012   1.567   4.709 -0.5799  0.3724 -1.3525
 8279SOL     OW36298   1.656   3.159   3.632  0.0451  0.3663 -0.1146
 8279SOL    HW136299   1.716   3.209   3.686  0.6175 -1.6032  1.0577
 8279SOL    HW236300   1.572   3.177   3.673 -0.6622 -1.6665 -0.6781
 8280SOL     OW36301   0.167   2.892   3.706 -0.1300  0.1297 -0.4753
 8280SOL    HW136302   0.243   2.918   3.654  0.9769 -1.3224  0.4045
 8280SOL    HW236303   0.208   2.823   3.759  0.5602 -0.0374 -1.2318
 8281SOL     OW36304   1.503   1.613   7.802 -0.2161  0.0115 -0.2422
 8281SOL    HW136305   1.574   1.566   7.757 -0.8067 -0.8102 -0.3047
 8281SOL    HW236306   1.528   1.596   7.893 -1.9245  2.5585  0.6986
 8282SOL     OW36307   3.241   0.038   7.964  0.9055 -0.3856 -0.3833
 8282SOL    HW136308   3.199   0.041   7.878  1.1943  1.0548 -0.4838
 8282SOL    HW236309   3.332   0.044   7.937  0.5326 -0.6339 -1.6851
 8283SOL     OW36310   1.643   3.379  17.451  0.4201 -0.4983  1.0056
 8283SOL    HW136311   1.673   3.374  17.542  0.3848 -2.5948  0.9147
 8283SOL    HW236312   1.648   3.285  17.430 -0.8177 -0.3265 -0.0169
 8284SOL     OW36313   1.687   1.650   8.856  0.2068  0.2228 -0.1552
 8284SOL    HW136314   1.647   1.603   8.929  1.7012 -0.1602  0.4239
 8284SOL    HW236315   1.752   1.584   8.830  0.2425  0.8221 -1.6247
 8285SOL     OW36316   0.706   3.451  16.628 -0.0528 -0.0976 -0.2556
 8285SOL    HW136317   0.736   3.539  16.604  0.7104 -0.4699 -0.6753
 8285SOL    HW236318   0.772   3.415  16.686  1.0974  1.8316 -0.3801
 8286SOL     OW36319   2.690   1.740   9.116  0.1355 -0.5285  0.1795
 8286SOL    HW136320   2.622   1.676   9.098  0.1403  0.2155 -2.5385
 8286SOL    HW236321   2.723   1.713   9.201  0.6797  0.1190  0.1780
 8287SOL     OW36322   3.733   2.213   9.175 -0.1597  0.2049  0.9746
 8287SOL    HW136323   3.807   2.190   9.119 -0.3201  1.3824  0.2944
 8287SOL    HW236324   3.776   2.172   9.250 -0.7928 -1.0047  0.6782
 8288SOL     OW36325   2.614   3.615   8.074  0.5378 -0.4475  0.3408
 8288SOL    HW136326   2.672   3.690   8.062  1.8152 -1.3420  0.9812
 8288SOL    HW236327   2.589   3.642   8.163 -0.6492 -1.4021  0.2988
 8289SOL     OW36328   0.011   1.149   0.334 -0.0257 -0.3851  0.5539
 8289SOL    HW136329   4.719   1.088   0.261 -0.8575 -0.0953  0.4876
 8289SOL    HW236330   4.659   1.207   0.332 -0.2617 -0.7291 -0.9328
 8290SOL     OW36331   2.817   1.444   3.601  0.0130 -0.8363 -0.1718
 8290SOL    HW136332   2.752   1.510   3.578 -0.4049 -1.6441 -1.2912
 8290SOL    HW236333   2.763   1.408   3.671 -0.5381  0.4837  0.0873
 8291SOL     OW36334   1.420   3.928   7.408 -0.1251 -0.2346  0.2340
 8291SOL    HW136335   1.413   3.984   7.486  0.2796 -1.6216  1.2688
 8291SOL    HW236336   1.365   3.974   7.344 -0.1322 -0.7759 -0.1418
 8292SOL     OW36337   4.576   2.279   7.440 -0.2863 -0.0390  1.0556
 8292SOL    HW136338   4.572   2.231   7.523  0.5700 -0.0832  1.0671
 8292SOL    HW236339   4.658   2.246   7.405 -0.3510  0.2194  0.6677
 8293SOL     OW36340   4.304   2.250   9.501  0.1154  0.6709  0.3748
 8293SOL    HW136341   4.259   2.322   9.457  0.2126  0.0970 -0.6743
 8293SOL    HW236342   4.231   2.239   9.561  0.2167  1.3094  0.6160
 8294SOL     OW36343   2.538   0.475   2.826 -0.0461 -0.4606  0.6665
 8294SOL    HW136344   2.487   0.415   2.772 -0.8103  0.6916  0.0927
 8294SOL    HW236345   2.477   0.550   2.827 -1.5084 -1.6399 -0.6552
 8295SOL     OW36346   1.532   2.351   4.430 -0.7504  0.1418  0.0950
 8295SOL    HW136347   1.497   2.276   4.382  1.7489 -0.5208 -0.7054
 8295SOL    HW236348   1.507   2.421   4.370 -2.2627 -1.1466 -0.7778
 8296SOL     OW36349   2.040   3.796   4.484  0.7583  0.1220 -0.5557
 8296SOL    HW136350   1.963   3.762   4.440 -1.0069 -0.0141  2.6315
 8296SOL    HW236351   2.104   3.758   4.424 -0.6522 -1.5645 -0.9746
 8297SOL     OW36352   4.197   4.597  16.967  0.4643  0.3939 -0.6021
 8297SOL    HW136353   4.180   4.644  16.885 -2.7055  1.2968  0.5524
 8297SOL    HW236354   4.107   4.592  16.997  1.0457 -1.1350  0.8270
 8298SOL     OW36355   4.364   2.949   5.906  0.0133  0.0100 -0.1759
 8298SOL    HW136356   4.303   3.021   5.912  0.7403  0.6074  0.0379
 8298SOL    HW236357   4.425   3.001   5.854 -0.5964  1.2790  0.4027
 8299SOL     OW36358   4.177   0.414   1.909  0.0253 -0.2765  0.0517
 8299SOL    HW136359   4.194   0.330   1.866  2.5507  0.7729 -1.0174
 8299SOL    HW236360   4.094   0.435   1.867 -0.2465 -1.4141  0.0111
 8300SOL     OW36361   3.707   3.336   8.419 -0.7023  0.3456  0.0771
 8300SOL    HW136362   3.633   3.368   8.471 -0.1860  2.1865 -0.3155
 8300SOL    HW236363   3.659   3.295   8.347 -0.8754  1.0533 -0.2068
 8301SOL     OW36364   2.204   2.490   3.654  0.3880 -0.1572  0.1100
 8301SOL    HW136365   2.236   2.432   3.585  0.4991  1.0167 -0.8206
 8301SOL    HW236366   2.201   2.573   3.607 -1.6832 -0.3068  0.0001
 8302SOL     OW36367   1.605   0.495  10.575  0.0965 -0.0409  0.1876
 8302SOL    HW136368   1.663   0.421  10.596 -0.6394 -1.2639 -2.1375
 8302SOL    HW236369   1.661   0.568  10.601 -1.9135  1.9099 -1.0145
 8303SOL     OW36370   4.025   1.839   0.625 -0.5762 -0.0242 -0.2097
 8303SOL    HW136371   4.015   1.765   0.566 -3.3216  1.4684 -1.6209
 8303SOL    HW236372   4.073   1.899   0.568  0.1749 -1.2513 -0.8589
 8304SOL     OW36373   2.348   3.503  14.963 -0.8070  0.0600  0.6256
 8304SOL    HW136374   2.443   3.511  14.960 -1.1085  2.9371 -1.7548
 8304SOL    HW236375   2.335   3.490  14.869  2.2798 -0.1033  0.2239
 8305SOL     OW36376   1.365   2.665   4.034 -0.1872  0.0886  0.0520
 8305SOL    HW136377   1.281   2.707   4.052 -0.4669 -0.7367  0.6468
 8305SOL    HW236378   1.411   2.748   4.018 -0.1065 -0.0923 -0.6638
 8306SOL     OW36379   1.225   3.716   2.308 -0.8641  0.2578 -0.3224
 8306SOL    HW136380   1.277   3.654   2.358 -1.0534  1.6412  1.5729
 8306SOL    HW236381   1.200   3.785   2.369 -0.1452 -0.5105  0.8266
 8307SOL     OW36382   3.349   1.407   2.920 -0.0289  0.2550 -0.2403
 8307SOL    HW136383   3.259   1.439   2.915  0.3423  1.5809  1.6288
 8307SOL    HW236384   3.394   1.472   2.975 -2.4953  2.3548 -0.6992
 8308SOL     OW36385   0.214   2.221   5.121 -0.3222 -0.2522  0.2486
 8308SOL    HW136386   0.254   2.194   5.204 -1.6803 -2.7780  0.0691
 8308SOL    HW236387   0.235   2.315   5.131  1.1528 -0.4454 -0.9522
 8309SOL     OW36388   3.669   2.502   0.105 -0.5705 -0.3481 -0.0169
 8309SOL    HW136389   3.722   2.512   0.184  2.3972 -2.0150 -1.8159
 8309SOL    HW236390   3.733   2.530   0.039 -0.1511  0.8114  0.8754
 8310SOL     OW36391   0.942   0.404   2.215 -0.3960  0.0605 -0.1793
 8310SOL    HW136392   0.868   0.418   2.274  2.6175  1.3806  3.2544
 8310SOL    HW236393   0.998   0.481   2.217  0.8044 -0.7433 -2.0099
 8311SOL     OW36394   3.413   4.555   8.886  0.2677 -0.0946 -0.4361
 8311SOL    HW136395   3.325   4.532   8.918  0.4686 -0.2960 -0.0392
 8311SOL    HW236396   3.449   4.469   8.866 -2.2059 -0.7652 -2.0501
 8312SOL     OW36397   2.763   0.108  10.717  0.0212 -0.4412  0.2214
 8312SOL    HW136398   2.781   0.121  10.810 -0.7924  1.9922  0.0307
 8312SOL    HW236399   2.842   0.155  10.691 -0.8085 -0.2443 -1.9611
 8313SOL     OW36400   0.345   3.441   6.292  0.1811  0.2323 -0.1408
 8313SOL    HW136401   0.354   3.451   6.197 -0.0181 -0.6665 -0.2557
 8313SOL    HW236402   0.310   3.352   6.289 -0.4316  0.5733 -3.1072
 8314SOL     OW36403   1.682   1.592   5.675  0.5729  0.4340  0.3440
 8314SOL    HW136404   1.636   1.512   5.648  0.7045 -0.1739  1.9144
 8314SOL    HW236405   1.614   1.653   5.647  0.7715  0.6896  0.4232
 8315SOL     OW36406   0.511   3.825   1.869 -0.3145 -0.2983 -0.3748
 8315SOL    HW136407   0.489   3.897   1.928  1.6098  0.5663 -0.7172
 8315SOL    HW236408   0.452   3.845   1.796  0.7383 -0.9818 -1.4077
 8316SOL     OW36409   1.694   0.570   6.767  0.3477 -0.0683  0.2384
 8316SOL    HW136410   1.679   0.530   6.681  1.8891  0.7793 -0.4189
 8316SOL    HW236411   1.677   0.662   6.747  2.1416  0.1431 -0.3766
 8317SOL     OW36412   3.639   3.902   7.906  0.0975  0.0638 -0.5706
 8317SOL    HW136413   3.639   3.965   7.977 -0.8299  0.3789 -0.8435
 8317SOL    HW236414   3.544   3.890   7.913  0.3762 -2.7824 -1.5819
 8318SOL     OW36415   2.622   3.374   5.832 -0.1089  0.2122 -0.3038
 8318SOL    HW136416   2.531   3.366   5.805 -0.8297 -1.0268  2.4764
 8318SOL    HW236417   2.626   3.470   5.834 -2.7692  0.3359 -1.6911
 8319SOL     OW36418   0.497   0.820   1.576  0.2486 -0.4935 -0.0590
 8319SOL    HW136419   0.508   0.735   1.533 -2.0332 -0.4349 -0.7643
 8319SOL    HW236420   0.424   0.857   1.526 -0.9300 -1.3151  1.0621
 8320SOL     OW36421   4.536   1.793   9.829  0.3458 -0.0079  0.0105
 8320SOL    HW136422   4.604   1.826   9.770  0.7785  0.4717  0.7702
 8320SOL    HW236423   4.544   1.700   9.810 -1.1760 -0.3794  1.1684
 8321SOL     OW36424   0.021   4.078   5.941 -0.4710  0.2256 -0.3152
 8321SOL    HW136425   4.682   4.081   5.869 -1.0949  0.7980  0.2662
 8321SOL    HW236426   0.104   4.087   5.894  0.3890 -3.4094  0.4614
 8322SOL     OW36427   0.074   3.684  15.828  0.0036  0.5404 -0.3654
 8322SOL    HW136428   0.005   3.634  15.785 -0.0699 -0.5496  1.0284
 8322SOL    HW236429   0.148   3.624  15.825 -1.8375 -1.8426  1.9484
 8323SOL     OW36430   3.496   0.928  16.529 -0.0471  0.5213  0.3749
 8323SOL    HW136431   3.587   0.901  16.542 -0.5274 -1.2793 -0.0601
 8323SOL    HW236432   3.456   0.864  16.588 -1.5642 -0.0142 -1.2549
 8324SOL     OW36433   0.188   3.287   0.594 -0.0196  0.1802  0.6734
 8324SOL    HW136434   0.169   3.333   0.676  0.6110 -0.6024  1.2629
 8324SOL    HW236435   0.105   3.289   0.546 -0.0504 -0.3800  0.7092
 8325SOL     OW36436   3.076   3.640   7.102 -0.0511  0.1271 -0.0975
 8325SOL    HW136437   3.101   3.595   7.022 -1.5224 -1.2374  0.2062
 8325SOL    HW236438   3.013   3.576   7.136 -0.7259  0.4773 -0.6944
 8326SOL     OW36439   2.363   0.399   8.859 -0.0010  0.1138 -0.3042
 8326SOL    HW136440   2.372   0.389   8.954 -1.9573 -1.1283 -0.2497
 8326SOL    HW236441   2.454   0.413   8.834  0.6959 -3.7035  0.1060
 8327SOL     OW36442   4.421   4.536   0.756 -0.0071  0.3362 -0.0916
 8327SOL    HW136443   4.497   4.591   0.741 -0.7511  1.4501  0.2444
 8327SOL    HW236444   4.462   4.460   0.714 -0.4809 -0.9414  1.7639
 8328SOL     OW36445   2.507   0.193   1.134  0.0779  0.5939 -0.3108
 8328SOL    HW136446   2.484   0.249   1.208 -1.5937 -1.7823  0.9492
 8328SOL    HW236447   2.592   0.168   1.172  0.1226  0.4667 -0.4977
 8329SOL     OW36448   4.143   0.733  11.522 -0.1235 -0.5462  0.4080
 8329SOL    HW136449   4.055   0.703  11.497 -0.2646  0.8162 -0.7637
 8329SOL    HW236450   4.200   0.660  11.501 -0.3346 -0.0833 -1.7372
 8330SOL     OW36451   3.251   1.269   1.878  0.5409 -0.0703 -0.4791
 8330SOL    HW136452   3.211   1.276   1.965 -0.8616  0.0026 -1.1264
 8330SOL    HW236453   3.225   1.356   1.848 -0.0305  0.4472  1.5277
 8331SOL     OW36454   2.695   1.706   6.132  0.5755 -0.2338 -0.2133
 8331SOL    HW136455   2.683   1.629   6.076 -0.1818 -1.1912  1.2754
 8331SOL    HW236456   2.725   1.763   6.061  1.2549  0.5320  0.6922
 8332SOL     OW36457   1.559   0.926   0.176  0.0015 -0.3783 -0.2849
 8332SOL    HW136458   1.474   0.969   0.181  0.5762  0.5176  1.9842
 8332SOL    HW236459   1.584   0.945   0.086 -2.1356 -1.0022 -1.0073
 8333SOL     OW36460   0.856   1.591   2.297  0.0686  0.4858 -0.2792
 8333SOL    HW136461   0.936   1.554   2.336 -0.1564 -1.2586 -1.5138
 8333SOL    HW236462   0.847   1.673   2.346  2.4096 -0.7378  2.2309
 8334SOL     OW36463   4.393   2.556  11.426  0.7760  0.4327 -0.1586
 8334SOL    HW136464   4.319   2.560  11.487  0.4591  0.2660 -0.5333
 8334SOL    HW236465   4.378   2.645  11.394 -0.5216  0.0803 -0.5269
 8335SOL     OW36466   3.062   3.758   5.334 -0.1554  0.2327 -0.6142
 8335SOL    HW136467   3.080   3.852   5.344  1.6004 -0.1497 -0.2331
 8335SOL    HW236468   3.056   3.738   5.428 -1.2704  2.5912 -0.1585
 8336SOL     OW36469   0.446   0.219   2.408 -0.6370 -0.1039  0.1273
 8336SOL    HW136470   0.464   0.234   2.315 -2.0311  0.0066 -0.1252
 8336SOL    HW236471   0.447   0.311   2.433 -0.8940  0.0356 -0.3854
 8337SOL     OW36472   4.149   0.479   4.465 -0.3114 -0.1439  0.0167
 8337SOL    HW136473   4.055   0.462   4.472 -0.7157  0.9004 -2.7603
 8337SOL    HW236474   4.175   0.411   4.402 -2.2628 -0.6723 -0.2100
 8338SOL     OW36475   0.469   0.765   0.128  0.4925 -0.2992  0.1158
 8338SOL    HW136476   0.514   0.849   0.119  0.9925 -0.4300  1.3017
 8338SOL    HW236477   0.485   0.726   0.043 -0.9442  1.6056 -1.0224
 8339SOL     OW36478   2.010   2.452   2.949 -0.0375  0.2063  0.0392
 8339SOL    HW136479   1.970   2.481   3.031 -0.2186 -1.7536  0.6387
 8339SOL    HW236480   1.934   2.400   2.923  1.0969  0.3678 -3.6006
 8340SOL     OW36481   3.097   0.355   8.633  0.3166 -0.0497 -0.3206
 8340SOL    HW136482   3.130   0.292   8.697 -0.3819  0.2902  0.3671
 8340SOL    HW236483   3.008   0.371   8.662 -0.0255 -4.5216  1.0396
 8341SOL     OW36484   2.316   0.458   1.261  0.5684 -0.2981 -0.8806
 8341SOL    HW136485   2.270   0.464   1.177  1.2480 -3.0707 -1.4436
 8341SOL    HW236486   2.311   0.546   1.299  0.3516 -1.1427  1.0368
 8342SOL     OW36487   2.610   1.189   1.044 -0.2314  0.0515  0.3552
 8342SOL    HW136488   2.654   1.272   1.059 -0.1720  0.0118  0.3992
 8342SOL    HW236489   2.562   1.174   1.125  0.7486  0.8627  1.0891
 8343SOL     OW36490   2.222   0.232   7.509 -0.7270 -0.2131  0.2204
 8343SOL    HW136491   2.150   0.169   7.504  0.1637 -1.0570 -2.0904
 8343SOL    HW236492   2.213   0.259   7.600  0.1498 -0.8940  0.5083
 8344SOL     OW36493   3.635   4.712   8.452 -0.1874  0.0224 -0.0771
 8344SOL    HW136494   3.680   4.718   8.368 -0.1039  4.2930  0.2767
 8344SOL    HW236495   3.543   4.723   8.428 -0.4820 -0.3838  0.8712
 8345SOL     OW36496   2.635   0.517   8.705 -0.6446  0.0972  0.2433
 8345SOL    HW136497   2.579   0.594   8.710  0.9908  1.5062 -2.4487
 8345SOL    HW236498   2.636   0.504   8.610 -0.5134 -0.8633  0.3791
 8346SOL     OW36499   1.760   3.464   9.071  0.3473 -0.2850  0.3980
 8346SOL    HW136500   1.833   3.509   9.111  0.5576 -0.9709  0.7842
 8346SOL    HW236501   1.725   3.421   9.149  0.4057 -0.3372  0.3952
 8347SOL     OW36502   4.302   1.119   8.857 -0.5118 -0.1270 -0.1721
 8347SOL    HW136503   4.292   1.024   8.860 -0.7410  0.0006  3.3330
 8347SOL    HW236504   4.274   1.149   8.943 -0.3932  1.1152 -0.5636
 8348SOL     OW36505   3.828   2.904   6.674 -0.0190 -0.6289 -0.0171
 8348SOL    HW136506   3.923   2.898   6.665  0.0797  1.1462 -0.2425
 8348SOL    HW236507   3.805   2.942   6.589  0.1667 -1.0229 -0.2442
 8349SOL     OW36508   3.096   3.235   3.053  0.0320  0.4786 -1.0839
 8349SOL    HW136509   3.007   3.271   3.059 -0.1821 -0.5894  2.3354
 8349SOL    HW236510   3.105   3.186   3.135  0.1412  1.4169 -0.5292
 8350SOL     OW36511   0.404   3.324   6.885 -0.0599  0.6736 -0.2132
 8350SOL    HW136512   0.441   3.386   6.947  0.2217 -0.3233  0.6231
 8350SOL    HW236513   0.337   3.383   6.850 -0.8034  0.1443  0.3260
 8351SOL     OW36514   0.168   3.871   3.680  0.3743  0.8703 -0.4385
 8351SOL    HW136515   0.100   3.805   3.691 -0.2038  1.4458 -0.5610
 8351SOL    HW236516   0.244   3.813   3.680  0.8897  1.5009 -3.7332
 8352SOL     OW36517   0.318   4.118   8.921  0.5474  0.8181  0.4503
 8352SOL    HW136518   0.233   4.076   8.904 -0.0367  1.4153  1.9022
 8352SOL    HW236519   0.365   4.039   8.944  0.3838  0.2874 -1.0110
 8353SOL     OW36520   1.282   2.771  16.484  0.2172  0.8377  0.5670
 8353SOL    HW136521   1.301   2.755  16.391 -2.1429 -2.0374  0.5944
 8353SOL    HW236522   1.313   2.690  16.526 -0.3038  0.8294  0.9250
 8354SOL     OW36523   2.516   3.166   4.569 -0.0186  0.4549 -0.3283
 8354SOL    HW136524   2.552   3.250   4.539 -1.4991  1.3633  0.4101
 8354SOL    HW236525   2.584   3.103   4.547 -0.2238 -0.0123  0.3878
 8355SOL     OW36526   2.512   1.064   5.868  0.6684 -0.4450 -0.2614
 8355SOL    HW136527   2.542   0.974   5.868 -0.8609 -0.9588  1.4100
 8355SOL    HW236528   2.554   1.095   5.948 -0.8223 -1.4065  0.8953
 8356SOL     OW36529   0.537   3.419   8.192  0.0415  0.6637  0.0250
 8356SOL    HW136530   0.579   3.353   8.246  2.0127  0.5165 -1.7159
 8356SOL    HW236531   0.610   3.477   8.171 -1.2050  1.5896 -1.7729
 8357SOL     OW36532   2.152   2.628   9.262  0.2849 -0.7677  0.4793
 8357SOL    HW136533   2.144   2.631   9.358 -1.1042 -1.2866  0.3828
 8357SOL    HW236534   2.082   2.682   9.227  0.6840 -0.3822  0.2828
 8358SOL     OW36535   2.712   3.512   0.420 -0.0364  0.4501 -0.3584
 8358SOL    HW136536   2.630   3.502   0.470 -0.0539 -1.5758 -0.7868
 8358SOL    HW236537   2.745   3.423   0.406  0.1596  0.9571 -3.1029
 8359SOL     OW36538   1.293   3.202  13.434 -0.2234 -0.1964  0.9859
 8359SOL    HW136539   1.202   3.216  13.461 -0.0164  0.0075  1.5830
 8359SOL    HW236540   1.330   3.289  13.444  0.3172 -0.3660  0.4505
 8360SOL     OW36541   3.337   0.629   6.484  0.2647  0.1796 -0.2196
 8360SOL    HW136542   3.430   0.607   6.480 -0.0229 -1.2032  0.9547
 8360SOL    HW236543   3.320   0.657   6.574 -2.7252  0.3220 -0.8438
 8361SOL     OW36544   1.478   0.151   3.337  0.0165 -0.5892 -0.1608
 8361SOL    HW136545   1.556   0.170   3.285  0.1994 -3.9215 -1.1128
 8361SOL    HW236546   1.514   0.149   3.426  3.0733 -2.7725 -1.4399
 8362SOL     OW36547   3.728   3.288   3.039 -0.3092 -0.1086 -0.3653
 8362SOL    HW136548   3.812   3.306   3.081 -1.2634 -0.1462  1.5717
 8362SOL    HW236549   3.681   3.242   3.108 -0.8271 -2.6310 -2.3963
 8363SOL     OW36550   4.349   2.452   1.477 -0.6512  0.1268 -0.5442
 8363SOL    HW136551   4.316   2.482   1.562 -0.6677  0.2620 -0.5986
 8363SOL    HW236552   4.315   2.363   1.470 -0.0315 -0.1811  0.5099
 8364SOL     OW36553   2.570   2.252   5.722  0.5358 -0.3394 -0.2935
 8364SOL    HW136554   2.501   2.246   5.656  1.2266  2.8607 -1.2838
 8364SOL    HW236555   2.632   2.193   5.677  2.2324  0.8121  0.5190
 8365SOL     OW36556   3.232   1.567   4.998  0.3442 -0.2565  0.1553
 8365SOL    HW136557   3.259   1.656   4.976 -1.3353 -0.2007 -1.6210
 8365SOL    HW236558   3.294   1.520   4.942  0.1264 -1.4516  0.9080
 8366SOL     OW36559   2.730   4.347   1.676  0.0755  0.2294  0.7512
 8366SOL    HW136560   2.636   4.347   1.692 -0.3545  1.0653 -1.8771
 8366SOL    HW236561   2.741   4.432   1.720  0.8153  1.0088 -0.9228
 8367SOL     OW36562   1.487   0.560   1.468 -0.0616  0.2795  0.0665
 8367SOL    HW136563   1.440   0.597   1.393  0.0662 -1.0821 -0.6888
 8367SOL    HW236564   1.549   0.499   1.427 -0.5929  0.8257 -1.5707
 8368SOL     OW36565   3.610   3.407   7.943  0.0924 -0.0204 -0.0428
 8368SOL    HW136566   3.702   3.430   7.936 -0.7930  3.6448  0.2365
 8368SOL    HW236567   3.585   3.381   7.854  0.9353  0.2975 -0.3735
 8369SOL     OW36568   0.647   0.462   6.245  0.1245 -0.0856  0.1736
 8369SOL    HW136569   0.663   0.502   6.159 -0.0037 -0.4862 -0.0370
 8369SOL    HW236570   0.602   0.536   6.285  0.0938  0.9564 -1.7787
 8370SOL     OW36571   3.247   3.894   4.433  0.4542 -0.7856  0.0518
 8370SOL    HW136572   3.180   3.827   4.429  2.3220 -2.7634  1.8982
 8370SOL    HW236573   3.292   3.860   4.510  0.3829 -3.8897 -1.2966
 8371SOL     OW36574   1.159   3.846   8.690  0.0285 -0.6407  0.1220
 8371SOL    HW136575   1.139   3.756   8.713 -2.7528 -0.6664 -2.4301
 8371SOL    HW236576   1.069   3.868   8.668 -0.0834 -1.7957 -0.5502
 8372SOL     OW36577   4.320   2.791   9.646  0.2308  0.5266  0.1949
 8372SOL    HW136578   4.345   2.883   9.651 -2.1186  1.1493  0.3497
 8372SOL    HW236579   4.290   2.784   9.736  3.2532 -1.2457  1.0788
 8373SOL     OW36580   3.703   1.958   5.639  0.2724  0.0096 -0.8138
 8373SOL    HW136581   3.675   2.042   5.676  1.0736  0.2360 -0.7151
 8373SOL    HW236582   3.797   1.972   5.628  0.2228  0.5900 -0.5420
 8374SOL     OW36583   0.283   4.142  11.377 -0.1314  0.1733  0.2962
 8374SOL    HW136584   0.312   4.234  11.379 -0.9073  0.3660  2.8296
 8374SOL    HW236585   0.265   4.132  11.284 -1.9419 -3.0246  0.9850
 8375SOL     OW36586   4.529   0.204   3.845  0.7274  0.0058 -0.4681
 8375SOL    HW136587   4.510   0.225   3.753  2.7656 -0.6322 -1.0204
 8375SOL    HW236588   4.444   0.215   3.888  0.8804  1.2914 -0.4918
 8376SOL     OW36589   2.913   0.423   7.170  0.2442  0.3063  0.1210
 8376SOL    HW136590   2.979   0.457   7.230 -0.3504  0.4678  0.6785
 8376SOL    HW236591   2.862   0.375   7.235  1.3414 -0.0298  0.7295
 8377SOL     OW36592   0.941   1.633  16.743  0.1599  0.0883  0.1554
 8377SOL    HW136593   0.955   1.554  16.795  1.4151  0.1455 -0.1009
 8377SOL    HW236594   0.884   1.600  16.674  1.7106  2.7967 -2.4306
 8378SOL     OW36595   2.469   0.437  13.014 -0.0284  0.2918 -0.2180
 8378SOL    HW136596   2.484   0.400  12.927  0.2110  2.0023 -0.9003
 8378SOL    HW236597   2.425   0.520  12.999  0.6356  0.8782  1.0931
 8379SOL     OW36598   1.210   2.548   5.016  0.5448  0.0591 -0.2625
 8379SOL    HW136599   1.232   2.616   4.952 -1.6122  0.6139 -0.4421
 8379SOL    HW236600   1.294   2.505   5.026  0.4966  0.4997  2.1680
 8380SOL     OW36601   3.195   1.335   5.176 -0.5150 -0.3145 -0.2305
 8380SOL    HW136602   3.215   1.406   5.114 -0.3330 -0.2796 -0.1324
 8380SOL    HW236603   3.103   1.327   5.150 -0.2886  0.6868 -1.3296
 8381SOL     OW36604   1.874   4.412  10.278 -0.7920 -0.1591  0.2641
 8381SOL    HW136605   1.941   4.347  10.300 -1.8928 -1.1074  0.8527
 8381SOL    HW236606   1.820   4.366  10.214  1.3804  0.0317 -1.7025
 8382SOL     OW36607   1.579   0.409  11.659 -0.1344  0.2218 -0.3239
 8382SOL    HW136608   1.562   0.355  11.582  1.4549 -1.5102  0.5518
 8382SOL    HW236609   1.509   0.474  11.644  1.0825  1.2349 -1.5872
 8383SOL     OW36610   0.653   4.318   4.601 -0.5797  0.0900  0.2210
 8383SOL    HW136611   0.618   4.235   4.568 -0.6688  0.3111 -0.2432
 8383SOL    HW236612   0.745   4.296   4.594 -0.7434 -1.0805  1.7596
 8384SOL     OW36613   0.452   1.218   5.857  0.2096 -0.2407  0.1882
 8384SOL    HW136614   0.491   1.283   5.915 -1.4828 -0.2100  1.2805
 8384SOL    HW236615   0.485   1.143   5.906  0.3254 -0.0773  0.3602
 8385SOL     OW36616   2.137   1.895  14.690 -0.4283 -0.2575  0.4529
 8385SOL    HW136617   2.099   1.937  14.612  1.0773 -2.5163 -1.4772
 8385SOL    HW236618   2.224   1.876  14.655 -0.9562 -0.8024 -0.5588
 8386SOL     OW36619   1.706   0.492   7.029  0.4902  0.0064  0.3386
 8386SOL    HW136620   1.774   0.536   7.080  0.5655  1.9583 -1.4383
 8386SOL    HW236621   1.717   0.530   6.942 -0.2259  0.0847  0.2834
 8387SOL     OW36622   2.203   0.304   8.377  0.2649 -0.7921 -0.0313
 8387SOL    HW136623   2.289   0.284   8.339 -0.8384  0.2272 -3.0315
 8387SOL    HW236624   2.218   0.397   8.391 -1.6323 -0.5458  0.2670
 8388SOL     OW36625   4.700   4.527   2.558 -0.3796  0.3379  0.6630
 8388SOL    HW136626   0.010   4.580   2.485  1.2169 -0.8025  0.5714
 8388SOL    HW236627   0.007   4.441   2.527  0.4379  1.0013 -0.3563
 8389SOL     OW36628   1.182   1.647  16.910 -0.1344 -0.1390 -0.1644
 8389SOL    HW136629   1.101   1.646  16.859 -0.4516 -1.2360  0.3555
 8389SOL    HW236630   1.220   1.730  16.882 -1.2895  0.7274  0.8888
 8390SOL     OW36631   4.686   2.814  15.209  0.1346  0.2035 -0.4425
 8390SOL    HW136632   0.008   2.741  15.166 -0.5198  0.0102 -0.8076
 8390SOL    HW236633   4.721   2.889  15.160  3.8433 -1.2592 -0.0732
 8391SOL     OW36634   1.774   3.668   8.687  0.1790  0.4235 -0.1842
 8391SOL    HW136635   1.843   3.639   8.626 -1.0895  0.8734 -1.8199
 8391SOL    HW236636   1.726   3.735   8.638 -2.5654  0.9648  3.2837
 8392SOL     OW36637   2.289   0.910   3.671 -0.3839 -0.3029 -0.0521
 8392SOL    HW136638   2.204   0.880   3.640 -0.5337  0.3774 -0.3120
 8392SOL    HW236639   2.316   0.832   3.719  0.2458 -0.6137 -0.9253
 8393SOL     OW36640   4.587   0.520   6.417 -0.0945 -0.1558  0.3582
 8393SOL    HW136641   4.625   0.580   6.481 -1.5051  1.0596  0.0581
 8393SOL    HW236642   4.517   0.579   6.390  0.6509  0.8373  0.6262
 8394SOL     OW36643   0.211   3.838  17.046  0.5493  0.0407 -0.2842
 8394SOL    HW136644   0.137   3.878  16.999  0.7300  1.3735  0.5516
 8394SOL    HW236645   0.173   3.825  17.133 -0.3362 -0.7464 -0.7848
 8395SOL     OW36646   0.491   4.534  17.574  0.2271  0.0830 -0.4320
 8395SOL    HW136647   0.490   4.453  17.523  1.3307 -0.7237  0.8222
 8395SOL    HW236648   0.504   4.604  17.510 -1.4721 -1.5587 -2.5948
 8396SOL     OW36649   4.441   4.615   4.643  0.0412 -0.0279 -0.0070
 8396SOL    HW136650   4.530   4.601   4.675 -0.0632  0.8334  0.6581
 8396SOL    HW236651   4.456   4.645   4.553 -4.9165  1.7210 -0.2798
 8397SOL     OW36652   0.551   3.838   6.882  0.1841 -0.5740 -0.2192
 8397SOL    HW136653   0.521   3.849   6.973 -2.5040  1.5277 -1.3748
 8397SOL    HW236654   0.618   3.771   6.890  0.4243 -0.6585 -2.9842
 8398SOL     OW36655   4.201   1.030   4.337 -0.9990 -0.0283  0.1779
 8398SOL    HW136656   4.112   1.006   4.364 -0.2136 -1.5178  1.4215
 8398SOL    HW236657   4.215   1.108   4.390 -1.7886  0.3177 -0.1150
 8399SOL     OW36658   3.362   0.431   9.010  0.1091 -0.1275 -0.4351
 8399SOL    HW136659   3.340   0.490   9.082  0.7592  0.5855 -0.8324
 8399SOL    HW236660   3.312   0.486   8.949  0.2076 -0.5904 -0.9368
 8400SOL     OW36661   4.224   1.494   2.064 -0.2900  0.2379  0.1299
 8400SOL    HW136662   4.204   1.587   2.062 -1.1320  0.0505 -0.0551
 8400SOL    HW236663   4.291   1.488   1.996 -1.0485  2.5178 -0.8120
 8401SOL     OW36664   2.627   1.281  12.983  0.2422 -0.6447 -0.0822
 8401SOL    HW136665   2.693   1.345  12.956 -0.1859 -0.3257 -0.3492
 8401SOL    HW236666   2.680   1.241  13.053  0.5401 -0.3994 -0.1701
 8402SOL     OW36667   3.511   3.786   4.373  0.5038 -0.2832  0.1987
 8402SOL    HW136668   3.426   3.831   4.373 -0.0971 -1.4261 -2.0510
 8402SOL    HW236669   3.533   3.802   4.281 -0.5364  0.1381  0.0177
 8403SOL     OW36670   0.994   3.841   8.305  0.3071  0.1232 -0.1515
 8403SOL    HW136671   0.976   3.856   8.398 -0.9694  2.7315 -0.8307
 8403SOL    HW236672   1.060   3.774   8.321  0.6936  0.3075 -0.9572
 8404SOL     OW36673   1.633   1.308  17.652 -0.1813 -0.5298 -0.3054
 8404SOL    HW136674   1.569   1.301   0.024  0.9808  1.0383  0.9325
 8404SOL    HW236675   1.708   1.291   0.012  0.4306 -0.3711 -1.0423
 8405SOL     OW36676   4.231   1.909   4.333 -0.1978  0.0694 -0.2269
 8405SOL    HW136677   4.323   1.888   4.345 -0.6654 -2.2384 -0.6850
 8405SOL    HW236678   4.226   1.974   4.403 -0.7565  0.3819 -0.5592
 8406SOL     OW36679   0.875   4.309   7.274 -0.2248 -0.3724 -0.0944
 8406SOL    HW136680   0.889   4.374   7.205 -0.3065 -1.7097 -1.3657
 8406SOL    HW236681   0.940   4.336   7.338  0.1825 -0.4171 -0.4905
 8407SOL     OW36682   1.106   2.181   5.204  0.2819  0.2829 -0.4003
 8407SOL    HW136683   1.091   2.228   5.122  5.4828  1.0769 -0.8731
 8407SOL    HW236684   1.137   2.096   5.173  0.7970  0.6820 -0.9975
 8408SOL     OW36685   4.201   2.805   8.013 -0.1874  0.2740  0.7025
 8408SOL    HW136686   4.286   2.770   8.038 -0.8931 -2.4124 -0.6852
 8408SOL    HW236687   4.151   2.806   8.095 -1.0037 -1.0928  0.2167
 8409SOL     OW36688   1.383   4.114   6.269  0.3093  0.6521 -0.4775
 8409SOL    HW136689   1.466   4.128   6.225 -0.1297  2.4272 -0.7675
 8409SOL    HW236690   1.340   4.198   6.253  0.2405  0.6212 -0.4555
 8410SOL     OW36691   4.274   3.825   3.687  0.0104 -0.1103 -0.7878
 8410SOL    HW136692   4.183   3.809   3.712  0.1273  0.0805 -0.2457
 8410SOL    HW236693   4.271   3.749   3.629  0.5726 -0.1731 -0.7286
 8411SOL     OW36694   2.576   0.671  10.011  0.2841  0.0247  0.0044
 8411SOL    HW136695   2.556   0.668   9.917  3.2962  0.7483 -0.6357
 8411SOL    HW236696   2.656   0.723  10.004  0.4785 -0.5074 -1.8399
 8412SOL     OW36697   1.661   1.759  10.885 -0.3151  0.3079  0.4334
 8412SOL    HW136698   1.643   1.815  10.810 -0.6002  0.1223  0.3603
 8412SOL    HW236699   1.618   1.677  10.860 -2.5370  1.0618  1.7189
 8413SOL     OW36700   1.970   3.807   5.365  0.3010 -0.4182  0.1543
 8413SOL    HW136701   1.963   3.853   5.281  0.2234  0.6152  0.7243
 8413SOL    HW236702   2.054   3.847   5.386  0.1903 -0.0235 -0.1596
 8414SOL     OW36703   1.786   0.716   6.088  0.0920 -0.4692  0.2513
 8414SOL    HW136704   1.777   0.807   6.116  0.5252 -1.0802  2.3717
 8414SOL    HW236705   1.863   0.684   6.135 -0.0191  1.4670  1.7662
 8415SOL     OW36706   1.548   4.648  15.631 -0.5192 -0.3793  0.1594
 8415SOL    HW136707   1.552   4.679  15.722 -3.8805 -1.4768  0.7013
 8415SOL    HW236708   1.466   4.680  15.593 -0.8980 -0.8397  0.5759
 8416SOL     OW36709   4.071   3.547   7.655  0.7634 -0.3825 -0.2135
 8416SOL    HW136710   4.041   3.479   7.594  1.0125 -1.9628  1.4362
 8416SOL    HW236711   4.145   3.585   7.608  1.6760 -0.8392  0.8612
 8417SOL     OW36712   4.581   1.158   7.915 -0.6029 -0.0763  0.6355
 8417SOL    HW136713   4.493   1.142   7.881  0.6920 -2.1974 -1.7931
 8417SOL    HW236714   4.569   1.234   7.972  2.1697  1.5468 -0.8996
 8418SOL     OW36715   0.543   1.216   8.775  0.2778 -0.4373  0.3533
 8418SOL    HW136716   0.560   1.296   8.726 -0.1997 -0.5285  0.0425
 8418SOL    HW236717   0.495   1.170   8.706 -0.5675 -2.5279  2.3589
 8419SOL     OW36718   2.862   3.385   6.704 -0.5567  0.0646  0.2119
 8419SOL    HW136719   2.802   3.316   6.732  1.4541 -2.6208 -2.0291
 8419SOL    HW236720   2.858   3.374   6.609  0.9708 -1.3836  0.3019
 8420SOL     OW36721   2.520   1.415   2.412  0.3483  0.3546 -0.1626
 8420SOL    HW136722   2.428   1.408   2.436  0.0333  0.3343 -1.3733
 8420SOL    HW236723   2.524   1.505   2.380  0.6386  0.6376  0.6838
 8421SOL     OW36724   2.977   3.690   2.224 -0.5913  0.0857  0.0557
 8421SOL    HW136725   2.982   3.784   2.212  1.8227 -0.0133  0.2214
 8421SOL    HW236726   2.972   3.676   2.129 -1.5288 -1.3350  0.3115
 8422SOL     OW36727   2.085   1.174   5.072  0.4363  0.0598 -0.2680
 8422SOL    HW136728   2.044   1.258   5.050 -0.3376  0.1992  1.7953
 8422SOL    HW236729   2.047   1.119   5.004 -0.1405 -0.8637  0.8151
 8423SOL     OW36730   0.405   3.716   5.890 -0.4100  0.3669  0.1684
 8423SOL    HW136731   0.392   3.809   5.907 -1.7953  0.1034  0.5928
 8423SOL    HW236732   0.379   3.719   5.797  2.3805 -0.9592 -0.6466
 8424SOL     OW36733   3.537   3.920   3.599 -0.2076 -0.4662 -0.5810
 8424SOL    HW136734   3.582   3.870   3.531  0.5273 -0.1990 -0.2924
 8424SOL    HW236735   3.614   3.973   3.623  0.0656 -1.2083  0.1889
 8425SOL     OW36736   4.220   4.397   7.155 -0.1165 -0.0189 -0.3549
 8425SOL    HW136737   4.127   4.417   7.167  0.0524 -1.2294  2.8425
 8425SOL    HW236738   4.215   4.301   7.155  0.5888 -0.0579 -3.3207
 8426SOL     OW36739   3.436   0.360   4.290  0.7662 -0.0665  0.0605
 8426SOL    HW136740   3.439   0.364   4.195 -2.5827  0.5253 -0.0257
 8426SOL    HW236741   3.380   0.285   4.306  1.1110 -0.0662  1.3224
 8427SOL     OW36742   1.911   1.431   1.035 -0.2103 -0.6071 -0.3275
 8427SOL    HW136743   1.927   1.342   1.065 -3.2482 -1.3872 -0.9785
 8427SOL    HW236744   1.983   1.484   1.071 -0.6059 -1.2868  1.4433
 8428SOL     OW36745   4.337   4.620   5.973  0.8186  0.4261  0.0109
 8428SOL    HW136746   4.410   4.562   5.996 -1.4278 -1.6320  1.8112
 8428SOL    HW236747   4.296   4.568   5.903 -1.0975  1.1704  0.5949
 8429SOL     OW36748   3.643   1.903   5.378  0.5069  0.1998 -0.2854
 8429SOL    HW136749   3.564   1.850   5.380 -0.9133  2.3542  0.4110
 8429SOL    HW236750   3.655   1.929   5.469 -0.3605 -1.2515  0.2296
 8430SOL     OW36751   0.956   2.220   4.197  0.0089 -0.3087  0.0104
 8430SOL    HW136752   0.965   2.137   4.150  0.7902 -1.1769  1.6790
 8430SOL    HW236753   1.011   2.272   4.138 -1.2772  0.5901 -0.3887
 8431SOL     OW36754   0.428   2.795   7.478 -0.2390  0.0978 -0.0926
 8431SOL    HW136755   0.371   2.871   7.486  2.6638  2.0092  2.3688
 8431SOL    HW236756   0.379   2.720   7.443 -0.8939  1.4494 -2.0872
 8432SOL     OW36757   0.953   2.759   1.921 -0.4024  0.2921  0.2013
 8432SOL    HW136758   0.988   2.689   1.865  0.9736  0.4151  0.9174
 8432SOL    HW236759   0.889   2.802   1.864 -0.6795 -0.3677  0.0174
 8433SOL     OW36760   2.748   3.494   6.373  0.2596  0.3582  0.0074
 8433SOL    HW136761   2.708   3.506   6.287 -0.7099 -1.9491  0.1397
 8433SOL    HW236762   2.689   3.545   6.428  0.7534  2.0745 -1.0709
 8434SOL     OW36763   0.240   4.672   6.449 -0.2438  0.5314  0.1322
 8434SOL    HW136764   0.144   4.676   6.452 -0.2661 -0.6211  0.9656
 8434SOL    HW236765   0.261   4.702   6.537  1.5150 -2.3797  0.7064
 8435SOL     OW36766   1.324   0.115  17.502  0.4744 -0.1217  0.0999
 8435SOL    HW136767   1.373   0.100  17.421  2.4948 -0.1708  1.3286
 8435SOL    HW236768   1.258   0.175  17.467  1.3691  1.2495  0.7664
 8436SOL     OW36769   3.655   3.763   2.564 -0.5969 -0.5554 -0.1836
 8436SOL    HW136770   3.585   3.726   2.616 -2.0671  1.0187 -1.0450
 8436SOL    HW236771   3.712   3.805   2.629 -1.7288  0.8792 -0.1216
 8437SOL     OW36772   1.105   0.190   3.099 -0.1736 -0.4859 -0.5456
 8437SOL    HW136773   1.167   0.117   3.107 -1.4695 -1.2881  1.9490
 8437SOL    HW236774   1.043   0.172   3.170  1.9385 -3.3611  0.5728
 8438SOL     OW36775   3.561   2.326  16.405 -0.1699  0.7070 -0.2808
 8438SOL    HW136776   3.648   2.303  16.437 -0.4788  1.3943  1.0223
 8438SOL    HW236777   3.583   2.391  16.338 -0.7581  0.4342 -0.7431
 8439SOL     OW36778   1.443   0.428   8.397  1.0364 -0.0955  0.3038
 8439SOL    HW136779   1.383   0.491   8.436  0.8025 -0.8938  1.2389
 8439SOL    HW236780   1.372   0.372   8.366  0.7810  1.7540 -2.4844
 8440SOL     OW36781   0.235   1.613   6.869 -0.2431  0.2108  0.0372
 8440SOL    HW136782   0.252   1.604   6.775  1.1839 -2.0895  0.5168
 8440SOL    HW236783   0.210   1.705   6.879  0.1505  0.5891 -2.5239
 8441SOL     OW36784   0.588   3.180  16.410  0.0177 -0.6049  0.3286
 8441SOL    HW136785   0.539   3.235  16.349 -1.6227  0.0997  2.2877
 8441SOL    HW236786   0.527   3.109  16.432 -1.3974  0.1237 -1.2282
 8442SOL     OW36787   3.643   3.000   7.176 -0.2323  0.1431 -0.7664
 8442SOL    HW136788   3.734   3.009   7.146  1.1303 -1.6264  2.8237
 8442SOL    HW236789   3.598   3.073   7.133 -1.3418 -0.3678 -0.4687
 8443SOL     OW36790   0.182   0.544   8.489  0.6296 -0.3984  0.0202
 8443SOL    HW136791   0.255   0.505   8.537  2.0148 -0.6222 -2.2387
 8443SOL    HW236792   0.145   0.610   8.547  1.9873  0.0011  0.4190
 8444SOL     OW36793   2.113   0.177   6.999  0.0740  0.1344 -0.4422
 8444SOL    HW136794   2.033   0.214   7.037 -1.1827 -2.1197 -0.9250
 8444SOL    HW236795   2.083   0.158   6.910 -3.9782  0.5021  0.8272
 8445SOL     OW36796   1.688   2.600   8.772 -0.0070 -0.3479  0.3144
 8445SOL    HW136797   1.758   2.567   8.828  2.1740  0.4143 -1.9776
 8445SOL    HW236798   1.636   2.640   8.842  0.2636  0.9370 -0.2198
 8446SOL     OW36799   1.516   0.005   5.544  0.3041 -0.8504 -0.0743
 8446SOL    HW136800   1.511   4.713   5.449 -0.2996  1.2358 -0.4014
 8446SOL    HW236801   1.438   0.058   5.561  0.5286 -0.4510 -0.2724
 8447SOL     OW36802   0.270   1.792   8.872  0.9940 -0.1974  0.2927
 8447SOL    HW136803   0.256   1.885   8.852  1.3819  0.0188  1.0266
 8447SOL    HW236804   0.329   1.812   8.945  0.6460 -2.6436  1.2318
 8448SOL     OW36805   4.531   2.290   4.565  0.3930 -0.4947 -0.4609
 8448SOL    HW136806   4.546   2.271   4.472  4.4321  2.3188 -0.3679
 8448SOL    HW236807   4.613   2.259   4.602  1.1154  1.3386 -0.5341
 8449SOL     OW36808   1.495   0.114   5.120  0.4522 -0.5073 -0.1593
 8449SOL    HW136809   1.477   0.183   5.184 -0.7733 -0.7351 -0.2656
 8449SOL    HW236810   1.475   0.158   5.037 -2.2995  0.5164  1.0527
 8450SOL     OW36811   0.437   2.317  10.114  0.5181  0.0273  0.5144
 8450SOL    HW136812   0.487   2.248  10.157 -0.6483 -1.6265 -0.7846
 8450SOL    HW236813   0.374   2.263  10.065 -0.8667  0.7566  1.4828
 8451SOL     OW36814   1.203   2.748   4.533 -0.3361 -1.2952 -0.3390
 8451SOL    HW136815   1.223   2.804   4.607 -0.2630  1.0082 -2.0934
 8451SOL    HW236816   1.194   2.820   4.470 -0.1602 -1.4095 -0.4978
 8452SOL     OW36817   0.564   0.048   2.789  0.5971 -0.4802 -0.0707
 8452SOL    HW136818   0.550   4.678   2.791 -0.3232 -0.3781 -1.4101
 8452SOL    HW236819   0.551   0.088   2.875 -2.5580 -1.3654 -0.1217
 8453SOL     OW36820   3.198   2.515  16.734 -0.4359 -0.4904 -0.3555
 8453SOL    HW136821   3.215   2.478  16.647 -0.1812  0.0915 -0.5503
 8453SOL    HW236822   3.134   2.455  16.772  0.7839 -0.1367  2.2829
 8454SOL     OW36823   2.461   1.585   8.569  0.1399 -0.4603  0.5316
 8454SOL    HW136824   2.432   1.602   8.659  0.8571 -2.4603  1.1381
 8454SOL    HW236825   2.439   1.660   8.514 -0.8937 -1.3723 -0.3099
 8455SOL     OW36826   0.222   4.484   5.630  0.1079  0.4460 -0.4089
 8455SOL    HW136827   0.189   4.399   5.659  1.8048 -0.5110 -1.3310
 8455SOL    HW236828   0.284   4.516   5.696  1.2315  1.5728 -2.0240
 8456SOL     OW36829   0.064   1.571   8.212  0.4768 -0.0004  0.0748
 8456SOL    HW136830   0.123   1.642   8.240  2.4835 -1.3944 -0.6527
 8456SOL    HW236831   4.700   1.607   8.226  0.1332 -0.2496 -1.3997
 8457SOL     OW36832   1.461   0.706   9.831 -0.5492  0.1986  0.5774
 8457SOL    HW136833   1.443   0.768   9.902 -1.5296 -0.3096  0.7663
 8457SOL    HW236834   1.434   0.631   9.883  0.5527 -2.7536 -3.0657
 8458SOL     OW36835   1.781   3.331   9.377 -0.4664 -0.2512  0.3846
 8458SOL    HW136836   1.857   3.291   9.420 -2.2926 -1.0433  2.9004
 8458SOL    HW236837   1.718   3.336   9.449 -0.3560 -0.3039  0.4853
 8459SOL     OW36838   3.506   3.539   7.064  0.2022  0.2215  0.3500
 8459SOL    HW136839   3.544   3.464   7.109  1.1393  0.7899  0.5240
 8459SOL    HW236840   3.455   3.567   7.139  1.2532  0.5975  0.9299
 8460SOL     OW36841   3.492   0.863   9.217 -0.1705 -0.4948 -0.1810
 8460SOL    HW136842   3.508   0.798   9.148  0.6953 -0.7034  0.2167
 8460SOL    HW236843   3.408   0.843   9.260  0.2150 -2.3157 -0.2683
 8461SOL     OW36844   1.313   3.104   9.322  0.5608  0.4737 -0.4001
 8461SOL    HW136845   1.232   3.091   9.370  1.8645 -0.0319  1.6793
 8461SOL    HW236846   1.290   3.100   9.229  0.2234 -0.4095 -0.2795
 8462SOL     OW36847   4.174   2.119   2.136 -0.6558 -0.3636 -0.1000
 8462SOL    HW136848   4.117   2.106   2.060 -0.9754 -2.9414  0.5604
 8462SOL    HW236849   4.248   2.158   2.090  0.6879 -1.1219  1.3913
 8463SOL     OW36850   0.979   2.725   6.390  0.5381  0.0922 -0.4533
 8463SOL    HW136851   0.995   2.677   6.309 -0.2351 -2.5259  0.9576
 8463SOL    HW236852   0.891   2.692   6.409  0.0518  1.5633 -0.1811
 8464SOL     OW36853   1.947   0.695   9.132 -0.5390  0.3511 -0.6403
 8464SOL    HW136854   1.898   0.628   9.084 -0.4519  0.6528 -1.1578
 8464SOL    HW236855   2.031   0.699   9.085 -0.1365 -0.8968 -0.0547
 8465SOL     OW36856   0.790   1.090   7.085 -0.4699  0.2051  0.1437
 8465SOL    HW136857   0.729   1.027   7.047 -0.2832 -1.3370  2.3762
 8465SOL    HW236858   0.842   1.024   7.130 -0.7309 -0.1846 -0.1294
 8466SOL     OW36859   4.404   4.015   0.272  0.3679 -0.3097 -0.0708
 8466SOL    HW136860   4.337   4.052   0.215  1.7189 -0.2326 -1.6201
 8466SOL    HW236861   4.409   4.079   0.343  1.3504 -1.0604  0.5391
 8467SOL     OW36862   0.509   4.721  15.895 -0.6779  0.1607 -0.2422
 8467SOL    HW136863   0.456   4.668  15.955 -0.7453  0.8535  0.3156
 8467SOL    HW236864   0.599   4.715  15.928 -0.4831 -0.7009 -0.9383
 8468SOL     OW36865   3.812   0.941   4.203 -0.4635 -0.0997 -0.4588
 8468SOL    HW136866   3.747   1.002   4.169 -2.0858 -0.0952  2.6651
 8468SOL    HW236867   3.834   0.882   4.131  1.4996 -0.9974  0.8702
 8469SOL     OW36868   4.170   0.592  15.153  0.3588  0.1722 -0.5904
 8469SOL    HW136869   4.200   0.589  15.244  1.1950 -1.2764 -0.9107
 8469SOL    HW236870   4.229   0.526  15.117 -0.0293 -0.4446 -0.1031
 8470SOL     OW36871   0.924   1.872  10.443  0.0172 -0.2662 -0.7738
 8470SOL    HW136872   0.837   1.886  10.407 -0.6063 -0.4405  0.6621
 8470SOL    HW236873   0.920   1.780  10.468 -0.6962 -0.7280 -2.6154
 8471SOL     OW36874   1.791   0.999  12.038 -0.3770 -0.2389 -0.3586
 8471SOL    HW136875   1.879   1.007  12.003 -0.0092  0.6169  0.7770
 8471SOL    HW236876   1.743   0.976  11.959  1.3196  1.4442 -1.8722
 8472SOL     OW36877   3.232   2.646   3.117  0.6839  0.1068  0.2294
 8472SOL    HW136878   3.326   2.630   3.109  0.5841 -0.8216  0.7732
 8472SOL    HW236879   3.216   2.740   3.124 -0.7382 -0.0521 -0.8364
 8473SOL     OW36880   2.906   0.682   4.425  0.0702 -0.0894 -0.0478
 8473SOL    HW136881   2.947   0.768   4.433 -0.9876  0.5436 -1.3725
 8473SOL    HW236882   2.867   0.687   4.337  0.1286 -1.2896 -0.1365
 8474SOL     OW36883   1.013   4.609  10.163  0.5876 -0.4248  0.1313
 8474SOL    HW136884   1.097   4.610  10.208  0.8280 -1.4960 -0.3063
 8474SOL    HW236885   0.983   4.520  10.148 -2.6402  0.4421  1.4614
 8475SOL     OW36886   0.932   4.573  14.128  0.4293  0.4405 -0.0111
 8475SOL    HW136887   0.965   4.617  14.050  0.5181  0.0521 -0.1932
 8475SOL    HW236888   0.915   4.650  14.183  0.2094  2.1517 -2.4627
 8476SOL     OW36889   4.664   1.823   2.233  0.3384  0.0499 -0.6470
 8476SOL    HW136890   4.675   1.802   2.140  0.4555  2.6122 -1.2173
 8476SOL    HW236891   4.576   1.787   2.248  0.5285 -0.0457  0.2273
 8477SOL     OW36892   0.942   4.311   9.781  0.5181  0.7653  0.2350
 8477SOL    HW136893   0.864   4.356   9.748  0.9212  0.4888 -1.1069
 8477SOL    HW236894   1.001   4.383   9.801  0.5053  1.0343 -0.6677
 8478SOL     OW36895   0.858   1.122   8.269 -0.3931 -0.4240  0.0969
 8478SOL    HW136896   0.811   1.202   8.293  0.7976  0.0481  0.8671
 8478SOL    HW236897   0.793   1.061   8.233  0.2717 -0.2921 -1.3109
 8479SOL     OW36898   3.238   1.351   3.434 -0.3194 -0.4414 -0.1189
 8479SOL    HW136899   3.235   1.445   3.453 -0.8089 -0.9855  2.4794
 8479SOL    HW236900   3.156   1.327   3.477  0.5779 -2.6666  0.3423
 8480SOL     OW36901   0.336   1.890   2.703  0.4535  0.1042 -0.8211
 8480SOL    HW136902   0.352   1.967   2.649 -1.1793  1.7182  0.9771
 8480SOL    HW236903   0.307   1.827   2.636 -0.7601 -1.2506  0.9873
 8481SOL     OW36904   3.061   4.221   0.821 -0.0467  0.3468 -0.3985
 8481SOL    HW136905   3.151   4.223   0.790  0.6320  1.6132  1.7120
 8481SOL    HW236906   3.019   4.165   0.755 -1.2064  0.8567 -0.0934
 8482SOL     OW36907   2.693   2.577  16.039 -0.2633  0.0377 -0.0766
 8482SOL    HW136908   2.651   2.606  15.958 -2.6426 -0.8276  0.8573
 8482SOL    HW236909   2.630   2.610  16.103 -0.9488 -0.1206 -0.6661
 8483SOL     OW36910   0.746   3.110   3.491  0.0577  0.0403  0.2764
 8483SOL    HW136911   0.664   3.123   3.443  0.8258  3.5157 -0.1001
 8483SOL    HW236912   0.802   3.096   3.415  2.0873 -0.8818  1.9273
 8484SOL     OW36913   0.921   2.797  13.252 -0.0106  0.1794  0.2607
 8484SOL    HW136914   0.831   2.816  13.280 -0.0836  0.6825 -0.2981
 8484SOL    HW236915   0.927   2.702  13.261 -0.7311  0.4330  3.4243
 8485SOL     OW36916   3.155   1.088   9.431 -0.6225 -0.0195 -0.0271
 8485SOL    HW136917   3.158   0.993   9.427  0.6715  0.0858 -1.7579
 8485SOL    HW236918   3.075   1.103   9.381 -1.3705  1.1010  1.5063
 8486SOL     OW36919   2.726   3.805   4.881  0.7671 -0.1142  0.5796
 8486SOL    HW136920   2.682   3.724   4.905 -0.0212  0.0070 -0.4798
 8486SOL    HW236921   2.737   3.843   4.969  0.4378 -0.2975  0.6976
 8487SOL     OW36922   3.850   0.357   1.492  0.1687  0.4415 -0.3171
 8487SOL    HW136923   3.923   0.349   1.431 -0.6753  1.1386 -1.4121
 8487SOL    HW236924   3.904   0.384   1.567 -1.7151  2.0533  0.4766
 8488SOL     OW36925   1.792   1.764  11.410  0.2315  0.0195 -0.2285
 8488SOL    HW136926   1.880   1.796  11.432  0.7291 -1.9880  0.6734
 8488SOL    HW236927   1.788   1.792  11.319 -3.6187 -0.1678 -0.1275
 8489SOL     OW36928   4.055   2.997  13.500 -0.2955  0.0129  0.0677
 8489SOL    HW136929   4.108   2.961  13.429 -2.4166 -1.8941 -0.5788
 8489SOL    HW236930   4.116   3.059  13.540  1.5104 -0.7228 -1.5479
 8490SOL     OW36931   2.871   1.684   7.882 -0.2646 -0.4384 -0.3277
 8490SOL    HW136932   2.866   1.687   7.977 -0.9185  0.5997 -0.3951
 8490SOL    HW236933   2.786   1.725   7.866  0.0922  0.4264 -0.0452
 8491SOL     OW36934   4.562   3.229  17.021  0.7714  0.0520 -0.2636
 8491SOL    HW136935   4.546   3.138  17.046  2.5578 -0.4813 -1.0529
 8491SOL    HW236936   4.565   3.272  17.107  0.0186  0.5451 -0.4832
 8492SOL     OW36937   1.301   1.273  12.783 -0.6758  0.1291  0.3786
 8492SOL    HW136938   1.271   1.347  12.731 -0.9259 -0.5053 -0.3687
 8492SOL    HW236939   1.370   1.242  12.725 -0.5557 -0.3057  0.7532
 8493SOL     OW36940   2.729   0.464   5.030 -0.4032  0.6663 -0.2874
 8493SOL    HW136941   2.656   0.433   4.977 -1.9636  0.0955  2.1888
 8493SOL    HW236942   2.802   0.415   4.994  0.0100 -0.3525  1.9386
 8494SOL     OW36943   2.728   3.239   7.161 -0.2668 -0.4377  0.0104
 8494SOL    HW136944   2.779   3.196   7.092 -0.9774  0.3686 -1.0064
 8494SOL    HW236945   2.774   3.221   7.243  1.3085 -0.9967 -0.9883
 8495SOL     OW36946   2.218   2.436   0.307  0.3427 -0.5979 -0.5060
 8495SOL    HW136947   2.136   2.486   0.299  1.6753  1.3291 -2.0506
 8495SOL    HW236948   2.285   2.504   0.314 -2.3931  2.2614 -2.1562
 8496SOL     OW36949   3.372   1.097   4.533  0.0096 -0.0733  0.5661
 8496SOL    HW136950   3.328   1.155   4.471  1.3542  0.1448 -0.1721
 8496SOL    HW236951   3.441   1.046   4.490 -0.0369 -0.7826  1.3304
 8497SOL     OW36952   2.041   2.462  13.525 -0.1810  0.3204  0.3586
 8497SOL    HW136953   1.997   2.501  13.449  0.8176  1.5954  0.4391
 8497SOL    HW236954   2.103   2.399  13.488 -1.1983 -0.7876  0.5597
 8498SOL     OW36955   2.927   2.446   2.954 -0.2957 -0.1830  0.7269
 8498SOL    HW136956   2.901   2.505   2.882  0.1811  1.1047  1.6047
 8498SOL    HW236957   2.850   2.389   2.951 -1.3541  1.3454 -1.8202
 8499SOL     OW36958   4.305   4.478   2.531  0.2328  0.4060 -0.2380
 8499SOL    HW136959   4.325   4.566   2.499  0.4545  1.1547  1.8909
 8499SOL    HW236960   4.392   4.438   2.541  0.9933  1.6563 -1.7739
 8500SOL     OW36961   0.304   3.296   7.864  0.4029  0.5930  0.3311
 8500SOL    HW136962   0.295   3.388   7.887  0.7891  0.5972  0.4635
 8500SOL    HW236963   0.237   3.286   7.797  1.9362  0.5328 -1.1772
 8501SOL     OW36964   4.330   3.251   6.373  0.0503 -0.3286 -0.6126
 8501SOL    HW136965   4.377   3.330   6.400 -0.8048 -0.6915  1.9112
 8501SOL    HW236966   4.389   3.217   6.305  1.9841 -0.6489  1.2034
 8502SOL     OW36967   3.907   3.390   4.522  0.0364  0.2756  0.4181
 8502SOL    HW136968   3.959   3.333   4.465  0.3766  0.3968  0.6086
 8502SOL    HW236969   3.979   3.409   4.582 -1.4524  2.1666  1.5927
 8503SOL     OW36970   2.063   3.343   4.026 -0.2622 -0.4666  0.3986
 8503SOL    HW136971   1.978   3.381   4.052  1.5364  1.4952  3.4433
 8503SOL    HW236972   2.105   3.429   4.028 -2.1401  0.4509  1.6410
 8504SOL     OW36973   0.152   2.723   8.711 -0.1991  0.0492  0.2387
 8504SOL    HW136974   0.246   2.740   8.707 -0.6384  2.2394 -1.0274
 8504SOL    HW236975   0.135   2.734   8.804  2.2038 -2.3345  0.9569
 8505SOL     OW36976   2.117   4.048   3.577  0.2603 -0.0377 -0.0757
 8505SOL    HW136977   2.080   4.106   3.511  0.8367 -0.4260 -0.7474
 8505SOL    HW236978   2.091   3.960   3.550  0.8719 -0.2794  0.1160
 8506SOL     OW36979   4.696   4.641   7.862  0.1354 -0.1113 -0.0850
 8506SOL    HW136980   0.036   4.706   7.833  1.0135 -0.6391  0.6792
 8506SOL    HW236981   4.626   4.693   7.900  0.3684  2.2019 -2.8217
 8507SOL     OW36982   4.150   2.240   4.303  0.3468 -0.6134 -0.5598
 8507SOL    HW136983   4.179   2.206   4.388  1.9715 -0.7285 -1.1497
 8507SOL    HW236984   4.104   2.318   4.335  1.4857  0.5181 -1.6304
 8508SOL     OW36985   2.392   0.805   7.701 -0.5863  0.1318 -0.4955
 8508SOL    HW136986   2.379   0.900   7.692 -1.2587  0.0093 -0.7959
 8508SOL    HW236987   2.434   0.795   7.786 -1.8407 -1.4147 -0.0630
 8509SOL     OW36988   2.317   4.294   5.338  0.2054  0.3061  0.3216
 8509SOL    HW136989   2.287   4.308   5.248  0.9688 -1.5018 -0.2115
 8509SOL    HW236990   2.379   4.366   5.349  0.0473  0.9435 -3.0322
 8510SOL     OW36991   0.739   1.553  11.707 -0.0821 -0.2533 -0.1532
 8510SOL    HW136992   0.692   1.473  11.732  0.7002 -0.7753 -0.3272
 8510SOL    HW236993   0.830   1.528  11.692 -0.4979 -0.0423 -3.1677
 8511SOL     OW36994   3.579   2.955   1.599 -0.1243 -0.1677 -0.4978
 8511SOL    HW136995   3.493   2.921   1.623 -0.3899  0.3285 -0.7439
 8511SOL    HW236996   3.591   3.034   1.651  0.4475 -0.2934 -0.4345
 8512SOL     OW36997   3.514   3.228   5.642 -0.1804  0.0681  0.2649
 8512SOL    HW136998   3.498   3.206   5.550  0.6411 -2.3516  0.6980
 8512SOL    HW236999   3.525   3.322   5.632  0.9474  0.1182  1.8646
 8513SOL     OW37000   4.176   4.550   0.832  1.0696  0.3611 -0.5668
 8513SOL    HW137001   4.138   4.600   0.759 -0.4335 -1.2760 -0.9025
 8513SOL    HW237002   4.269   4.551   0.810  1.3401 -2.5678  0.4997
 8514SOL     OW37003   1.060   0.338  11.106 -0.5036  0.2191 -0.5437
 8514SOL    HW137004   0.968   0.314  11.093 -1.0957  1.1555  1.7630
 8514SOL    HW237005   1.060   0.417  11.161 -1.0642 -0.9917  1.1801
 8515SOL     OW37006   2.279   1.586   9.242 -0.0510 -0.7304 -0.0176
 8515SOL    HW137007   2.187   1.576   9.216 -0.0090  2.0469 -1.2126
 8515SOL    HW237008   2.269   1.663   9.299 -1.7142  0.0509 -1.3673
 8516SOL     OW37009   1.691   2.862   9.199 -0.3467  0.0599 -0.2674
 8516SOL    HW137010   1.637   2.942   9.200 -2.4522 -1.4221  3.2973
 8516SOL    HW237011   1.652   2.814   9.271  0.1596 -1.3768 -0.9535
 8517SOL     OW37012   2.614   2.923  11.614 -0.2176 -0.6124 -0.1966
 8517SOL    HW137013   2.667   2.897  11.690  0.2239  0.3894 -0.1660
 8517SOL    HW237014   2.673   2.995  11.593 -0.4273 -0.5101 -0.4357
 8518SOL     OW37015   1.131   2.794   4.037  0.2708 -0.2204  0.0574
 8518SOL    HW137016   1.096   2.715   3.996  4.0995 -0.9089 -1.9357
 8518SOL    HW237017   1.097   2.866   3.985 -0.9849 -0.1013  1.0526
 8519SOL     OW37018   2.595   3.481  17.151  0.1537  0.2965  0.6262
 8519SOL    HW137019   2.517   3.455  17.100  2.0510 -1.2110 -1.5044
 8519SOL    HW237020   2.559   3.514  17.233 -2.5826  0.9371 -0.8118
 8520SOL     OW37021   3.709   2.507   4.678 -0.4368  0.5358  0.2755
 8520SOL    HW137022   3.772   2.550   4.622  0.7206 -2.8273 -1.0371
 8520SOL    HW237023   3.635   2.543   4.628  1.2377  1.3519 -1.6181
 8521SOL     OW37024   4.265   2.664   6.721  0.1588  0.6162  0.1722
 8521SOL    HW137025   4.194   2.606   6.693  0.9741 -0.3830  0.1965
 8521SOL    HW237026   4.276   2.652   6.815 -1.3573  1.0294  0.4055
 8522SOL     OW37027   3.822   3.839   2.382 -0.3828  0.3267  0.2372
 8522SOL    HW137028   3.881   3.764   2.392 -0.2683  0.3255 -0.4499
 8522SOL    HW237029   3.755   3.813   2.446  2.1708  0.3111  2.8928
 8523SOL     OW37030   2.762   3.557  15.376  0.0731  0.1385  0.2663
 8523SOL    HW137031   2.813   3.492  15.327  0.5995  0.9343 -0.2220
 8523SOL    HW237032   2.765   3.537  15.470  1.7768 -0.8346  0.0105
 8524SOL     OW37033   0.553   2.551   5.588 -0.0591  0.5386 -0.3362
 8524SOL    HW137034   0.503   2.514   5.515 -0.2139  1.1936 -0.5671
 8524SOL    HW237035   0.541   2.486   5.657 -1.0293  0.8830 -0.1812
 8525SOL     OW37036   3.316   1.855   0.904 -0.1334  0.1369  0.2133
 8525SOL    HW137037   3.295   1.947   0.916 -0.7272  0.1537 -0.9390
 8525SOL    HW237038   3.251   1.829   0.839  2.4348 -0.9872 -1.9345
 8526SOL     OW37039   3.111   1.699   6.944 -0.4699 -0.5127  0.2156
 8526SOL    HW137040   3.176   1.743   6.889  0.7049 -0.8334  1.3634
 8526SOL    HW237041   3.034   1.743   6.908 -1.4805 -0.2503  2.7044
 8527SOL     OW37042   0.687   2.777  16.797  0.1900  0.1038 -0.1207
 8527SOL    HW137043   0.642   2.855  16.764  0.8273 -0.4523 -2.3162
 8527SOL    HW237044   0.766   2.778  16.744  1.0302 -0.4238  1.1193
 8528SOL     OW37045   1.236   0.424  13.543  0.9372 -0.0754  0.1233
 8528SOL    HW137046   1.210   0.448  13.632  2.1036  1.2428  0.1066
 8528SOL    HW237047   1.317   0.474  13.537 -0.2436  1.9762  1.1324
 8529SOL     OW37048   2.344   3.641   7.926  0.2536 -0.8173 -0.5362
 8529SOL    HW137049   2.414   3.648   7.990  0.7208 -1.1820 -1.0093
 8529SOL    HW237050   2.374   3.698   7.855 -1.5858 -0.0934 -0.7405
 8530SOL     OW37051   3.505   2.227   3.012 -0.2680  0.1964  0.0919
 8530SOL    HW137052   3.508   2.259   2.922  2.9607 -0.4724 -0.0443
 8530SOL    HW237053   3.414   2.196   3.013  0.3588 -1.7512 -3.1226
 8531SOL     OW37054   0.019   3.190   3.479 -0.5608  0.2742 -0.5354
 8531SOL    HW137055   0.017   3.094   3.475 -0.3128  0.2283  0.5896
 8531SOL    HW237056   4.714   3.198   3.569 -0.8855  0.6385 -0.6772
 8532SOL     OW37057   1.629   0.921  16.156  0.4212  0.0151  0.3578
 8532SOL    HW137058   1.684   1.000  16.154  0.1131  0.2388  1.0176
 8532SOL    HW237059   1.649   0.891  16.244 -1.0348 -0.8430  0.4036
 8533SOL     OW37060   1.155   3.108   4.123 -0.1661  0.1977  0.2268
 8533SOL    HW137061   1.108   3.085   4.042  0.4958 -0.3843  0.0112
 8533SOL    HW237062   1.117   3.196   4.132  1.2221  0.9139 -0.9126
 8534SOL     OW37063   2.252   0.415   6.312 -0.0230  0.0153 -0.3829
 8534SOL    HW137064   2.253   0.322   6.337  0.3654  0.0150 -0.4035
 8534SOL    HW237065   2.340   0.443   6.334 -0.5479  0.8202  0.7135
 8535SOL     OW37066   3.346   3.587   4.139 -0.5149  0.0889 -0.0245
 8535SOL    HW137067   3.276   3.644   4.107  0.2897  0.1752 -1.6650
 8535SOL    HW237068   3.419   3.633   4.097  0.7591 -2.0793 -0.1782
 8536SOL     OW37069   4.417   3.023   4.872  0.2510  0.2077  0.3053
 8536SOL    HW137070   4.404   2.929   4.863  1.1352  0.1814 -0.7460
 8536SOL    HW237071   4.438   3.036   4.964  1.0734  0.5995  0.0571
 8537SOL     OW37072   4.513   4.526   8.763  0.3134  0.2384 -0.4445
 8537SOL    HW137073   4.487   4.556   8.850  2.0361  2.1849 -0.5948
 8537SOL    HW237074   4.502   4.431   8.757  1.3302  0.1887 -1.5935
 8538SOL     OW37075   4.220   3.673   2.411  0.5035  0.3720  0.0026
 8538SOL    HW137076   4.253   3.741   2.352 -0.5009  1.0208  0.2051
 8538SOL    HW237077   4.249   3.709   2.495 -0.2454 -0.4338  0.6064
 8539SOL     OW37078   4.692   4.683   6.532 -0.5660  0.3927  0.0333
 8539SOL    HW137079   4.638   4.607   6.553  1.7785 -1.5142 -0.8844
 8539SOL    HW237080   4.662   4.717   6.448 -0.6130 -2.1221 -0.9507
 8540SOL     OW37081   0.624   2.382  10.565  0.0081 -0.1839 -0.3590
 8540SOL    HW137082   0.597   2.331  10.641  0.3918 -0.2899 -0.2954
 8540SOL    HW237083   0.554   2.447  10.551  1.2442  0.4780 -3.4665
 8541SOL     OW37084   3.896   0.222   4.187 -0.1606  0.0939 -0.0785
 8541SOL    HW137085   3.839   0.233   4.111 -0.7287  0.5005  0.4111
 8541SOL    HW237086   3.981   0.223   4.142  0.0375 -1.0292  0.2661
 8542SOL     OW37087   2.383   0.143  16.075  0.4095  0.3431  0.9482
 8542SOL    HW137088   2.339   0.152  16.160 -2.0972 -1.0173 -0.2215
 8542SOL    HW237089   2.473   0.152  16.105  1.6386 -1.8539 -2.0636
 8543SOL     OW37090   4.543   0.650   8.612  0.4294 -0.2052 -0.2826
 8543SOL    HW137091   4.524   0.672   8.521 -1.2374  0.9272  0.3483
 8543SOL    HW237092   4.518   0.731   8.656  0.9818 -0.3449  0.2759
 8544SOL     OW37093   4.169   1.828   3.647 -0.4547 -0.1608 -0.2879
 8544SOL    HW137094   4.223   1.906   3.640  1.0197 -0.9696  1.9394
 8544SOL    HW237095   4.137   1.816   3.558 -3.3924  0.3366  0.6880
 8545SOL     OW37096   3.660   2.979   2.028  0.1101  0.2018 -0.1380
 8545SOL    HW137097   3.680   2.887   2.009  0.3285  0.2586 -0.1700
 8545SOL    HW237098   3.573   3.001   1.994 -0.2961  0.7561  1.2533
 8546SOL     OW37099   3.066   4.304   8.799 -0.1441  0.0896  0.2096
 8546SOL    HW137100   3.134   4.238   8.810  1.2215  1.3412 -0.7920
 8546SOL    HW237101   3.102   4.356   8.728  0.7964 -0.1725  0.4990
 8547SOL     OW37102   0.509   1.857  16.923  0.3445  0.4146  0.0197
 8547SOL    HW137103   0.509   1.949  16.896 -1.7272  0.5169  0.4156
 8547SOL    HW237104   0.580   1.823  16.867  0.8716  2.2762 -0.4571
 8548SOL     OW37105   2.150   0.948   4.758 -0.1199 -0.2314 -0.1874
 8548SOL    HW137106   2.079   1.008   4.781  0.7179  0.8012 -0.3036
 8548SOL    HW237107   2.235   0.977   4.790 -0.6042  1.0290 -0.0413
 8549SOL     OW37108   0.865   1.605  10.495  0.2268  0.0208 -0.1885
 8549SOL    HW137109   0.810   1.599  10.418 -0.7402  0.9339  0.4299
 8549SOL    HW237110   0.899   1.516  10.497 -1.4194 -0.5501  2.6812
 8550SOL     OW37111   2.675   2.450   4.713  0.3540  0.0580  0.0720
 8550SOL    HW137112   2.626   2.532   4.717  0.3850  0.0567  0.4555
 8550SOL    HW237113   2.637   2.413   4.793  0.6023 -0.1900  0.0739
 8551SOL     OW37114   0.700   1.066   3.994  0.3603 -0.4361  0.1257
 8551SOL    HW137115   0.656   1.028   3.917  0.0521  0.4815 -0.1466
 8551SOL    HW237116   0.632   1.124   4.025  0.6917  0.9648 -1.7704
 8552SOL     OW37117   2.078   4.400   7.801  0.0352  0.1187 -0.0256
 8552SOL    HW137118   2.058   4.314   7.837 -0.8717  0.9911  1.5220
 8552SOL    HW237119   2.168   4.422   7.822 -0.5973  2.6069  0.0868
 8553SOL     OW37120   0.599   2.989  10.442  0.2841  0.4010  0.0520
 8553SOL    HW137121   0.650   2.950  10.514 -2.8122 -0.1806  1.9045
 8553SOL    HW237122   0.640   3.075  10.447  2.5340 -0.7587  1.7012
 8554SOL     OW37123   2.031   2.652  11.087  0.5011  0.5599 -0.3392
 8554SOL    HW137124   1.996   2.574  11.043  2.0456 -0.9043  1.0324
 8554SOL    HW237125   1.989   2.727  11.046  0.4480 -0.1720 -1.6392
 8555SOL     OW37126   4.312   0.779   4.310  0.0143 -0.1427  0.5050
 8555SOL    HW137127   4.279   0.865   4.336  0.8394 -0.1274  1.4859
 8555SOL    HW237128   4.233   0.738   4.346 -1.1357  1.5898 -0.0716
 8556SOL     OW37129   2.470   1.340   6.637 -0.1871 -0.8897  0.0383
 8556SOL    HW137130   2.554   1.380   6.614 -0.1554 -1.2083 -0.3959
 8556SOL    HW237131   2.435   1.400   6.704 -0.7242 -2.0252  0.7737
 8557SOL     OW37132   4.126   3.302   4.368  0.2804  0.1996 -0.8339
 8557SOL    HW137133   4.071   3.242   4.317 -0.6288  0.4560 -0.1528
 8557SOL    HW237134   4.216   3.289   4.337  1.0677 -0.0016  1.5555
 8558SOL     OW37135   0.020   2.052   6.932 -0.1172  0.7746 -0.6728
 8558SOL    HW137136   0.073   1.990   6.881  0.3203 -1.3944  2.4296
 8558SOL    HW237137   0.021   2.008   7.017  0.1274  1.3329 -0.3795
 8559SOL     OW37138   4.127   2.448   8.194  0.6379 -0.3853  0.6874
 8559SOL    HW137139   4.115   2.355   8.173  2.3214 -0.1812 -1.1757
 8559SOL    HW237140   4.177   2.441   8.275  1.2426  0.7014  0.4032
 8560SOL     OW37141   1.773   1.710   5.917 -0.0549  0.9291 -0.2845
 8560SOL    HW137142   1.746   1.668   5.835  2.9244 -2.2853  0.3402
 8560SOL    HW237143   1.702   1.770   5.936 -1.0101  0.0273 -0.9921
 8561SOL     OW37144   2.863   2.538   3.973  0.5087 -0.2846 -0.4251
 8561SOL    HW137145   2.780   2.581   3.995 -0.2971 -1.5785 -0.9740
 8561SOL    HW237146   2.840   2.539   3.880 -0.4367  0.6083 -0.1847
 8562SOL     OW37147   0.811   2.468  13.375 -0.0612  0.1189  0.0789
 8562SOL    HW137148   0.803   2.383  13.417 -3.2166  0.7241  0.6691
 8562SOL    HW237149   0.904   2.488  13.387  0.1587 -0.6662 -0.3027
 8563SOL     OW37150   1.556   4.172   3.046 -0.1833  0.1983  0.4513
 8563SOL    HW137151   1.578   4.157   2.954  0.6999 -1.0173  0.8625
 8563SOL    HW237152   1.629   4.127   3.089 -0.9169  0.4126  1.9020
 8564SOL     OW37153   3.794   2.216   1.128  0.8032  0.3454  0.1423
 8564SOL    HW137154   3.793   2.306   1.162 -1.2232  0.6074 -0.6565
 8564SOL    HW237155   3.769   2.161   1.202 -0.2677 -2.0471 -1.9966
 8565SOL     OW37156   0.948   2.643   0.159  0.8005  0.3230 -0.0391
 8565SOL    HW137157   1.036   2.614   0.183  0.3032 -0.0628  1.3140
 8565SOL    HW237158   0.929   2.725   0.204 -0.7485 -1.3058  2.2984
 8566SOL     OW37159   4.628   2.350   0.828 -0.4939  0.0644 -0.2598
 8566SOL    HW137160   4.680   2.418   0.871  1.0936 -0.5736 -1.1705
 8566SOL    HW237161   4.668   2.284   0.885 -3.4048  0.0512  1.7905
 8567SOL     OW37162   1.679   2.092   9.217 -1.5088  0.3918 -0.4122
 8567SOL    HW137163   1.724   2.017   9.177  0.6989  0.9515  1.0030
 8567SOL    HW237164   1.705   2.165   9.161 -2.6666  2.3493  1.6462
 8568SOL     OW37165   4.343   1.227   6.891 -0.9339 -0.0572  0.4893
 8568SOL    HW137166   4.268   1.230   6.949 -1.3500  0.8247 -0.0942
 8568SOL    HW237167   4.377   1.317   6.892 -2.4529  0.5086  0.9329
 8569SOL     OW37168   0.771   0.454  11.052 -0.2171 -0.2314 -0.0035
 8569SOL    HW137169   0.693   0.423  11.099 -0.3949  2.6434  1.5216
 8569SOL    HW237170   0.729   0.458  10.966  0.8427 -1.3979 -0.5795
 8570SOL     OW37171   2.406   4.104  14.175 -0.6073  0.2520 -0.0436
 8570SOL    HW137172   2.435   4.092  14.266  2.1149  0.7287 -0.8498
 8570SOL    HW237173   2.367   4.018  14.164  1.6999 -1.0170  1.7118
 8571SOL     OW37174   1.783   1.137   3.334 -0.1350 -0.0388 -0.1765
 8571SOL    HW137175   1.689   1.121   3.332 -0.4279  1.6911 -0.3689
 8571SOL    HW237176   1.785   1.202   3.264 -1.8024 -0.9297 -1.0376
 8572SOL     OW37177   2.911   4.634   8.255  0.0704  0.3129 -0.3896
 8572SOL    HW137178   2.998   4.638   8.295 -0.1527 -1.6002  0.2869
 8572SOL    HW237179   2.923   4.709   8.197  1.0443 -0.9922 -1.8558
 8573SOL     OW37180   0.378   2.687   9.020  0.1740 -0.0016 -0.0087
 8573SOL    HW137181   0.455   2.649   8.979 -0.4227 -0.9178 -0.2725
 8573SOL    HW237182   0.308   2.622   9.015 -0.0086  0.2942 -1.1304
 8574SOL     OW37183   1.917   3.167   9.109 -0.6764 -0.2706 -0.2168
 8574SOL    HW137184   1.965   3.239   9.067 -0.3127  0.0377  0.7093
 8574SOL    HW237185   1.965   3.149   9.190 -1.6627 -0.7548  0.2663
 8575SOL     OW37186   3.522   3.342   2.776 -0.2552 -0.5767 -0.2841
 8575SOL    HW137187   3.601   3.290   2.791 -1.1446 -2.3821 -1.7788
 8575SOL    HW237188   3.453   3.289   2.816  0.4379  0.4441  2.2758
 8576SOL     OW37189   2.492   1.651   7.059 -0.2757 -0.0711  0.1310
 8576SOL    HW137190   2.564   1.637   7.120  0.0353 -0.7509 -0.3907
 8576SOL    HW237191   2.534   1.689   6.983  1.6280  0.1485  1.3006
 8577SOL     OW37192   4.632   3.470  16.269 -0.4189  0.4269  0.3780
 8577SOL    HW137193   4.679   3.543  16.228 -1.2301  0.2874 -0.7934
 8577SOL    HW237194   4.579   3.510  16.338  2.7151 -0.1127  3.1027
 8578SOL     OW37195   4.015   0.710   7.250 -0.0904 -0.5366  0.0651
 8578SOL    HW137196   4.006   0.805   7.247 -0.0282 -0.5093  1.0225
 8578SOL    HW237197   4.066   0.695   7.170 -0.9800  0.2157 -0.6536
 8579SOL     OW37198   3.507   2.895  10.359  0.1602 -0.8049 -0.3618
 8579SOL    HW137199   3.559   2.834  10.411  0.3897  0.1406  0.5091
 8579SOL    HW237200   3.568   2.922  10.290 -0.1117 -0.5113 -0.4885
 8580SOL     OW37201   2.912   1.726  11.500 -0.4176  0.0090  0.3069
 8580SOL    HW137202   2.852   1.673  11.448 -0.1081  0.7735 -0.8171
 8580SOL    HW237203   2.960   1.658  11.548 -0.9330 -0.9314 -0.4885
 8581SOL     OW37204   0.116   2.997   8.230 -0.0297 -0.4608 -0.0978
 8581SOL    HW137205   0.070   2.920   8.196 -0.1779 -0.6204  0.4596
 8581SOL    HW237206   0.052   3.006   8.301 -0.9323  0.0181 -0.9558
 8582SOL     OW37207   1.927   3.777   2.871 -0.0536 -0.3380 -0.1352
 8582SOL    HW137208   1.865   3.722   2.822  0.7800 -1.9030  0.5614
 8582SOL    HW237209   2.013   3.745   2.842  1.4379  1.6280  2.2101
 8583SOL     OW37210   3.844   0.581   3.632  0.1158 -0.2775  0.4697
 8583SOL    HW137211   3.899   0.556   3.558  0.8213 -0.5556  1.0872
 8583SOL    HW237212   3.844   0.675   3.618  0.2239 -0.1557  1.2792
 8584SOL     OW37213   3.324   0.242   2.302  0.4860 -0.3982  0.2132
 8584SOL    HW137214   3.419   0.234   2.295  0.3724 -1.6388  0.0856
 8584SOL    HW237215   3.318   0.291   2.219  1.2116  1.2316  1.1358
 8585SOL     OW37216   0.638   3.131   7.523  0.6127 -0.3505 -0.0768
 8585SOL    HW137217   0.681   3.070   7.582  2.5111  1.2113  0.1387
 8585SOL    HW237218   0.698   3.126   7.449  0.3238  1.2232 -0.4306
 8586SOL     OW37219   3.866   3.398   8.772 -0.3984  0.3511 -0.1819
 8586SOL    HW137220   3.931   3.395   8.702  0.5739  0.7584  0.6906
 8586SOL    HW237221   3.869   3.490   8.796 -0.5542 -0.2562  2.2247
 8587SOL     OW37222   1.817   2.364  10.774  0.1360 -0.0624  0.5795
 8587SOL    HW137223   1.822   2.453  10.809  0.3916  0.4892 -0.8872
 8587SOL    HW237224   1.901   2.350  10.732 -0.1890  0.4809 -0.2455
 8588SOL     OW37225   0.619   2.581   8.948  0.2550  0.8323  0.9026
 8588SOL    HW137226   0.701   2.616   8.982  0.2570  2.1210 -0.4008
 8588SOL    HW237227   0.649   2.571   8.857 -3.3560 -0.7881 -0.1031
 8589SOL     OW37228   3.510   4.061   7.296 -0.0962  0.2555 -0.2935
 8589SOL    HW137229   3.497   4.102   7.382 -0.4546  0.5524 -0.4929
 8589SOL    HW237230   3.477   4.137   7.249  1.2188 -1.3772 -3.8011
 8590SOL     OW37231   2.077   2.644   5.874  0.3539  0.3774  0.0013
 8590SOL    HW137232   2.042   2.611   5.791  1.3809 -0.5607 -0.0626
 8590SOL    HW237233   2.000   2.683   5.915 -1.1637  0.0956 -2.5490
 8591SOL     OW37234   3.932   1.982  11.750  0.3516 -0.1668  0.4313
 8591SOL    HW137235   3.876   1.976  11.673  0.3253  1.0093  0.3676
 8591SOL    HW237236   3.976   2.063  11.723 -0.9856  0.4632  0.1691
 8592SOL     OW37237   3.413   3.871   5.565 -0.4132 -0.3624 -0.0609
 8592SOL    HW137238   3.484   3.823   5.523 -0.0065  0.2569 -0.0705
 8592SOL    HW237239   3.444   3.878   5.655 -1.7753 -0.7796  0.4481
 8593SOL     OW37240   3.017   1.215   6.845  0.5163 -0.2508 -0.4008
 8593SOL    HW137241   3.034   1.129   6.809  2.8356 -0.0775  0.3157
 8593SOL    HW237242   2.997   1.190   6.935 -0.3620 -0.6854 -0.7151
 8594SOL     OW37243   4.398   2.034   9.332  0.2625 -0.2905 -0.2125
 8594SOL    HW137244   4.487   2.071   9.329  0.2131 -0.3135 -1.6996
 8594SOL    HW237245   4.347   2.107   9.367 -0.4375 -1.3628  1.0027
 8595SOL     OW37246   2.741   1.286   5.761  0.0126  0.0683  0.2960
 8595SOL    HW137247   2.711   1.221   5.697 -1.0996  0.0630  0.8167
 8595SOL    HW237248   2.798   1.229   5.813 -1.1018 -1.4056 -0.0945
 8596SOL     OW37249   1.989   3.985  17.055 -0.1987  0.9772 -0.0487
 8596SOL    HW137250   2.065   4.002  17.000  0.7354 -1.5174  0.4626
 8596SOL    HW237251   1.980   4.060  17.113 -1.0982  0.2283  0.7843
 8597SOL     OW37252   0.203   3.260   9.890  0.3673 -0.4500  0.0345
 8597SOL    HW137253   0.228   3.215   9.810 -0.6789  2.2376 -1.8273
 8597SOL    HW237254   0.261   3.336   9.896 -1.0801  0.6608  0.2471
 8598SOL     OW37255   0.030   4.202   8.477 -0.0374 -0.2850  0.0371
 8598SOL    HW137256   4.704   4.177   8.554  0.5042  0.6532  0.6852
 8598SOL    HW237257   0.095   4.132   8.475 -1.0413 -1.2306 -0.3368
 8599SOL     OW37258   2.895   2.541   5.113  0.1246 -0.1645  0.7309
 8599SOL    HW137259   2.911   2.630   5.081 -0.9976  0.6268  2.3710
 8599SOL    HW237260   2.959   2.491   5.064 -1.4870 -0.8775 -0.6561
 8600SOL     OW37261   1.394   2.141  17.575  0.7461  0.4259 -0.4586
 8600SOL    HW137262   1.469   2.167  17.522  0.6134  1.6045 -0.0744
 8600SOL    HW237263   1.445   2.125  17.655 -1.1758  0.6471  0.8267
 8601SOL     OW37264   4.212   4.451   6.887 -0.5304  0.5658 -0.4271
 8601SOL    HW137265   4.131   4.502   6.884 -0.5223  0.6896  1.3320
 8601SOL    HW237266   4.227   4.448   6.981 -1.2298 -0.7373 -0.3554
 8602SOL     OW37267   3.175   0.002   6.237 -0.9469  0.1409 -0.4414
 8602SOL    HW137268   3.132   4.650   6.197  0.1709 -1.3977  1.2649
 8602SOL    HW237269   3.196   4.698   6.327  2.9002 -0.2133 -1.4165
 8603SOL     OW37270   2.290   3.140   6.891 -0.4181  0.0030  0.1624
 8603SOL    HW137271   2.370   3.106   6.929 -0.8635  0.0763  1.1787
 8603SOL    HW237272   2.236   3.139   6.970  0.4683  1.2988  0.7862
 8604SOL     OW37273   2.810   4.164   3.983 -0.1581  0.0190  0.2214
 8604SOL    HW137274   2.753   4.189   4.056  0.7303 -3.9713  2.3161
 8604SOL    HW237275   2.832   4.248   3.943  1.3803 -1.3936 -1.9159
 8605SOL     OW37276   2.545   0.260   7.110  0.0351 -0.2019 -0.2233
 8605SOL    HW137277   2.622   0.241   7.056 -0.3926  0.9842 -1.2302
 8605SOL    HW237278   2.578   0.308   7.187  0.0734 -1.9298  0.8532
 8606SOL     OW37279   3.382   1.070   4.820 -0.0418 -0.5842 -0.5408
 8606SOL    HW137280   3.409   1.093   4.731 -1.6869  0.4033 -0.7845
 8606SOL    HW237281   3.292   1.103   4.823 -0.1996 -0.9186 -1.3872
 8607SOL     OW37282   2.617   2.474   6.318  0.2417 -0.7406 -0.0013
 8607SOL    HW137283   2.581   2.513   6.398  0.8478 -0.0445 -0.0626
 8607SOL    HW237284   2.552   2.508   6.257 -0.2379 -1.3074  0.1911
 8608SOL     OW37285   4.467   1.418   0.501  0.0404 -0.1182  0.3130
 8608SOL    HW137286   4.520   1.390   0.576  1.6911  0.9307 -0.4662
 8608SOL    HW237287   4.513   1.500   0.482  0.8937 -0.3331  1.4682
 8609SOL     OW37288   0.182   1.746  14.666  0.3856  0.0115 -0.1375
 8609SOL    HW137289   0.241   1.819  14.647  0.5753  0.2004  1.1818
 8609SOL    HW237290   0.193   1.674  14.604  0.9931 -2.2604  2.6126
 8610SOL     OW37291   2.555   0.874  15.443  0.2823 -0.6534 -0.0028
 8610SOL    HW137292   2.599   0.916  15.517 -2.0730 -0.9549  1.5663
 8610SOL    HW237293   2.499   0.942  15.405 -1.6976 -0.4802  3.2419
 8611SOL     OW37294   1.414   3.599   2.457 -0.1147  0.2168  0.3049
 8611SOL    HW137295   1.486   3.627   2.514 -1.1315 -0.2649  1.8349
 8611SOL    HW237296   1.365   3.541   2.515 -0.8717  0.6346  0.0738
 8612SOL     OW37297   3.085   3.678  14.631  0.2668  0.2621  0.2002
 8612SOL    HW137298   3.172   3.656  14.597 -1.1715 -0.7170 -2.8769
 8612SOL    HW237299   3.106   3.772  14.625  0.3667  0.1923 -0.5853
 8613SOL     OW37300   1.177   4.529   6.730 -0.5840  0.5155 -0.4257
 8613SOL    HW137301   1.180   4.455   6.670  0.7315  1.6434 -1.7833
 8613SOL    HW237302   1.224   4.496   6.807 -1.4465 -1.5610 -0.7931
 8614SOL     OW37303   3.908   2.251   2.753  0.6224 -0.1723 -0.1176
 8614SOL    HW137304   3.875   2.270   2.665  2.6329 -1.4089 -1.1332
 8614SOL    HW237305   3.931   2.159   2.744  0.4388 -0.3573  1.4608
 8615SOL     OW37306   1.206   0.563   5.939  0.3546  0.1500 -0.2722
 8615SOL    HW137307   1.139   0.629   5.924 -1.3322 -1.5309 -0.0442
 8615SOL    HW237308   1.164   0.516   6.011  2.4628 -1.3400  0.0057
 8616SOL     OW37309   1.384   0.996   9.061 -0.0066 -0.0229  0.3323
 8616SOL    HW137310   1.435   0.923   9.097  1.9268  0.4187 -1.4763
 8616SOL    HW237311   1.311   0.942   9.030 -1.2559  1.6284  0.4242
 8617SOL     OW37312   2.810   4.292   3.341 -0.3885 -0.3340 -0.2385
 8617SOL    HW137313   2.891   4.256   3.305  0.4468  1.1479  0.1729
 8617SOL    HW237314   2.848   4.370   3.381 -1.9467  1.4312 -2.1755
 8618SOL     OW37315   3.875   4.067  11.400  0.5066  0.4431  0.2015
 8618SOL    HW137316   3.885   4.008  11.325  2.3814 -1.0464  1.6037
 8618SOL    HW237317   3.957   4.115  11.388  0.4572  0.6033  0.5066
 8619SOL     OW37318   2.288   1.459   3.360 -0.4223 -0.4112  0.2184
 8619SOL    HW137319   2.212   1.515   3.374 -0.9570 -0.7508 -1.3158
 8619SOL    HW237320   2.357   1.525   3.367 -0.1121 -0.9479  2.1583
 8620SOL     OW37321   0.362   0.065   3.352 -0.7247 -0.0709 -0.0441
 8620SOL    HW137322   0.327   0.132   3.293  2.3265 -0.8280 -2.7193
 8620SOL    HW237323   0.319   4.709   3.323  1.9224 -0.6528 -2.4208
 8621SOL     OW37324   2.861   3.835   7.778  0.4496  0.5393 -0.0916
 8621SOL    HW137325   2.898   3.746   7.779  1.2729  0.8529 -3.0164
 8621SOL    HW237326   2.926   3.866   7.715 -0.7654  0.6122 -1.2880
 8622SOL     OW37327   1.650   2.621   1.652  0.2329 -0.0908 -0.1555
 8622SOL    HW137328   1.658   2.614   1.747 -0.7574 -0.6879 -0.1134
 8622SOL    HW237329   1.569   2.573   1.636  0.1346  0.5096 -1.4979
 8623SOL     OW37330   2.205   4.481  16.592  0.5557  0.2326 -0.2395
 8623SOL    HW137331   2.240   4.551  16.646 -0.3254 -0.8068  1.6745
 8623SOL    HW237332   2.232   4.411  16.652 -1.0079 -0.2771 -0.1177
 8624SOL     OW37333   1.720   4.284   7.887 -0.0897 -0.2370  0.9813
 8624SOL    HW137334   1.727   4.379   7.895  1.1387 -0.2964  0.6086
 8624SOL    HW237335   1.771   4.254   7.962 -2.0401 -0.3381  2.2583
 8625SOL     OW37336   4.107   0.813  10.556 -0.8510  0.0640  0.0226
 8625SOL    HW137337   4.150   0.755  10.493  0.7520  1.4669 -0.1814
 8625SOL    HW237338   4.057   0.742  10.597 -0.8719 -0.8976 -1.6427
 8626SOL     OW37339   1.502   1.881   5.054  0.1172  0.0968  0.3051
 8626SOL    HW137340   1.442   1.812   5.083 -1.0168  0.0665 -2.1083
 8626SOL    HW237341   1.457   1.942   4.996 -0.0425  0.9532  1.3481
 8627SOL     OW37342   2.817   4.555  10.790  0.1647 -0.0902  0.0923
 8627SOL    HW137343   2.751   4.623  10.802  0.5528  0.0782  1.3263
 8627SOL    HW237344   2.767   4.499  10.731  1.9554  0.4161 -1.8847
 8628SOL     OW37345   0.334   3.810   8.351  0.3235 -0.6668 -0.1209
 8628SOL    HW137346   0.371   3.742   8.406 -1.7168 -1.3052  0.4783
 8628SOL    HW237347   0.266   3.762   8.305  0.8789  0.1230 -1.7562
 8629SOL     OW37348   2.195   3.684  12.563  0.3062 -0.7054 -0.4311
 8629SOL    HW137349   2.126   3.663  12.626  0.5960 -0.8462 -0.1608
 8629SOL    HW237350   2.157   3.668  12.477 -0.0152  2.1206 -0.8075
 8630SOL     OW37351   2.510   2.782   7.170 -0.3744  0.0736 -0.0538
 8630SOL    HW137352   2.435   2.829   7.205  0.2471  0.5837  0.6082
 8630SOL    HW237353   2.553   2.754   7.251  1.9622 -0.9017 -1.6483
 8631SOL     OW37354   1.597   2.208  12.381 -0.0745  0.7485 -0.5216
 8631SOL    HW137355   1.657   2.282  12.368  0.6251  0.8914  3.4656
 8631SOL    HW237356   1.528   2.243  12.438  1.6613  1.3730  1.2024
 8632SOL     OW37357   0.040   1.045   0.590 -0.0489  0.0081  0.1900
 8632SOL    HW137358   0.071   1.078   0.505 -1.2305 -0.1914 -0.3232
 8632SOL    HW237359   4.679   1.090   0.589  0.2733  0.6217  0.2634
 8633SOL     OW37360   1.330   1.829   7.273  0.4198  0.3039 -0.1602
 8633SOL    HW137361   1.323   1.795   7.184 -0.5553  0.4222 -0.1304
 8633SOL    HW237362   1.349   1.922   7.260 -1.7346  1.1144  2.2960
 8634SOL     OW37363   2.672   3.605   3.768 -0.2187 -0.0282  0.1958
 8634SOL    HW137364   2.608   3.588   3.698 -0.0058 -1.7073  0.4007
 8634SOL    HW237365   2.716   3.520   3.763  1.4740  0.9797 -1.9827
 8635SOL     OW37366   0.487   2.317   4.889 -0.1153  0.5821 -0.3059
 8635SOL    HW137367   0.533   2.369   4.954 -1.7849  1.0808  0.4756
 8635SOL    HW237368   0.399   2.354   4.886 -0.0040  0.7821 -1.2623
 8636SOL     OW37369   2.317   2.708   5.270 -0.7407  0.4747 -0.0177
 8636SOL    HW137370   2.261   2.708   5.193 -1.0321 -1.0245  0.2010
 8636SOL    HW237371   2.312   2.616   5.293 -0.9049  0.4869 -0.0063
 8637SOL     OW37372   2.440   0.456  10.178  0.2806  0.1875  0.2063
 8637SOL    HW137373   2.499   0.447  10.104  0.1980 -2.6211  0.4809
 8637SOL    HW237374   2.421   0.550  10.179 -2.3241 -0.3432  0.0454
 8638SOL     OW37375   2.299   4.291  16.755 -0.3080  0.1270  0.2065
 8638SOL    HW137376   2.306   4.304  16.850 -2.9376  1.7139  0.1881
 8638SOL    HW237377   2.383   4.247  16.745 -0.6404 -0.9806  2.1761
 8639SOL     OW37378   3.650   1.543   7.255  0.0119  0.2362 -0.1211
 8639SOL    HW137379   3.635   1.497   7.338 -0.2721  0.3609 -0.1044
 8639SOL    HW237380   3.692   1.624   7.282  0.0096  0.2885 -0.2739
 8640SOL     OW37381   3.316   1.188  14.888 -0.0249  0.0411  0.4471
 8640SOL    HW137382   3.320   1.243  14.810  2.2799  0.0549  0.5791
 8640SOL    HW237383   3.386   1.126  14.869  2.1415  2.2350  1.2964
 8641SOL     OW37384   3.726   0.285   5.586 -0.5438  0.2199 -0.2277
 8641SOL    HW137385   3.735   0.196   5.550 -0.1109 -0.0926  0.6530
 8641SOL    HW237386   3.694   0.267   5.675 -3.0622  1.5171 -0.8691
 8642SOL     OW37387   3.630   0.586  13.839  0.3634  0.5683 -0.4097
 8642SOL    HW137388   3.672   0.608  13.755 -0.1454 -3.6827 -1.8065
 8642SOL    HW237389   3.621   0.676  13.869  1.0727  0.3746  0.3826
 8643SOL     OW37390   3.069   1.014   5.816 -0.1681 -0.2535  0.1711
 8643SOL    HW137391   3.028   0.978   5.894 -2.1614  0.9853 -0.3118
 8643SOL    HW237392   3.019   0.978   5.742  2.2144 -0.5650 -1.2772
 8644SOL     OW37393   0.115   1.837   1.184  0.2137 -0.0716 -0.3496
 8644SOL    HW137394   0.047   1.777   1.155 -2.8677  2.7943  0.8836
 8644SOL    HW237395   0.062   1.916   1.187  0.0995 -0.2820  2.9621
 8645SOL     OW37396   3.287   2.911   4.743 -0.3876 -0.6858  0.0126
 8645SOL    HW137397   3.221   2.944   4.681 -0.9383 -0.8447  0.5109
 8645SOL    HW237398   3.242   2.920   4.827  0.8476 -1.4396  0.7469
 8646SOL     OW37399   2.451   0.141   5.184 -0.0439  0.2386  0.2268
 8646SOL    HW137400   2.546   0.134   5.175 -0.2979 -2.1666 -0.6956
 8646SOL    HW237401   2.445   0.220   5.238 -0.8833  0.0033  0.4727
 8647SOL     OW37402   4.260   0.515   9.173  0.0737  0.1313 -0.1126
 8647SOL    HW137403   4.252   0.526   9.078  2.0605 -0.2620 -0.3206
 8647SOL    HW237404   4.348   0.544   9.195 -0.3102 -0.2920  1.9205
 8648SOL     OW37405   4.502   2.596   6.921 -0.2923  0.4650  0.2831
 8648SOL    HW137406   4.530   2.555   7.003  0.3524 -1.1323 -0.7428
 8648SOL    HW237407   4.438   2.655   6.960 -0.0008 -1.2109  3.2898
 8649SOL     OW37408   2.439   0.610   6.111  0.1497 -0.5033 -0.5139
 8649SOL    HW137409   2.442   0.688   6.167  0.0796  0.3902 -1.7749
 8649SOL    HW237410   2.379   0.639   6.043 -1.8871 -1.1548  1.0208
 8650SOL     OW37411   3.860   3.642   7.371  0.7879  0.3657  0.0434
 8650SOL    HW137412   3.937   3.662   7.318  0.8400  5.8649  2.2585
 8650SOL    HW237413   3.795   3.710   7.355 -0.7874 -1.5362 -1.6470
 8651SOL     OW37414   2.886   2.629   3.152 -0.1791 -0.5121 -0.2632
 8651SOL    HW137415   2.977   2.618   3.180 -0.8226 -0.5907  1.8178
 8651SOL    HW237416   2.877   2.555   3.091 -2.4831 -1.4322  1.1929
 8652SOL     OW37417   3.143   3.050   3.542 -0.4189  0.2639  0.5515
 8652SOL    HW137418   3.160   3.087   3.629 -0.3868  1.4429  0.0380
 8652SOL    HW237419   3.185   2.964   3.546  0.7290  0.8514  0.9938
 8653SOL     OW37420   0.267   2.442  16.480 -0.2629 -0.2417  0.1020
 8653SOL    HW137421   0.233   2.486  16.558  1.0322  0.1299  0.4672
 8653SOL    HW237422   0.186   2.434  16.430  0.9755 -1.6912 -1.6548
 8654SOL     OW37423   3.946   1.695  16.814  0.4833 -0.0507 -0.5027
 8654SOL    HW137424   3.874   1.742  16.771  1.3666  0.5152 -1.3657
 8654SOL    HW237425   3.951   1.734  16.902 -0.5356 -0.3076 -0.3331
 8655SOL     OW37426   1.907   3.265   7.036 -0.0044 -0.4241  0.2544
 8655SOL    HW137427   1.905   3.297   6.946 -0.3120 -0.6049  0.1966
 8655SOL    HW237428   1.840   3.199   7.020 -0.4180  0.1442 -0.3017
 8656SOL     OW37429   1.958   4.561   9.560  0.0141 -0.7533  0.4334
 8656SOL    HW137430   1.945   4.641   9.611 -2.3992 -0.2081 -1.0170
 8656SOL    HW237431   1.966   4.496   9.629  0.1016  0.3632  1.4709
 8657SOL     OW37432   4.100   1.762  17.037 -0.0727 -0.3475 -0.4021
 8657SOL    HW137433   4.145   1.810  17.107 -0.6630 -0.9514  0.3914
 8657SOL    HW237434   4.146   1.811  16.969  1.1675  2.1664  2.2325
 8658SOL     OW37435   1.189   0.192  16.266  0.2271 -0.0731 -0.0579
 8658SOL    HW137436   1.222   0.105  16.290  0.3087  0.1551  0.6451
 8658SOL    HW237437   1.103   0.181  16.226  0.2587 -0.5294 -0.0017
 8659SOL     OW37438   1.810   2.598   8.112 -0.3584  0.2560 -0.4732
 8659SOL    HW137439   1.815   2.660   8.040  1.0687  0.9446  0.2113
 8659SOL    HW237440   1.843   2.641   8.191  1.2043 -1.8612  0.0267
 8660SOL     OW37441   0.264   0.104   3.905  0.1625  0.1569 -0.5159
 8660SOL    HW137442   0.323   0.165   3.949  0.4091 -1.5080  1.4706
 8660SOL    HW237443   0.314   0.022   3.910  0.4603  0.4280  0.9504
 8661SOL     OW37444   4.307   4.212   4.936 -0.0576  0.2359  0.9089
 8661SOL    HW137445   4.346   4.142   4.885 -0.8048 -0.2947  1.0620
 8661SOL    HW237446   4.323   4.278   4.868  3.1362  0.7829  2.1995
 8662SOL     OW37447   3.976   2.960   1.948 -0.4098 -0.2490 -1.0545
 8662SOL    HW137448   3.913   2.895   1.978 -0.7600  0.6815  0.2367
 8662SOL    HW237449   3.918   3.018   1.898 -2.6184  0.5649  2.4097
 8663SOL     OW37450   2.852   2.755   4.356 -0.3376 -0.4529 -0.2814
 8663SOL    HW137451   2.792   2.699   4.405 -1.8651 -0.5813 -2.3189
 8663SOL    HW237452   2.904   2.687   4.313 -0.4463 -0.6015 -0.1763
 8664SOL     OW37453   2.695   0.785   7.505 -0.1645 -0.0823 -0.0898
 8664SOL    HW137454   2.632   0.849   7.471 -1.9740 -0.5769  2.3180
 8664SOL    HW237455   2.761   0.801   7.437  0.3157 -2.0185 -0.0656
 8665SOL     OW37456   3.389   3.196  11.387 -0.2214 -0.1959  0.3085
 8665SOL    HW137457   3.361   3.114  11.428 -1.2838 -0.3538 -0.7560
 8665SOL    HW237458   3.476   3.216  11.423 -0.4525 -1.0303  1.3330
 8666SOL     OW37459   3.542   2.869   6.761  0.1151  0.0135 -0.6445
 8666SOL    HW137460   3.634   2.847   6.747  0.3354  0.3349  0.2785
 8666SOL    HW237461   3.549   2.961   6.733 -0.0499  0.6145  1.2422
 8667SOL     OW37462   2.822   0.931   5.721  0.2653 -0.0711 -0.0164
 8667SOL    HW137463   2.751   0.948   5.658  0.5425  0.8484 -0.0807
 8667SOL    HW237464   2.768   0.892   5.789 -1.1582  1.1031 -0.4806
 8668SOL     OW37465   4.477   2.977   8.036  0.1693  0.4369  0.0237
 8668SOL    HW137466   4.419   3.014   8.103  0.6204 -0.8618  1.1187
 8668SOL    HW237467   4.464   2.883   8.045  1.6837  0.2480  0.2020
 8669SOL     OW37468   4.003   2.620   8.538 -0.0263 -0.4212  0.1477
 8669SOL    HW137469   4.047   2.661   8.464  0.5361  1.8354  1.7464
 8669SOL    HW237470   3.977   2.690   8.597  1.3089 -2.3001  3.0243
 8670SOL     OW37471   0.104   2.736   6.158  0.8321 -0.2134  0.5155
 8670SOL    HW137472   0.109   2.642   6.177  1.6902 -0.2081  0.3052
 8670SOL    HW237473   0.088   2.736   6.064 -0.1917  0.5491  0.6897
 8671SOL     OW37474   3.560   0.906   5.907  0.3521  0.4791  0.1079
 8671SOL    HW137475   3.579   0.941   5.994  0.0622 -1.0073  0.7647
 8671SOL    HW237476   3.472   0.935   5.883 -0.2357 -1.2830  0.1808
 8672SOL     OW37477   2.446   1.257   9.199  0.2954  0.0644  0.3071
 8672SOL    HW137478   2.357   1.287   9.183  0.6301  1.0625  0.3229
 8672SOL    HW237479   2.481   1.318   9.264  0.4097  0.0934  0.2190
 8673SOL     OW37480   3.176   2.668  15.966 -0.0345 -0.1833  0.0763
 8673SOL    HW137481   3.121   2.720  15.907 -2.7987 -0.7398  2.1685
 8673SOL    HW237482   3.126   2.678  16.047  0.9395  1.0731  0.5265
 8674SOL     OW37483   3.940   2.029  12.151  0.0478 -0.3632  0.2531
 8674SOL    HW137484   4.001   2.090  12.109 -0.6146 -0.3147 -0.6384
 8674SOL    HW237485   3.985   1.946  12.136 -0.2669 -0.1526 -1.9664
 8675SOL     OW37486   3.875   3.528  12.582  0.1853 -0.0940  0.2645
 8675SOL    HW137487   3.866   3.623  12.577  1.5260  0.1501  2.2069
 8675SOL    HW237488   3.797   3.491  12.542  1.4716 -1.1029 -1.3036
 8676SOL     OW37489   3.874   3.814   5.655 -0.2186 -0.3679  0.7349
 8676SOL    HW137490   3.861   3.722   5.677 -0.0133 -0.8985 -1.3352
 8676SOL    HW237491   3.853   3.849   5.741  0.3267  1.7606 -0.0121
 8677SOL     OW37492   2.199   3.080   2.219 -0.5102 -0.0926 -0.3850
 8677SOL    HW137493   2.152   3.151   2.262 -0.3692 -0.1044 -0.2160
 8677SOL    HW237494   2.138   3.006   2.230  0.2333 -0.8047 -1.0581
 8678SOL     OW37495   0.504   0.020  15.295 -0.7099  0.0056  0.5917
 8678SOL    HW137496   0.531   4.700  15.215  0.2887 -0.2199  1.0407
 8678SOL    HW237497   0.504   0.111  15.265  2.9817 -0.3739 -0.5312
 8679SOL     OW37498   2.974   4.022   4.555 -0.3500  0.5255  0.3542
 8679SOL    HW137499   2.917   3.964   4.505 -1.6749  2.4952 -0.4305
 8679SOL    HW237500   2.979   3.970   4.636  0.2162  2.4523  1.5607
 8680SOL     OW37501   0.830   0.090   5.195  0.0970 -0.2712 -0.1158
 8680SOL    HW137502   0.846   0.035   5.119  1.6625 -1.3921  1.0142
 8680SOL    HW237503   0.741   0.065   5.221  0.1244  1.0250  1.2376
 8681SOL     OW37504   0.152   3.834  17.406 -0.5852  0.5358 -0.0681
 8681SOL    HW137505   0.096   3.756  17.410  0.1343  0.0396  0.2304
 8681SOL    HW237506   0.142   3.870  17.494  0.6645  0.7758 -0.0189
 8682SOL     OW37507   3.418   2.182  10.684 -0.1171  0.1699  0.4214
 8682SOL    HW137508   3.394   2.144  10.600 -0.3734 -0.0777  0.6090
 8682SOL    HW237509   3.497   2.140  10.719 -0.1084 -1.0891 -1.1478
 8683SOL     OW37510   0.518   2.629   6.942 -0.2992 -0.0700  0.0443
 8683SOL    HW137511   0.491   2.608   6.853 -1.9783  0.8968  0.3145
 8683SOL    HW237512   0.600   2.581   6.950  0.6321  1.5248  0.1397
 8684SOL     OW37513   0.686   0.968   3.133 -0.1787 -1.1849  0.2399
 8684SOL    HW137514   0.777   0.999   3.136 -0.9259  0.9401  1.0306
 8684SOL    HW237515   0.695   0.879   3.100  1.2119 -1.4306  1.2982
 8685SOL     OW37516   2.639   1.952   7.046  0.3351 -0.3077 -0.3312
 8685SOL    HW137517   2.707   1.944   7.113 -0.4902 -0.5269  0.4839
 8685SOL    HW237518   2.652   2.041   7.014  0.5495  0.6519  2.4334
 8686SOL     OW37519   2.916   4.402   5.430 -0.2560 -0.1754 -0.5442
 8686SOL    HW137520   2.852   4.334   5.449  1.3712 -0.7360  2.9311
 8686SOL    HW237521   2.885   4.443   5.349  0.1782 -0.7974 -1.0310
 8687SOL     OW37522   1.260   0.079   6.689  0.1423 -0.4217  0.3563
 8687SOL    HW137523   1.220   4.723   6.654  0.7406 -1.2564  1.5723
 8687SOL    HW237524   1.186   0.139   6.698  1.3132  0.8911  0.9953
 8688SOL     OW37525   2.029   0.630   3.858  0.1554 -0.7469  0.0787
 8688SOL    HW137526   1.947   0.619   3.811 -0.7771 -0.1639  1.5657
 8688SOL    HW237527   2.002   0.609   3.948  1.9657 -0.7283  0.6214
 8689SOL     OW37528   2.513   1.535   9.088 -0.4808 -0.5821 -0.2536
 8689SOL    HW137529   2.432   1.586   9.098  0.0038 -0.3079  2.1637
 8689SOL    HW237530   2.466   1.457   9.117 -0.0008  0.0051  2.0789
 8690SOL     OW37531   3.046   2.295   3.320 -0.1038  0.2390  0.2083
 8690SOL    HW137532   2.978   2.313   3.256  0.4153 -2.1148 -0.9817
 8690SOL    HW237533   3.104   2.254   3.256  2.1468  3.1879  0.3437
 8691SOL     OW37534   4.083   2.401   2.188  0.9085 -0.1159 -0.2940
 8691SOL    HW137535   4.165   2.365   2.153  0.5566 -1.8538  0.6737
 8691SOL    HW237536   4.024   2.363   2.122 -0.5262 -0.2377  1.0553
 8692SOL     OW37537   0.337   0.327   9.396 -0.5885  0.4938  0.3391
 8692SOL    HW137538   0.363   0.240   9.364 -1.9112  0.8008 -1.5963
 8692SOL    HW237539   0.393   0.328   9.473 -0.2220  0.0408  0.0757
 8693SOL     OW37540   1.143   3.356   0.159 -0.1670  0.5782  0.1914
 8693SOL    HW137541   1.113   3.331   0.247  0.2372  3.4138  1.1262
 8693SOL    HW237542   1.144   3.451   0.168  0.1344  0.5245  0.7507
 8694SOL     OW37543   3.525   3.860  12.284 -0.4001  0.1774 -0.0636
 8694SOL    HW137544   3.598   3.909  12.322  0.1051 -0.6133  0.0011
 8694SOL    HW237545   3.540   3.856  12.190 -0.5337  1.8830 -0.1578
 8695SOL     OW37546   4.541   3.336  12.359  0.3405 -0.3217  0.5717
 8695SOL    HW137547   4.617   3.332  12.301  1.4123 -2.4063  2.1096
 8695SOL    HW237548   4.502   3.417  12.327  0.2926 -1.1735 -1.5217
 8696SOL     OW37549   4.157   3.485   6.278 -0.6745  0.3715 -0.0027
 8696SOL    HW137550   4.179   3.529   6.360 -0.8560  0.6302 -0.0924
 8696SOL    HW237551   4.192   3.398   6.298 -3.4314 -0.3909  1.4652
 8697SOL     OW37552   0.000   2.032   1.393 -0.0878 -0.2777  0.5088
 8697SOL    HW137553   4.639   2.034   1.350 -0.3169 -2.6781  0.8525
 8697SOL    HW237554   4.718   2.112   1.445  0.8016  0.9342 -1.2490
 8698SOL     OW37555   4.237   0.554   3.250 -0.2656  0.0127  0.4182
 8698SOL    HW137556   4.271   0.559   3.160 -0.3942 -2.8317  0.2107
 8698SOL    HW237557   4.188   0.472   3.241 -1.3204  0.9678 -2.4753
 8699SOL     OW37558   1.452   0.671   4.224  0.0662 -0.6502  0.1746
 8699SOL    HW137559   1.541   0.635   4.226  0.8743  1.3940  1.5169
 8699SOL    HW237560   1.468   0.754   4.179 -1.9974  0.3767  1.3240
 8700SOL     OW37561   3.891   1.157  12.664 -0.5637 -0.3042  0.1203
 8700SOL    HW137562   3.865   1.187  12.751  1.5474  1.3874  0.1516
 8700SOL    HW237563   3.959   1.092  12.684 -0.2680  0.6289  2.0878
 8701SOL     OW37564   3.434   0.756   2.568 -0.0018 -0.2139 -0.2560
 8701SOL    HW137565   3.340   0.746   2.585  0.2491 -0.5858  0.9311
 8701SOL    HW237566   3.435   0.846   2.537  1.8447  0.6220  2.2641
 8702SOL     OW37567   3.872   1.249  10.502 -0.1243  0.2000 -0.6265
 8702SOL    HW137568   3.933   1.318  10.528 -0.5838  1.0815 -1.8720
 8702SOL    HW237569   3.896   1.181  10.565 -1.0602  0.9205  0.5184
 8703SOL     OW37570   2.325   3.793   5.516  0.9067 -0.0918 -0.0440
 8703SOL    HW137571   2.286   3.861   5.460  3.7597  0.5552 -1.2790
 8703SOL    HW237572   2.313   3.821   5.607 -1.0117 -1.4315  0.1190
 8704SOL     OW37573   2.837   3.352  15.153  0.1485 -0.3713 -0.6699
 8704SOL    HW137574   2.921   3.348  15.108 -0.1865 -1.6899 -1.1804
 8704SOL    HW237575   2.832   3.271  15.202 -0.4411 -0.0702 -0.2364
 8705SOL     OW37576   4.407   4.048   4.196  0.9233  0.0575  0.6395
 8705SOL    HW137577   4.478   4.101   4.161 -0.7289  1.9367  0.1490
 8705SOL    HW237578   4.360   4.014   4.120 -1.3012  0.6702  1.7312
 8706SOL     OW37579   2.772   1.154   5.315 -1.2080 -0.6616  0.4821
 8706SOL    HW137580   2.796   1.247   5.315 -2.0876 -0.4311  1.1902
 8706SOL    HW237581   2.712   1.150   5.240 -0.5255  1.4294 -0.1738
 8707SOL     OW37582   3.357   4.080   2.900  0.5706  0.2605 -0.3389
 8707SOL    HW137583   3.308   4.120   2.828 -0.6949  2.9760  2.0364
 8707SOL    HW237584   3.290   4.019   2.930  0.9866 -0.1326 -0.2138
 8708SOL     OW37585   2.465   3.870   5.943 -0.3489 -0.0881 -0.4997
 8708SOL    HW137586   2.478   3.870   6.038  0.0336  0.2405 -0.5499
 8708SOL    HW237587   2.475   3.965   5.932 -0.8730  0.0385  0.1251
 8709SOL     OW37588   2.474   1.656   3.255  0.2286 -0.2276 -0.3112
 8709SOL    HW137589   2.485   1.739   3.209  0.7849  0.0038  0.2317
 8709SOL    HW237590   2.535   1.602   3.205  0.7684  1.4956 -1.5111
 8710SOL     OW37591   4.471   4.382  12.708 -0.2571 -0.2345  0.1920
 8710SOL    HW137592   4.533   4.455  12.699  1.1470 -1.4113  0.5028
 8710SOL    HW237593   4.412   4.394  12.633 -1.0197 -2.2680  0.4686
 8711SOL     OW37594   4.340   1.003   6.270 -1.0275 -0.2488  0.5322
 8711SOL    HW137595   4.433   0.997   6.294 -0.9426  0.8555  0.4831
 8711SOL    HW237596   4.330   1.092   6.238  2.6599  0.6339  1.7865
 8712SOL     OW37597   2.730   1.928   6.329  0.8194  0.1605 -0.0195
 8712SOL    HW137598   2.657   1.986   6.307  1.4725 -0.1498 -2.9363
 8712SOL    HW237599   2.713   1.863   6.262  0.7203 -0.4255  0.5754
 8713SOL     OW37600   0.059   1.077   3.578 -0.0615  0.2525  0.0467
 8713SOL    HW137601   4.704   1.089   3.525  1.2723 -2.7498 -2.5812
 8713SOL    HW237602   0.122   1.025   3.529 -2.5549 -1.6756 -1.0746
 8714SOL     OW37603   3.166   1.290  13.674 -0.1753 -0.4048  0.0433
 8714SOL    HW137604   3.112   1.295  13.595 -0.5146 -1.3197  0.2185
 8714SOL    HW237605   3.235   1.351  13.648 -0.7651  0.1304 -0.2387
 8715SOL     OW37606   0.033   3.000  14.748 -0.3584 -0.6077 -0.0560
 8715SOL    HW137607   4.701   3.048  14.687 -0.2290 -1.0502 -0.5276
 8715SOL    HW237608   0.031   2.914  14.706  0.5773  0.2386 -1.8570
 8716SOL     OW37609   0.217   1.732   3.087 -0.3848 -0.1524 -0.4282
 8716SOL    HW137610   0.143   1.699   3.138 -0.2989 -1.2793 -1.0555
 8716SOL    HW237611   0.192   1.717   2.997 -1.3804  2.3271 -0.5725
 8717SOL     OW37612   2.396   1.844   4.684 -0.4590 -0.1141 -0.4487
 8717SOL    HW137613   2.426   1.920   4.734  2.7246 -1.2597 -0.5714
 8717SOL    HW237614   2.323   1.825   4.743 -0.1032 -0.5441 -0.1351
 8718SOL     OW37615   3.148   2.985  11.283  0.0752  0.3005  0.3959
 8718SOL    HW137616   3.199   2.908  11.306 -0.9719 -0.0848  1.4546
 8718SOL    HW237617   3.119   2.981  11.192  1.3214 -0.8011  0.0655
 8719SOL     OW37618   4.327   2.531   7.335 -0.2924  0.4695 -0.2973
 8719SOL    HW137619   4.232   2.534   7.328 -0.3927  1.0542  1.1964
 8719SOL    HW237620   4.341   2.450   7.385 -0.5941  1.7298  1.8631
 8720SOL     OW37621   2.175   4.109  12.486  0.2547 -0.3475  0.1458
 8720SOL    HW137622   2.081   4.126  12.491  0.3138  0.3952 -1.1922
 8720SOL    HW237623   2.205   4.198  12.467  0.4019 -0.9978 -2.6328
 8721SOL     OW37624   0.639   2.449   2.162  0.0327 -0.2826 -0.1995
 8721SOL    HW137625   0.619   2.529   2.115  0.2371 -0.5537 -0.7479
 8721SOL    HW237626   0.687   2.405   2.092  2.7930  0.7243  1.0597
 8722SOL     OW37627   4.446   1.484   6.970 -0.1136 -0.3947  0.0951
 8722SOL    HW137628   4.401   1.549   7.023  0.3728  1.5212 -1.8521
 8722SOL    HW237629   4.533   1.520   6.952 -0.0448 -0.4894  0.2406
 8723SOL     OW37630   3.606   2.566   7.391 -0.1686 -0.3045 -0.1597
 8723SOL    HW137631   3.608   2.662   7.391  0.9923 -0.3255  1.0901
 8723SOL    HW237632   3.621   2.539   7.481 -2.1826 -2.0677 -0.3498
 8724SOL     OW37633   3.705   0.105   2.961 -0.5869 -0.0404  0.1611
 8724SOL    HW137634   3.758   0.184   2.947 -0.5051 -0.3592 -1.3202
 8724SOL    HW237635   3.625   0.147   2.994 -1.6625 -0.9584 -1.2956
 8725SOL     OW37636   4.167   1.921   4.075 -0.1121 -0.1972  0.2057
 8725SOL    HW137637   4.111   1.998   4.070 -0.3610 -0.3455  0.7697
 8725SOL    HW237638   4.177   1.912   4.169 -0.1469 -0.0035  0.2267
 8726SOL     OW37639   3.558   4.048   2.659  0.4058 -0.6898 -0.2517
 8726SOL    HW137640   3.492   4.115   2.678 -1.3281 -2.3763 -0.3449
 8726SOL    HW237641   3.516   4.016   2.579 -1.0360 -0.2173  0.3162
 8727SOL     OW37642   1.259   4.361   1.501 -0.0458  0.5751  0.2982
 8727SOL    HW137643   1.305   4.307   1.436 -0.0386  1.2617 -0.2707
 8727SOL    HW237644   1.327   4.354   1.568  0.8019  0.6750 -0.5451
 8728SOL     OW37645   4.198   1.555   5.209  0.2041  0.6218 -0.2053
 8728SOL    HW137646   4.151   1.594   5.283  1.3142  0.5520  0.5358
 8728SOL    HW237647   4.260   1.495   5.251 -0.3492 -1.6174 -2.5921
 8729SOL     OW37648   1.604   4.507   2.747  0.0787  0.6376 -0.1127
 8729SOL    HW137649   1.662   4.431   2.757  1.0420  1.1513 -1.8180
 8729SOL    HW237650   1.654   4.559   2.684  0.0482 -1.1692 -1.6276
 8730SOL     OW37651   3.010   4.507   5.683  1.0229 -0.2925  0.3913
 8730SOL    HW137652   3.008   4.476   5.592 -0.9831 -0.2657  0.4371
 8730SOL    HW237653   3.000   4.426   5.734  1.4252 -1.7024 -1.7213
 8731SOL     OW37654   2.106   2.381  13.258  0.4266  0.4354  0.1936
 8731SOL    HW137655   2.141   2.362  13.171  0.6628  0.4031  0.2958
 8731SOL    HW237656   2.169   2.340  13.318  1.2338  0.8497 -0.3674
 8732SOL     OW37657   3.689   1.181  17.481  0.0911  0.1809  0.3094
 8732SOL    HW137658   3.725   1.267  17.461 -0.8543  0.3963 -0.5044
 8732SOL    HW237659   3.669   1.189  17.574 -0.1099 -1.4361  0.4152
 8733SOL     OW37660   3.192   1.722  11.841 -0.0438 -0.0923  0.7900
 8733SOL    HW137661   3.267   1.664  11.845  1.0563  1.3214  0.7627
 8733SOL    HW237662   3.130   1.657  11.808  0.2269  0.3677 -0.6630
 8734SOL     OW37663   0.056   2.025  14.847  0.3357  0.4356  0.0391
 8734SOL    HW137664   0.101   2.001  14.766  2.2211  1.5390  0.7507
 8734SOL    HW237665   0.070   2.119  14.859  0.9157  0.5819 -1.7723
 8735SOL     OW37666   2.729   3.646  12.755 -0.0256  0.6094 -0.3484
 8735SOL    HW137667   2.793   3.590  12.800  0.7249  1.6385 -0.1315
 8735SOL    HW237668   2.690   3.689  12.831  0.0285 -1.0862  0.6331
 8736SOL     OW37669   0.654   4.532   7.622 -0.1485  0.0616  0.2137
 8736SOL    HW137670   0.700   4.531   7.538 -0.9794 -0.3161 -0.2452
 8736SOL    HW237671   0.676   4.610   7.673  3.1700 -0.3641 -0.6200
 8737SOL     OW37672   3.952   2.642   5.870 -0.0655  0.5640 -0.1652
 8737SOL    HW137673   4.022   2.618   5.809  0.4445  0.4835  0.4509
 8737SOL    HW237674   3.936   2.732   5.839 -0.1199  0.9436  0.9497
 8738SOL     OW37675   4.437   0.505  12.332  0.0892 -0.0418 -0.0425
 8738SOL    HW137676   4.410   0.488  12.242  1.9539 -1.3594 -0.3524
 8738SOL    HW237677   4.437   0.600  12.336  1.7532 -0.1190  1.8461
 8739SOL     OW37678   2.537   0.969   8.533 -0.1654 -0.1133  0.5519
 8739SOL    HW137679   2.454   1.014   8.552 -0.3605  0.1062 -0.8103
 8739SOL    HW237680   2.531   0.956   8.438 -1.6737 -0.0562  0.6326
 8740SOL     OW37681   0.506   1.280   6.518  0.0139  0.0365 -0.5595
 8740SOL    HW137682   0.538   1.212   6.459  0.7780 -1.1298  1.2272
 8740SOL    HW237683   0.470   1.340   6.452 -2.6049 -1.5331 -0.5543
 8741SOL     OW37684   2.133   4.680   9.119 -0.6071 -0.0419  0.0753
 8741SOL    HW137685   2.067   4.631   9.070  0.0024 -0.2759 -0.5058
 8741SOL    HW237686   2.166   0.017   9.052  0.4895  1.7808  2.3025
 8742SOL     OW37687   3.785   3.145  14.568 -0.4665  0.2320  0.1050
 8742SOL    HW137688   3.850   3.212  14.545  0.3434 -1.2415 -1.8825
 8742SOL    HW237689   3.833   3.074  14.610 -0.6674  1.1218  1.8492
 8743SOL     OW37690   1.161   3.645   1.504  0.7538 -0.1640 -1.0197
 8743SOL    HW137691   1.213   3.692   1.438 -0.3833  2.3691 -0.1031
 8743SOL    HW237692   1.092   3.605   1.452 -0.4723  3.4862 -2.1553
 8744SOL     OW37693   0.513   2.147  10.400 -0.0653 -0.0842  0.4947
 8744SOL    HW137694   0.441   2.199  10.437  0.4107 -0.0029  1.3048
 8744SOL    HW237695   0.573   2.213  10.366  0.4979 -0.3202  1.0374
 8745SOL     OW37696   1.776   0.184  17.570  0.2460 -0.2507  0.2657
 8745SOL    HW137697   1.706   0.122  17.589 -0.2551  0.1243 -0.3600
 8745SOL    HW237698   1.731   0.268  17.558 -0.6881 -0.8254 -0.1884
 8746SOL     OW37699   0.910   3.978  16.815 -0.0214  0.2609 -0.3144
 8746SOL    HW137700   0.830   4.020  16.784  1.0506  1.8521 -0.9348
 8746SOL    HW237701   0.984   4.039  16.812  1.4940 -1.6347 -1.2440
 8747SOL     OW37702   1.345   1.673   5.160 -0.0027 -0.1627 -0.1080
 8747SOL    HW137703   1.321   1.605   5.222 -0.0383  0.8722  1.0095
 8747SOL    HW237704   1.278   1.660   5.093 -1.4703  1.5966  1.0086
 8748SOL     OW37705   0.226   4.097   9.895 -0.3310  0.4029 -0.2154
 8748SOL    HW137706   0.274   4.126   9.818  2.2649  1.3462  1.7799
 8748SOL    HW237707   0.157   4.040   9.859  0.0940  0.1125 -0.5682
 8749SOL     OW37708   4.314   3.115   2.846 -0.3673  0.1187  0.5519
 8749SOL    HW137709   4.350   3.109   2.757  1.0769  0.9409  1.0879
 8749SOL    HW237710   4.258   3.192   2.840  0.6206  0.8326  0.5171
 8750SOL     OW37711   0.958   3.644   6.011  0.0713  0.5106  0.5686
 8750SOL    HW137712   0.871   3.678   5.986 -0.5639 -1.5993 -0.0694
 8750SOL    HW237713   0.962   3.574   5.946  0.2631  1.5222 -0.5100
 8751SOL     OW37714   4.577   4.517   5.077 -0.2709  0.1829  0.4096
 8751SOL    HW137715   4.615   4.586   5.022  1.0055 -0.9433 -0.0945
 8751SOL    HW237716   4.484   4.541   5.071 -0.3142 -0.1433 -0.2692
 8752SOL     OW37717   0.722   1.570   6.917  0.2064  0.2457  0.1741
 8752SOL    HW137718   0.735   1.492   6.970 -0.0568 -0.8316 -1.3541
 8752SOL    HW237719   0.670   1.527   6.849 -0.1067 -2.0808  1.8881
 8753SOL     OW37720   1.444   4.024   6.886 -0.1720  0.3555 -0.2408
 8753SOL    HW137721   1.393   4.022   6.805 -0.4361  2.9402 -0.1497
 8753SOL    HW237722   1.377   4.070   6.938  0.0461  0.0515  0.3016
 8754SOL     OW37723   3.997   2.993   8.829  0.0502  0.2481 -0.5049
 8754SOL    HW137724   4.018   3.078   8.867 -0.3233  0.4814 -0.8173
 8754SOL    HW237725   3.910   3.008   8.792 -0.8223 -2.0073  0.6745
 8755SOL     OW37726   3.679   4.106   4.861 -0.0043  0.2081 -0.2312
 8755SOL    HW137727   3.608   4.134   4.920 -1.0315 -1.3269 -0.7417
 8755SOL    HW237728   3.635   4.044   4.802  0.0034 -0.7719  0.7850
 8756SOL     OW37729   4.657   1.272   6.827 -0.4805  0.2952  0.7434
 8756SOL    HW137730   4.636   1.366   6.825  2.7454  1.1109  4.4317
 8756SOL    HW237731   0.023   1.274   6.858  0.2387 -2.4462 -1.1738
 8757SOL     OW37732   1.656   2.343   4.095 -0.2512 -0.4525  0.2690
 8757SOL    HW137733   1.662   2.437   4.077  3.3371 -0.8193 -0.5090
 8757SOL    HW237734   1.745   2.309   4.106 -0.1593 -0.6351 -1.0345
 8758SOL     OW37735   0.648   3.058  14.196 -0.2869  0.9315 -0.1312
 8758SOL    HW137736   0.611   2.986  14.247  1.3271  0.2678  0.1025
 8758SOL    HW237737   0.574   3.095  14.148  0.1798  0.8420 -0.9136
 8759SOL     OW37738   3.530   1.414  14.426  0.6783  0.6686 -0.9432
 8759SOL    HW137739   3.491   1.424  14.339 -1.1617 -0.1070 -0.1901
 8759SOL    HW237740   3.606   1.472  14.430 -0.5681  2.1494  1.4119
 8760SOL     OW37741   1.532   2.132   5.731 -0.1247 -0.0666  0.2044
 8760SOL    HW137742   1.542   2.130   5.636 -1.1841 -0.7758  0.1116
 8760SOL    HW237743   1.548   2.224   5.752  0.2092 -0.0948  0.0779
 8761SOL     OW37744   1.244   4.387   6.240  0.6155  0.2537  0.6053
 8761SOL    HW137745   1.324   4.433   6.212 -2.2192  3.4163 -2.3130
 8761SOL    HW237746   1.204   4.362   6.157 -1.9212  0.1264  1.8830
 8762SOL     OW37747   0.273   1.148   0.775  0.0448 -0.5032  0.4692
 8762SOL    HW137748   0.356   1.150   0.728 -0.3136 -2.6404 -0.2849
 8762SOL    HW237749   0.209   1.145   0.704  1.8801  0.4605 -1.2232
 8763SOL     OW37750   2.379   0.343   2.672  0.6247 -0.7864 -0.2524
 8763SOL    HW137751   2.408   0.299   2.593 -0.4409 -0.2171 -0.9687
 8763SOL    HW237752   2.300   0.390   2.645  0.1841 -0.9742  0.7110
 8764SOL     OW37753   2.715   2.259  13.045  0.2661 -0.3627  0.3986
 8764SOL    HW137754   2.768   2.268  13.124 -0.0335  0.1553  0.5426
 8764SOL    HW237755   2.710   2.164  13.047 -1.1386 -0.2674  2.0607
 8765SOL     OW37756   0.642   1.480   8.003 -0.5833 -0.0210  0.0495
 8765SOL    HW137757   0.577   1.410   7.996 -0.9621  0.3579 -0.2092
 8765SOL    HW237758   0.635   1.518   7.915  1.6883 -1.3750 -0.7451
 8766SOL     OW37759   2.962   1.652   8.757  0.4609 -0.0075  0.3715
 8766SOL    HW137760   2.877   1.645   8.714  0.6239 -0.6574  0.1491
 8766SOL    HW237761   2.934   1.670   8.847  0.9133 -3.1575  1.1582
 8767SOL     OW37762   0.177   4.503   9.671  0.4750  0.1077  0.0202
 8767SOL    HW137763   0.190   4.478   9.579  1.2497 -1.8337  0.6590
 8767SOL    HW237764   0.269   4.504   9.698  0.6958  0.2518 -0.7387
 8768SOL     OW37765   1.920   4.517   3.946  0.2511 -0.1879  0.2608
 8768SOL    HW137766   1.912   4.591   3.887  0.8957 -0.7802 -0.5637
 8768SOL    HW237767   1.945   4.450   3.882  1.6003 -0.3498  0.9593
 8769SOL     OW37768   3.892   4.042   0.136 -0.1755  0.0739 -0.0562
 8769SOL    HW137769   3.809   4.060   0.091  0.5076  2.2353 -0.4742
 8769SOL    HW237770   3.875   4.077   0.223  0.5947 -0.8219  0.4402
 8770SOL     OW37771   1.336   3.793   7.828 -0.4285  0.0818 -0.5318
 8770SOL    HW137772   1.246   3.790   7.795 -0.3588 -1.9812 -0.5073
 8770SOL    HW237773   1.326   3.883   7.860  0.0862  0.0395 -0.2537
 8771SOL     OW37774   1.357   4.675   3.475  0.3666  0.4144  0.4432
 8771SOL    HW137775   1.345   4.705   3.565  0.3122  2.3934 -0.2191
 8771SOL    HW237776   1.412   0.014   3.429  0.1776 -0.2776 -0.7227
 8772SOL     OW37777   3.844   1.956   1.361 -0.0682 -0.1573  0.1652
 8772SOL    HW137778   3.764   1.951   1.309 -0.4114  2.8434  0.4448
 8772SOL    HW237779   3.905   1.907   1.305 -1.1356 -0.7525 -0.4807
 8773SOL     OW37780   2.965   0.156   6.835  0.2207 -0.1493  0.1973
 8773SOL    HW137781   3.052   0.149   6.875 -0.7116 -1.4276  1.9539
 8773SOL    HW237782   2.945   0.069   6.801 -0.4838 -0.3503  1.1248
 8774SOL     OW37783   0.049   0.263   8.071  0.1926  0.0548  0.6328
 8774SOL    HW137784   0.011   0.320   8.137 -0.2418 -0.3425  0.7291
 8774SOL    HW237785   0.104   0.208   8.127  1.4695  0.3865 -0.3056
 8775SOL     OW37786   3.106   2.724   5.539 -0.5008  0.3375 -0.0848
 8775SOL    HW137787   3.038   2.674   5.493 -0.1658  0.4326 -0.6797
 8775SOL    HW237788   3.159   2.652   5.574  0.7682  1.4152  0.2133
 8776SOL     OW37789   0.118   4.046   4.211 -0.5496 -0.1927 -0.0970
 8776SOL    HW137790   0.195   4.085   4.169 -1.2377  1.2168 -0.0540
 8776SOL    HW237791   0.133   4.069   4.302  1.7403  2.8700 -1.2372
 8777SOL     OW37792   0.469   2.424   6.143  0.2896 -0.4879 -0.1906
 8777SOL    HW137793   0.517   2.478   6.080 -1.6182  2.0407  0.5242
 8777SOL    HW237794   0.379   2.455   6.137  1.1738  2.4600  1.5567
 8778SOL     OW37795   3.428   0.051   7.311  0.0696  0.4760  0.1119
 8778SOL    HW137796   3.437   0.132   7.360  0.8351  0.9837 -0.8624
 8778SOL    HW237797   3.429   4.713   7.384  3.1397 -0.4226 -0.6788
 8779SOL     OW37798   4.201   2.717  10.322  0.3115  0.0991  0.3998
 8779SOL    HW137799   4.107   2.699  10.318  0.3146  0.2486 -0.2396
 8779SOL    HW237800   4.209   2.783  10.254 -0.0346 -1.9376 -1.5922
 8780SOL     OW37801   1.409   2.176  11.031 -0.6434  0.0030 -0.3814
 8780SOL    HW137802   1.452   2.093  11.054 -3.5058 -0.8992  1.7795
 8780SOL    HW237803   1.448   2.246  11.083  0.1057 -0.8222  0.1767
 8781SOL     OW37804   3.253   4.631   6.473 -0.3097 -0.3867 -0.5628
 8781SOL    HW137805   3.211   4.556   6.517 -1.3411  0.7842  0.4375
 8781SOL    HW237806   3.218   4.713   6.506 -0.9723 -1.0975  0.5124
 8782SOL     OW37807   2.097   0.585   9.431  0.0981 -0.3765 -0.2023
 8782SOL    HW137808   2.054   0.526   9.368  0.9559 -2.2042  0.9574
 8782SOL    HW237809   2.046   0.566   9.510  1.6654 -0.4793  0.7669
 8783SOL     OW37810   0.618   4.534   1.742  0.1392 -0.1930  1.2188
 8783SOL    HW137811   0.654   4.535   1.653 -0.2862  1.8856  1.0646
 8783SOL    HW237812   0.653   4.451   1.774  1.0240 -0.1897  0.3028
 8784SOL     OW37813   3.652   2.491   8.181 -0.2471  0.3690 -0.4502
 8784SOL    HW137814   3.596   2.568   8.194 -1.6311 -0.8311  0.6597
 8784SOL    HW237815   3.737   2.534   8.165  1.5624 -2.6301  1.0471
 8785SOL     OW37816   0.635   1.469   6.672 -1.0464 -0.0912  0.2506
 8785SOL    HW137817   0.578   1.404   6.632 -1.5014  1.3527 -1.4611
 8785SOL    HW237818   0.718   1.425   6.690 -1.6203 -1.9039 -1.5624
 8786SOL     OW37819   3.725   0.264   8.575  0.2505 -0.8829  0.1195
 8786SOL    HW137820   3.719   0.229   8.486  1.2965  1.4921 -0.9084
 8786SOL    HW237821   3.712   0.190   8.633  1.8582 -1.0604  0.2577
 8787SOL     OW37822   1.921   0.578   8.246  0.3052  0.0745 -0.2144
 8787SOL    HW137823   1.880   0.518   8.308  1.4134 -0.3469  0.1087
 8787SOL    HW237824   1.854   0.634   8.207  1.3483 -0.8212 -3.2629
 8788SOL     OW37825   4.084   2.065   7.745 -0.1401 -0.1612 -0.3467
 8788SOL    HW137826   4.022   2.105   7.685 -0.2766  1.0552  0.5972
 8788SOL    HW237827   4.067   2.123   7.819 -1.3763  1.3553 -1.8227
 8789SOL     OW37828   3.682   4.035   5.392 -0.0658 -0.0672  0.3639
 8789SOL    HW137829   3.711   4.072   5.309  0.0752  2.1102  1.3846
 8789SOL    HW237830   3.605   4.091   5.402  1.0113  1.4176  0.5022
 8790SOL     OW37831   0.646   0.912   1.812  0.0332  0.1038  0.0352
 8790SOL    HW137832   0.606   0.998   1.823  2.9682  1.3318  1.2623
 8790SOL    HW237833   0.587   0.884   1.743 -2.3602 -0.3133  2.2461
 8791SOL     OW37834   2.108   1.340   8.628  0.2238  0.4785 -0.2102
 8791SOL    HW137835   2.059   1.271   8.673  0.0433  1.2714  0.8252
 8791SOL    HW237836   2.190   1.346   8.678 -0.9969 -1.4797  2.0375
 8792SOL     OW37837   4.090   4.032   8.996 -0.4556 -0.2198 -0.2304
 8792SOL    HW137838   4.039   4.091   9.052  1.5635 -1.3420  2.7869
 8792SOL    HW237839   4.141   3.985   9.063 -0.7624 -0.0637  0.1141
 8793SOL     OW37840   0.097   1.234   2.379 -0.4313  0.5046 -0.1861
 8793SOL    HW137841   0.115   1.283   2.298 -1.7715 -0.1520 -0.8822
 8793SOL    HW237842   0.002   1.236   2.366 -0.3231 -0.5595 -1.0906
 8794SOL     OW37843   3.396   0.258   2.752  0.3074  0.1519  0.7550
 8794SOL    HW137844   3.418   0.278   2.662  0.7953 -0.1413  0.8061
 8794SOL    HW237845   3.359   0.170   2.749  2.3891 -0.6124 -1.6323
 8795SOL     OW37846   0.681   2.909   5.970 -0.0789  0.3697  0.5054
 8795SOL    HW137847   0.732   2.936   5.893 -1.2995  0.3606 -0.3158
 8795SOL    HW237848   0.622   2.847   5.926  0.8993  0.2038 -0.5668
 8796SOL     OW37849   2.934   0.012   7.153 -0.1887 -0.9552 -0.2336
 8796SOL    HW137850   2.967   0.084   7.207 -1.8612 -0.7994  0.5826
 8796SOL    HW237851   2.936   4.664   7.216 -2.1823 -1.3016 -0.5760
 8797SOL     OW37852   0.198   3.672  15.593 -0.1579  0.0497 -0.0045
 8797SOL    HW137853   0.215   3.758  15.633  0.8646  0.1721 -0.7085
 8797SOL    HW237854   0.103   3.662  15.592  0.0433 -1.6845 -2.0091
 8798SOL     OW37855   0.890   1.509   4.264  0.0748 -0.4792 -0.4109
 8798SOL    HW137856   0.896   1.562   4.184  0.0109 -0.1973 -0.2291
 8798SOL    HW237857   0.973   1.464   4.250  0.1830 -1.6095  3.8634
 8799SOL     OW37858   4.110   1.031   6.690 -0.0692  0.5129 -0.0240
 8799SOL    HW137859   4.057   0.958   6.721  0.4822  0.5041  0.9036
 8799SOL    HW237860   4.059   1.100   6.733 -0.6360  2.6274 -4.0351
 8800SOL     OW37861   2.216   0.805   8.615  0.2391  0.2539 -0.6512
 8800SOL    HW137862   2.138   0.765   8.653 -0.4177 -1.3060 -3.6284
 8800SOL    HW237863   2.180   0.882   8.571  0.3504 -0.7687 -2.5576
 8801SOL     OW37864   2.858   0.935   9.110 -0.0410 -0.1503 -0.2223
 8801SOL    HW137865   2.768   0.950   9.083 -0.2793 -0.9414  0.1183
 8801SOL    HW237866   2.901   0.951   9.026  0.1544  0.0687 -0.0804
 8802SOL     OW37867   0.740   2.494  16.263 -0.1330 -0.2031 -0.0695
 8802SOL    HW137868   0.645   2.499  16.276 -0.1430 -0.6206  0.0404
 8802SOL    HW237869   0.752   2.399  16.273 -2.7636 -0.4649  0.5552
 8803SOL     OW37870   2.823   1.007   2.235  0.0193 -0.0420 -0.0332
 8803SOL    HW137871   2.792   1.093   2.263  0.1504 -0.1674  0.5061
 8803SOL    HW237872   2.741   0.960   2.220  0.5790 -1.7185  2.1186
 8804SOL     OW37873   2.916   2.773  12.802  0.4287 -0.0498 -0.0575
 8804SOL    HW137874   2.874   2.843  12.852 -0.4071 -0.3385 -0.3582
 8804SOL    HW237875   2.968   2.729  12.869 -2.7229 -2.0884  1.0682
 8805SOL     OW37876   3.202   2.664  15.387  0.2920  0.3497  0.0228
 8805SOL    HW137877   3.123   2.679  15.336  0.8451  1.6839 -0.4535
 8805SOL    HW237878   3.207   2.569  15.382  0.7571  0.3906 -0.3059
 8806SOL     OW37879   1.241   3.120   7.338  0.2268 -0.2774 -0.0944
 8806SOL    HW137880   1.148   3.137   7.354 -0.0177 -3.0691  1.4041
 8806SOL    HW237881   1.272   3.127   7.429 -3.2190  1.0229  1.0021
 8807SOL     OW37882   3.081   1.830   9.248 -0.0417 -0.2339 -0.0099
 8807SOL    HW137883   3.009   1.862   9.301 -0.8947 -0.0986 -1.2477
 8807SOL    HW237884   3.116   1.909   9.206 -0.9835  0.5296  0.6595
 8808SOL     OW37885   2.216   3.735  11.701  0.1524 -0.4956 -0.1681
 8808SOL    HW137886   2.272   3.664  11.672 -1.3850 -1.3711 -0.9888
 8808SOL    HW237887   2.254   3.803  11.645  0.1467  0.0608  0.5034
 8809SOL     OW37888   1.188   2.549   3.569  0.0634  0.1156 -0.0192
 8809SOL    HW137889   1.269   2.589   3.601 -0.4282  1.9025 -1.0105
 8809SOL    HW237890   1.220   2.470   3.525  1.2936  0.5125  0.1434
 8810SOL     OW37891   2.129   3.399  16.983 -0.5016 -0.2746  0.1611
 8810SOL    HW137892   2.151   3.329  16.922  3.4123  0.9782  0.1269
 8810SOL    HW237893   2.217   3.436  16.994 -0.9084  0.6975  0.2028
 8811SOL     OW37894   4.077   0.251  12.553  0.3860  0.3504  0.7862
 8811SOL    HW137895   4.018   0.324  12.569 -0.7325 -0.4550  0.2999
 8811SOL    HW237896   4.165   0.289  12.543  0.2612  0.0286 -1.5795
 8812SOL     OW37897   2.477   2.369  13.341 -0.6498  0.1074 -0.1236
 8812SOL    HW137898   2.403   2.326  13.384  0.3563 -2.3717 -0.8845
 8812SOL    HW237899   2.468   2.459  13.370 -0.6795  0.3085 -0.7650
 8813SOL     OW37900   1.316   3.841   4.510 -0.7306 -0.4249 -0.1978
 8813SOL    HW137901   1.231   3.883   4.520 -0.4424  0.5749 -2.0766
 8813SOL    HW237902   1.294   3.748   4.502 -2.8262  0.0122  0.4735
 8814SOL     OW37903   4.029   0.053   7.138  0.2294  0.1941 -0.9240
 8814SOL    HW137904   4.089   0.038   7.212 -2.4592 -1.9094  0.8389
 8814SOL    HW237905   4.071   0.118   7.082 -0.1186 -0.2640 -1.7095
 8815SOL     OW37906   0.365   0.178   8.021  0.1992 -0.3344  0.2923
 8815SOL    HW137907   0.372   0.096   7.973 -0.5389 -0.7679  0.9097
 8815SOL    HW237908   0.291   0.155   8.078 -0.4109 -1.5419 -1.0111
 8816SOL     OW37909   2.953   1.360   5.078 -0.0610 -0.1815 -0.0633
 8816SOL    HW137910   2.877   1.416   5.095  0.1549 -0.1785  0.9036
 8816SOL    HW237911   2.915   1.274   5.060 -0.2054 -0.2682  0.6436
 8817SOL     OW37912   0.392   4.699   0.093  0.2479 -1.1049  0.5214
 8817SOL    HW137913   0.427   4.644   0.023 -0.2856 -0.8167  0.0213
 8817SOL    HW237914   0.313   0.013   0.054 -0.8232 -0.9277  2.8916
 8818SOL     OW37915   1.240   1.225  16.836  0.0528  0.5006  0.2096
 8818SOL    HW137916   1.229   1.178  16.753 -1.6599 -1.1563  1.3889
 8818SOL    HW237917   1.184   1.174  16.893  0.0879 -0.3026 -0.4686
 8819SOL     OW37918   2.310   4.681  15.875  0.1422  0.3020 -0.5034
 8819SOL    HW137919   2.251   0.023  15.841  0.4150  0.4314 -0.7224
 8819SOL    HW237920   2.359   0.008  15.940 -1.4448  1.5059 -0.2607
 8820SOL     OW37921   2.570   0.941  11.346  0.2747 -0.1363 -0.0592
 8820SOL    HW137922   2.641   0.989  11.303  1.6262 -2.5312 -0.5156
 8820SOL    HW237923   2.610   0.893  11.419 -1.2905  1.6790  1.9497
 8821SOL     OW37924   1.256   2.226   4.712  0.6641 -0.6343  0.2969
 8821SOL    HW137925   1.213   2.311   4.723 -0.0938 -0.9472 -0.2433
 8821SOL    HW237926   1.332   2.244   4.656  0.2399 -1.0913 -0.4248
 8822SOL     OW37927   3.129   0.171   9.983 -0.0650  0.0963  0.5251
 8822SOL    HW137928   3.061   0.200  10.044 -0.6361  2.5249 -1.2158
 8822SOL    HW237929   3.200   0.207  10.035  0.9458 -0.4968 -0.4565
 8823SOL     OW37930   1.972   1.459   7.756  0.0356  0.3939  0.6162
 8823SOL    HW137931   1.995   1.520   7.826  1.1716 -2.2555  2.5928
 8823SOL    HW237932   2.037   1.481   7.689  1.8336 -1.1010  1.8483
 8824SOL     OW37933   2.257   3.605   8.385  0.1354  0.3846 -0.0914
 8824SOL    HW137934   2.282   3.686   8.340 -1.9353  1.6580  1.0321
 8824SOL    HW237935   2.316   3.543   8.343 -3.1080 -2.6372 -0.1314
 8825SOL     OW37936   3.292   3.482   3.667  0.2665 -0.1152 -0.1621
 8825SOL    HW137937   3.371   3.533   3.651  0.6318 -0.4683  0.5400
 8825SOL    HW237938   3.333   3.399   3.642 -2.2270 -0.7010 -2.3239
 8826SOL     OW37939   2.419   0.143  14.933 -0.2177 -0.3341  0.5049
 8826SOL    HW137940   2.446   0.214  14.875 -1.1685  0.0416  0.5104
 8826SOL    HW237941   2.386   0.192  15.007 -0.7966 -0.7733  0.5392
 8827SOL     OW37942   2.607   1.273  15.498 -0.2115  0.0333  0.0035
 8827SOL    HW137943   2.597   1.265  15.593  1.5442  1.0282  0.2789
 8827SOL    HW237944   2.562   1.194  15.468  0.4217 -0.1406 -0.4860
 8828SOL     OW37945   3.272   0.467   5.555  0.3915 -0.0387  0.5217
 8828SOL    HW137946   3.356   0.501   5.585  1.1507 -0.5810 -0.9523
 8828SOL    HW237947   3.304   0.413   5.483 -0.5305  0.0898  0.0139
 8829SOL     OW37948   2.048   4.010   6.434 -0.3946  0.8809 -0.4904
 8829SOL    HW137949   1.982   3.941   6.444  2.1085 -1.1512  1.8069
 8829SOL    HW237950   2.045   4.060   6.516  1.2199 -0.4402  0.3545
 8830SOL     OW37951   3.965   3.057   6.302 -0.3028  0.1534  0.2672
 8830SOL    HW137952   3.882   3.052   6.350 -1.1323  0.0384 -1.1697
 8830SOL    HW237953   3.971   2.978   6.248 -0.4883  1.5177 -1.7684
 8831SOL     OW37954   2.694   1.145   6.931  0.7557 -0.7335 -0.4984
 8831SOL    HW137955   2.714   1.236   6.909 -1.5349 -0.3405 -0.9373
 8831SOL    HW237956   2.780   1.107   6.950  1.5797  0.1063 -2.6092
 8832SOL     OW37957   3.530   3.644   9.986  0.5657 -0.0589 -0.1961
 8832SOL    HW137958   3.455   3.666  10.042  1.5595  0.4304  0.9404
 8832SOL    HW237959   3.599   3.683  10.039 -0.1091  0.8308  0.0181
 8833SOL     OW37960   0.121   0.810   6.317 -0.3913  0.3648  0.5887
 8833SOL    HW137961   0.109   0.716   6.331 -2.6907  0.5267 -0.2706
 8833SOL    HW237962   0.203   0.810   6.267 -1.4293  0.1006 -1.1111
 8834SOL     OW37963   1.844   1.244   6.244  0.3070 -0.3628 -0.0082
 8834SOL    HW137964   1.912   1.193   6.198 -0.0902 -1.2802  0.4151
 8834SOL    HW237965   1.785   1.256   6.169  1.1547  0.2774 -0.5772
 8835SOL     OW37966   1.248   3.199   7.867  0.3241 -0.3179 -0.0797
 8835SOL    HW137967   1.163   3.196   7.911 -0.5447  0.8207 -1.6729
 8835SOL    HW237968   1.266   3.288   7.897  0.0585  0.3574 -1.8918
 8836SOL     OW37969   1.144   1.528   5.540 -0.4324  0.4127 -0.1381
 8836SOL    HW137970   1.054   1.514   5.510 -0.3266 -0.2976 -0.1053
 8836SOL    HW237971   1.145   1.478   5.621  2.7797 -0.5608 -0.8027
 8837SOL     OW37972   0.871   1.076   9.704  0.0211  0.4327 -0.5469
 8837SOL    HW137973   0.859   1.010   9.635 -0.7540 -0.9309  0.8824
 8837SOL    HW237974   0.800   1.051   9.764 -0.6235  3.0263 -0.2442
 8838SOL     OW37975   3.708   3.236   9.661 -0.4917  0.3986 -1.2414
 8838SOL    HW137976   3.642   3.302   9.685  2.5534  2.7211  0.6822
 8838SOL    HW237977   3.787   3.283   9.636 -0.0197  0.4909  0.4321
 8839SOL     OW37978   4.696   1.588   7.005 -0.1606  0.0517 -0.4276
 8839SOL    HW137979   0.061   1.597   6.970  1.1070 -0.3039  2.6708
 8839SOL    HW237980   4.710   1.615   7.096 -3.9486  0.0943  0.1366
 8840SOL     OW37981   2.771   4.581   1.763 -0.0351  0.2828  0.1785
 8840SOL    HW137982   2.855   4.627   1.753  0.1145  0.1548  0.8193
 8840SOL    HW237983   2.705   4.643   1.732  0.8840  0.8268 -0.6969
 8841SOL     OW37984   1.771   0.693   2.186 -0.2789 -0.3717  0.4940
 8841SOL    HW137985   1.801   0.699   2.276  0.3248 -0.7391  0.3190
 8841SOL    HW237986   1.850   0.716   2.136 -0.0898  0.7471  1.3189
 8842SOL     OW37987   3.690   1.647  14.386  0.3354 -0.0918  0.1855
 8842SOL    HW137988   3.637   1.704  14.442 -0.0731 -1.0851  0.8138
 8842SOL    HW237989   3.774   1.691  14.381  0.8009 -0.8558  1.4135
 8843SOL     OW37990   3.957   3.577   4.939 -0.5921  0.2271 -0.0444
 8843SOL    HW137991   3.867   3.558   4.916 -0.7934  1.3392 -0.1657
 8843SOL    HW237992   3.965   3.527   5.021  1.1591  0.9442  0.2219
 8844SOL     OW37993   2.955   4.255  10.352 -0.1336 -0.0686  0.1005
 8844SOL    HW137994   3.002   4.219  10.427 -0.1685  1.5837  0.9097
 8844SOL    HW237995   2.872   4.269  10.398  1.4440  2.7460  2.0787
 8845SOL     OW37996   1.421   3.240   3.709  0.7241 -0.2254  0.1331
 8845SOL    HW137997   1.406   3.329   3.742  0.9160 -0.2527  0.2945
 8845SOL    HW237998   1.361   3.194   3.768 -0.3547 -2.2441 -2.5330
 8846SOL     OW37999   0.191   0.313   4.832 -0.2151  0.0856  0.1776
 8846SOL    HW138000   0.144   0.393   4.809 -0.5023  0.4145  1.8457
 8846SOL    HW238001   0.142   0.281   4.908  0.0214  0.6031  0.5441
 8847SOL     OW38002   3.635   0.324  11.361 -0.2704  0.1328 -0.0773
 8847SOL    HW138003   3.574   0.331  11.435 -1.7806 -0.7770 -1.2393
 8847SOL    HW238004   3.569   0.326  11.291  0.6892  0.4066 -0.9793
 8848SOL     OW38005   1.648   0.705  15.922 -0.4719  0.6751  0.0357
 8848SOL    HW138006   1.613   0.736  16.005  0.1057  0.5589  0.3259
 8848SOL    HW238007   1.577   0.653  15.884  0.9577 -1.6138  0.4574
 8849SOL     OW38008   4.007   0.416   7.117 -0.3754  0.2096  0.3484
 8849SOL    HW138009   4.012   0.377   7.030  2.1202 -1.0200  1.0266
 8849SOL    HW238010   4.096   0.398   7.149 -1.1133 -2.4309  0.9543
 8850SOL     OW38011   3.697   1.539   2.006  0.5085  0.0673 -0.0495
 8850SOL    HW138012   3.756   1.463   2.004  1.5225  0.9121 -1.7089
 8850SOL    HW238013   3.675   1.552   1.914  1.2117  0.9880 -0.0835
 8851SOL     OW38014   3.298   3.777   8.977 -0.1632 -0.5613  0.0876
 8851SOL    HW138015   3.273   3.752   9.066  1.6455 -2.9638 -0.0741
 8851SOL    HW238016   3.214   3.754   8.936 -1.0385  0.1116  1.5068
 8852SOL     OW38017   1.099   1.397   3.356 -0.2852  0.0705  0.0714
 8852SOL    HW138018   1.095   1.433   3.267  1.1371 -1.1233 -0.4841
 8852SOL    HW238019   1.183   1.431   3.388  0.3677 -0.5276 -1.0050
 8853SOL     OW38020   4.525   2.228   8.117 -0.1898  0.3338  0.4057
 8853SOL    HW138021   4.446   2.201   8.072  0.7645  2.2712 -2.4480
 8853SOL    HW238022   4.578   2.148   8.110 -0.4741  0.1449  0.4349
 8854SOL     OW38023   2.353   0.714   9.740  0.3178  0.0347  0.1874
 8854SOL    HW138024   2.377   0.665   9.661 -0.7942 -0.0136 -0.1264
 8854SOL    HW238025   2.275   0.670   9.774 -0.6522  1.6429  0.0169
 8855SOL     OW38026   0.434   1.917  14.135 -0.0084 -0.4333  0.7059
 8855SOL    HW138027   0.344   1.888  14.147  0.2950 -0.6027  2.5292
 8855SOL    HW238028   0.449   1.897  14.042  0.3997  2.3895  0.1676
 8856SOL     OW38029   4.439   3.278   4.604 -0.1868 -0.0561 -0.2250
 8856SOL    HW138030   4.359   3.292   4.654 -1.2199 -2.0830 -1.3212
 8856SOL    HW238031   4.418   3.310   4.516  0.2069  0.4673 -0.1310
 8857SOL     OW38032   1.150   1.520   3.644 -0.2503 -0.1001 -0.7388
 8857SOL    HW138033   1.073   1.574   3.625 -0.7772  0.3830  2.7755
 8857SOL    HW238034   1.224   1.578   3.629  0.2362 -1.1767 -2.5935
 8858SOL     OW38035   2.494   1.874   3.109 -0.0927  0.1695 -0.5588
 8858SOL    HW138036   2.401   1.892   3.123 -0.4623  0.7559 -3.7546
 8858SOL    HW238037   2.498   1.879   3.013  0.3023  1.5658 -0.4620
 8859SOL     OW38038   0.371   0.616  12.161 -0.2876  0.0932 -0.0301
 8859SOL    HW138039   0.337   0.693  12.116  0.3320 -0.1682 -0.9464
 8859SOL    HW238040   0.432   0.585  12.093 -0.2973  1.4561 -0.6533
 8860SOL     OW38041   1.446   2.136   4.059 -0.4724 -0.1801  0.0189
 8860SOL    HW138042   1.421   2.180   3.978  0.1646  0.0949 -0.0317
 8860SOL    HW238043   1.509   2.195   4.102  0.2526 -2.0407  1.4897
 8861SOL     OW38044   1.001   3.313   3.157 -0.2632  0.5874 -0.2291
 8861SOL    HW138045   1.060   3.333   3.085  0.3825  2.3385  0.7874
 8861SOL    HW238046   0.938   3.381   3.132 -1.8236 -0.6708  0.2499
 8862SOL     OW38047   4.400   4.203   7.822  0.2796  0.0466 -0.1032
 8862SOL    HW138048   4.329   4.144   7.798 -0.8636  1.4271 -0.0809
 8862SOL    HW238049   4.455   4.210   7.744 -1.1033  1.0512 -0.9858
 8863SOL     OW38050   4.413   2.441   0.439 -0.8514  0.0491 -0.2514
 8863SOL    HW138051   4.489   2.423   0.383 -0.8503 -0.1645 -0.1805
 8863SOL    HW238052   4.448   2.483   0.518  0.1718 -0.0776 -0.6287
 8864SOL     OW38053   0.132   0.781   3.078 -0.3014 -0.1611  0.1332
 8864SOL    HW138054   0.082   0.772   2.997  0.3878  0.6638 -0.3746
 8864SOL    HW238055   0.066   0.826   3.131  0.6818 -2.1016  3.0075
 8865SOL     OW38056   4.203   3.764   2.050 -0.0797 -0.3016 -0.1359
 8865SOL    HW138057   4.179   3.818   1.975  0.2217 -1.7269 -1.2462
 8865SOL    HW238058   4.126   3.769   2.108  0.1781 -0.6776  0.2434
 8866SOL     OW38059   2.559   3.316   8.840  0.1657 -0.7604 -0.2830
 8866SOL    HW138060   2.648   3.340   8.864  0.6698 -0.8162 -2.0888
 8866SOL    HW238061   2.575   3.279   8.753  0.9259  0.5133 -0.6893
 8867SOL     OW38062   0.127   4.616   2.320  0.0492  0.4837  0.0989
 8867SOL    HW138063   0.123   4.711   2.335  3.4395  0.8360 -1.2434
 8867SOL    HW238064   0.205   4.609   2.264  1.5698 -1.2159  2.4396
 8868SOL     OW38065   1.058   1.876   1.094  0.0542  0.7252 -1.0607
 8868SOL    HW138066   0.997   1.869   1.020 -0.6189 -2.9927 -0.2045
 8868SOL    HW238067   1.093   1.787   1.095 -1.7137  0.0433 -0.1046
 8869SOL     OW38068   3.466   0.034  15.331  0.1451 -0.4906  0.4723
 8869SOL    HW138069   3.466   0.127  15.355 -1.9030 -0.8067  1.6867
 8869SOL    HW238070   3.392   0.010  15.387 -0.0939 -0.3866  0.2080
 8870SOL     OW38071   1.505   0.693   5.302 -0.2034 -0.6996  0.1954
 8870SOL    HW138072   1.582   0.692   5.360  1.4031 -2.5136 -1.9907
 8870SOL    HW238073   1.521   0.604   5.269  1.5429 -1.0633  1.9720
 8871SOL     OW38074   0.073   2.775  10.216  0.1960 -0.3493 -0.4228
 8871SOL    HW138075   0.050   2.751  10.306  0.4145 -2.2012 -0.8693
 8871SOL    HW238076   0.116   2.695  10.187  1.2586 -0.7551  2.2580
 8872SOL     OW38077   0.021   2.105  16.013 -0.1648  0.5642  0.0910
 8872SOL    HW138078   4.713   2.144  16.094 -1.3865 -0.8778  0.3061
 8872SOL    HW238079   0.013   2.012  16.031  1.6314  0.0825 -1.5927
 8873SOL     OW38080   4.602   0.070   6.255 -0.1650 -0.2088 -0.3902
 8873SOL    HW138081   4.514   0.086   6.219 -0.1836  0.9701  0.1755
 8873SOL    HW238082   4.653   0.050   6.177 -0.5668 -0.4546 -0.5874
 8874SOL     OW38083   2.027   2.990   3.508  0.5046 -0.0099 -0.5467
 8874SOL    HW138084   1.968   3.003   3.582  1.1887 -2.5709  0.4375
 8874SOL    HW238085   2.108   3.033   3.535 -0.4295  1.3035  0.1722
 8875SOL     OW38086   3.678   0.794   6.176 -0.5373  0.5799 -0.2685
 8875SOL    HW138087   3.753   0.742   6.146 -0.5461  0.2795  0.2373
 8875SOL    HW238088   3.611   0.727   6.190 -0.1377  0.3775  0.6421
 8876SOL     OW38089   3.665   2.847   7.404  0.4522 -0.1094  0.3150
 8876SOL    HW138090   3.640   2.902   7.330  2.5402  1.1970  0.5845
 8876SOL    HW238091   3.759   2.840   7.386 -0.2241 -1.5093 -2.6195
 8877SOL     OW38092   3.697   1.369   4.573  0.3017  0.2207  0.6542
 8877SOL    HW138093   3.603   1.354   4.575  0.4263 -0.7442 -1.1190
 8877SOL    HW238094   3.697   1.445   4.631  1.6722  2.4263 -2.2226
 8878SOL     OW38095   1.421   1.258  17.109 -0.2139 -0.1449  0.0333
 8878SOL    HW138096   1.402   1.340  17.063  1.5843  0.4394  0.3138
 8878SOL    HW238097   1.420   1.205  17.030  1.6495  1.5236 -1.1258
 8879SOL     OW38098   0.942   3.033  17.318  0.2782 -1.0796 -0.1203
 8879SOL    HW138099   0.859   2.987  17.311  0.8971 -2.0696 -0.9926
 8879SOL    HW238100   0.985   3.015  17.234 -1.0041 -0.2934 -0.9405
 8880SOL     OW38101   2.370   3.916  12.423  0.1886  0.2141 -0.1039
 8880SOL    HW138102   2.314   3.994  12.420 -1.1565 -0.6279  2.8999
 8880SOL    HW238103   2.387   3.891  12.332 -1.3730 -1.6921  0.1490
 8881SOL     OW38104   1.435   1.570   4.615 -0.2021  0.7021 -0.0940
 8881SOL    HW138105   1.485   1.494   4.644 -1.2160  0.9434  2.3159
 8881SOL    HW238106   1.355   1.519   4.612 -0.1898  0.8715 -2.9962
 8882SOL     OW38107   3.867   3.894   6.994  0.0284 -0.5141  0.2015
 8882SOL    HW138108   3.786   3.845   7.002 -0.0095 -0.4612  0.1407
 8882SOL    HW238109   3.868   3.893   6.898  1.3681  1.6479  0.1909
 8883SOL     OW38110   0.815   2.543   3.255  0.2611 -0.1618  0.5795
 8883SOL    HW138111   0.878   2.470   3.252  1.7785  1.1224  1.4036
 8883SOL    HW238112   0.732   2.498   3.269  0.3105  0.7018  3.6525
 8884SOL     OW38113   4.431   2.839   8.645 -0.4767  0.1903 -0.2973
 8884SOL    HW138114   4.483   2.849   8.725  1.5429  1.4411 -1.7494
 8884SOL    HW238115   4.379   2.769   8.683 -1.0469  1.3494  1.0665
 8885SOL     OW38116   0.720   3.516   1.822 -0.0537 -0.3283 -0.1128
 8885SOL    HW138117   0.744   3.605   1.846  0.0115 -0.4904  0.4212
 8885SOL    HW238118   0.649   3.506   1.886 -0.0683  0.8272  0.0552
 8886SOL     OW38119   2.895   0.932  15.289  0.8846  0.1477 -0.8688
 8886SOL    HW138120   2.880   1.020  15.322  0.3554 -0.9502  1.7843
 8886SOL    HW238121   2.938   0.891  15.364  2.9236  1.3565 -1.3845
 8887SOL     OW38122   0.614   0.910   6.974 -0.7099  0.1997 -0.2381
 8887SOL    HW138123   0.537   0.964   6.992  0.0352  1.1548  0.0905
 8887SOL    HW238124   0.614   0.915   6.879 -1.4672  3.7610 -0.0655
 8888SOL     OW38125   1.644   0.178  11.480  0.1601 -0.6430 -0.0725
 8888SOL    HW138126   1.707   0.166  11.551 -0.2019  0.2621  0.3944
 8888SOL    HW238127   1.606   0.090  11.479 -2.2195  0.3714  0.2198
 8889SOL     OW38128   3.526   0.431   8.470 -0.6512 -0.4100 -0.5221
 8889SOL    HW138129   3.618   0.427   8.494 -0.5625 -0.6971 -0.8975
 8889SOL    HW238130   3.484   0.435   8.556 -2.5742  1.9682 -1.5432
 8890SOL     OW38131   1.320   4.016  12.812  0.2598 -0.0743  0.9558
 8890SOL    HW138132   1.334   3.973  12.896 -2.0744 -0.4783  1.1202
 8890SOL    HW238133   1.410   4.021  12.778 -0.4054 -0.1847 -0.8060
 8891SOL     OW38134   1.804   1.959   0.120 -0.1028 -0.2427  0.2647
 8891SOL    HW138135   1.821   1.895   0.052 -1.3462  0.2253 -0.4846
 8891SOL    HW238136   1.889   1.956   0.165  0.7867 -2.7704 -1.6021
 8892SOL     OW38137   4.665   3.886   7.491  0.2255  0.1996  0.3734
 8892SOL    HW138138   4.590   3.931   7.453  0.6067  1.6573  1.3110
 8892SOL    HW238139   0.005   3.957   7.485 -0.1016  0.4558 -0.0303
 8893SOL     OW38140   1.876   3.895   7.978 -0.1858 -0.0309  0.3615
 8893SOL    HW138141   1.869   3.800   7.976 -2.9280  0.1748  1.3577
 8893SOL    HW238142   1.787   3.928   7.988 -0.7696 -1.0300 -1.5540
 8894SOL     OW38143   4.483   2.799   2.622  0.3356  0.1150 -0.7197
 8894SOL    HW138144   4.404   2.808   2.569 -0.0239  0.4091 -0.1336
 8894SOL    HW238145   4.537   2.748   2.562  0.3508 -1.9725  1.0497
 8895SOL     OW38146   3.507   3.727   7.490  0.6856  0.0902  0.2304
 8895SOL    HW138147   3.519   3.805   7.545 -0.3389  0.7251 -0.4559
 8895SOL    HW238148   3.575   3.673   7.529 -0.7084 -0.3844  2.0298
 8896SOL     OW38149   1.237   1.141   4.500 -0.1162 -0.0484  0.5530
 8896SOL    HW138150   1.171   1.127   4.433 -0.5959  2.5582  0.4938
 8896SOL    HW238151   1.248   1.053   4.537  1.2733  0.0666  0.4259
 8897SOL     OW38152   4.063   0.370  14.006 -0.5730 -0.3211 -0.3614
 8897SOL    HW138153   4.157   0.383  14.018 -0.9909  2.8201 -0.6477
 8897SOL    HW238154   4.047   0.457  13.969 -1.9299  0.0762  1.1338
 8898SOL     OW38155   4.622   0.997   4.833 -0.2892  1.1898 -0.0873
 8898SOL    HW138156   4.599   1.053   4.908 -2.0067  0.9308 -0.4105
 8898SOL    HW238157   4.556   0.928   4.831 -0.4997  1.3641  0.9895
 8899SOL     OW38158   2.670   3.889   2.844  0.4320 -0.0141 -0.2330
 8899SOL    HW138159   2.689   3.965   2.789  0.9249  0.1246  0.1264
 8899SOL    HW238160   2.723   3.821   2.802  0.6115  0.5355 -0.8911
 8900SOL     OW38161   4.280   0.629   3.526  0.0653 -0.2861 -0.3994
 8900SOL    HW138162   4.372   0.602   3.531 -0.6148 -2.9597 -2.2106
 8900SOL    HW238163   4.276   0.621   3.431  1.2614  2.2655 -0.6537
 8901SOL     OW38164   3.709   4.146   6.963 -0.2400 -0.0539  0.0720
 8901SOL    HW138165   3.777   4.089   6.999  0.8915  1.6299  0.5664
 8901SOL    HW238166   3.636   4.085   6.950  0.6342 -0.9154 -0.7202
 8902SOL     OW38167   1.981   1.413   5.010 -0.4964 -0.1073  0.0639
 8902SOL    HW138168   1.926   1.435   5.085  0.6136  1.3925  0.4311
 8902SOL    HW238169   1.910   1.404   4.947  0.3426 -2.4161 -0.5517
 8903SOL     OW38170   2.295   1.060   4.527 -0.5450 -0.0916  0.4095
 8903SOL    HW138171   2.259   0.995   4.588  2.8651 -1.1374  1.3423
 8903SOL    HW238172   2.386   1.046   4.551  0.0291  0.6513 -1.3246
 8904SOL     OW38173   2.916   3.254  13.432 -0.5010 -0.0209  0.3238
 8904SOL    HW138174   2.912   3.203  13.513  1.6388 -0.7993 -0.0917
 8904SOL    HW238175   2.998   3.296  13.455  0.1383  0.0735 -2.2024
 8905SOL     OW38176   3.317   3.243  11.121  0.0766 -0.2889 -0.3358
 8905SOL    HW138177   3.351   3.177  11.060 -1.3897  0.0783 -1.5478
 8905SOL    HW238178   3.349   3.209  11.205 -0.3619  1.6974  0.6323
 8906SOL     OW38179   3.057   2.286   7.709 -0.0659 -0.0593 -0.3849
 8906SOL    HW138180   3.087   2.236   7.633 -3.3387 -2.0137 -0.3916
 8906SOL    HW238181   3.091   2.368   7.673 -2.0324  1.2033  0.6473
 8907SOL     OW38182   3.647   2.518   4.302 -0.2777  0.3340 -0.4154
 8907SOL    HW138183   3.568   2.569   4.285 -1.1515 -0.9025 -0.0890
 8907SOL    HW238184   3.651   2.469   4.219  1.3316  0.2218 -0.2767
 8908SOL     OW38185   4.026   1.447   4.618  1.0870 -0.2439 -0.0949
 8908SOL    HW138186   4.070   1.388   4.557  1.4964  0.8529 -0.8583
 8908SOL    HW238187   4.087   1.517   4.638  2.4604 -1.3038 -0.6161
 8909SOL     OW38188   4.519   0.610   5.312  0.2914 -0.5091  0.4150
 8909SOL    HW138189   4.488   0.700   5.325  0.0358 -0.7142  1.2087
 8909SOL    HW238190   4.435   0.572   5.285  0.6951 -0.7337 -0.5402
 8910SOL     OW38191   0.251   3.497   6.550 -0.4167  0.7011  0.0944
 8910SOL    HW138192   0.310   3.427   6.577  0.1561  0.7087 -1.1240
 8910SOL    HW238193   0.284   3.501   6.460 -1.1355  0.6354 -0.1749
 8911SOL     OW38194   0.432   0.544   8.861 -0.0633 -0.5467  0.5234
 8911SOL    HW138195   0.438   0.480   8.931  3.7654 -0.8716 -0.0930
 8911SOL    HW238196   0.406   0.488   8.788  2.1228 -0.9176  0.0294
 8912SOL     OW38197   1.459   1.943  17.292  0.6609  0.3165 -0.2527
 8912SOL    HW138198   1.495   1.993  17.219 -0.6240  1.5244 -0.0589
 8912SOL    HW238199   1.513   1.864  17.284  1.8816  1.2324 -0.9804
 8913SOL     OW38200   0.740   2.887   4.080  0.2547  0.0018  0.3759
 8913SOL    HW138201   0.789   2.809   4.103  0.4248  0.0252  0.0960
 8913SOL    HW238202   0.683   2.849   4.013 -1.5331 -0.9309  2.4637
 8914SOL     OW38203   3.618   0.119   9.839 -0.1910  0.1540  0.2345
 8914SOL    HW138204   3.647   0.194   9.786 -1.4074  1.1271  0.9330
 8914SOL    HW238205   3.693   0.092   9.890 -0.4295 -0.2092  0.3887
 8915SOL     OW38206   0.760   1.600  14.417 -0.0432  0.3443  0.2861
 8915SOL    HW138207   0.837   1.585  14.363 -1.7769  1.2191 -2.4338
 8915SOL    HW238208   0.711   1.649  14.351  0.5041  1.0109  0.3784
 8916SOL     OW38209   2.714   2.293   3.244 -0.2011 -0.3139 -0.1145
 8916SOL    HW138210   2.748   2.303   3.155  1.6555  2.2285  0.8967
 8916SOL    HW238211   2.627   2.262   3.215 -0.1352 -0.7681  0.1719
 8917SOL     OW38212   0.712   2.574  11.279  0.3676  0.2643 -0.3524
 8917SOL    HW138213   0.697   2.649  11.336 -1.2025  0.4252 -0.9929
 8917SOL    HW238214   0.676   2.501  11.329  1.5251 -0.2387 -0.2328
 8918SOL     OW38215   0.799   2.789   6.662  0.2167  0.2158  0.0203
 8918SOL    HW138216   0.747   2.710   6.677  0.1599  0.0701 -0.9451
 8918SOL    HW238217   0.739   2.832   6.602  0.5361  1.3875  0.5423
 8919SOL     OW38218   0.231   1.874   6.834 -0.3294  0.4412  0.1000
 8919SOL    HW138219   0.272   1.909   6.913  0.1996 -1.0533  0.4919
 8919SOL    HW238220   0.292   1.901   6.766  0.3013 -1.2367 -0.0053
 8920SOL     OW38221   1.895   0.030   3.788 -0.3984 -0.1751 -0.0056
 8920SOL    HW138222   1.906   0.092   3.717  2.3300  0.4797  0.9878
 8920SOL    HW238223   1.907   0.087   3.864  1.2307  0.4836 -0.7594
 8921SOL     OW38224   2.822   0.567  15.568 -0.4113 -0.0996  0.0570
 8921SOL    HW138225   2.737   0.544  15.530  0.5871 -2.3827 -0.8034
 8921SOL    HW238226   2.880   0.507  15.522 -0.8353 -2.1250  2.1284
 8922SOL     OW38227   1.090   3.815  10.535 -0.3168  0.0167  0.1455
 8922SOL    HW138228   1.019   3.847  10.591 -0.6452 -1.6395  0.6512
 8922SOL    HW238229   1.112   3.897  10.491 -0.2074 -0.3335 -0.4437
 8923SOL     OW38230   3.327   1.789   4.701 -0.2654 -0.1758  0.1223
 8923SOL    HW138231   3.319   1.868   4.648 -1.9990 -1.9223 -2.2473
 8923SOL    HW238232   3.327   1.828   4.788  1.6627 -0.4461  0.2504
 8924SOL     OW38233   1.128   1.064  13.313  0.6804  0.4299 -0.0206
 8924SOL    HW138234   1.077   1.063  13.231 -0.5951 -1.6434  0.7967
 8924SOL    HW238235   1.068   1.107  13.374  0.3337  2.3837 -1.7401
 8925SOL     OW38236   0.245   1.338   6.851  0.3201 -0.1804  0.2450
 8925SOL    HW138237   0.330   1.329   6.893 -0.0094 -0.4633  0.8545
 8925SOL    HW238238   0.235   1.434   6.856 -0.6093 -0.2462 -0.1459
 8926SOL     OW38239   2.857   0.677   6.651  0.5293  0.3968  0.8219
 8926SOL    HW138240   2.919   0.634   6.710 -0.2498 -0.3844  1.0734
 8926SOL    HW238241   2.901   0.677   6.566 -0.8041 -0.5096  0.1370
 8927SOL     OW38242   0.815   4.719   9.098  0.5085 -0.1650 -0.2932
 8927SOL    HW138243   0.847   0.085   9.105  0.8714 -0.2201 -1.2398
 8927SOL    HW238244   0.836   4.707   9.005  0.7238  0.0514 -0.2728
 8928SOL     OW38245   2.283   3.696  13.404  0.2631 -0.0803  0.0227
 8928SOL    HW138246   2.363   3.743  13.381 -0.8129  1.6684 -0.1759
 8928SOL    HW238247   2.274   3.629  13.335  1.0899 -0.1149 -0.0520
 8929SOL     OW38248   4.528   4.057   1.947 -0.4021  0.3475 -0.1490
 8929SOL    HW138249   4.439   4.022   1.954  0.4485 -1.5042  1.4671
 8929SOL    HW238250   4.514   4.128   1.885 -1.1052  0.6438  0.3451
 8930SOL     OW38251   0.417   0.275  16.743  0.3203 -0.5525 -0.2553
 8930SOL    HW138252   0.328   0.263  16.709  0.6095 -1.9444 -0.5435
 8930SOL    HW238253   0.472   0.234  16.676  1.0648 -1.7192  1.0652
 8931SOL     OW38254   3.807   1.223  12.963  0.8073  0.2740  0.1438
 8931SOL    HW138255   3.737   1.273  12.921  0.0740 -0.5866  0.3543
 8931SOL    HW238256   3.775   1.228  13.053  0.0452  0.1714 -0.1206
 8932SOL     OW38257   4.718   0.124   3.457 -0.5494  0.5880  0.2584
 8932SOL    HW138258   0.081   0.087   3.468 -2.2746 -3.4700  0.4826
 8932SOL    HW238259   4.677   0.048   3.414 -0.9181  1.0846 -0.2630
 8933SOL     OW38260   2.261   1.668   9.969 -0.2652 -0.8812  0.8117
 8933SOL    HW138261   2.226   1.592  10.015 -2.0002  0.1876  1.2269
 8933SOL    HW238262   2.310   1.714  10.038 -0.4583 -1.7608  1.5367
 8934SOL     OW38263   2.011   1.833   6.005 -0.3797 -0.4430 -0.1271
 8934SOL    HW138264   1.917   1.821   6.019 -0.7454  3.1623  0.4300
 8934SOL    HW238265   2.031   1.760   5.947 -0.1638  0.3948 -1.0990
 8935SOL     OW38266   4.410   2.699   7.713  0.1992  0.4148  0.6463
 8935SOL    HW138267   4.406   2.621   7.769  2.5133 -0.4619 -0.4265
 8935SOL    HW238268   4.503   2.709   7.694 -0.1153 -0.4370 -1.3246
 8936SOL     OW38269   0.405   3.076   4.337  0.2618  0.4341 -0.1613
 8936SOL    HW138270   0.380   3.067   4.245  2.2384 -1.1212 -0.5661
 8936SOL    HW238271   0.468   3.004   4.345  1.7059  1.5559 -1.3506
 8937SOL     OW38272   4.662   3.654  16.844 -0.2619  0.0006 -0.0777
 8937SOL    HW138273   4.656   3.749  16.844 -1.6428 -0.0810 -1.3962
 8937SOL    HW238274   4.581   3.634  16.890  0.0588  1.2769  1.0265
 8938SOL     OW38275   2.980   0.950   2.455 -0.2311 -0.1715  0.1652
 8938SOL    HW138276   2.955   0.955   2.363 -1.9952  1.0698  0.7132
 8938SOL    HW238277   2.916   0.880   2.468 -0.9379  0.0576 -2.1871
 8939SOL     OW38278   2.554   2.699   4.747 -0.3518 -0.4635  0.2644
 8939SOL    HW138279   2.542   2.691   4.842  1.8229  0.1867  0.5801
 8939SOL    HW238280   2.491   2.771   4.740  0.1142  0.0127  0.9184
 8940SOL     OW38281   0.339   2.551   2.593  0.2779 -0.2439 -0.4309
 8940SOL    HW138282   0.402   2.618   2.568  0.4480  0.1387  1.0124
 8940SOL    HW238283   0.348   2.557   2.688 -0.5857 -0.1353 -0.3581
 8941SOL     OW38284   1.478   2.897  14.704  0.4074  0.1020 -0.0526
 8941SOL    HW138285   1.493   2.834  14.775  0.1876 -2.2461 -2.0774
 8941SOL    HW238286   1.385   2.911  14.723  0.4222 -0.8538  0.7118
 8942SOL     OW38287   1.802   3.599   4.822 -0.4701 -0.3529  0.3795
 8942SOL    HW138288   1.775   3.507   4.825 -1.0443 -0.1206  2.1777
 8942SOL    HW238289   1.896   3.583   4.810 -0.8314 -1.2549 -1.2152
 8943SOL     OW38290   0.738   2.436   6.909 -0.2733 -0.3424 -0.3058
 8943SOL    HW138291   0.793   2.429   6.987 -2.5375 -3.1131  1.0515
 8943SOL    HW238292   0.711   2.346   6.893 -4.2688  0.3146  2.4208
 8944SOL     OW38293   2.389   0.553   7.367  0.2953  0.0808 -0.3515
 8944SOL    HW138294   2.313   0.507   7.333  0.5946 -0.7642  0.1126
 8944SOL    HW238295   2.426   0.487   7.425 -2.1706 -0.7735  0.2270
 8945SOL     OW38296   0.136   0.751  16.069 -0.0623  0.0440 -0.4456
 8945SOL    HW138297   0.114   0.775  15.979  1.3065  0.3582 -0.6845
 8945SOL    HW238298   0.092   0.819  16.120 -0.7037  0.5872 -1.7233
 8946SOL     OW38299   1.843   3.834   6.445  0.5141  0.3975 -0.1730
 8946SOL    HW138300   1.884   3.749   6.458  2.3090  0.9677 -2.1320
 8946SOL    HW238301   1.782   3.823   6.519  1.8077  1.1824  1.0141
 8947SOL     OW38302   3.551   0.618   8.246  0.0943 -0.2488  0.1879
 8947SOL    HW138303   3.473   0.639   8.194  1.4231  2.2168 -0.7986
 8947SOL    HW238304   3.515   0.573   8.322 -4.3017 -1.6737 -2.7039
 8948SOL     OW38305   0.984   2.256   5.911 -0.1605 -0.8703 -0.0326
 8948SOL    HW138306   1.054   2.263   5.976 -0.8740 -1.0970  0.7643
 8948SOL    HW238307   0.981   2.346   5.877 -0.7962 -0.2188  1.6998
 8949SOL     OW38308   3.330   3.575   5.552  0.4619  0.3656 -0.5522
 8949SOL    HW138309   3.293   3.508   5.495  1.2640 -0.4461 -0.1219
 8949SOL    HW238310   3.257   3.637   5.558 -0.1133 -0.3894  0.2159
 8950SOL     OW38311   3.704   4.090   3.742  0.6281 -0.2384 -0.0890
 8950SOL    HW138312   3.723   4.182   3.723  3.2271 -0.8430 -0.4075
 8950SOL    HW238313   3.660   4.109   3.825  2.3754  1.1144  0.5156
 8951SOL     OW38314   1.534   3.262   7.517  0.0003  0.1458  0.3014
 8951SOL    HW138315   1.558   3.236   7.606 -0.7003 -0.5000  0.3089
 8951SOL    HW238316   1.452   3.309   7.532 -0.2490  0.0521 -0.7475
 8952SOL     OW38317   0.251   2.151  10.018 -0.1808  0.2116  0.3212
 8952SOL    HW138318   0.174   2.134   9.965 -1.2246  0.1144  1.8712
 8952SOL    HW238319   0.311   2.079  10.002  0.2285  0.7974 -0.7629
 8953SOL     OW38320   3.785   1.542   2.404 -0.0319 -0.3770  0.0288
 8953SOL    HW138321   3.874   1.526   2.374  0.3524  0.5197  0.6931
 8953SOL    HW238322   3.790   1.534   2.500 -2.2642 -0.8382  0.1085
 8954SOL     OW38323   4.120   4.671   4.157  0.0319 -0.1060  0.1209
 8954SOL    HW138324   4.124   0.037   4.125 -2.3527  0.9237  2.7012
 8954SOL    HW238325   4.183   4.631   4.097 -0.3115 -0.3715 -0.0554
 8955SOL     OW38326   2.001   4.535   0.502  0.0921  0.2086  0.1556
 8955SOL    HW138327   2.075   4.585   0.467  0.9084 -1.9265 -1.1708
 8955SOL    HW238328   2.040   4.506   0.584 -1.0662  0.4252  0.7926
 8956SOL     OW38329   0.030   1.844  16.024  0.4989  0.1087 -0.5605
 8956SOL    HW138330   0.115   1.856  15.982  0.3454 -0.7986 -1.1265
 8956SOL    HW238331   0.048   1.764  16.072  0.8886 -0.1415 -1.1261
 8957SOL     OW38332   2.165   0.418   7.307 -0.6656  0.1157  0.0235
 8957SOL    HW138333   2.190   0.342   7.360  1.6352  0.1434 -1.0239
 8957SOL    HW238334   2.089   0.387   7.257 -0.3850  0.0975 -0.3933
 8958SOL     OW38335   4.195   3.118   5.572 -0.5074  0.2881  0.0939
 8958SOL    HW138336   4.234   3.112   5.660 -0.2195 -0.1720 -0.0613
 8958SOL    HW238337   4.167   3.026   5.574  0.8621 -0.1260  0.0466
 8959SOL     OW38338   0.206   2.629  17.220  0.2560 -0.2107  0.3278
 8959SOL    HW138339   0.299   2.615  17.201 -0.2866 -1.8553 -1.0771
 8959SOL    HW238340   0.205   2.723  17.236  1.2080  0.1319 -1.5740
 8960SOL     OW38341   0.879   2.943   7.969 -0.6427  0.0226 -0.1163
 8960SOL    HW138342   0.795   2.926   8.010 -0.2164  1.6458  1.4249
 8960SOL    HW238343   0.853   2.946   7.877  1.4976 -1.0963 -0.7455
 8961SOL     OW38344   4.019   1.998   5.304  0.1339  0.3934 -0.4676
 8961SOL    HW138345   4.050   1.934   5.240 -0.5968 -0.8133  0.3742
 8961SOL    HW238346   4.094   2.056   5.314 -0.1057  0.7109 -0.5017
 8962SOL     OW38347   4.053   2.201   8.125  0.1013  0.8217  0.2004
 8962SOL    HW138348   4.007   2.124   8.159  0.5219  0.2621 -0.4980
 8962SOL    HW238349   3.983   2.240   8.073  0.1888  0.6399 -0.0552
 8963SOL     OW38350   3.087   4.313   5.903  0.1198  0.4039 -0.0507
 8963SOL    HW138351   3.074   4.243   5.839 -2.4973  1.0758 -0.2675
 8963SOL    HW238352   3.178   4.297   5.927 -0.6763 -0.0094  2.7612
 8964SOL     OW38353   3.738   1.169   2.297  0.4792 -0.1353 -0.0973
 8964SOL    HW138354   3.833   1.157   2.310  0.5709 -1.1729 -1.7090
 8964SOL    HW238355   3.725   1.262   2.280 -1.5381 -0.3809  0.1565
 8965SOL     OW38356   4.053   4.067  12.335 -0.2444 -0.0736 -0.0733
 8965SOL    HW138357   4.072   3.985  12.289  0.0529 -1.4305  2.4667
 8965SOL    HW238358   4.030   4.128  12.264 -0.2809  0.4845  0.4196
 8966SOL     OW38359   3.555   1.990   4.344 -0.0630 -0.5033 -0.5121
 8966SOL    HW138360   3.618   1.976   4.273 -0.5545 -2.2976 -0.5967
 8966SOL    HW238361   3.577   2.076   4.381 -0.8923 -1.1270  1.4310
 8967SOL     OW38362   0.035   2.464   2.809 -0.3840 -0.6769 -0.0373
 8967SOL    HW138363   0.124   2.448   2.777 -0.2396 -1.4881  0.7901
 8967SOL    HW238364   0.043   2.417   2.892  0.0484  1.9248  1.3995
 8968SOL     OW38365   0.759   4.366  14.785  0.3303 -0.1497 -0.3633
 8968SOL    HW138366   0.700   4.346  14.857 -2.1853  2.0626 -1.8416
 8968SOL    HW238367   0.724   4.310  14.717  2.3312  0.3824 -1.8399
 8969SOL     OW38368   3.577   4.557   4.388 -0.2669 -0.5308  0.4963
 8969SOL    HW138369   3.660   4.521   4.418  0.4437 -0.7320 -1.7079
 8969SOL    HW238370   3.547   4.491   4.326  2.4208 -0.3946 -0.9223
 8970SOL     OW38371   3.216   1.046   6.522  0.0749  0.3625 -0.1079
 8970SOL    HW138372   3.273   0.970   6.530  0.2102  0.6596  1.6915
 8970SOL    HW238373   3.272   1.112   6.481  1.6652 -2.2690 -2.1248
 8971SOL     OW38374   3.865   2.269  13.155 -0.1590 -0.2940 -0.5147
 8971SOL    HW138375   3.901   2.222  13.230 -0.5959  1.2225  0.6439
 8971SOL    HW238376   3.785   2.218  13.137 -0.3002 -0.3988  0.3760
 8972SOL     OW38377   1.075   4.518  10.620 -0.2515 -0.4339  0.3313
 8972SOL    HW138378   1.094   4.424  10.618 -1.0113 -0.5802 -0.0741
 8972SOL    HW238379   0.982   4.519  10.601  0.0185  1.7417 -0.9063
 8973SOL     OW38380   4.617   4.606  15.212  0.1340  0.2046 -0.1883
 8973SOL    HW138381   4.602   4.592  15.119  1.1128  0.2610 -0.3610
 8973SOL    HW238382   4.572   4.689  15.227 -1.4059 -0.8658  1.2388
 8974SOL     OW38383   3.685   4.644   8.163  0.1860  0.3154  0.2010
 8974SOL    HW138384   3.718   4.554   8.160  0.9727  0.6246 -0.2713
 8974SOL    HW238385   3.773   4.680   8.170 -0.5361  1.5974  2.5632
 8975SOL     OW38386   4.105   0.194   9.510 -0.0819 -0.8535 -0.3272
 8975SOL    HW138387   4.066   0.164   9.591  0.0038 -0.4572 -0.1401
 8975SOL    HW238388   4.159   0.267   9.540 -0.0989 -0.7636 -0.5110
 8976SOL     OW38389   1.108   2.265   2.215  0.8935 -0.1852  0.7227
 8976SOL    HW138390   1.124   2.176   2.248 -1.4461 -0.2427  1.6912
 8976SOL    HW238391   1.051   2.295   2.285  0.1903  2.0231 -0.7996
 8977SOL     OW38392   3.098   0.844   9.551 -0.3957 -0.6588 -0.0620
 8977SOL    HW138393   3.055   0.764   9.578  0.1383 -0.5802  1.0082
 8977SOL    HW238394   3.152   0.846   9.630  0.7989 -1.1465 -0.8721
 8978SOL     OW38395   1.364   4.112  14.814 -0.3889  0.5077 -0.1302
 8978SOL    HW138396   1.310   4.096  14.892 -0.3980 -0.5622 -0.3457
 8978SOL    HW238397   1.409   4.028  14.803  0.8217  1.0317  0.8037
 8979SOL     OW38398   2.778   2.587   3.736 -0.3032 -0.6546  0.5052
 8979SOL    HW138399   2.696   2.634   3.750 -1.0426 -1.7195 -0.2350
 8979SOL    HW238400   2.785   2.612   3.644  1.6552  0.5840  0.9886
 8980SOL     OW38401   0.322   0.674   6.922 -0.3702  0.3028  0.2438
 8980SOL    HW138402   0.335   0.726   6.843 -0.0379  0.6627  0.5344
 8980SOL    HW238403   0.403   0.623   6.911  0.5964  2.1762 -1.3479
 8981SOL     OW38404   0.147   3.211   6.280  0.0689 -0.0447  0.2717
 8981SOL    HW138405   0.109   3.176   6.200 -1.5745  2.2102  0.0680
 8981SOL    HW238406   0.162   3.137   6.339  0.9719  0.4917  0.7081
 8982SOL     OW38407   4.475   0.089  15.286 -0.1438  0.3778  0.0836
 8982SOL    HW138408   4.479   0.177  15.248  3.8412 -0.9140 -2.5182
 8982SOL    HW238409   4.386   0.085  15.320  0.8203  0.5319  2.6215
 8983SOL     OW38410   1.666   3.064   5.337 -0.6012  0.3901 -0.5045
 8983SOL    HW138411   1.642   3.100   5.252  1.1573  1.5723 -0.4946
 8983SOL    HW238412   1.606   3.121   5.385  0.5330 -1.6889  3.3964
 8984SOL     OW38413   2.507   3.099   2.410  0.1734 -0.2989 -0.2836
 8984SOL    HW138414   2.572   3.163   2.382 -1.1830  0.4724 -1.6820
 8984SOL    HW238415   2.537   3.012   2.383  0.5292  0.9319 -3.9157
 8985SOL     OW38416   2.897   4.426  16.644 -0.0018  0.3668  0.2731
 8985SOL    HW138417   2.802   4.418  16.652  0.0575 -0.8989 -0.1896
 8985SOL    HW238418   2.910   4.520  16.657 -0.2231  0.3756  0.4311
 8986SOL     OW38419   2.067   0.160   4.986  0.1867  0.3953  0.4236
 8986SOL    HW138420   2.163   0.161   4.977 -0.0115  0.9689 -1.5604
 8986SOL    HW238421   2.060   0.130   4.895  0.5805 -0.5023  0.6861
 8987SOL     OW38422   3.883   1.764   5.433 -0.1076 -0.0184  0.7350
 8987SOL    HW138423   3.925   1.833   5.485  1.4867 -2.6169  2.9146
 8987SOL    HW238424   3.815   1.818   5.393  0.8366  1.7808  1.5691
 8988SOL     OW38425   3.507   4.445   3.954  0.2213  0.1884 -0.3233
 8988SOL    HW138426   3.600   4.456   3.940  0.2403 -0.1370 -0.4682
 8988SOL    HW238427   3.495   4.414   4.044 -1.8223 -0.2013 -0.7180
 8989SOL     OW38428   0.350   3.720   6.659 -0.1958  0.3044  0.5376
 8989SOL    HW138429   0.282   3.659   6.630  0.9801 -1.1687  0.8755
 8989SOL    HW238430   0.423   3.661   6.643  1.0221  2.3700 -1.5453
 8990SOL     OW38431   3.092   2.927   4.550  0.4434  0.5347  0.2370
 8990SOL    HW138432   3.040   2.994   4.507  2.2094  0.1183 -2.5697
 8990SOL    HW238433   3.030   2.904   4.619 -0.5797 -0.1397 -0.9145
 8991SOL     OW38434   3.164   1.933   3.515 -0.4549 -0.2810  0.3166
 8991SOL    HW138435   3.187   1.922   3.422 -1.8218 -3.0787  0.3287
 8991SOL    HW238436   3.073   1.907   3.524 -0.8584  0.8622 -0.4903
 8992SOL     OW38437   0.789   4.282   9.189  0.0168  0.0352 -0.1484
 8992SOL    HW138438   0.778   4.282   9.284 -2.3687 -0.9083 -0.4333
 8992SOL    HW238439   0.733   4.356   9.164 -0.1294 -0.3817 -1.0312
 8993SOL     OW38440   3.948   4.512   9.319 -0.0920  0.3798 -0.3452
 8993SOL    HW138441   3.884   4.578   9.292 -1.4350 -0.9221 -0.4167
 8993SOL    HW238442   4.024   4.564   9.344  0.0070 -1.8800  4.2015
 8994SOL     OW38443   2.058   1.349   8.141  0.1534  0.1545  0.4739
 8994SOL    HW138444   2.055   1.436   8.101 -0.0480  1.5812  3.6111
 8994SOL    HW238445   2.120   1.375   8.209  0.3751 -0.4422  0.5030
 8995SOL     OW38446   1.456   0.476   4.762  0.1508  0.1971 -0.4895
 8995SOL    HW138447   1.485   0.512   4.678  0.4332  2.3340  0.5162
 8995SOL    HW238448   1.375   0.520   4.786  1.3890  2.4335 -0.4236
 8996SOL     OW38449   2.740   0.478  15.211 -0.2751  0.1348 -0.3358
 8996SOL    HW138450   2.793   0.484  15.132  0.0958 -1.8864 -0.2388
 8996SOL    HW238451   2.708   0.568  15.222  1.9190  0.6397  1.8025
 8997SOL     OW38452   0.820   3.411   4.009 -0.4703 -0.1331  0.3242
 8997SOL    HW138453   0.751   3.354   4.044 -1.3236  2.3131  2.6945
 8997SOL    HW238454   0.764   3.481   3.975 -1.0045 -0.7414 -0.0533
 8998SOL     OW38455   0.788   2.951   8.466 -0.9241  0.6392 -0.0564
 8998SOL    HW138456   0.862   2.918   8.415 -1.0879  0.8156 -0.4071
 8998SOL    HW238457   0.721   2.952   8.397 -3.5698  2.0471  2.5128
 8999SOL     OW38458   1.308   3.909   8.444  0.1107  0.1761  0.1619
 8999SOL    HW138459   1.284   4.001   8.444 -1.4639 -0.2248 -0.3823
 8999SOL    HW238460   1.325   3.879   8.533  0.5204 -0.9606 -0.2928
 9000SOL     OW38461   1.491   1.302  15.181  0.6899 -0.3625 -0.1817
 9000SOL    HW138462   1.581   1.333  15.173  0.0521  1.1775 -1.4593
 9000SOL    HW238463   1.506   1.209  15.195 -1.1136 -0.6504 -0.1695
 9001SOL     OW38464   3.822   1.797   8.413  0.3351  0.0753 -0.1120
 9001SOL    HW138465   3.734   1.761   8.404 -0.0003  1.2533 -1.6428
 9001SOL    HW238466   3.804   1.853   8.490  2.6226 -0.1459  0.5681
 9002SOL     OW38467   3.676   0.119   1.740  0.0261  0.2704  0.1842
 9002SOL    HW138468   3.599   0.063   1.745  1.1164 -1.3893 -1.9172
 9002SOL    HW238469   3.664   0.166   1.658  2.5107  1.0019  0.2248
 9003SOL     OW38470   4.628   1.431   3.392 -0.4252  0.5255  0.2882
 9003SOL    HW138471   4.607   1.339   3.413 -0.0108  0.5290  0.7240
 9003SOL    HW238472   4.588   1.430   3.306  1.3690  1.4786 -0.5439
 9004SOL     OW38473   2.163   2.504   5.605  0.5028 -0.2111  0.0659
 9004SOL    HW138474   2.196   2.417   5.625 -1.5084 -0.4477  2.2612
 9004SOL    HW238475   2.119   2.486   5.522  0.4292 -1.1351  0.3135
 9005SOL     OW38476   0.981   1.505   4.533 -0.0273 -0.2767 -0.2351
 9005SOL    HW138477   0.959   1.426   4.483  1.0615 -0.4968 -0.3700
 9005SOL    HW238478   0.897   1.551   4.532 -0.5106 -1.1649  0.3000
 9006SOL     OW38479   1.911   0.045   5.490 -0.6134 -0.0448  0.5901
 9006SOL    HW138480   1.882   0.060   5.580 -1.8294  0.6335  0.0874
 9006SOL    HW238481   1.862   4.693   5.462  0.1517  0.3348 -1.7784
 9007SOL     OW38482   2.579   1.488  12.216 -0.1293  0.3166  0.0314
 9007SOL    HW138483   2.638   1.415  12.195  0.1006  1.0022 -1.6944
 9007SOL    HW238484   2.495   1.455  12.187  0.1074 -0.4155  0.1736
 9008SOL     OW38485   1.190   1.429  15.167  0.6750  0.2201 -0.2593
 9008SOL    HW138486   1.228   1.513  15.140  1.0234  0.0523 -0.2815
 9008SOL    HW238487   1.169   1.460  15.255  2.6405 -1.4299  0.7656
 9009SOL     OW38488   3.714   0.938   8.372  0.0387 -0.9961  0.7233
 9009SOL    HW138489   3.722   0.860   8.426  0.8744 -1.4831 -0.1088
 9009SOL    HW238490   3.698   1.002   8.441 -0.9648  1.9388 -2.1986
 9010SOL     OW38491   0.119   2.215   4.401  0.5027 -0.2880 -0.5244
 9010SOL    HW138492   0.206   2.244   4.374  0.1938  0.7640 -0.3940
 9010SOL    HW238493   0.089   2.287   4.456 -0.4842 -1.3936  0.3902
 9011SOL     OW38494   3.416   4.260   8.813  0.1208  0.3234 -0.2250
 9011SOL    HW138495   3.389   4.194   8.750 -1.1180 -0.4834  1.1497
 9011SOL    HW238496   3.380   4.227   8.896  1.5635  1.7596  0.9613
 9012SOL     OW38497   0.463   2.095   2.587  0.7143  0.1636  0.0190
 9012SOL    HW138498   0.414   2.161   2.538  0.8531 -0.9116 -1.5784
 9012SOL    HW238499   0.542   2.088   2.533 -0.3250 -2.5652 -1.1705
 9013SOL     OW38500   1.900   2.847   6.041 -0.4893 -0.2286  0.2142
 9013SOL    HW138501   1.920   2.933   6.004  0.4027 -0.4823  0.1190
 9013SOL    HW238502   1.812   2.832   6.004  1.1226 -0.5852 -3.4994
 9014SOL     OW38503   3.701   0.671  17.205  0.1028 -0.3790  0.7662
 9014SOL    HW138504   3.788   0.635  17.190  1.2407  1.9849  1.6430
 9014SOL    HW238505   3.728   0.749  17.254 -0.7636  0.2706  0.2168
 9015SOL     OW38506   1.807   2.587  14.953  0.1665 -0.6175  0.4529
 9015SOL    HW138507   1.891   2.582  14.908  0.5809  2.1250  0.9125
 9015SOL    HW238508   1.820   2.531  15.030  0.1591  0.9176  1.5841
 9016SOL     OW38509   2.319   3.443   1.157 -0.2124 -0.2499  0.2568
 9016SOL    HW138510   2.320   3.470   1.249 -1.5545  0.7034 -0.0135
 9016SOL    HW238511   2.347   3.526   1.118 -0.3464  0.0329  0.7578
 9017SOL     OW38512   3.014   3.508   1.038 -0.1367  0.2661  0.3049
 9017SOL    HW138513   3.038   3.446   1.106 -1.8176  0.5397  1.1505
 9017SOL    HW238514   3.028   3.591   1.083  1.5631  0.4984 -0.6313
 9018SOL     OW38515   2.952   1.940   7.125 -0.0336 -0.1764  0.3322
 9018SOL    HW138516   3.013   1.888   7.178 -1.3639 -1.3123  0.7605
 9018SOL    HW238517   2.982   1.916   7.037  3.5173  1.0024  1.2328
 9019SOL     OW38518   2.354   2.957   9.717  0.2205 -0.0043 -0.2688
 9019SOL    HW138519   2.346   2.867   9.748 -0.1382  0.4044  0.8099
 9019SOL    HW238520   2.329   3.003   9.797  0.2730  0.1631 -0.3481
 9020SOL     OW38521   3.179   0.125   9.711  0.1615 -0.7292 -0.1846
 9020SOL    HW138522   3.274   0.125   9.698  0.2797 -0.4715  0.6610
 9020SOL    HW238523   3.165   0.148   9.803 -2.4543 -0.0204 -0.7614
 9021SOL     OW38524   0.689   3.146   8.632  0.4195 -0.1063  0.1274
 9021SOL    HW138525   0.630   3.085   8.678  0.3424  0.7783  1.2023
 9021SOL    HW238526   0.743   3.078   8.592  0.9925  0.8780 -0.7864
 9022SOL     OW38527   4.492   1.230   4.364 -0.3782 -0.2789 -0.0295
 9022SOL    HW138528   4.488   1.149   4.416  1.9639 -0.1714  0.3344
 9022SOL    HW238529   4.458   1.302   4.416 -0.2435  0.1076 -0.4832
 9023SOL     OW38530   4.151   1.421  11.798 -0.0601 -0.1212  0.0432
 9023SOL    HW138531   4.206   1.342  11.803 -0.7163 -0.5283  0.8381
 9023SOL    HW238532   4.114   1.405  11.885 -0.2399  2.1634  0.3824
 9024SOL     OW38533   3.978   3.726  13.352  0.0161 -0.0623  0.4405
 9024SOL    HW138534   3.886   3.742  13.372 -0.3549 -0.3577 -1.0436
 9024SOL    HW238535   3.976   3.633  13.330  0.0798 -0.2211  1.0923
 9025SOL     OW38536   3.168   1.456   0.546  0.0670  0.2824 -0.3102
 9025SOL    HW138537   3.084   1.499   0.532  0.0099  0.0722 -0.6078
 9025SOL    HW238538   3.151   1.382   0.489  1.1681 -1.6317  1.8220
 9026SOL     OW38539   1.630   3.929   8.341 -0.1307  0.4645  0.2142
 9026SOL    HW138540   1.601   3.954   8.253 -1.0659  0.2029  0.4431
 9026SOL    HW238541   1.572   3.855   8.357 -0.0096  0.3665  0.1949
 9027SOL     OW38542   1.522   2.201  16.745 -0.5308 -0.2665 -0.2857
 9027SOL    HW138543   1.456   2.239  16.804 -1.3624 -1.3804 -0.5069
 9027SOL    HW238544   1.472   2.182  16.665  1.5828 -3.6947 -0.7884
 9028SOL     OW38545   1.207   1.969  14.564 -0.8891 -0.3845  0.5519
 9028SOL    HW138546   1.130   1.963  14.620  0.5429  0.8862  2.6400
 9028SOL    HW238547   1.163   2.008  14.488  1.2933  0.5432 -0.2484
 9029SOL     OW38548   0.370   3.098   5.555 -0.0394 -0.6958 -0.1598
 9029SOL    HW138549   0.360   3.131   5.466 -1.8854  2.9069  1.3654
 9029SOL    HW238550   0.392   3.173   5.612  1.3588 -0.6320 -0.7769
 9030SOL     OW38551   1.914   4.706   0.063 -0.1478 -0.5821  0.3140
 9030SOL    HW138552   1.855   0.046   0.023 -0.3943  1.3422  3.7691
 9030SOL    HW238553   1.964   0.038   0.121  2.1396 -4.0361  1.6952
 9031SOL     OW38554   0.445   0.787   2.833  0.2672  0.5066  0.5626
 9031SOL    HW138555   0.423   0.877   2.810 -0.8119 -0.3010 -1.6166
 9031SOL    HW238556   0.417   0.782   2.924 -1.5174 -2.0262 -0.1032
 9032SOL     OW38557   0.336   2.334  10.472  0.3425  0.5207 -0.3611
 9032SOL    HW138558   0.359   2.426  10.458  0.7448  0.4708 -0.0445
 9032SOL    HW238559   0.289   2.339  10.555 -0.7929 -2.1499 -0.8193
 9033SOL     OW38560   4.578   1.299   8.386  0.3195  0.0275  0.4673
 9033SOL    HW138561   4.570   1.230   8.452  1.3409 -0.2293  0.3306
 9033SOL    HW238562   4.503   1.356   8.402 -0.3735 -0.2924 -1.5766
 9034SOL     OW38563   4.025   3.682   3.703 -0.4943 -0.0800 -0.1036
 9034SOL    HW138564   4.070   3.603   3.734 -0.0589  0.8243  1.5317
 9034SOL    HW238565   3.936   3.648   3.691  0.0933 -2.1428  1.3546
 9035SOL     OW38566   4.603   3.946   6.305 -0.3711  0.2181 -0.4894
 9035SOL    HW138567   4.519   3.904   6.293 -0.1075 -0.6062  0.5498
 9035SOL    HW238568   4.633   3.882   6.369 -0.8793  1.7720  1.3354
 9036SOL     OW38569   1.172   3.271  15.361 -0.0521 -0.3174 -0.6149
 9036SOL    HW138570   1.085   3.270  15.400  0.1490 -0.5290 -0.1625
 9036SOL    HW238571   1.224   3.297  15.438 -0.8976 -2.3429  0.6288
 9037SOL     OW38572   3.295   2.113   6.692  1.0507  0.0476  0.0432
 9037SOL    HW138573   3.242   2.058   6.634  0.9218 -0.9536  1.1133
 9037SOL    HW238574   3.232   2.154   6.751 -0.3389 -2.2450  0.1388
 9038SOL     OW38575   1.893   4.201   6.593 -0.2726  0.5679 -0.0232
 9038SOL    HW138576   1.924   4.265   6.657 -0.6055  0.2339  0.4675
 9038SOL    HW238577   1.803   4.179   6.617 -0.0208  0.6479  0.9908
 9039SOL     OW38578   2.446   2.583   7.001  0.1220 -0.1423  0.5472
 9039SOL    HW138579   2.357   2.606   6.972  1.4595  1.0883 -2.5229
 9039SOL    HW238580   2.476   2.655   7.056  1.6920  0.3232 -0.9266
 9040SOL     OW38581   2.273   1.556   4.496 -0.9227 -0.1169 -0.2141
 9040SOL    HW138582   2.263   1.640   4.451  2.0570 -1.1807 -2.9026
 9040SOL    HW238583   2.224   1.564   4.577 -1.9248 -0.1131 -0.8181
 9041SOL     OW38584   0.020   2.450   1.096  0.2415  0.4289 -0.1288
 9041SOL    HW138585   4.655   2.483   1.086  0.1109 -0.3281 -1.5621
 9041SOL    HW238586   0.024   2.425   1.188 -0.9534 -0.5637 -0.3402
 9042SOL     OW38587   1.665   2.543  15.535  0.0902 -0.4213 -0.3138
 9042SOL    HW138588   1.633   2.627  15.503  1.1409  0.1770  0.1922
 9042SOL    HW238589   1.607   2.526  15.609 -0.4039  0.0346 -0.5996
 9043SOL     OW38590   3.149   4.701   4.882  0.0192 -0.5316  0.0943
 9043SOL    HW138591   3.225   4.721   4.828  0.0833  1.1012  0.7686
 9043SOL    HW238592   3.096   0.055   4.898 -0.1612 -0.6585  0.1191
 9044SOL     OW38593   4.702   1.728   4.233  0.0512 -0.5368 -0.5654
 9044SOL    HW138594   0.013   1.750   4.147  0.1691  1.8485  0.0975
 9044SOL    HW238595   0.038   1.663   4.269 -0.6405 -0.6520  0.3847
 9045SOL     OW38596   3.508   3.955   9.637  0.2878  0.1058  0.2103
 9045SOL    HW138597   3.446   3.996   9.698 -2.0470 -0.5907 -1.6540
 9045SOL    HW238598   3.511   3.864   9.669  1.9101  0.1187  0.0463
 9046SOL     OW38599   4.151   3.767   2.993  0.3403  0.1298  0.2515
 9046SOL    HW138600   4.059   3.763   3.018  0.2765 -1.4108 -0.2718
 9046SOL    HW238601   4.155   3.696   2.930 -0.9630  0.1531  0.1512
 9047SOL     OW38602   3.532   2.433   3.377  0.0243 -0.2631 -0.3277
 9047SOL    HW138603   3.545   2.458   3.468 -2.8893  0.8750 -0.2151
 9047SOL    HW238604   3.614   2.391   3.351 -0.7733 -1.4833 -0.8889
 9048SOL     OW38605   0.958   2.009   9.409 -0.6026  0.6517 -0.1483
 9048SOL    HW138606   0.955   2.005   9.314 -0.4426 -2.0642 -0.0584
 9048SOL    HW238607   0.912   2.090   9.429 -2.0259 -0.4428  1.0098
 9049SOL     OW38608   4.354   0.096   8.265 -0.2151  0.6753 -0.1040
 9049SOL    HW138609   4.276   0.068   8.312 -0.1311  0.0411 -0.3488
 9049SOL    HW238610   4.400   0.151   8.328 -0.9336  0.0691  0.9547
 9050SOL     OW38611   4.245   2.273  15.138 -0.3978  0.1299  0.0060
 9050SOL    HW138612   4.306   2.243  15.205  0.8074  0.6240 -0.8700
 9050SOL    HW238613   4.282   2.244  15.055 -0.7125 -0.5763  0.1111
 9051SOL     OW38614   3.181   3.859   9.586 -0.1902 -0.3146  0.1696
 9051SOL    HW138615   3.123   3.886   9.657 -1.3012  0.0319 -0.8684
 9051SOL    HW238616   3.236   3.794   9.630  1.4090  0.6399 -0.4265
 9052SOL     OW38617   2.120   2.158   2.776 -0.0819  0.3560  0.5404
 9052SOL    HW138618   2.107   2.074   2.733  2.6268  0.9415 -1.4296
 9052SOL    HW238619   2.076   2.214   2.712 -0.7103 -0.7305  0.0134
 9053SOL     OW38620   2.665   1.599   6.451  0.7710  0.3136 -0.2637
 9053SOL    HW138621   2.659   1.572   6.360 -0.9704  1.2711 -0.4257
 9053SOL    HW238622   2.574   1.623   6.468  0.2782 -0.1718 -2.2773
 9054SOL     OW38623   1.317   1.477  12.607  0.0683  0.4776 -0.9628
 9054SOL    HW138624   1.383   1.477  12.537  0.5772 -1.9929 -0.4864
 9054SOL    HW238625   1.366   1.535  12.665 -1.0465  1.9861 -1.5490
 9055SOL     OW38626   2.632   2.448  11.872  0.4995  0.0501  0.6644
 9055SOL    HW138627   2.553   2.500  11.882 -1.1210 -2.1670 -0.7766
 9055SOL    HW238628   2.678   2.490  11.945  1.7342 -2.3471  1.2591
 9056SOL     OW38629   4.652   4.087   1.591  0.0947  0.0659 -0.3387
 9056SOL    HW138630   4.600   4.150   1.641 -2.4850 -0.2936 -2.5593
 9056SOL    HW238631   4.654   4.018   1.657 -1.2588  1.1803  0.8379
 9057SOL     OW38632   0.698   2.108   6.225  0.1626  0.1013  0.5375
 9057SOL    HW138633   0.660   2.162   6.294  0.2205  1.2322 -0.3035
 9057SOL    HW238634   0.778   2.160   6.216  0.0321 -0.0342 -1.5758
 9058SOL     OW38635   4.156   0.778  14.915  0.1970 -0.0295  0.0881
 9058SOL    HW138636   4.163   0.719  14.839 -1.9889 -0.6481  0.3588
 9058SOL    HW238637   4.194   0.721  14.981  2.0045 -0.3478 -1.2351
 9059SOL     OW38638   0.954   4.010  10.199 -0.0834  0.1335  0.1403
 9059SOL    HW138639   0.944   4.005  10.104 -1.0212 -1.2493  0.3151
 9059SOL    HW238640   0.869   4.040  10.232 -0.2161  1.8325 -1.7747
 9060SOL     OW38641   4.622   2.670  11.448 -0.3989 -0.0238 -0.5836
 9060SOL    HW138642   4.589   2.752  11.483 -2.4333 -0.9126 -0.3977
 9060SOL    HW238643   4.541   2.624  11.424 -1.2901  0.6711  1.1555
 9061SOL     OW38644   3.292   3.239  16.144 -0.0553  0.6259 -0.3045
 9061SOL    HW138645   3.224   3.229  16.211 -0.6965  1.5051 -0.8230
 9061SOL    HW238646   3.233   3.252  16.070  0.7108  0.0518 -1.0061
 9062SOL     OW38647   3.998   3.571  12.320  0.1847  0.4333 -0.1157
 9062SOL    HW138648   4.045   3.490  12.302 -0.3178  0.1295 -0.0410
 9062SOL    HW238649   4.005   3.581  12.415  2.6594  1.1705 -0.3707
 9063SOL     OW38650   1.413   2.700   3.665 -0.1208 -0.0244 -0.0620
 9063SOL    HW138651   1.416   2.761   3.739 -1.3608  1.1167 -0.9297
 9063SOL    HW238652   1.464   2.626   3.697 -2.0995 -1.6063 -0.6123
 9064SOL     OW38653   4.402   0.831   0.017  0.5044  0.1108 -0.0990
 9064SOL    HW138654   4.347   0.754   0.032  1.3585 -0.4965 -0.1382
 9064SOL    HW238655   4.465   0.834   0.089 -1.3341 -1.4809  1.5808
 9065SOL     OW38656   2.937   1.010  10.867  0.3200 -0.3368  0.4742
 9065SOL    HW138657   2.848   0.997  10.834  1.9587  0.0032 -4.0875
 9065SOL    HW238658   2.985   0.990  10.787  0.2263  2.1981 -0.2089
 9066SOL     OW38659   2.081   0.762   2.494 -0.2062  0.3709 -0.4471
 9066SOL    HW138660   2.152   0.786   2.552  0.0174  0.3736 -0.7221
 9066SOL    HW238661   2.088   0.667   2.493  2.0721  0.5530 -0.6653
 9067SOL     OW38662   1.228   2.311  12.009  0.2680 -0.7838 -0.2581
 9067SOL    HW138663   1.263   2.356  11.932 -0.1772  2.3785  1.4167
 9067SOL    HW238664   1.265   2.224  11.996  0.8648 -0.1745 -2.7349
 9068SOL     OW38665   1.168   4.275  15.795 -0.1395 -0.4135  0.2471
 9068SOL    HW138666   1.111   4.208  15.758 -0.4189 -0.8048  1.4115
 9068SOL    HW238667   1.221   4.221  15.854 -1.5973  0.3620  2.2449
 9069SOL     OW38668   2.398   2.308   8.389 -0.5738  0.3302 -0.2158
 9069SOL    HW138669   2.392   2.398   8.422  0.1255  0.9987 -1.9058
 9069SOL    HW238670   2.396   2.265   8.474 -0.4528  2.7949  1.0283
 9070SOL     OW38671   3.587   4.390   1.509 -0.2916 -0.5569  0.0560
 9070SOL    HW138672   3.667   4.412   1.556 -1.1538 -0.7205  1.5880
 9070SOL    HW238673   3.544   4.475   1.496 -1.7596 -1.4377 -0.9401
 9071SOL     OW38674   3.049   3.253  12.300  0.0310  0.3282 -0.1047
 9071SOL    HW138675   3.113   3.306  12.349  0.1801  0.2697 -0.2336
 9071SOL    HW238676   3.088   3.168  12.318 -0.0027  0.5861  1.1867
 9072SOL     OW38677   0.052   3.029   8.791 -0.2443  0.6031  0.3208
 9072SOL    HW138678   0.077   2.972   8.718 -1.7754  1.6446 -1.0125
 9072SOL    HW238679   0.052   2.966   8.864 -1.0468  0.7599  0.4542
 9073SOL     OW38680   2.378   2.363   2.226  0.1560 -0.6174  0.1051
 9073SOL    HW138681   2.292   2.361   2.184 -0.0587 -0.7835  0.5515
 9073SOL    HW238682   2.353   2.374   2.318  1.1069  1.2815  0.1351
 9074SOL     OW38683   0.818   0.381   6.469 -0.3327  0.3154 -0.1518
 9074SOL    HW138684   0.783   0.381   6.380 -2.7809  0.1807  0.8130
 9074SOL    HW238685   0.829   0.286   6.474  1.0154  0.5301  1.1411
 9075SOL     OW38686   0.931   1.725  13.570 -0.4015  0.1284  0.7336
 9075SOL    HW138687   0.863   1.791  13.585 -0.6665 -0.3431  1.6519
 9075SOL    HW238688   0.975   1.763  13.494 -0.1402 -0.7215  0.4638
 9076SOL     OW38689   1.768   1.086   2.971  0.3845  0.0832 -0.1599
 9076SOL    HW138690   1.743   1.013   2.915  2.6807  0.3054 -1.4337
 9076SOL    HW238691   1.691   1.137   2.947  1.3042  1.3246 -0.4728
 9077SOL     OW38692   1.044   1.259   8.774  0.0604 -0.4257  0.2452
 9077SOL    HW138693   0.999   1.182   8.738 -2.8742  2.0557 -1.4565
 9077SOL    HW238694   0.985   1.332   8.752  1.8965  1.4820  1.6435
 9078SOL     OW38695   3.289   2.254  11.565 -0.0228 -0.5743  0.2602
 9078SOL    HW138696   3.350   2.327  11.569  1.0458 -1.4152 -0.8040
 9078SOL    HW238697   3.332   2.198  11.501 -4.3453 -1.9560 -1.4261
 9079SOL     OW38698   0.971   1.628   4.789  0.0354  0.7605 -0.3311
 9079SOL    HW138699   0.975   1.570   4.713 -1.5255  0.7298 -0.3993
 9079SOL    HW238700   0.897   1.679   4.755 -1.2801 -0.4971  0.6696
 9080SOL     OW38701   3.368   1.846   3.693  0.2519 -0.1789  0.1204
 9080SOL    HW138702   3.346   1.823   3.784  2.3173 -0.5325  0.5284
 9080SOL    HW238703   3.287   1.892   3.670  1.9245  2.0356 -1.3517
 9081SOL     OW38704   0.727   2.684  15.037 -0.2856 -0.4612 -0.4611
 9081SOL    HW138705   0.718   2.693  15.132 -0.1114  2.8076 -0.7484
 9081SOL    HW238706   0.754   2.772  15.011 -0.2365  0.0288  1.2364
 9082SOL     OW38707   1.536   2.017   4.428 -0.1917  0.1075  0.1393
 9082SOL    HW138708   1.571   1.975   4.349 -1.2393  0.3738 -0.4654
 9082SOL    HW238709   1.543   1.949   4.495 -0.8850  0.1577  0.2585
 9083SOL     OW38710   0.299   3.240   2.515 -0.0050 -0.4223 -0.4173
 9083SOL    HW138711   0.333   3.310   2.458  1.2729 -0.7156 -0.0110
 9083SOL    HW238712   0.381   3.195   2.536 -0.7076 -0.7873  1.5424
 9084SOL     OW38713   1.985   4.377   8.444 -0.3283 -0.4596  0.1794
 9084SOL    HW138714   2.032   4.422   8.374  1.5755 -2.0080  0.4474
 9084SOL    HW238715   2.043   4.408   8.514  0.3055  0.0169 -0.5584
 9085SOL     OW38716   2.301   2.326  10.906 -0.3778 -0.8460  0.3035
 9085SOL    HW138717   2.342   2.338  10.991  1.6852 -1.0014 -0.6612
 9085SOL    HW238718   2.376   2.302  10.852 -0.6579 -1.2352  0.0810
 9086SOL     OW38719   4.212   4.047  12.836  0.2993 -0.2859 -0.0410
 9086SOL    HW138720   4.298   4.086  12.819  1.2229 -1.2556  2.4928
 9086SOL    HW238721   4.220   4.001  12.919 -1.4387 -0.7504 -0.1291
 9087SOL     OW38722   2.261   2.574   4.995  0.2418 -0.2063 -0.0895
 9087SOL    HW138723   2.177   2.535   5.020  0.6548  0.8917  3.0397
 9087SOL    HW238724   2.252   2.585   4.901 -0.2543 -1.5173 -0.2021
 9088SOL     OW38725   2.901   0.087   2.618 -0.2336 -0.6107 -0.0913
 9088SOL    HW138726   2.975   0.102   2.560 -1.0911  0.3053 -0.9656
 9088SOL    HW238727   2.927   0.099   2.709 -1.0636 -0.3319  0.1068
 9089SOL     OW38728   4.430   3.715   6.705 -0.3075 -0.2393 -0.1079
 9089SOL    HW138729   4.383   3.739   6.785  4.2837  2.8082  1.6275
 9089SOL    HW238730   4.488   3.648   6.740 -1.4472 -1.6519 -0.9458
 9090SOL     OW38731   1.643   3.452   5.209  0.2453 -0.1463 -0.0736
 9090SOL    HW138732   1.574   3.518   5.213  0.2816 -0.0198 -1.4385
 9090SOL    HW238733   1.720   3.498   5.241 -0.8302  1.5951  0.0006
 9091SOL     OW38734   2.879   0.555   1.783  0.7996  0.1054 -0.4933
 9091SOL    HW138735   2.968   0.589   1.794  1.0164 -0.4252 -0.5805
 9091SOL    HW238736   2.863   0.588   1.694  1.2860  0.3750 -0.4812
 9092SOL     OW38737   4.365   3.662  11.273 -0.2633 -0.3295 -0.1552
 9092SOL    HW138738   4.356   3.722  11.348  3.0104  1.8803 -1.5271
 9092SOL    HW238739   4.379   3.581  11.321 -0.2738 -0.6003 -0.6125
 9093SOL     OW38740   2.112   4.498   3.010  0.8611 -0.4399  0.0140
 9093SOL    HW138741   2.036   4.502   3.069  1.1061  0.9016  0.2330
 9093SOL    HW238742   2.181   4.527   3.070 -0.2738 -1.6686  1.9579
 9094SOL     OW38743   0.672   3.169   6.098 -0.1681 -0.1968  0.8245
 9094SOL    HW138744   0.672   3.077   6.070 -0.9678  0.7914 -2.4710
 9094SOL    HW238745   0.615   3.174   6.174  0.8185 -0.8362  1.6016
 9095SOL     OW38746   2.507   4.489  10.783  0.1424  0.0967  0.3548
 9095SOL    HW138747   2.547   4.490  10.696 -3.9265 -2.0571 -1.5660
 9095SOL    HW238748   2.428   4.543  10.774 -0.9563 -1.2810  1.6787
 9096SOL     OW38749   2.632   0.799   5.161 -0.0416 -0.2884 -0.5038
 9096SOL    HW138750   2.709   0.794   5.103  0.1609 -1.0046 -0.1762
 9096SOL    HW238751   2.568   0.740   5.120 -0.3784 -0.0139 -0.3688
 9097SOL     OW38752   4.608   3.188  15.216  0.2199 -0.1324  0.3479
 9097SOL    HW138753   4.612   3.137  15.136 -2.2730 -0.3368  0.3693
 9097SOL    HW238754   4.661   3.262  15.186 -0.2516  0.1308  0.1675
 9098SOL     OW38755   2.438   3.891  10.923 -0.4993 -0.0043 -0.1136
 9098SOL    HW138756   2.474   3.980  10.925 -1.6132  0.4316  0.8571
 9098SOL    HW238757   2.504   3.847  10.870 -1.4727 -3.7324  1.7486
 9099SOL     OW38758   0.117   0.611   2.687 -0.0505  0.0668  0.1015
 9099SOL    HW138759   0.060   0.683   2.715 -0.1664  1.5765 -3.9123
 9099SOL    HW238760   0.083   0.542   2.742  1.1418 -0.9181 -0.4038
 9100SOL     OW38761   0.654   3.172   7.225  0.0216 -0.1596  0.6176
 9100SOL    HW138762   0.573   3.211   7.259 -0.1355  0.0836 -0.0258
 9100SOL    HW238763   0.635   3.079   7.219 -1.5259  0.1271  0.9383
 9101SOL     OW38764   1.765   1.755  14.071 -0.3103 -0.2845  0.3379
 9101SOL    HW138765   1.832   1.812  14.033  0.2544 -1.2898 -0.1904
 9101SOL    HW238766   1.823   1.684  14.097 -3.5947 -2.5389  1.5133
 9102SOL     OW38767   1.402   0.189   2.973  0.0215  0.2615  0.3009
 9102SOL    HW138768   1.316   0.211   2.938  0.2195  1.8330  0.7969
 9102SOL    HW238769   1.441   0.179   2.886  1.9139 -1.1768  1.3168
 9103SOL     OW38770   4.126   1.132   3.555 -0.3111  0.2360  0.6512
 9103SOL    HW138771   4.176   1.057   3.522  0.3714  1.9522 -2.2590
 9103SOL    HW238772   4.040   1.121   3.513  1.1797 -0.4155 -2.2930
 9104SOL     OW38773   0.071   2.396   8.685  0.5445  0.1840  0.5177
 9104SOL    HW138774   4.709   2.424   8.716  0.1709 -0.4359  0.0413
 9104SOL    HW238775   0.051   2.336   8.613  3.3753 -0.6599  0.4434
 9105SOL     OW38776   2.878   1.304   4.251  0.5886  0.1837  0.1204
 9105SOL    HW138777   2.945   1.364   4.220 -0.6951  0.5403 -1.9825
 9105SOL    HW238778   2.880   1.232   4.188  1.7811  1.5229 -1.3755
 9106SOL     OW38779   2.316   1.087   6.172 -0.1702 -0.1131  0.4440
 9106SOL    HW138780   2.357   1.162   6.215  0.7927 -0.2953 -0.1517
 9106SOL    HW238781   2.386   1.022   6.171  1.0740  1.2502 -1.2743
 9107SOL     OW38782   4.146   3.844   0.908  0.5791 -0.6342 -0.0051
 9107SOL    HW138783   4.132   3.849   1.003  1.0958 -0.6220  0.0670
 9107SOL    HW238784   4.085   3.905   0.866  0.6901 -0.6788 -0.2331
 9108SOL     OW38785   2.972   3.711   9.279  0.5730 -0.1913  0.1686
 9108SOL    HW138786   3.028   3.773   9.325  0.8814  0.5576 -1.2065
 9108SOL    HW238787   3.004   3.734   9.192 -0.3060 -0.2919 -0.1778
 9109SOL     OW38788   3.877   0.494   4.480 -0.2864  0.6321  0.3041
 9109SOL    HW138789   3.841   0.406   4.467 -1.0020  1.3965 -2.9338
 9109SOL    HW238790   3.799   0.533   4.517 -1.0992 -0.4541 -0.2491
 9110SOL     OW38791   3.388   2.150   6.309 -0.5417 -0.5303 -0.1995
 9110SOL    HW138792   3.430   2.193   6.383  0.4309 -0.0978 -1.0063
 9110SOL    HW238793   3.344   2.077   6.353  2.9839 -1.9836  0.8629
 9111SOL     OW38794   1.087   2.735   3.360  0.4332  0.0282 -0.3179
 9111SOL    HW138795   1.119   2.677   3.429  0.5703 -0.8431 -1.1101
 9111SOL    HW238796   1.105   2.823   3.393  0.9611  0.5222 -1.9350
 9112SOL     OW38797   0.878   4.598   9.623  0.2963  0.0601 -0.5645
 9112SOL    HW138798   0.921   4.588   9.538  2.3598 -3.4699  0.9029
 9112SOL    HW238799   0.936   4.653   9.674  0.8931 -0.3026 -0.8479
 9113SOL     OW38800   1.997   0.902  17.462 -0.7328  0.1985  0.5324
 9113SOL    HW138801   2.084   0.912  17.424 -0.7823  0.2873  0.4417
 9113SOL    HW238802   1.987   0.984  17.509 -1.1995  0.3107  0.2397
 9114SOL     OW38803   3.308   3.025   8.633  0.0448 -0.0411  0.0829
 9114SOL    HW138804   3.252   2.972   8.576  0.0701  1.8649 -1.6984
 9114SOL    HW238805   3.388   2.973   8.636  0.0660 -0.0316 -0.4300
 9115SOL     OW38806   3.783   4.352   3.702  0.1197  0.0805  0.0818
 9115SOL    HW138807   3.871   4.350   3.663 -0.4237 -0.1842 -1.1210
 9115SOL    HW238808   3.798   4.397   3.785  0.9076  0.7515 -0.4177
 9116SOL     OW38809   2.713   4.644   8.080  0.1933  0.6740 -0.3817
 9116SOL    HW138810   2.635   4.642   8.136 -0.3748  2.4500 -1.1075
 9116SOL    HW238811   2.782   4.616   8.141  0.1626 -0.8669 -1.0476
 9117SOL     OW38812   4.534   0.794   0.262 -0.2470  0.1591  0.0759
 9117SOL    HW138813   4.470   0.825   0.326 -0.2332 -1.3218  0.8142
 9117SOL    HW238814   4.579   0.734   0.322 -1.0872  0.9479  1.4910
 9118SOL     OW38815   3.327   1.048  14.182  0.1769  0.5812 -0.0272
 9118SOL    HW138816   3.355   0.962  14.150 -1.6887 -0.3003  0.6691
 9118SOL    HW238817   3.275   1.076  14.107  1.8458 -0.9538 -1.7717
 9119SOL     OW38818   1.062   0.045   8.080  0.2887  0.8547 -0.0889
 9119SOL    HW138819   1.056   0.108   8.008 -0.2992  2.2749  1.2172
 9119SOL    HW238820   1.009   0.090   8.146  0.1234 -0.7516  0.8855
 9120SOL     OW38821   4.495   0.256   2.544 -0.5336 -0.1048  0.1851
 9120SOL    HW138822   4.548   0.321   2.591  0.5675 -1.9525  1.5171
 9120SOL    HW238823   4.520   0.288   2.458  0.5081  0.3463  0.6532
 9121SOL     OW38824   1.603   0.943   6.114  0.0367 -0.0363  0.2904
 9121SOL    HW138825   1.683   0.947   6.167 -0.1434 -3.0964  0.8414
 9121SOL    HW238826   1.545   0.900   6.178 -0.5934  2.0723  1.1550
 9122SOL     OW38827   0.687   0.569   5.481 -0.3431 -0.0113 -0.3034
 9122SOL    HW138828   0.756   0.614   5.432  1.6281 -1.3436  1.2308
 9122SOL    HW238829   0.606   0.573   5.430 -0.4953 -0.6615 -0.1197
 9123SOL     OW38830   0.078   1.504   8.962  0.2942 -0.2469  0.1074
 9123SOL    HW138831   0.052   1.573   9.024  0.6143 -0.1649  0.1479
 9123SOL    HW238832   0.171   1.498   8.984 -0.0928 -1.4741  1.4442
 9124SOL     OW38833   0.529   1.558   4.909 -0.2770  0.3409  0.1863
 9124SOL    HW138834   0.595   1.489   4.921 -1.4654 -0.7613  0.3485
 9124SOL    HW238835   0.450   1.507   4.929 -0.3765  0.4932  0.1785
 9125SOL     OW38836   3.183   0.579   9.478  0.6037  0.1989  0.7912
 9125SOL    HW138837   3.254   0.639   9.455  2.1690 -2.7814 -2.2248
 9125SOL    HW238838   3.144   0.567   9.391  2.5585 -1.0008  0.0740
 9126SOL     OW38839   4.688   0.305   9.600  0.2111 -0.1729  0.0427
 9126SOL    HW138840   4.637   0.237   9.644  1.7379 -1.2388  0.1564
 9126SOL    HW238841   4.619   0.361   9.563  0.9150  1.2699  0.8861
 9127SOL     OW38842   2.677   1.173   4.874 -0.1844  0.6784  0.4271
 9127SOL    HW138843   2.765   1.156   4.908  0.5437  1.2544 -1.1839
 9127SOL    HW238844   2.682   1.267   4.855 -2.3587  0.3119 -1.8618
 9128SOL     OW38845   0.014   1.488  11.588 -0.1585 -0.2588 -0.1675
 9128SOL    HW138846   0.015   1.584  11.584 -2.5181 -0.1352  2.2004
 9128SOL    HW238847   0.097   1.473  11.633 -0.3502 -1.6521 -0.3060
 9129SOL     OW38848   1.787   1.826  12.225 -0.2398 -0.7325  0.6265
 9129SOL    HW138849   1.784   1.741  12.268  0.1962 -1.2955 -0.4644
 9129SOL    HW238850   1.763   1.801  12.136 -2.4911 -1.0670  1.3288
 9130SOL     OW38851   1.787   1.258  10.407  0.4669  0.1651  0.0550
 9130SOL    HW138852   1.771   1.347  10.437 -1.1343 -0.4678  1.0577
 9130SOL    HW238853   1.825   1.269  10.319  0.8529  0.2370  0.2327
 9131SOL     OW38854   0.455   4.139   9.403 -0.3372  0.1424 -0.4596
 9131SOL    HW138855   0.481   4.231   9.394 -2.5977  0.7402 -0.8087
 9131SOL    HW238856   0.371   4.140   9.356 -1.5891  0.0586  1.7986
 9132SOL     OW38857   2.636   0.124  12.336 -0.4445 -0.4275  0.3630
 9132SOL    HW138858   2.585   0.140  12.256 -0.5814 -0.4561  0.4461
 9132SOL    HW238859   2.626   0.212  12.370 -2.3852 -0.9727  1.1490
 9133SOL     OW38860   3.583   3.417   3.796  0.3766  0.2062 -0.6325
 9133SOL    HW138861   3.549   3.387   3.881 -1.2221 -2.1761 -2.1197
 9133SOL    HW238862   3.581   3.334   3.748  1.5689 -1.1645  1.6502
 9134SOL     OW38863   0.690   4.128  13.330 -0.2354  0.3800 -0.1949
 9134SOL    HW138864   0.604   4.117  13.372 -0.0612  0.6625  0.2294
 9134SOL    HW238865   0.649   4.131  13.244  1.8627 -2.3905 -1.2772
 9135SOL     OW38866   0.412   3.843   8.930  0.1183  0.0996  0.8055
 9135SOL    HW138867   0.407   3.821   9.023  0.8712 -0.9350  0.6040
 9135SOL    HW238868   0.358   3.775   8.891 -0.7657  0.9757  0.5316
 9136SOL     OW38869   0.833   2.634   4.138 -0.0364  0.0647 -0.6005
 9136SOL    HW138870   0.810   2.549   4.176 -0.6603  1.2583  1.7273
 9136SOL    HW238871   0.912   2.618   4.086 -0.2902  2.3014 -1.6324
 9137SOL     OW38872   2.555   0.519   7.616 -1.1174  0.0243  0.1727
 9137SOL    HW138873   2.572   0.533   7.709  0.6185  2.8780 -0.5603
 9137SOL    HW238874   2.557   0.608   7.580  1.4850 -0.2920 -0.4249
 9138SOL     OW38875   4.605   4.026   3.770 -0.4633 -0.4372 -0.0166
 9138SOL    HW138876   4.593   4.111   3.727  1.2878 -0.6750 -0.9607
 9138SOL    HW238877   4.682   4.051   3.822  0.4878 -0.7919 -1.2439
 9139SOL     OW38878   2.737   2.336  17.280  0.0222 -0.1016  0.6793
 9139SOL    HW138879   2.694   2.291  17.352  0.2861 -0.8369  0.3727
 9139SOL    HW238880   2.783   2.407  17.326 -2.6422  2.5861 -0.8087
 9140SOL     OW38881   0.208   1.029  11.347 -0.2744 -0.2396  0.1775
 9140SOL    HW138882   0.177   1.088  11.415  0.9744  0.6106 -0.0127
 9140SOL    HW238883   0.207   1.085  11.270 -2.3766 -1.9132 -1.0240
 9141SOL     OW38884   1.407   0.997   7.673 -0.5423  0.1801 -0.4761
 9141SOL    HW138885   1.493   0.955   7.676 -1.8807 -2.5553 -0.8653
 9141SOL    HW238886   1.380   0.980   7.763 -1.4261 -0.8783 -0.9427
 9142SOL     OW38887   4.389   4.436   3.087 -0.2033  0.1053 -0.0412
 9142SOL    HW138888   4.299   4.459   3.112 -0.2214 -0.1355  0.1152
 9142SOL    HW238889   4.397   4.483   3.004  1.7485 -0.0652  0.0645
 9143SOL     OW38890   1.447   2.458   5.614  0.6139 -0.1325 -0.1411
 9143SOL    HW138891   1.411   2.389   5.557  0.7840 -1.0864  0.9116
 9143SOL    HW238892   1.453   2.419   5.701  0.5760 -1.2240 -0.6202
 9144SOL     OW38893   2.207   2.938   6.716  0.7149 -0.0284  0.3768
 9144SOL    HW138894   2.222   2.993   6.794  0.8524 -0.9729  1.0204
 9144SOL    HW238895   2.142   2.992   6.671  1.5215  1.3179  0.8019
 9145SOL     OW38896   2.460   3.866  10.129  0.6895 -0.2475 -0.1994
 9145SOL    HW138897   2.497   3.789  10.085 -0.9373 -0.9544 -0.3287
 9145SOL    HW238898   2.503   3.862  10.214 -3.2695  2.5669  1.9288
 9146SOL     OW38899   1.628   4.546   8.585  0.1702  0.1971 -0.0031
 9146SOL    HW138900   1.600   4.567   8.674 -1.5543  3.4430 -1.3044
 9146SOL    HW238901   1.672   4.461   8.590 -0.0521  0.2626  3.3362
 9147SOL     OW38902   0.320   3.611   3.974  0.4032  0.0155  0.0402
 9147SOL    HW138903   0.398   3.666   3.967 -0.3487  1.1231  0.3870
 9147SOL    HW238904   0.247   3.672   3.971 -0.6531 -1.1866  1.3250
 9148SOL     OW38905   2.963   3.060   7.883  0.0774 -0.5128 -0.0836
 9148SOL    HW138906   2.917   3.072   7.967  0.0731  1.0442 -0.3230
 9148SOL    HW238907   2.965   2.965   7.897  0.1591 -0.3658  0.9135
 9149SOL     OW38908   3.173   0.392   7.638  0.2560 -0.3225 -0.5100
 9149SOL    HW138909   3.266   0.415   7.638 -0.2306  1.6148 -0.4403
 9149SOL    HW238910   3.134   0.479   7.636  0.9605  0.0361  1.0459
 9150SOL     OW38911   2.010   2.944   2.937  0.2299 -0.5768 -0.1791
 9150SOL    HW138912   2.028   2.906   3.023  0.1540 -1.1027 -0.3958
 9150SOL    HW238913   1.986   3.033   2.964  0.1740 -0.5356 -0.3689
 9151SOL     OW38914   1.945   2.976   8.377 -0.3048 -0.5633 -0.2219
 9151SOL    HW138915   1.921   3.056   8.330 -1.3461 -1.3704 -1.0764
 9151SOL    HW238916   2.026   2.952   8.332  2.3390  2.4204  2.9265
 9152SOL     OW38917   3.272   4.689   2.949  0.3717 -0.6201 -0.1665
 9152SOL    HW138918   3.323   4.707   2.870 -0.8424  0.6563 -0.6596
 9152SOL    HW238919   3.335   4.684   3.021  0.5627  1.8702 -0.1488
 9153SOL     OW38920   2.650   3.545   7.550  0.5519  0.4204 -0.1165
 9153SOL    HW138921   2.562   3.522   7.580  0.9170  1.3103  1.6260
 9153SOL    HW238922   2.705   3.469   7.572  0.3724  1.2372  3.1077
 9154SOL     OW38923   2.359   3.131   5.140 -0.9162  0.5239 -0.0656
 9154SOL    HW138924   2.421   3.110   5.070  1.6147 -0.1230  2.3626
 9154SOL    HW238925   2.326   3.213   5.103 -0.2526  0.4695 -0.7932
 9155SOL     OW38926   1.081   1.752   4.497 -0.2289  0.5014  0.4722
 9155SOL    HW138927   1.073   1.658   4.513  2.8317  0.0078 -0.9185
 9155SOL    HW238928   0.994   1.790   4.506 -0.1927  0.3306  1.5345
 9156SOL     OW38929   0.178   4.432   9.427 -0.0030 -0.2430 -0.2898
 9156SOL    HW138930   0.179   4.486   9.348  2.9497  1.3509  0.7989
 9156SOL    HW238931   0.107   4.370   9.411 -0.3811 -0.0228  0.5328
 9157SOL     OW38932   2.258   4.598   6.508 -0.2197 -0.7262 -0.1794
 9157SOL    HW138933   2.281   4.648   6.586 -0.4205 -1.7772  0.5518
 9157SOL    HW238934   2.340   4.593   6.460  1.1473  0.6120  2.0277
 9158SOL     OW38935   2.809   4.624   3.070  0.6351 -0.4163 -0.0386
 9158SOL    HW138936   2.903   4.609   3.075  0.7564  0.1389 -0.6474
 9158SOL    HW238937   2.802   4.710   3.111  0.9768 -0.9987  1.2346
 9159SOL     OW38938   0.624   0.270  12.119  0.1944 -0.4322  0.0471
 9159SOL    HW138939   0.538   0.235  12.145 -0.7713  1.6918 -0.3262
 9159SOL    HW238940   0.612   0.270  12.024  0.9928  2.1022 -0.0393
 9160SOL     OW38941   1.498   1.577   2.772 -0.4537 -0.0397 -0.0192
 9160SOL    HW138942   1.434   1.547   2.837  1.1463  0.2133  1.6981
 9160SOL    HW238943   1.524   1.665   2.800  2.0416 -0.9141  0.4350
 9161SOL     OW38944   0.641   2.199   5.950  0.0021 -0.3082 -0.8728
 9161SOL    HW138945   0.615   2.126   6.006 -1.9085  0.9998 -0.0381
 9161SOL    HW238946   0.710   2.153   5.903  0.9665 -0.6587  0.8692
 9162SOL     OW38947   3.313   2.423   8.999 -0.2577 -0.4462  0.1165
 9162SOL    HW138948   3.399   2.385   8.982 -0.1860  0.1181 -0.8037
 9162SOL    HW238949   3.253   2.369   8.948  2.4624 -3.0019 -0.3658
 9163SOL     OW38950   2.787   0.191  16.163 -0.4797 -0.6064  0.1096
 9163SOL    HW138951   2.810   0.246  16.089 -0.2020 -0.6868  0.1363
 9163SOL    HW238952   2.708   0.238  16.189 -0.5126 -0.9940  0.7278
 9164SOL     OW38953   2.295   0.048   7.756 -0.0607  0.0095  0.5675
 9164SOL    HW138954   2.331   0.127   7.795 -1.8248  0.3589  1.4884
 9164SOL    HW238955   2.375   4.718   7.753  2.7808  4.3406 -1.2428
 9165SOL     OW38956   2.086   3.966  11.808  0.1235 -0.1134  0.0798
 9165SOL    HW138957   2.154   3.909  11.773 -1.1278 -1.0682 -0.7897
 9165SOL    HW238958   2.021   3.899  11.831  0.4024 -0.4402 -0.0786
 9166SOL     OW38959   3.029   3.961   2.191 -0.0365  0.0900  0.1526
 9166SOL    HW138960   2.952   4.010   2.163 -2.0849 -2.8225  0.7055
 9166SOL    HW238961   3.084   4.037   2.213 -0.4611  0.6578 -0.7538
 9167SOL     OW38962   4.129   0.561   6.491 -0.2329 -0.0641 -0.5544
 9167SOL    HW138963   4.131   0.522   6.403 -1.3073 -2.5372  0.5102
 9167SOL    HW238964   4.188   0.635   6.482  1.2569 -1.0832  0.8228
 9168SOL     OW38965   2.420   1.042  11.123 -0.7865  0.4104  0.7970
 9168SOL    HW138966   2.478   1.013  11.193 -0.5079  2.9716  1.6356
 9168SOL    HW238967   2.481   1.091  11.069 -0.0026  0.4628  1.7279
 9169SOL     OW38968   3.430   3.149   3.094  0.4759  0.4044  0.5931
 9169SOL    HW138969   3.476   3.065   3.092  1.3096  0.9140 -1.5378
 9169SOL    HW238970   3.471   3.190   3.170 -0.2778 -3.1898  2.9575
 9170SOL     OW38971   4.521   4.670  16.463  0.1448 -0.1392 -0.1971
 9170SOL    HW138972   4.503   4.712  16.547  0.1708 -0.6110  0.0413
 9170SOL    HW238973   4.436   4.631  16.443 -0.0180 -0.4070  1.0091
 9171SOL     OW38974   1.275   2.130   2.513  0.0311  0.0182 -0.2443
 9171SOL    HW138975   1.268   2.222   2.488 -0.2816  0.3153  0.8996
 9171SOL    HW238976   1.237   2.084   2.438 -2.7785  1.3875  0.3156
 9172SOL     OW38977   2.576   2.376   0.245 -0.5305 -0.3463  0.4142
 9172SOL    HW138978   2.618   2.353   0.327  0.5076  0.3607  0.0741
 9172SOL    HW238979   2.630   2.450   0.218  0.5191 -1.4031 -0.3669
 9173SOL     OW38980   4.550   2.290   6.473 -0.6278  0.2720  0.4557
 9173SOL    HW138981   4.538   2.379   6.506  0.8388  0.7891 -0.4017
 9173SOL    HW238982   4.501   2.243   6.540 -0.6316 -2.2018 -1.2632
 9174SOL     OW38983   3.583   3.693  10.272 -0.1151  0.6562 -0.2093
 9174SOL    HW138984   3.549   3.604  10.273  1.4163  0.0954  2.6362
 9174SOL    HW238985   3.593   3.703  10.367  0.6687  1.8292 -0.4174
 9175SOL     OW38986   1.527   2.549  12.166  0.3612  0.5730 -0.1414
 9175SOL    HW138987   1.571   2.466  12.147  1.4955  1.0713  0.3329
 9175SOL    HW238988   1.548   2.570  12.257  1.0126 -3.0874  0.5446
 9176SOL     OW38989   1.121   0.863  13.023 -0.5629  0.0594 -0.7055
 9176SOL    HW138990   1.209   0.895  13.006  0.6547 -1.5818  2.3949
 9176SOL    HW238991   1.072   0.945  13.018 -0.7356 -0.0291 -0.4949
 9177SOL     OW38992   3.122   0.037   4.019  0.7331 -0.6494 -0.0936
 9177SOL    HW138993   3.162   4.684   3.979  0.9441 -1.5315  1.8001
 9177SOL    HW238994   3.138   0.108   3.958  1.7564 -0.4911  0.3687
 9178SOL     OW38995   3.895   0.142   1.871  0.1256 -0.3268  0.8119
 9178SOL    HW138996   3.818   0.147   1.815  0.6664  0.2367  0.1258
 9178SOL    HW238997   3.876   0.209   1.938 -1.3180  0.7402 -0.6612
 9179SOL     OW38998   4.295   3.938   7.785 -0.3448 -0.6026  0.6997
 9179SOL    HW138999   4.217   3.883   7.798 -0.9994  0.1794  0.0671
 9179SOL    HW239000   4.299   3.970   7.875 -0.6379 -0.6652  0.7363
 9180SOL     OW39001   3.672   2.190  13.952 -0.1656 -0.2121 -0.0201
 9180SOL    HW139002   3.700   2.162  14.039 -1.7780 -0.9614  0.2600
 9180SOL    HW239003   3.670   2.286  13.958 -0.8898 -0.1337 -1.7221
 9181SOL     OW39004   1.735   4.474  12.387 -0.0952  0.0577  0.4286
 9181SOL    HW139005   1.769   4.445  12.302  0.9128  1.8841  0.2168
 9181SOL    HW239006   1.725   4.391  12.434  2.3978 -0.8627 -0.6488
 9182SOL     OW39007   4.198   1.350   2.740 -0.0875  0.3864 -0.4035
 9182SOL    HW139008   4.167   1.432   2.778  0.9002  1.2674 -1.5511
 9182SOL    HW239009   4.228   1.297   2.814  0.8224 -0.2263 -1.2089
 9183SOL     OW39010   4.293   2.387   8.421 -0.0267 -0.2881  0.0152
 9183SOL    HW139011   4.306   2.299   8.387  0.7064  0.4443 -1.5977
 9183SOL    HW239012   4.242   2.368   8.500 -1.3716 -1.7817 -1.2164
 9184SOL     OW39013   3.857   3.218   5.901  0.0703 -0.3299 -0.1856
 9184SOL    HW139014   3.922   3.215   5.971  1.2720  1.0435 -1.2569
 9184SOL    HW239015   3.819   3.130   5.908 -3.1043  1.0020 -0.7984
 9185SOL     OW39016   3.524   3.956   0.662 -0.0147 -0.0920 -0.1858
 9185SOL    HW139017   3.531   3.937   0.569  0.2425  2.2060 -0.6204
 9185SOL    HW239018   3.611   3.924   0.687 -0.4838 -0.3490  1.1797
 9186SOL     OW39019   4.028   1.374  12.538 -0.5203  0.0115  0.1755
 9186SOL    HW139020   3.985   1.316  12.600 -0.2613  0.4089  0.7310
 9186SOL    HW239021   4.100   1.396  12.597 -0.1123  1.2176 -0.7600
 9187SOL     OW39022   0.141   2.680   1.038 -0.3955 -0.1490  0.0209
 9187SOL    HW139023   0.171   2.688   0.947 -3.0377  0.3110 -0.8298
 9187SOL    HW239024   0.081   2.605   1.035  0.7748 -1.0272 -1.2776
 9188SOL     OW39025   4.257   3.407   5.703  0.3113 -0.3855 -0.7650
 9188SOL    HW139026   4.317   3.385   5.775  0.5000 -0.3758 -0.9183
 9188SOL    HW239027   4.219   3.321   5.686  0.5448 -0.9139  1.3779
 9189SOL     OW39028   0.975   4.469   5.566 -0.2228 -0.3105  0.4159
 9189SOL    HW139029   0.881   4.458   5.582 -0.4224  1.2608  0.3766
 9189SOL    HW239030   0.973   4.549   5.514 -2.1849  0.7864  2.1554
 9190SOL     OW39031   1.804   4.618   8.829 -0.3909  0.6677 -0.7548
 9190SOL    HW139032   1.757   4.546   8.870  2.2977 -0.0800  1.0344
 9190SOL    HW239033   1.788   4.692   8.887  0.3114  1.1569 -1.1788
 9191SOL     OW39034   4.321   2.966   3.478 -0.6554  0.2219 -0.4506
 9191SOL    HW139035   4.353   2.945   3.390 -0.0871  0.1648 -0.2293
 9191SOL    HW239036   4.397   2.965   3.536 -0.0541  2.6978 -1.1927
 9192SOL     OW39037   1.636   3.799   3.806 -0.8204 -0.0997  0.4736
 9192SOL    HW139038   1.544   3.815   3.829 -0.8097 -0.6226  0.8754
 9192SOL    HW239039   1.644   3.872   3.745  0.3192 -0.2418  0.4512
 9193SOL     OW39040   3.897   1.547  15.642  0.5943  0.5348 -0.6489
 9193SOL    HW139041   3.925   1.638  15.652 -0.1729  0.7746 -0.6784
 9193SOL    HW239042   3.834   1.540  15.714 -1.2642 -1.2337 -2.4682
 9194SOL     OW39043   3.330   0.503   3.836  0.1511 -0.4173 -0.3973
 9194SOL    HW139044   3.279   0.571   3.790 -0.7014 -0.8553 -0.1003
 9194SOL    HW239045   3.308   0.519   3.928  0.3523  0.5159 -0.5059
 9195SOL     OW39046   2.432   2.345  13.897  0.1224  0.0871  0.0311
 9195SOL    HW139047   2.382   2.274  13.938  0.6360 -0.6229 -0.5588
 9195SOL    HW239048   2.415   2.410  13.965  2.7607 -0.6786  1.4718
 9196SOL     OW39049   0.895   0.569   6.806 -0.2170 -0.0982  0.8978
 9196SOL    HW139050   0.982   0.532   6.794 -0.3963 -0.6641  1.3731
 9196SOL    HW239051   0.925   0.604   6.890 -2.3686  1.5432  1.0013
 9197SOL     OW39052   3.007   2.834   6.440 -0.2866 -0.5358  0.0536
 9197SOL    HW139053   2.993   2.740   6.441 -1.7816 -0.3218 -1.0073
 9197SOL    HW239054   2.980   2.856   6.351  2.4020  4.0333  0.3575
 9198SOL     OW39055   2.403   2.745   9.231 -0.3170  0.5173  0.5806
 9198SOL    HW139056   2.320   2.701   9.246 -1.2571  1.8141 -0.7286
 9198SOL    HW239057   2.415   2.787   9.316 -0.7856 -2.9495  2.3361
 9199SOL     OW39058   1.878   0.048   8.603  0.4468  0.0759  0.4356
 9199SOL    HW139059   1.806   0.107   8.583  0.8860  0.5649  0.2872
 9199SOL    HW239060   1.834   4.698   8.644  1.3009 -0.3965  0.5190
 9200SOL     OW39061   2.790   3.437   5.488 -0.2629 -0.5904  0.4379
 9200SOL    HW139062   2.697   3.456   5.475 -0.1004  1.2232  1.8551
 9200SOL    HW239063   2.821   3.442   5.398  0.1618 -0.5602  0.5863
 9201SOL     OW39064   3.351   0.480   7.323  0.2530  0.7612  0.2858
 9201SOL    HW139065   3.264   0.452   7.354 -0.6363  2.0666 -1.0039
 9201SOL    HW239066   3.411   0.413   7.354 -0.4314  0.9896  2.1218
 9202SOL     OW39067   4.036   4.579   3.352  0.1833 -0.1670 -0.2797
 9202SOL    HW139068   4.012   4.535   3.271  0.1085 -0.4879 -0.0856
 9202SOL    HW239069   4.115   4.527   3.365 -1.0416 -1.8069  0.6172
 9203SOL     OW39070   3.958   4.057   1.705 -0.0643  0.0653 -0.1923
 9203SOL    HW139071   3.987   4.142   1.672  0.7503  0.5457  1.7590
 9203SOL    HW239072   3.891   4.084   1.768 -0.3398  2.4758 -1.5170
 9204SOL     OW39073   2.585   1.759  12.221 -0.7730 -0.5816  0.0596
 9204SOL    HW139074   2.644   1.785  12.151 -0.2132  2.0357  1.5180
 9204SOL    HW239075   2.580   1.664  12.208 -0.5613 -0.3205 -2.0188
 9205SOL     OW39076   4.105   2.881   4.852 -0.3206 -0.2975  0.8248
 9205SOL    HW139077   4.173   2.813   4.846 -0.9072 -0.7045 -0.9823
 9205SOL    HW239078   4.132   2.900   4.942  1.6437 -1.3750  0.4785
 9206SOL     OW39079   0.876   3.906  10.674  0.6736  0.0343  0.1134
 9206SOL    HW139080   0.841   3.976  10.619 -0.4274  0.9028  1.9237
 9206SOL    HW239081   0.882   3.949  10.759 -2.5255 -0.3555  0.5168
 9207SOL     OW39082   3.732   4.577   7.350  0.0653 -0.0415  0.5270
 9207SOL    HW139083   3.802   4.512   7.346 -0.9738 -1.0538 -1.2349
 9207SOL    HW239084   3.699   4.569   7.440  0.0584  1.3433  0.6529
 9208SOL     OW39085   0.360   2.676   3.821 -0.0916  0.3954 -0.0821
 9208SOL    HW139086   0.299   2.689   3.893  0.4801  0.1354  0.4565
 9208SOL    HW239087   0.333   2.586   3.800  0.4829  0.0532  0.6228
 9209SOL     OW39088   1.067   0.295   7.062  0.3741  0.0265  0.3124
 9209SOL    HW139089   1.128   0.364   7.087 -1.1088  1.1342  0.8893
 9209SOL    HW239090   0.991   0.350   7.043 -0.8194 -1.0644  1.8718
 9210SOL     OW39091   4.193   1.698  13.580  0.0345 -0.1097 -0.2459
 9210SOL    HW139092   4.262   1.671  13.520  0.5342 -0.0656  0.3078
 9210SOL    HW239093   4.143   1.618  13.598  2.9869 -1.6229  1.1172
 9211SOL     OW39094   0.215   1.447  15.345 -0.0129 -0.4158  0.2908
 9211SOL    HW139095   0.200   1.495  15.264 -2.5363 -2.1802 -0.2515
 9211SOL    HW239096   0.282   1.502  15.386 -0.7385 -0.0019  0.9170
 9212SOL     OW39097   2.043   2.094   3.564 -0.1192 -0.0718  0.1632
 9212SOL    HW139098   2.112   2.158   3.550 -1.3754  1.4274  0.7926
 9212SOL    HW239099   1.994   2.135   3.493 -2.1771 -2.1169  0.3974
 9213SOL     OW39100   3.224   0.991  16.892  0.1165  0.4119 -0.6410
 9213SOL    HW139101   3.134   1.015  16.870 -0.2222 -1.0448 -0.8326
 9213SOL    HW239102   3.254   1.058  16.954  1.2625  0.5114 -1.3141
 9214SOL     OW39103   2.931   2.941   3.670 -0.4359 -0.2945 -0.0072
 9214SOL    HW139104   3.001   2.980   3.618 -1.1728 -0.5860 -1.2072
 9214SOL    HW239105   2.903   2.877   3.605 -2.0868  0.0457  0.3475
 9215SOL     OW39106   1.410   4.319   8.771 -0.0247 -0.3773  0.4899
 9215SOL    HW139107   1.399   4.276   8.856  2.4974  0.4062  1.2040
 9215SOL    HW239108   1.497   4.358   8.778 -0.0292 -0.2124 -0.3990
 9216SOL     OW39109   2.965   0.633   0.575  0.0108  0.5121 -0.0640
 9216SOL    HW139110   2.876   0.655   0.546 -0.6920  0.3461  2.0059
 9216SOL    HW239111   2.966   0.546   0.612 -1.3871 -0.2302 -1.7389
 9217SOL     OW39112   0.506   2.845  13.591  0.5770  1.2141  0.0429
 9217SOL    HW139113   0.574   2.835  13.658  0.7786  0.7255 -0.2359
 9217SOL    HW239114   0.435   2.790  13.626 -1.7294  3.7658 -0.6302
 9218SOL     OW39115   4.124   3.879   1.824 -0.4770  0.0316 -0.0289
 9218SOL    HW139116   4.081   3.801   1.789 -0.0014  0.1067 -0.7975
 9218SOL    HW239117   4.075   3.944   1.774  1.4447  1.0776 -0.5526
 9219SOL     OW39118   4.326   0.146   4.983 -0.0902 -0.1013  0.7452
 9219SOL    HW139119   4.231   0.156   4.987 -0.1446 -0.1902 -0.1882
 9219SOL    HW239120   4.345   0.170   4.892 -0.6693  0.5449  0.7963
 9220SOL     OW39121   2.258   1.816   7.486  0.0649 -0.0028 -0.1581
 9220SOL    HW139122   2.167   1.790   7.475 -0.1443  0.4428  0.4776
 9220SOL    HW239123   2.296   1.798   7.400  2.6145  0.0940  0.9427
 9221SOL     OW39124   0.751   2.968  13.501  0.7119 -0.4667  0.1547
 9221SOL    HW139125   0.656   2.964  13.513  0.1438  1.2216 -3.9463
 9221SOL    HW239126   0.780   2.936  13.587 -0.7031  1.0370  1.2074
 9222SOL     OW39127   1.543   2.144   8.243 -0.2454  0.2260  0.3589
 9222SOL    HW139128   1.563   2.237   8.237  0.5272  0.0562  0.3366
 9222SOL    HW239129   1.449   2.135   8.225  0.2222 -2.0371 -0.9942
 9223SOL     OW39130   1.263   1.918   9.151 -0.0784  0.0620 -0.1529
 9223SOL    HW139131   1.302   1.920   9.239  2.0450 -0.8744 -1.0739
 9223SOL    HW239132   1.290   1.834   9.113  0.8020  0.0929  0.4028
 9224SOL     OW39133   1.833   3.588  11.516 -0.6882  0.3237  0.5469
 9224SOL    HW139134   1.839   3.493  11.515 -1.0483  0.3126 -0.2081
 9224SOL    HW239135   1.865   3.589  11.426 -2.0120  1.8737  0.0848
 9225SOL     OW39136   3.918   1.943   3.049  0.0273  0.7497 -0.1884
 9225SOL    HW139137   3.862   2.019   3.038 -1.1588 -0.1955 -0.6940
 9225SOL    HW239138   3.903   1.941   3.143  1.6590  0.8121  0.0775
 9226SOL     OW39139   3.627   1.259   1.816 -0.1811 -0.2085  0.0908
 9226SOL    HW139140   3.719   1.250   1.837  0.5409  0.6477 -2.6631
 9226SOL    HW239141   3.619   1.354   1.803 -0.5447 -0.1781  0.5371
 9227SOL     OW39142   3.020   3.290   7.655  0.1848  0.4994 -0.0311
 9227SOL    HW139143   2.969   3.310   7.734 -0.3384 -1.4290  0.1183
 9227SOL    HW239144   3.110   3.313   7.678  0.7212 -0.4359 -1.1748
 9228SOL     OW39145   1.364   2.493   6.866 -0.0982 -0.8094  0.0976
 9228SOL    HW139146   1.338   2.414   6.913 -2.2602  0.4712  1.0262
 9228SOL    HW239147   1.313   2.469   6.789  2.0116 -0.9077 -1.2717
 9229SOL     OW39148   3.694   4.629   6.771 -0.1483 -0.1323 -0.1715
 9229SOL    HW139149   3.662   4.601   6.685  0.7468 -1.1453 -0.1700
 9229SOL    HW239150   3.634   4.585   6.831 -1.0304  1.4353  0.0985
 9230SOL     OW39151   1.895   3.061  14.194  0.2849  0.0526  0.1365
 9230SOL    HW139152   1.890   3.016  14.110 -1.4306  1.8221 -0.7202
 9230SOL    HW239153   1.896   2.990  14.257 -0.1150  0.0961  0.1911
 9231SOL     OW39154   2.325   1.061   5.166 -0.0058  0.3052  0.3979
 9231SOL    HW139155   2.279   1.142   5.143 -1.0565 -0.1672  0.8158
 9231SOL    HW239156   2.415   1.089   5.153 -0.1302  1.2278  1.5316
 9232SOL     OW39157   2.951   2.631  13.844 -0.7278  0.0641  0.4391
 9232SOL    HW139158   3.046   2.642  13.838 -0.7493 -0.4593 -0.7852
 9232SOL    HW239159   2.915   2.715  13.816 -2.0547  0.6822  4.0047
 9233SOL     OW39160   1.266   4.723   9.828  0.3314  0.3007 -0.1655
 9233SOL    HW139161   1.197   0.062   9.848 -0.5964 -0.5607 -0.6044
 9233SOL    HW239162   1.342   0.026   9.879  1.0836 -0.3924 -0.9195
 9234SOL     OW39163   0.225   1.037   2.556 -0.0948 -0.1005 -0.5115
 9234SOL    HW139164   0.214   0.953   2.511 -0.9593  0.3086 -1.0673
 9234SOL    HW239165   0.206   1.098   2.485  1.2818 -0.2404 -0.9899
 9235SOL     OW39166   0.182   1.544   5.345 -0.0230 -0.7161 -0.1957
 9235SOL    HW139167   0.154   1.458   5.313 -1.7412 -0.2788  0.1363
 9235SOL    HW239168   0.174   1.542   5.440  1.0927  1.1396 -0.0723
 9236SOL     OW39169   4.262   0.774  14.434 -0.5412 -0.5322 -0.0455
 9236SOL    HW139170   4.337   0.718  14.453  0.4053  0.4637 -0.8564
 9236SOL    HW239171   4.198   0.751  14.502 -0.3518  0.6117  0.5193
 9237SOL     OW39172   0.900   0.640   0.349  0.0528 -0.0411  0.2487
 9237SOL    HW139173   0.912   0.711   0.412 -0.2630  0.9654 -0.8125
 9237SOL    HW239174   0.993   0.640   0.327 -0.4246  2.7650 -1.7593
 9238SOL     OW39175   4.568   2.156   2.971  0.0310 -0.4794  0.8185
 9238SOL    HW139176   4.513   2.091   3.014 -2.2851  0.3707 -0.8675
 9238SOL    HW239177   4.630   2.100   2.924  0.6073  0.7187  0.1354
 9239SOL     OW39178   4.703   1.510  11.217 -0.1616 -0.5619  0.0595
 9239SOL    HW139179   4.665   1.449  11.280  1.2997 -2.9152 -1.3322
 9239SOL    HW239180   4.678   1.593  11.259  0.3733 -0.4478  0.1567
 9240SOL     OW39181   3.264   0.445   6.095  0.5141  0.6005 -0.5786
 9240SOL    HW139182   3.267   0.383   6.168  2.1608  0.9903 -0.3164
 9240SOL    HW239183   3.324   0.411   6.029  2.5694 -1.2518  2.2306
 9241SOL     OW39184   1.160   1.687   8.132 -0.0486  0.2775 -0.2807
 9241SOL    HW139185   1.245   1.657   8.165 -0.2039 -1.5770 -1.5720
 9241SOL    HW239186   1.125   1.694   8.221 -1.9731  0.8438 -1.0811
 9242SOL     OW39187   2.954   1.551   0.838  0.0237 -0.4680  0.6327
 9242SOL    HW139188   2.887   1.615   0.816  0.3851 -0.0242  0.8163
 9242SOL    HW239189   2.901   1.487   0.884  0.0938 -0.9575  0.0278
 9243SOL     OW39190   4.036   2.443   9.185  0.4237 -0.2329 -0.2760
 9243SOL    HW139191   3.996   2.404   9.107 -0.2888  3.9531 -2.0162
 9243SOL    HW239192   4.042   2.359   9.231 -0.7442  0.8944  1.9031
 9244SOL     OW39193   1.450   1.754  16.376  0.1020 -0.7380 -0.6487
 9244SOL    HW139194   1.403   1.773  16.295 -0.7156  0.6977  0.1624
 9244SOL    HW239195   1.376   1.738  16.434  0.7453  1.9899  0.9436
 9245SOL     OW39196   3.452   2.079   9.618 -0.5178 -0.7952  0.2424
 9245SOL    HW139197   3.448   2.121   9.532 -0.8654 -1.0373  0.1399
 9245SOL    HW239198   3.372   2.121   9.649 -0.3913  0.3754 -1.0015
 9246SOL     OW39199   2.767   3.184   3.512  0.1535 -0.6810 -0.5232
 9246SOL    HW139200   2.705   3.256   3.498  0.7436 -0.0331  0.2115
 9246SOL    HW239201   2.851   3.229   3.504 -0.8418  1.5045  1.1262
 9247SOL     OW39202   2.625   0.575   5.496 -0.2132  0.5480 -0.4176
 9247SOL    HW139203   2.634   0.566   5.591 -1.5200  0.1010 -0.3415
 9247SOL    HW239204   2.629   0.668   5.472  0.3406  0.7363  0.4195
 9248SOL     OW39205   2.059   0.956   6.994 -0.3260 -0.1300  0.0006
 9248SOL    HW139206   2.129   0.906   6.950 -2.1145 -3.5265  0.9803
 9248SOL    HW239207   1.992   0.958   6.925  0.5370 -0.1627 -0.8423
 9249SOL     OW39208   2.707   4.063   9.481  0.3607  0.0143  0.4201
 9249SOL    HW139209   2.645   4.075   9.553  1.9045 -0.1358  1.7845
 9249SOL    HW239210   2.662   4.115   9.414 -1.3807 -2.2259 -0.1652
 9250SOL     OW39211   1.068   2.049   6.247  0.2323  0.6758  0.7494
 9250SOL    HW139212   1.029   1.966   6.274  0.5065  0.5300  0.6903
 9250SOL    HW239213   1.003   2.098   6.197  0.7049 -1.6046 -2.0858
 9251SOL     OW39214   1.633   0.799   6.457  0.1726 -0.1863  0.2161
 9251SOL    HW139215   1.717   0.765   6.487 -0.8927 -1.1417  2.1220
 9251SOL    HW239216   1.651   0.893   6.457  2.9327 -0.7121  0.3758
 9252SOL     OW39217   2.812   2.886  14.207  0.5488  0.3834  1.0877
 9252SOL    HW139218   2.824   2.908  14.300 -1.9314  2.7892  0.8397
 9252SOL    HW239219   2.823   2.791  14.216 -2.7088 -0.0525  0.4979
 9253SOL     OW39220   3.422   1.244   6.467 -0.3951 -0.7847 -0.1309
 9253SOL    HW139221   3.472   1.301   6.409  0.9395 -1.2497  0.5787
 9253SOL    HW239222   3.412   1.310   6.535  1.2079 -1.1498  0.4589
 9254SOL     OW39223   2.608   0.208   5.631 -0.3369  0.2700  0.1173
 9254SOL    HW139224   2.699   0.183   5.616 -0.5963  0.2883 -1.5188
 9254SOL    HW239225   2.595   0.192   5.725 -0.3214  0.4557  0.1513
 9255SOL     OW39226   4.229   1.660   3.049 -0.3606  0.1563  0.0646
 9255SOL    HW139227   4.302   1.671   2.988  0.6275  2.1112  1.6199
 9255SOL    HW239228   4.206   1.750   3.073 -1.6413 -0.4902  1.2935
 9256SOL     OW39229   2.702   4.097   2.684 -0.0259  0.2950 -0.3531
 9256SOL    HW139230   2.670   4.187   2.674  0.2951  0.2272 -1.9914
 9256SOL    HW239231   2.785   4.091   2.637  0.5956  0.5116  0.7098
 9257SOL     OW39232   2.182   0.815   5.099 -0.4371  0.2469 -0.2882
 9257SOL    HW139233   2.202   0.906   5.119 -0.3905 -0.6271  3.7153
 9257SOL    HW239234   2.222   0.808   5.012  0.4911  0.3488  0.1322
 9258SOL     OW39235   4.615   0.535   5.069  0.0653 -0.3342  0.5231
 9258SOL    HW139236   4.584   0.583   5.146  1.6422  0.7114  0.5169
 9258SOL    HW239237   4.532   0.493   5.046  0.0114 -0.0427  0.1940
 9259SOL     OW39238   3.771   4.211   7.379 -0.6696 -0.0648 -0.0105
 9259SOL    HW139239   3.722   4.154   7.319  0.8542  0.9030 -2.1562
 9259SOL    HW239240   3.692   4.254   7.411 -0.3467  1.4331 -1.2273
 9260SOL     OW39241   3.639   2.621   9.023  0.3467  0.1995 -0.1476
 9260SOL    HW139242   3.599   2.535   9.025 -2.6701  1.6213  0.6269
 9260SOL    HW239243   3.695   2.621   9.101 -3.7569  0.8095  2.8355
 9261SOL     OW39244   1.469   2.187  13.987  0.1790 -0.0595  0.7153
 9261SOL    HW139245   1.433   2.108  14.028 -0.0914  0.0155  0.6240
 9261SOL    HW239246   1.396   2.214  13.931 -1.5479 -2.8551  1.5871
 9262SOL     OW39247   0.665   2.044   9.059 -0.1254  0.5771  0.0332
 9262SOL    HW139248   0.744   2.008   9.019 -1.3435 -0.0558 -1.8304
 9262SOL    HW239249   0.700   2.125   9.096 -0.1346  0.1690  0.9399
 9263SOL     OW39250   4.258   3.165   1.636  0.4919 -0.4087 -0.3209
 9263SOL    HW139251   4.300   3.202   1.714 -0.9140  1.5823 -0.4948
 9263SOL    HW239252   4.323   3.105   1.601 -0.1960 -0.3723 -1.6296
 9264SOL     OW39253   3.625   2.626   0.704  0.3045  0.0673  0.0392
 9264SOL    HW139254   3.584   2.712   0.712 -0.8324 -0.6070  1.4396
 9264SOL    HW239255   3.717   2.643   0.721  0.7226 -1.8285 -0.3149
 9265SOL     OW39256   3.228   2.743   7.652 -0.8984 -0.2993 -0.8440
 9265SOL    HW139257   3.152   2.796   7.677 -1.4839 -1.3175 -0.4874
 9265SOL    HW239258   3.282   2.806   7.603 -0.1145  0.1019  0.5180
 9266SOL     OW39259   3.982   0.271   9.934  0.0800  0.4507 -1.1609
 9266SOL    HW139260   4.074   0.293   9.950  0.2227  1.5043 -3.3969
 9266SOL    HW239261   3.945   0.358   9.924 -1.6902 -0.4036 -2.0483
 9267SOL     OW39262   2.489   4.374  15.291 -0.5278  0.0179 -0.1275
 9267SOL    HW139263   2.528   4.457  15.318 -0.1359 -1.1020  2.7101
 9267SOL    HW239264   2.565   4.325  15.258  1.4373  1.6745  1.9323
 9268SOL     OW39265   2.829   2.745   8.239  0.0647  0.0365  0.1410
 9268SOL    HW139266   2.870   2.701   8.165 -0.0286  0.6041 -0.2452
 9268SOL    HW239267   2.764   2.805   8.203  0.1112  0.5441  0.9096
 9269SOL     OW39268   3.603   0.986  13.673 -0.2827 -0.7902 -0.0954
 9269SOL    HW139269   3.622   0.926  13.746  0.2867  0.3360  0.6767
 9269SOL    HW239270   3.508   0.980  13.661 -0.3275 -1.4891  0.5715
 9270SOL     OW39271   2.820   0.462  14.375  0.4523 -0.4850  0.0312
 9270SOL    HW139272   2.893   0.401  14.362  1.4255  0.4921  0.9471
 9270SOL    HW239273   2.863   0.537  14.335  0.7443  0.1386  1.5431
 9271SOL     OW39274   1.505   3.897   5.642  0.9998  0.4970  0.0489
 9271SOL    HW139275   1.421   3.941   5.655 -0.0153 -1.3780 -0.1633
 9271SOL    HW239276   1.484   3.805   5.657  2.1443  0.2376  0.1052
 9272SOL     OW39277   4.465   2.707  10.103  0.1403 -0.2763 -0.4345
 9272SOL    HW139278   4.435   2.667  10.021  0.5909  0.5809 -1.0280
 9272SOL    HW239279   4.381   2.748  10.125  1.5924  2.9298 -0.7698
 9273SOL     OW39280   2.759   2.792   6.861  0.2879 -0.3211 -0.1410
 9273SOL    HW139281   2.686   2.818   6.805  0.1764 -0.9549 -0.2967
 9273SOL    HW239282   2.717   2.711   6.891  1.5364 -0.4881  1.1754
 9274SOL     OW39283   0.776   0.359   7.114  1.1164 -0.5175  0.3620
 9274SOL    HW139284   0.795   0.368   7.208 -0.6685 -1.4636  0.8093
 9274SOL    HW239285   0.773   0.453   7.093  0.2438 -0.5861  0.2197
 9275SOL     OW39286   2.999   2.278  13.580  0.8481  0.4069  0.1994
 9275SOL    HW139287   3.041   2.265  13.496 -0.6515  0.9216 -0.6235
 9275SOL    HW239288   2.967   2.368  13.572  0.3745  0.0442 -1.8572
 9276SOL     OW39289   0.966   3.255  13.195  0.2967 -0.3109  0.2285
 9276SOL    HW139290   0.967   3.180  13.254 -3.8501 -0.6192 -0.0884
 9276SOL    HW239291   1.054   3.269  13.162  0.3316  0.7421  0.7396
 9277SOL     OW39292   0.264   0.850   5.707  0.0542 -0.5589 -0.3223
 9277SOL    HW139293   0.249   0.903   5.785  0.6953 -0.9051  0.0304
 9277SOL    HW239294   0.253   0.920   5.643 -3.4358 -1.3632 -0.6316
 9278SOL     OW39295   1.555   4.386  12.070  0.3694  0.2010 -0.7183
 9278SOL    HW139296   1.625   4.385  12.136 -1.5503 -0.7014  1.2962
 9278SOL    HW239297   1.598   4.445  12.008  0.2599  1.0760  0.0260
 9279SOL     OW39298   3.457   1.615   7.996  0.4783  0.7116 -0.1115
 9279SOL    HW139299   3.434   1.543   8.054 -3.1918  0.5128 -1.7560
 9279SOL    HW239300   3.458   1.693   8.051 -3.1113 -0.0665  1.0815
 9280SOL     OW39301   4.509   4.225   9.587  0.2790  0.1529 -0.3200
 9280SOL    HW139302   4.593   4.258   9.619 -0.0160  0.1969  0.4075
 9280SOL    HW239303   4.488   4.193   9.675  2.3162  0.1901  0.1757
 9281SOL     OW39304   1.818   3.418   4.364  0.0169  0.3050 -0.0804
 9281SOL    HW139305   1.777   3.333   4.345  2.5255 -0.6516 -1.2650
 9281SOL    HW239306   1.875   3.386   4.434  0.6923  1.7153  0.0147
 9282SOL     OW39307   3.467   2.422   8.530  0.8439  0.2965 -0.3418
 9282SOL    HW139308   3.532   2.491   8.545  0.9623  0.3107 -0.9241
 9282SOL    HW239309   3.396   2.466   8.578  2.2078  1.1677  0.8903
 9283SOL     OW39310   3.901   2.858   5.713  0.1139 -0.5733 -0.4169
 9283SOL    HW139311   3.846   2.870   5.636 -1.0130  1.6024  0.7354
 9283SOL    HW239312   3.846   2.910   5.772  1.4641  0.5548 -0.1747
 9284SOL     OW39313   3.395   0.994   6.806 -0.3025  0.0603 -0.3996
 9284SOL    HW139314   3.455   0.920   6.805  0.0233  0.3238 -0.4447
 9284SOL    HW239315   3.447   1.073   6.826 -1.4703  0.7144  0.0880
 9285SOL     OW39316   0.134   1.423   4.035  0.8488 -0.1212  0.4065
 9285SOL    HW139317   0.066   1.357   4.046 -0.8365  1.3373 -1.1589
 9285SOL    HW239318   0.107   1.469   3.955 -0.1075 -1.1680  0.1261
 9286SOL     OW39319   4.521   2.483   8.211  0.0770 -0.4913  0.0623
 9286SOL    HW139320   4.543   2.489   8.304  0.2276  1.0678 -0.0626
 9286SOL    HW239321   4.508   2.390   8.193 -0.9140 -0.8695  2.8964
 9287SOL     OW39322   1.823   3.039   3.873  0.0008 -0.4638 -0.5356
 9287SOL    HW139323   1.773   3.119   3.887 -1.1444 -0.9398 -1.9091
 9287SOL    HW239324   1.906   3.070   3.910 -0.9383 -2.1259  2.8514
 9288SOL     OW39325   2.840   1.753   8.184  0.1254  0.4870  0.1827
 9288SOL    HW139326   2.886   1.837   8.197 -1.9841  1.6225  0.3883
 9288SOL    HW239327   2.800   1.742   8.271 -0.1154 -1.7507 -0.2269
 9289SOL     OW39328   1.373   0.602  15.829 -0.8169  0.5020 -0.2547
 9289SOL    HW139329   1.316   0.678  15.842  0.8811  1.5660  1.0219
 9289SOL    HW239330   1.335   0.565  15.750 -0.1240  0.8588 -0.7550
 9290SOL     OW39331   0.379   1.668   5.217  0.0106 -0.4916  0.2638
 9290SOL    HW139332   0.440   1.612   5.266 -0.2515 -0.5996  0.4680
 9290SOL    HW239333   0.303   1.648   5.272  0.5513 -0.5657  0.9802
 9291SOL     OW39334   0.911   2.717   0.471  0.1829  0.4028 -0.8508
 9291SOL    HW139335   0.828   2.741   0.512  0.6195  1.1714 -0.4255
 9291SOL    HW239336   0.896   2.624   0.454 -1.7111  0.8015 -1.4347
 9292SOL     OW39337   0.230   0.833   0.298 -0.1526  0.4291 -0.7320
 9292SOL    HW139338   0.299   0.823   0.232  1.9615 -0.0851  1.5687
 9292SOL    HW239339   0.275   0.878   0.370  0.0849 -1.8017  0.5187
 9293SOL     OW39340   1.212   2.264   2.999 -0.5008 -0.1989  0.3275
 9293SOL    HW139341   1.164   2.205   2.941 -0.1034  0.3259 -0.5357
 9293SOL    HW239342   1.159   2.343   2.987 -3.5747 -2.3229  0.0306
 9294SOL     OW39343   1.352   3.354   4.168 -0.2045 -0.5418 -0.1669
 9294SOL    HW139344   1.271   3.378   4.214 -0.6658  0.3041 -1.3944
 9294SOL    HW239345   1.385   3.443   4.156 -1.5589 -0.3337 -2.4738
 9295SOL     OW39346   4.244   4.429   6.281 -0.0569  0.0401 -0.6190
 9295SOL    HW139347   4.265   4.336   6.288  0.0270  0.0312 -1.0023
 9295SOL    HW239348   4.182   4.436   6.209  0.4405 -0.0631 -1.0592
 9296SOL     OW39349   2.296   1.997  13.716 -0.1380 -0.4280 -0.0722
 9296SOL    HW139350   2.257   1.910  13.708  0.1532 -0.3457 -2.3319
 9296SOL    HW239351   2.390   1.977  13.715  0.2281  1.3018 -0.2025
 9297SOL     OW39352   0.710   4.450   0.921 -0.0510  0.0224  0.0825
 9297SOL    HW139353   0.764   4.520   0.958  0.2545 -1.7826  3.0507
 9297SOL    HW239354   0.663   4.506   0.859  1.8527  0.6208 -0.8324
 9298SOL     OW39355   4.060   1.913  15.271  0.0341 -0.3194  0.1347
 9298SOL    HW139356   4.065   1.818  15.259  1.5238 -0.4541  1.7572
 9298SOL    HW239357   4.087   1.927  15.362 -4.9738 -2.4463  1.9792
 9299SOL     OW39358   3.750   3.330   4.990 -0.3715 -0.0923  0.2732
 9299SOL    HW139359   3.770   3.352   5.082  0.4973 -0.2419  0.1242
 9299SOL    HW239360   3.659   3.357   4.993 -0.2827  0.0101  2.4786
 9300SOL     OW39361   0.181   3.231   9.405 -0.0502  0.1923 -0.0410
 9300SOL    HW139362   0.204   3.151   9.358 -1.7389 -0.3858  0.1257
 9300SOL    HW239363   0.226   3.217   9.489  0.1435  1.4814  0.0657
 9301SOL     OW39364   1.655   1.889   8.367 -1.1242  0.1240  0.4067
 9301SOL    HW139365   1.626   1.972   8.328  1.8629  0.8750 -0.1596
 9301SOL    HW239366   1.620   1.821   8.309  2.1396 -1.0598 -0.1243
 9302SOL     OW39367   0.607   4.244   3.053  0.0884 -0.0643  0.2300
 9302SOL    HW139368   0.525   4.197   3.070 -0.5747  1.7176  1.9187
 9302SOL    HW239369   0.579   4.329   3.085  2.6692 -0.4536  3.4314
 9303SOL     OW39370   1.016   0.497  13.387 -0.5028 -0.5790  0.3275
 9303SOL    HW139371   1.038   0.581  13.348 -2.4953  1.7154  4.0521
 9303SOL    HW239372   1.100   0.478  13.429 -0.7008 -1.1368  0.4753
 9304SOL     OW39373   2.773   4.295   4.715 -0.8712 -0.1364 -0.1199
 9304SOL    HW139374   2.723   4.245   4.651 -1.7565  0.5864 -0.0049
 9304SOL    HW239375   2.692   4.327   4.756 -1.7482  0.3726 -2.2041
 9305SOL     OW39376   2.841   2.110  12.787  0.1489  0.3994 -0.6647
 9305SOL    HW139377   2.756   2.065  12.794 -0.6027  1.8761 -0.3569
 9305SOL    HW239378   2.886   2.083  12.867 -0.3621  0.8044 -0.2423
 9306SOL     OW39379   3.409   2.835   5.231 -0.6540 -0.2059 -0.5273
 9306SOL    HW139380   3.401   2.745   5.264  0.7541 -0.4030 -0.7155
 9306SOL    HW239381   3.482   2.822   5.171 -0.0055  2.3128 -0.3018
 9307SOL     OW39382   1.115   1.946   8.888  0.0316 -0.0002 -0.3811
 9307SOL    HW139383   1.144   1.887   8.819  0.1453 -3.1719  2.3888
 9307SOL    HW239384   1.182   1.926   8.953 -3.0871  1.9069  3.4121
 9308SOL     OW39385   4.177   3.016   3.701 -0.1269 -0.3217 -0.0408
 9308SOL    HW139386   4.249   3.010   3.638  0.2271 -0.7996  0.4174
 9308SOL    HW239387   4.171   2.928   3.738 -0.1729  1.3081  3.8231
 9309SOL     OW39388   3.113   1.014  15.010  0.3691 -0.4456 -0.1897
 9309SOL    HW139389   3.151   1.083  14.957  1.0759  0.8023  1.9256
 9309SOL    HW239390   3.138   1.038  15.099  0.6337  1.7539 -0.8699
 9310SOL     OW39391   3.818   3.624  14.413 -0.1252  0.4508  0.2215
 9310SOL    HW139392   3.751   3.604  14.347 -1.3183 -0.6072  1.7577
 9310SOL    HW239393   3.889   3.573  14.374 -0.2336 -0.1447  0.8058
 9311SOL     OW39394   4.688   2.413   4.866 -0.0753  0.0052  0.1169
 9311SOL    HW139395   4.652   2.490   4.909  2.1048 -0.2080  2.3544
 9311SOL    HW239396   4.612   2.372   4.825  0.8157  0.6101 -2.1235
 9312SOL     OW39397   4.073   3.527   5.215  0.4508  0.0309 -0.3809
 9312SOL    HW139398   4.050   3.620   5.211 -0.0594 -0.1344 -1.0950
 9312SOL    HW239399   4.002   3.497   5.273  0.9937  0.2219  0.3864
 9313SOL     OW39400   3.569   2.307   9.003  0.1636  0.1295  0.2933
 9313SOL    HW139401   3.600   2.266   8.923 -0.0680 -1.4959  1.0256
 9313SOL    HW239402   3.638   2.273   9.061  1.0757 -2.5530 -2.3523
 9314SOL     OW39403   0.151   3.403   0.853 -0.3087  0.0260  0.1938
 9314SOL    HW139404   0.225   3.451   0.891  0.5104 -1.1190  0.0373
 9314SOL    HW239405   0.095   3.397   0.931 -2.6198 -0.1642 -1.4770
 9315SOL     OW39406   2.197   1.118  13.541  0.9651  0.0968 -0.0135
 9315SOL    HW139407   2.201   1.093  13.633 -0.5562 -0.3790 -0.0805
 9315SOL    HW239408   2.230   1.208  13.545  0.3152  0.3775 -0.9542
 9316SOL     OW39409   3.200   3.566  11.390  0.1978  0.1725 -0.3844
 9316SOL    HW139410   3.163   3.551  11.476  0.8083  1.1172  0.0395
 9316SOL    HW239411   3.185   3.660  11.383 -1.5190 -0.1118 -0.5201
 9317SOL     OW39412   4.107   4.574   6.595  0.2861  0.3311  0.6521
 9317SOL    HW139413   4.024   4.597   6.638  1.0563  2.5989  0.9434
 9317SOL    HW239414   4.161   4.652   6.608 -1.0138  1.2836  0.4367
 9318SOL     OW39415   1.070   2.239   8.044 -0.0483 -0.0102  0.6606
 9318SOL    HW139416   1.017   2.293   7.986 -0.2467 -1.4511 -0.4959
 9318SOL    HW239417   1.149   2.291   8.032 -0.4301  0.3370 -0.3140
 9319SOL     OW39418   3.009   3.223   7.041 -0.3810 -0.1783  0.1486
 9319SOL    HW139419   3.086   3.244   6.988 -3.3699  2.3373 -3.1462
 9319SOL    HW239420   3.034   3.274   7.118 -0.6140  0.2960 -0.0897
 9320SOL     OW39421   2.301   3.837   5.155 -0.0073  0.0357 -0.1811
 9320SOL    HW139422   2.383   3.853   5.202 -0.0188  0.1376 -0.1957
 9320SOL    HW239423   2.293   3.746   5.181 -1.0214 -0.1105 -1.0206
 9321SOL     OW39424   3.999   4.349   7.450  0.1094  0.1599 -0.9809
 9321SOL    HW139425   3.931   4.285   7.431 -0.3686 -0.3214  2.4163
 9321SOL    HW239426   4.014   4.369   7.357  0.0776  0.5926 -0.8912
 9322SOL     OW39427   2.989   3.607   2.502 -0.0806  0.6069 -0.2484
 9322SOL    HW139428   3.010   3.514   2.502  0.1058  0.6539  1.3823
 9322SOL    HW239429   2.985   3.632   2.410 -0.9502  1.1206 -0.0742
 9323SOL     OW39430   0.228   2.988   0.777 -0.4424 -0.2009 -0.0112
 9323SOL    HW139431   0.214   3.000   0.683 -1.3128  0.6069  0.2196
 9323SOL    HW239432   0.215   2.893   0.778 -1.2735 -0.0796  0.8149
 9324SOL     OW39433   0.965   2.012   3.265 -0.0536 -0.7557 -0.4242
 9324SOL    HW139434   0.891   1.983   3.318  0.1115 -0.8483 -0.2472
 9324SOL    HW239435   0.952   1.967   3.181  2.4438 -1.2170 -0.5449
 9325SOL     OW39436   2.761   3.084   2.143  0.5626 -0.3628  0.5600
 9325SOL    HW139437   2.750   3.158   2.202 -0.6936 -1.2807  1.4904
 9325SOL    HW239438   2.844   3.061   2.184  0.4951  0.5342  1.1955
 9326SOL     OW39439   0.326   4.050  16.334  0.3144  0.2799 -0.3372
 9326SOL    HW139440   0.341   4.014  16.247 -1.4715  0.4140 -0.7044
 9326SOL    HW239441   0.234   4.076  16.323 -0.0524 -0.7414  0.3096
 9327SOL     OW39442   2.063   1.767   9.460  0.2248  0.0133  0.4778
 9327SOL    HW139443   2.045   1.677   9.485 -1.7168  0.3014  0.1180
 9327SOL    HW239444   1.973   1.797   9.446  0.1989 -0.1183  0.3704
 9328SOL     OW39445   2.032   1.831   6.838 -0.3220 -0.8702 -0.7753
 9328SOL    HW139446   2.112   1.808   6.789  0.2757 -3.3485  1.3738
 9328SOL    HW239447   2.006   1.744   6.866  0.0660  0.6843  4.4873
 9329SOL     OW39448   1.386   2.970   6.918 -0.3788  0.0221  0.1915
 9329SOL    HW139449   1.410   2.994   7.007  0.2096  0.3782 -0.0661
 9329SOL    HW239450   1.364   2.877   6.933  0.4678  0.3600  3.5887
 9330SOL     OW39451   3.965   3.933   7.462  0.1375 -0.3605 -0.5052
 9330SOL    HW139452   3.873   3.921   7.438 -0.2278 -0.2380  0.8158
 9330SOL    HW239453   3.988   3.869   7.530 -1.7770 -4.2605 -3.5683
 9331SOL     OW39454   2.569   0.364   3.070  0.3118  0.1001 -0.3085
 9331SOL    HW139455   2.544   0.414   2.992 -0.6140 -1.2612 -0.8803
 9331SOL    HW239456   2.486   0.318   3.083 -1.3281  2.1344 -3.5119
 9332SOL     OW39457   2.057   0.088   4.711 -0.6566 -0.5354 -0.3736
 9332SOL    HW139458   2.013   0.166   4.679  1.1142  0.4234 -0.4573
 9332SOL    HW239459   2.130   0.073   4.650  1.6859 -1.3815  2.6513
 9333SOL     OW39460   4.002   1.109   6.106  0.7139  0.5260 -0.0519
 9333SOL    HW139461   4.051   1.134   6.028 -1.4942  0.8336 -1.3452
 9333SOL    HW239462   4.048   1.026   6.116  1.9841  0.9393 -2.7104
 9334SOL     OW39463   1.752   1.221   5.002 -0.5581  0.4460  0.1156
 9334SOL    HW139464   1.712   1.234   5.088  0.6346  2.4520  0.3586
 9334SOL    HW239465   1.752   1.126   4.986 -0.9624  0.2790  1.1180
 9335SOL     OW39466   2.506   3.252   2.818  0.4665  0.2114 -0.1558
 9335SOL    HW139467   2.530   3.296   2.737 -1.3759  0.8624 -0.3509
 9335SOL    HW239468   2.591   3.217   2.843  0.2885  0.9815  1.5201
 9336SOL     OW39469   2.086   0.874  12.818  0.0773 -0.3221  0.3673
 9336SOL    HW139470   2.115   0.950  12.767 -1.0704  0.6337  1.1320
 9336SOL    HW239471   2.010   0.853  12.764  0.3006 -2.3450  0.8370
 9337SOL     OW39472   2.195   1.039   7.400  0.0946  0.3315 -0.3674
 9337SOL    HW139473   2.118   1.015   7.451  0.0319 -1.7845 -1.4520
 9337SOL    HW239474   2.251   0.962   7.411  0.5091  0.6973  0.0570
 9338SOL     OW39475   0.038   2.511   0.646  0.1115 -0.4517 -0.2573
 9338SOL    HW139476   0.085   2.470   0.573  0.4686 -0.3159 -0.1016
 9338SOL    HW239477   4.703   2.448   0.687  1.2202 -0.8659  0.6907
 9339SOL     OW39478   3.136   1.122   7.923  0.3287  0.2928  0.2520
 9339SOL    HW139479   3.181   1.207   7.913  1.6400 -0.2285  1.8033
 9339SOL    HW239480   3.206   1.060   7.944 -0.3028 -0.4321  0.1801
 9340SOL     OW39481   3.508   1.083   1.991 -0.4239 -0.2603  0.1438
 9340SOL    HW139482   3.466   1.146   2.050  0.9618  2.1855 -1.4536
 9340SOL    HW239483   3.539   1.141   1.921  0.9677  0.2575  1.1967
 9341SOL     OW39484   4.178   4.080   9.659  0.1482  0.6524 -0.3002
 9341SOL    HW139485   4.133   4.154   9.699 -1.3515  0.3890 -1.4918
 9341SOL    HW239486   4.255   4.083   9.716 -0.0433 -0.2620 -0.0032
 9342SOL     OW39487   3.621   1.883   1.197 -0.3635 -0.2317  0.8309
 9342SOL    HW139488   3.540   1.907   1.242 -1.2569 -1.9192  0.1713
 9342SOL    HW239489   3.619   1.789   1.216 -0.8600 -0.3346  0.2823
 9343SOL     OW39490   0.157   2.329   3.072 -0.1157 -0.1329 -0.0649
 9343SOL    HW139491   0.214   2.301   3.000 -1.6601  1.4275 -1.9083
 9343SOL    HW239492   0.204   2.293   3.147  1.0142 -0.7985 -1.0706
 9344SOL     OW39493   1.273   3.365   0.405  0.7614 -0.1605  0.0304
 9344SOL    HW139494   1.324   3.442   0.378  1.6608  0.1961  2.8190
 9344SOL    HW239495   1.198   3.412   0.440  0.5994 -0.3731 -0.0307
 9345SOL     OW39496   4.381   0.661   6.418 -0.0600  0.4215 -0.2718
 9345SOL    HW139497   4.368   0.673   6.324  2.2178  1.5756 -0.4386
 9345SOL    HW239498   4.369   0.748   6.455  0.7856 -0.5533  2.2930
 9346SOL     OW39499   1.029   3.086   9.438 -0.1298 -0.2806  0.6852
 9346SOL    HW139500   1.044   3.152   9.506 -3.5369 -1.3405  2.4596
 9346SOL    HW239501   0.955   3.037   9.474 -1.9940  0.4954 -2.1631
 9347SOL     OW39502   0.516   3.273   2.945 -0.2104 -0.2764  0.3676
 9347SOL    HW139503   0.427   3.305   2.928 -0.2132 -0.7289 -0.4712
 9347SOL    HW239504   0.556   3.343   2.998 -1.0232  0.7990 -0.4290
 9348SOL     OW39505   0.517   4.351   9.767 -0.7931  0.5081 -0.6305
 9348SOL    HW139506   0.597   4.350   9.715  0.5917  0.9314  1.4973
 9348SOL    HW239507   0.509   4.446   9.758  0.5893  1.0418  3.8202
 9349SOL     OW39508   4.284   0.530   7.197 -0.3598 -0.2669 -0.3452
 9349SOL    HW139509   4.314   0.583   7.271 -1.6679  0.2005 -0.1517
 9349SOL    HW239510   4.242   0.598   7.144  1.3832  1.2502  0.2031
 9350SOL     OW39511   1.337   3.913  10.039 -0.2653  1.0372 -0.2899
 9350SOL    HW139512   1.249   3.931  10.074 -0.0151 -1.5467  1.6306
 9350SOL    HW239513   1.319   3.854   9.967 -2.3376  1.6322 -0.2776
 9351SOL     OW39514   4.147   2.599  13.084 -0.4757  0.5434  0.0216
 9351SOL    HW139515   4.239   2.573  13.096 -0.9857 -0.7936  1.0547
 9351SOL    HW239516   4.149   2.690  13.112 -0.7156  0.4633  0.2906
 9352SOL     OW39517   3.998   3.909   4.036 -0.0550  0.1152 -0.3137
 9352SOL    HW139518   4.004   3.931   3.943 -0.2438  1.4818  0.0003
 9352SOL    HW239519   3.924   3.849   4.028 -1.1232  1.2928  0.7738
 9353SOL     OW39520   3.542   1.835   7.466 -0.0063  0.1508  0.1124
 9353SOL    HW139521   3.568   1.797   7.550 -2.3006  0.5489  1.0025
 9353SOL    HW239522   3.588   1.919   7.476  0.3972 -0.2568  1.7308
 9354SOL     OW39523   0.804   3.174   2.366  0.0351 -0.1531 -0.2179
 9354SOL    HW139524   0.775   3.216   2.447 -0.7693  3.1932 -2.2167
 9354SOL    HW239525   0.803   3.083   2.393 -1.7468 -0.6236 -1.8561
 9355SOL     OW39526   0.357   0.166   0.518  0.5210 -0.2367 -0.0121
 9355SOL    HW139527   0.389   0.161   0.428  0.6121 -1.1167  0.0641
 9355SOL    HW239528   0.308   0.248   0.517  1.4721  0.3632  2.4661
 9356SOL     OW39529   1.044   3.382   6.606 -0.2373 -0.4779 -0.2195
 9356SOL    HW139530   1.044   3.293   6.641 -0.5204 -0.9818 -1.5125
 9356SOL    HW239531   1.098   3.416   6.678  0.4239 -0.7140 -0.6073
 9357SOL     OW39532   1.243   0.026  15.983 -0.7603 -0.1465 -0.4652
 9357SOL    HW139533   1.197   4.685  15.930 -1.0937  0.5939 -1.0807
 9357SOL    HW239534   1.162   0.060  16.022  0.1174 -2.4571  3.3645
 9358SOL     OW39535   1.332   4.583   2.775  0.3846 -0.1643  0.2631
 9358SOL    HW139536   1.418   4.552   2.748  0.9715  1.4418  0.2887
 9358SOL    HW239537   1.352   4.617   2.862  0.1166 -1.2598  0.7474
 9359SOL     OW39538   1.005   2.713   7.393  0.3931  0.3007 -0.1995
 9359SOL    HW139539   1.028   2.620   7.391  3.5368  1.0064  3.3862
 9359SOL    HW239540   0.981   2.731   7.484 -1.7322 -1.6446 -0.3712
 9360SOL     OW39541   2.641   0.410   1.680 -0.2258 -0.3242 -0.0968
 9360SOL    HW139542   2.722   0.415   1.730 -0.8049  1.9424  0.6559
 9360SOL    HW239543   2.664   0.372   1.596 -1.1298 -0.4611 -0.2808
 9361SOL     OW39544   3.748   2.763   6.110  0.2522 -0.5143 -0.1705
 9361SOL    HW139545   3.729   2.670   6.118 -1.6779  0.1152  2.5511
 9361SOL    HW239546   3.838   2.768   6.143  0.0919  3.0840 -0.2777
 9362SOL     OW39547   3.132   1.684   6.114  0.2290 -0.4430  0.1733
 9362SOL    HW139548   3.085   1.729   6.043  2.0599  0.5128 -0.4214
 9362SOL    HW239549   3.218   1.695   6.073  0.9532 -0.9611  1.5459
 9363SOL     OW39550   0.532   2.699   7.745 -0.2811  0.0505  0.3912
 9363SOL    HW139551   0.528   2.740   7.659  0.0736 -1.5128 -0.3735
 9363SOL    HW239552   0.445   2.660   7.756 -0.1974 -0.0659  0.6518
 9364SOL     OW39553   2.629   0.864   2.121 -0.3853  0.2430  0.2919
 9364SOL    HW139554   2.636   0.773   2.150 -0.8615 -0.4363 -1.7433
 9364SOL    HW239555   2.573   0.864   2.043 -3.4218  1.9204  2.4820
 9365SOL     OW39556   4.360   4.649   4.024 -0.5277  0.2827 -0.0491
 9365SOL    HW139557   4.430   4.714   4.014  0.8587 -1.2428 -0.1741
 9365SOL    HW239558   4.395   4.580   4.080 -0.4592  0.6377  0.3513
 9366SOL     OW39559   3.952   4.185   8.702 -0.8022 -0.0106  0.0023
 9366SOL    HW139560   3.928   4.122   8.770  1.6956 -3.0585 -1.9151
 9366SOL    HW239561   3.997   4.248   8.758  1.2997  0.5553 -2.3261
 9367SOL     OW39562   1.846   0.235   8.103 -0.5488  0.4658 -0.0581
 9367SOL    HW139563   1.895   0.314   8.080  1.2007 -1.0721 -1.5646
 9367SOL    HW239564   1.770   0.267   8.152  0.1740  0.8449  0.8210
 9368SOL     OW39565   1.180   4.260   6.797  0.0133 -0.1393 -0.4011
 9368SOL    HW139566   1.090   4.257   6.831  0.3348  1.6981  0.5526
 9368SOL    HW239567   1.231   4.258   6.877  3.5019 -3.3156 -2.7264
 9369SOL     OW39568   4.055   3.812   6.620 -0.2329 -0.0184  0.4236
 9369SOL    HW139569   3.985   3.872   6.644  0.2663  0.1830  1.4054
 9369SOL    HW239570   4.000   3.744   6.582 -1.3347  1.2752 -0.2783
 9370SOL     OW39571   1.690   1.331   6.017  0.1533  0.0164 -0.0087
 9370SOL    HW139572   1.721   1.260   5.960 -1.7054 -1.1101  0.3778
 9370SOL    HW239573   1.594   1.329   6.006 -0.0817  1.8483  1.7613
 9371SOL     OW39574   2.476   1.352   9.829  0.2757  0.0330  0.0121
 9371SOL    HW139575   2.537   1.279   9.832  0.8990  0.4703 -2.1563
 9371SOL    HW239576   2.535   1.427   9.818  0.1520 -0.1101 -1.5254
 9372SOL     OW39577   0.647   0.333   5.018 -0.7675 -0.0198  0.7624
 9372SOL    HW139578   0.702   0.261   4.985  0.5037  0.6533  1.3991
 9372SOL    HW239579   0.572   0.278   5.042 -0.7987 -1.0114 -1.6702
 9373SOL     OW39580   2.876   0.186   5.458 -0.1997  0.1398  0.3427
 9373SOL    HW139581   2.850   0.270   5.419  0.3155 -0.1304 -0.5841
 9373SOL    HW239582   2.970   0.179   5.438 -0.0346  0.5025  0.9940
 9374SOL     OW39583   0.361   4.620   2.171 -0.1053  0.7356  0.6426
 9374SOL    HW139584   0.424   4.671   2.119  1.6772 -1.7046  0.4390
 9374SOL    HW239585   0.416   4.553   2.210 -3.0740 -1.3658  1.1980
 9375SOL     OW39586   0.620   1.734  11.854  0.3595  0.2269 -0.0826
 9375SOL    HW139587   0.586   1.807  11.802  1.1914  3.0489  3.3533
 9375SOL    HW239588   0.656   1.682  11.782  1.3713  0.6623  0.1181
 9376SOL     OW39589   3.931   2.850  16.891 -0.2075 -0.7799  0.0680
 9376SOL    HW139590   3.852   2.801  16.913 -1.6501  1.5083 -0.0359
 9376SOL    HW239591   3.908   2.883  16.804 -0.2084 -3.1007 -0.8324
 9377SOL     OW39592   4.089   1.244   3.794 -0.0106 -0.2132 -0.7184
 9377SOL    HW139593   4.067   1.336   3.786 -1.9010 -0.3981  2.2969
 9377SOL    HW239594   4.115   1.213   3.707  0.0784  0.4851 -0.9365
 9378SOL     OW39595   3.240   0.664  13.829 -0.3031  0.0616 -0.3616
 9378SOL    HW139596   3.167   0.667  13.766 -0.8531 -0.2657  0.2597
 9378SOL    HW239597   3.237   0.571  13.851 -0.4003  0.2933  0.5762
 9379SOL     OW39598   0.089   1.606   9.772  0.2359 -0.0264 -0.0178
 9379SOL    HW139599   0.110   1.517   9.744  1.8722  0.1995  0.4798
 9379SOL    HW239600   0.025   1.587   9.841  1.0132  0.2756  0.7914
 9380SOL     OW39601   3.724   2.669   2.964  0.4818  0.2602 -0.1535
 9380SOL    HW139602   3.811   2.629   2.970  0.5608  0.4714  0.1512
 9380SOL    HW239603   3.708   2.676   2.870  2.1914  5.3651 -0.0263
 9381SOL     OW39604   0.334   2.935   3.353  0.4865  0.1002  0.1093
 9381SOL    HW139605   0.253   2.884   3.346  1.0477 -1.0052  1.6439
 9381SOL    HW239606   0.315   3.008   3.293 -3.2214 -0.9113  0.0143
 9382SOL     OW39607   2.888   3.447   5.234 -0.1564  0.1002 -0.0178
 9382SOL    HW139608   2.825   3.396   5.184  1.8657 -1.2172 -1.2250
 9382SOL    HW239609   2.899   3.531   5.189 -0.1912  0.2556  0.2648
 9383SOL     OW39610   1.954   3.588   6.486  0.0906  0.5968 -0.4172
 9383SOL    HW139611   1.876   3.538   6.511  0.8640 -0.3395  0.0915
 9383SOL    HW239612   1.986   3.543   6.408  1.1160  1.7312 -0.6536
 9384SOL     OW39613   0.589   3.394   8.927 -0.0024  0.5811 -0.1986
 9384SOL    HW139614   0.600   3.302   8.901 -0.6345  0.4678 -0.0446
 9384SOL    HW239615   0.540   3.392   9.009 -2.3013  0.5305 -1.5711
 9385SOL     OW39616   1.816   4.413  10.738 -0.0557  0.2423  0.1109
 9385SOL    HW139617   1.853   4.325  10.725 -0.0690  0.0347  1.5082
 9385SOL    HW239618   1.767   4.392  10.817 -0.0189  1.5549  0.4801
 9386SOL     OW39619   0.992   4.652   2.873  0.7918  0.3857  0.3027
 9386SOL    HW139620   0.958   4.588   2.810 -0.7218 -0.3405  1.8654
 9386SOL    HW239621   0.936   4.641   2.950  0.0436 -1.3134 -0.4962
 9387SOL     OW39622   0.280   2.234   3.300 -0.1692  0.3018 -0.7007
 9387SOL    HW139623   0.307   2.145   3.280 -0.1506  0.0996  0.2250
 9387SOL    HW239624   0.331   2.249   3.380 -0.6445  0.3805 -0.4113
 9388SOL     OW39625   0.207   1.039   5.932 -0.3787  0.4041 -0.3785
 9388SOL    HW139626   0.234   1.038   6.024  2.3432  1.2729 -1.1883
 9388SOL    HW239627   0.258   1.109   5.891 -1.4919 -0.0938 -2.5968
 9389SOL     OW39628   3.739   0.937  17.262 -0.5174 -0.4521 -0.1910
 9389SOL    HW139629   3.731   1.028  17.291  1.3832 -0.1829 -0.4990
 9389SOL    HW239630   3.690   0.934  17.180 -0.0809 -1.0152 -0.4287
 9390SOL     OW39631   2.792   0.388  13.553  0.0635  0.3436  0.1081
 9390SOL    HW139632   2.773   0.471  13.510  1.4035 -0.9760 -3.0044
 9390SOL    HW239633   2.702   0.360  13.572 -0.6153  1.4151 -1.4885
 9391SOL     OW39634   4.300   2.830   2.424 -0.1409  0.0536  0.4994
 9391SOL    HW139635   4.244   2.874   2.361  0.2213 -0.3966 -0.1311
 9391SOL    HW239636   4.339   2.767   2.364 -0.2527 -0.0792  0.5664
 9392SOL     OW39637   4.293   0.054   1.271 -0.0118  0.0360  0.0276
 9392SOL    HW139638   4.364   0.098   1.224 -0.3418  2.5356  1.8806
 9392SOL    HW239639   4.227   0.034   1.205  1.3176 -1.7235 -0.7860
 9393SOL     OW39640   1.861   0.196   3.561 -0.1967 -0.5583  0.0324
 9393SOL    HW139641   1.847   0.272   3.505  0.3858 -0.9633 -0.6681
 9393SOL    HW239642   1.952   0.185   3.533 -0.2997 -0.3866 -0.3719
 9394SOL     OW39643   3.524   3.719   1.287  0.8791 -0.2863  0.0389
 9394SOL    HW139644   3.478   3.774   1.223  1.0447 -0.2659 -0.0618
 9394SOL    HW239645   3.618   3.732   1.272  1.2602 -1.3746  1.4408
 9395SOL     OW39646   4.425   2.357   6.721 -0.3451 -0.1546  0.0594
 9395SOL    HW139647   4.432   2.445   6.758  1.4905 -0.4027  0.2724
 9395SOL    HW239648   4.343   2.357   6.671 -0.7323 -0.6222  0.6911
 9396SOL     OW39649   2.182   1.790  12.684  0.3026 -0.2740  0.2944
 9396SOL    HW139650   2.191   1.850  12.609 -0.0035 -1.2702 -0.5397
 9396SOL    HW239651   2.244   1.832  12.743  0.8082 -0.0046 -0.4190
 9397SOL     OW39652   2.892   2.667   1.220  0.2066 -0.1287  0.1463
 9397SOL    HW139653   2.945   2.661   1.141 -0.4118  1.7473 -0.4116
 9397SOL    HW239654   2.921   2.585   1.258 -1.5057 -2.3200 -3.2398
 9398SOL     OW39655   1.438   2.836  12.712  0.2399 -0.0534  0.6103
 9398SOL    HW139656   1.452   2.750  12.752 -0.7358 -1.0068 -1.1224
 9398SOL    HW239657   1.344   2.843  12.729  0.7685  5.1129  1.4850
 9399SOL     OW39658   0.644   1.808   6.998 -0.0994 -0.0119 -0.0771
 9399SOL    HW139659   0.690   1.737   6.955 -1.5785 -1.5675  0.9244
 9399SOL    HW239660   0.671   1.783   7.086  0.9660  3.9728  0.7558
 9400SOL     OW39661   3.043   3.678   9.977 -0.1302  0.0474  0.1258
 9400SOL    HW139662   3.020   3.633  10.059  0.4885 -2.0824 -0.8732
 9400SOL    HW239663   3.009   3.629   9.902  0.4087 -1.4651  0.8602
 9401SOL     OW39664   4.017   3.462   9.306  0.6197  0.3228 -0.0273
 9401SOL    HW139665   4.083   3.530   9.302 -0.9354  1.8584  0.7430
 9401SOL    HW239666   3.984   3.473   9.217  0.2862  2.5205  0.3702
 9402SOL     OW39667   2.680   2.540  10.769 -0.0872 -0.6439 -0.1875
 9402SOL    HW139668   2.653   2.556  10.859  0.9283 -0.7783  0.1463
 9402SOL    HW239669   2.705   2.449  10.780  1.9250  0.1976  2.2511
 9403SOL     OW39670   2.323   0.056   8.211  0.2876 -0.0724 -0.1860
 9403SOL    HW139671   2.413   0.024   8.210  0.0072 -0.8600 -0.2978
 9403SOL    HW239672   2.304   0.036   8.303  2.7249  1.4302  0.6481
 9404SOL     OW39673   0.625   1.395   2.401 -0.2216  0.2053  0.5314
 9404SOL    HW139674   0.642   1.311   2.359  1.6252  0.3432  1.0233
 9404SOL    HW239675   0.604   1.444   2.322 -1.9168 -1.5041 -0.1103
 9405SOL     OW39676   0.073   1.226   5.614  0.1778  0.9369  0.4539
 9405SOL    HW139677   0.003   1.161   5.608  0.3051  0.8263  0.1593
 9405SOL    HW239678   0.149   1.172   5.590 -2.3351 -2.7231  0.6346
 9406SOL     OW39679   4.430   1.929   2.046  0.1862 -0.0013  0.3346
 9406SOL    HW139680   4.402   1.839   2.029 -1.2196  0.3511  0.7721
 9406SOL    HW239681   4.428   1.962   1.957 -0.1067  0.0041  0.3423
 9407SOL     OW39682   4.064   4.183   4.999  0.0896 -0.0774 -0.4752
 9407SOL    HW139683   4.157   4.204   4.993  0.1901  0.2912  2.7007
 9407SOL    HW239684   4.064   4.176   5.094  0.4732 -1.6959 -0.5981
 9408SOL     OW39685   1.406   4.174   9.005 -0.0032  0.5023 -0.0557
 9408SOL    HW139686   1.339   4.111   8.979 -1.0698  2.0667 -1.0647
 9408SOL    HW239687   1.475   4.107   9.007 -0.4247  0.0498 -0.6224
 9409SOL     OW39688   0.809   0.228  17.097  0.1087  0.3633  0.1197
 9409SOL    HW139689   0.769   0.251  17.014  0.7037 -1.9716 -0.8123
 9409SOL    HW239690   0.891   0.193  17.061  0.6569  2.1645 -0.3905
 9410SOL     OW39691   2.858   0.165   3.195  0.9888 -0.1219 -0.2470
 9410SOL    HW139692   2.887   0.237   3.138 -0.5854  0.7246  0.0084
 9410SOL    HW239693   2.920   0.174   3.267 -0.3729 -0.8584  1.0016
 9411SOL     OW39694   2.504   2.893  17.152 -0.4206  0.4521 -0.0964
 9411SOL    HW139695   2.555   2.865  17.228 -1.5319 -0.5136  0.2913
 9411SOL    HW239696   2.519   2.987  17.161  2.2522 -0.2907  2.8690
 9412SOL     OW39697   2.890   2.344   6.845  0.4748  0.0357 -0.1243
 9412SOL    HW139698   2.823   2.280   6.820  1.4138 -0.8654 -0.2843
 9412SOL    HW239699   2.841   2.421   6.873 -2.4837 -1.3642 -1.4508
 9413SOL     OW39700   1.453   3.760   9.260  0.4537 -0.0821 -0.0064
 9413SOL    HW139701   1.529   3.707   9.284  1.0927  0.6281 -0.4415
 9413SOL    HW239702   1.391   3.744   9.330 -0.3284 -0.0259 -0.6891
 9414SOL     OW39703   0.812   3.040  16.971 -0.4299 -0.4118  0.1019
 9414SOL    HW139704   0.818   3.131  17.000 -1.9998 -1.0121  2.3414
 9414SOL    HW239705   0.813   3.038  16.875 -0.5135 -2.4791  0.1476
 9415SOL     OW39706   4.676   3.379  15.480  0.4348 -0.5582 -0.0193
 9415SOL    HW139707   4.720   3.446  15.428 -0.5081 -1.3763 -1.8503
 9415SOL    HW239708   4.687   3.299  15.428 -1.7264 -0.1605 -1.0751
 9416SOL     OW39709   1.615   3.732   6.631 -0.0749  0.6071 -0.2503
 9416SOL    HW139710   1.530   3.776   6.620 -0.8604 -0.4158  1.7090
 9416SOL    HW239711   1.615   3.695   6.719  0.9763 -1.6739 -1.2017
 9417SOL     OW39712   2.565   0.164   0.780  0.4818  0.4456  0.0554
 9417SOL    HW139713   2.637   0.158   0.843  0.5873 -0.7715 -0.1804
 9417SOL    HW239714   2.512   0.219   0.837 -3.3186  1.2879 -4.2847
 9418SOL     OW39715   2.640   2.532   1.248  0.4911  0.0683 -0.0988
 9418SOL    HW139716   2.552   2.566   1.234  0.1776 -1.7096 -2.4685
 9418SOL    HW239717   2.699   2.606   1.231 -1.1938  1.3217 -0.5178
 9419SOL     OW39718   3.743   0.073   7.695 -0.3084 -0.1798 -0.5612
 9419SOL    HW139719   3.726   0.166   7.681 -4.0154 -0.9446 -0.9531
 9419SOL    HW239720   3.835   0.070   7.724 -0.7395  0.0099  0.8063
 9420SOL     OW39721   3.176   2.048   9.163  0.2202  0.2508  0.2287
 9420SOL    HW139722   3.153   2.128   9.210 -0.8540 -0.0663  0.2378
 9420SOL    HW239723   3.271   2.047   9.146  0.4057  0.7239  1.2634
 9421SOL     OW39724   3.191   2.094   4.256 -0.3980 -0.3719 -0.2811
 9421SOL    HW139725   3.267   2.042   4.285 -1.5160 -0.5862  2.2170
 9421SOL    HW239726   3.231   2.133   4.178 -0.4192 -0.2534 -0.2327
 9422SOL     OW39727   0.639   2.492   2.447 -0.8987 -0.0419 -0.3263
 9422SOL    HW139728   0.614   2.585   2.444 -2.0822 -0.3838 -1.1633
 9422SOL    HW239729   0.639   2.473   2.354  0.0396 -1.7574  0.0405
 9423SOL     OW39730   2.577   3.703  12.512 -0.0270 -0.5619  0.1186
 9423SOL    HW139731   2.624   3.648  12.575 -1.4734 -0.7804  1.0315
 9423SOL    HW239732   2.634   3.779  12.505 -0.8280  0.1790  1.4543
 9424SOL     OW39733   1.670   4.205   8.386  0.2432 -0.3768 -0.2231
 9424SOL    HW139734   1.613   4.128   8.383  1.1324 -1.0791  1.2710
 9424SOL    HW239735   1.624   4.256   8.319  0.4397 -1.0940 -0.9134
 9425SOL     OW39736   1.732   4.280  13.139 -0.2736  0.3566  0.0400
 9425SOL    HW139737   1.781   4.359  13.161 -0.5458  0.5492 -0.0418
 9425SOL    HW239738   1.730   4.293  13.044  0.1595  0.7359  0.0845
 9426SOL     OW39739   1.118   0.531   4.022  0.0010  0.0587  0.4394
 9426SOL    HW139740   1.116   0.616   4.065  2.0459  1.4265 -2.2112
 9426SOL    HW239741   1.046   0.542   3.961  1.6528 -1.6409 -1.8050
 9427SOL     OW39742   3.127   2.669   4.039 -0.2849 -0.1067 -0.2371
 9427SOL    HW139743   3.092   2.745   4.085  3.0927  0.4411  1.4926
 9427SOL    HW239744   3.109   2.702   3.951 -1.0901 -0.7436 -0.3109
 9428SOL     OW39745   2.902   3.620   3.334  0.2928 -0.4011 -0.0687
 9428SOL    HW139746   2.859   3.692   3.288  0.6764 -1.4645 -2.0767
 9428SOL    HW239747   2.984   3.666   3.350 -0.6975  1.5185 -0.5259
 9429SOL     OW39748   2.995   0.087   6.508 -0.3049  0.1266  0.7423
 9429SOL    HW139749   2.961   0.001   6.535 -1.2705 -0.0175 -0.9340
 9429SOL    HW239750   2.932   0.117   6.442  0.1189  0.7489  0.6241
 9430SOL     OW39751   2.030   1.866  11.510  0.1473  0.0489  0.1827
 9430SOL    HW139752   2.020   1.938  11.571 -1.5874  0.3684 -0.4929
 9430SOL    HW239753   2.112   1.825  11.540  0.0123  0.7109  1.4591
 9431SOL     OW39754   0.081   3.705   0.858  0.3892  0.4547 -0.5737
 9431SOL    HW139755   0.155   3.745   0.903 -1.6850  2.7224  0.8302
 9431SOL    HW239756   0.114   3.688   0.770  1.4894 -1.3103  0.1786
 9432SOL     OW39757   2.599   4.343   2.658 -0.1078 -0.1788 -0.1376
 9432SOL    HW139758   2.506   4.341   2.679 -0.3456 -3.2740 -1.3727
 9432SOL    HW239759   2.612   4.425   2.611  1.6981 -0.8405 -0.7990
 9433SOL     OW39760   3.467   2.522  10.308 -0.1235 -0.2145 -0.3157
 9433SOL    HW139761   3.415   2.581  10.253  0.7219 -0.5925 -1.5146
 9433SOL    HW239762   3.554   2.545  10.276  1.0898  0.2982  3.2664
 9434SOL     OW39763   3.729   4.519   7.616  0.0558  0.8989 -0.2389
 9434SOL    HW139764   3.728   4.582   7.688  1.9826  0.1887  0.3959
 9434SOL    HW239765   3.699   4.441   7.662  2.1620  1.3169  1.8145
 9435SOL     OW39766   3.942   3.988   3.766  0.2882 -0.4916  0.1288
 9435SOL    HW139767   3.950   3.894   3.753 -0.0860 -0.6750  1.2570
 9435SOL    HW239768   3.849   4.008   3.756  0.1989  0.2549  2.5820
 9436SOL     OW39769   1.469   0.516   7.155  0.7363  0.2412  0.2395
 9436SOL    HW139770   1.476   0.611   7.146  0.7933  0.3773  1.7884
 9436SOL    HW239771   1.541   0.486   7.098 -0.1262 -1.6569  0.1515
 9437SOL     OW39772   3.088   4.094   7.904 -0.1796  0.5401 -0.4439
 9437SOL    HW139773   3.037   4.046   7.969 -2.4979  2.2823 -1.0064
 9437SOL    HW239774   3.055   4.061   7.820  1.2022  0.5600 -1.0027
 9438SOL     OW39775   3.792   2.639   7.832  0.0615 -0.2887 -0.5600
 9438SOL    HW139776   3.800   2.617   7.925 -0.4147  2.8086  0.2375
 9438SOL    HW239777   3.885   2.661   7.820 -0.3846  0.5841 -2.3800
 9439SOL     OW39778   4.287   1.448   5.998 -0.2759 -0.1762  0.0214
 9439SOL    HW139779   4.266   1.458   5.906  0.2198 -1.2531 -0.2090
 9439SOL    HW239780   4.254   1.530   6.036  3.3469  0.7960  1.0601
 9440SOL     OW39781   0.369   3.662  14.271  0.4716  0.2485  0.0159
 9440SOL    HW139782   0.450   3.627  14.308  0.6686  0.8585  0.1619
 9440SOL    HW239783   0.345   3.715  14.347 -1.0694 -0.7399  0.2112
 9441SOL     OW39784   1.867   1.252  12.644 -0.0610 -0.3004 -0.5494
 9441SOL    HW139785   1.841   1.317  12.709  0.0622  0.9377 -1.7325
 9441SOL    HW239786   1.830   1.174  12.686  1.7446 -0.2861  1.0653
 9442SOL     OW39787   2.377   2.452   5.293 -0.0070 -0.4235  0.5626
 9442SOL    HW139788   2.455   2.448   5.237 -0.3161 -1.9080  0.2402
 9442SOL    HW239789   2.320   2.388   5.250 -0.8948  0.8628 -0.1872
 9443SOL     OW39790   0.950   3.482  16.020  0.0984 -0.0872  0.4967
 9443SOL    HW139791   0.940   3.388  16.006  2.1560 -0.1350 -0.6792
 9443SOL    HW239792   0.898   3.499  16.098 -0.5741 -0.6040  0.1674
 9444SOL     OW39793   2.541   4.189   7.570 -0.4409  0.3029 -0.2721
 9444SOL    HW139794   2.488   4.190   7.650 -1.1112  2.2454 -0.7469
 9444SOL    HW239795   2.578   4.101   7.583 -2.8214 -0.8589 -1.3735
 9445SOL     OW39796   0.827   2.073   3.925  0.5569 -0.0369 -0.6642
 9445SOL    HW139797   0.885   2.010   3.968 -0.5632  0.1919  1.1936
 9445SOL    HW239798   0.773   2.081   4.004  2.9169  0.2201  0.9120
 9446SOL     OW39799   3.179   1.191   3.990 -0.4034 -0.1037  0.0242
 9446SOL    HW139800   3.195   1.171   3.898  1.2891  0.1103  0.2743
 9446SOL    HW239801   3.262   1.232   4.016 -1.4392  1.4150  0.9958
 9447SOL     OW39802   3.854   3.789   3.094  0.0638 -0.0213  0.9666
 9447SOL    HW139803   3.840   3.702   3.056  2.8040  0.5994 -1.4697
 9447SOL    HW239804   3.775   3.832   3.062 -1.1049 -0.7137  2.9177
 9448SOL     OW39805   1.079   3.977   4.029 -0.6056  0.0811 -0.4794
 9448SOL    HW139806   1.047   4.053   4.079 -0.0007 -1.4068  2.1448
 9448SOL    HW239807   1.104   4.028   3.952 -0.2005  1.6220  0.6565
 9449SOL     OW39808   0.601   3.340   5.914  0.0796  0.2124 -0.5920
 9449SOL    HW139809   0.616   3.289   5.993  0.8942  0.0809 -0.8389
 9449SOL    HW239810   0.615   3.429   5.948  1.3939 -0.7817  1.4292
 9450SOL     OW39811   3.163   1.853   7.255 -0.6397 -0.1971 -0.0648
 9450SOL    HW139812   3.231   1.802   7.211 -0.4790 -0.5119  0.5518
 9450SOL    HW239813   3.176   1.815   7.342  3.5066  1.1694 -0.0806
 9451SOL     OW39814   1.279   2.376  12.288  0.0833 -0.6315  0.0966
 9451SOL    HW139815   1.274   2.345  12.197 -1.8032 -2.0610  0.6936
 9451SOL    HW239816   1.187   2.399  12.301 -0.8122 -3.3776 -1.2537
 9452SOL     OW39817   0.784   0.725   2.003  0.2697  0.0851 -0.2195
 9452SOL    HW139818   0.820   0.790   1.943 -2.2679 -0.4180 -2.3014
 9452SOL    HW239819   0.719   0.684   1.945 -0.7689  0.5785  0.6079
 9453SOL     OW39820   1.745   3.460  10.450 -0.2529  0.2952  0.2039
 9453SOL    HW139821   1.770   3.387  10.395  2.4013 -0.0479  1.8994
 9453SOL    HW239822   1.774   3.535  10.398  0.9896 -0.2360  0.1553
 9454SOL     OW39823   3.755   1.794  11.105  0.5532  0.2763  0.3663
 9454SOL    HW139824   3.761   1.799  11.010  2.5270  0.6058  0.5124
 9454SOL    HW239825   3.829   1.845  11.137  1.2460 -0.5197  0.0640
 9455SOL     OW39826   2.423   0.562   6.885 -0.6986  0.0384 -0.3757
 9455SOL    HW139827   2.465   0.513   6.956 -0.6138 -0.9179 -1.0964
 9455SOL    HW239828   2.485   0.534   6.818  2.0637  1.0776  1.7247
 9456SOL     OW39829   3.909   1.484   8.623 -0.4896 -0.2143 -0.0121
 9456SOL    HW139830   3.888   1.430   8.547  1.5053  0.2997 -0.9076
 9456SOL    HW239831   3.903   1.419   8.693  0.3888 -1.5766 -1.2024
 9457SOL     OW39832   1.294   3.891   3.232 -0.1388 -0.7551  0.2762
 9457SOL    HW139833   1.357   3.837   3.184  2.1789  2.1696  0.0264
 9457SOL    HW239834   1.355   3.916   3.301  0.7822 -2.4045  0.0651
 9458SOL     OW39835   4.315   3.619  14.280 -0.1613  0.8486 -0.0698
 9458SOL    HW139836   4.372   3.632  14.205 -0.2912  0.7196 -0.1917
 9458SOL    HW239837   4.353   3.673  14.350 -0.6633 -2.2999  2.6613
 9459SOL     OW39838   3.052   0.334  13.590  0.3424  0.1021 -0.0852
 9459SOL    HW139839   2.968   0.360  13.552  0.7887  0.1118 -1.0647
 9459SOL    HW239840   3.109   0.394  13.542  0.7972 -1.0497 -0.9868
 9460SOL     OW39841   4.653   2.108   5.744 -0.5298  0.1969 -0.8238
 9460SOL    HW139842   4.628   2.063   5.663 -1.4107  2.0075 -1.5511
 9460SOL    HW239843   4.582   2.169   5.765 -0.5529  0.8585 -2.8981
 9461SOL     OW39844   3.283   4.149   6.316 -0.3528  0.0652 -0.2546
 9461SOL    HW139845   3.281   4.172   6.409  1.3871  1.9197 -0.6883
 9461SOL    HW239846   3.201   4.100   6.306 -1.0215  1.2947 -0.7966
 9462SOL     OW39847   0.481   1.328   7.524  0.0074  0.1956  0.8187
 9462SOL    HW139848   0.447   1.396   7.583  2.4601  1.4655  0.7751
 9462SOL    HW239849   0.507   1.386   7.453  0.3740 -1.7296 -0.6063
 9463SOL     OW39850   2.558   1.481   7.575 -0.4189 -0.0543 -0.0495
 9463SOL    HW139851   2.530   1.521   7.493  1.0817 -0.4543 -0.7648
 9463SOL    HW239852   2.568   1.549   7.641  1.9923  0.4899 -0.9881
 9464SOL     OW39853   2.148   1.278   4.552  0.6659 -0.2386  0.9343
 9464SOL    HW139854   2.194   1.194   4.539  0.6259 -0.4253  2.0340
 9464SOL    HW239855   2.228   1.329   4.538  0.8909 -1.1691 -1.2902
 9465SOL     OW39856   1.776   2.929   5.091 -0.7171  0.1890 -0.3449
 9465SOL    HW139857   1.690   2.922   5.132 -1.1200  1.2625 -1.0166
 9465SOL    HW239858   1.756   2.992   5.022 -1.7252  1.0977  0.7613
 9466SOL     OW39859   0.931   3.884   5.359 -0.4082  0.3515 -0.0288
 9466SOL    HW139860   0.898   3.968   5.392 -0.4742 -0.3810  1.7396
 9466SOL    HW239861   1.023   3.900   5.383 -0.4801 -0.2730  0.6545
 9467SOL     OW39862   1.016   3.499   8.302 -0.6335  0.9415 -0.3699
 9467SOL    HW139863   1.040   3.407   8.289 -2.0736  0.4801  0.3658
 9467SOL    HW239864   1.097   3.549   8.310  0.1155 -0.3957  0.4291
 9468SOL     OW39865   3.245   2.964   5.942  0.4061  0.0821  0.2065
 9468SOL    HW139866   3.153   2.940   5.929 -0.0605  1.5985  0.6913
 9468SOL    HW239867   3.276   2.983   5.853  1.8036 -1.8543  0.2876
 9469SOL     OW39868   1.505   0.941  13.159 -0.4629  0.6761  0.1304
 9469SOL    HW139869   1.443   0.993  13.108 -1.9553 -0.9087  0.3378
 9469SOL    HW239870   1.583   0.981  13.121  1.1947 -0.6236  2.1424
 9470SOL     OW39871   0.291   2.653   7.121 -0.1486  0.1670 -0.1479
 9470SOL    HW139872   0.375   2.657   7.075 -0.7092  0.0685 -1.1821
 9470SOL    HW239873   0.225   2.660   7.051  1.0490 -3.8108 -1.6723
 9471SOL     OW39874   1.954   4.469   1.630 -0.0436 -0.0079 -0.5095
 9471SOL    HW139875   1.950   4.376   1.607  2.5119 -0.3590  0.4730
 9471SOL    HW239876   2.013   4.502   1.562  2.0858  2.3373  2.5095
 9472SOL     OW39877   2.971   3.806  11.178  0.5799 -0.2721 -0.1480
 9472SOL    HW139878   3.041   3.815  11.243 -1.0427  4.1132  0.9683
 9472SOL    HW239879   2.952   3.900  11.173  1.4194 -0.1942 -1.7043
 9473SOL     OW39880   2.087   2.100  12.626  0.6829 -0.2482  0.4289
 9473SOL    HW139881   2.073   2.181  12.576 -2.4588 -0.2069  1.3564
 9473SOL    HW239882   2.097   2.032  12.559 -2.0775  0.1404 -0.3781
 9474SOL     OW39883   2.136   4.581  10.345  0.1396  0.5718 -0.2288
 9474SOL    HW139884   2.054   4.536  10.324  0.4494 -0.2245  0.2348
 9474SOL    HW239885   2.175   4.588  10.257  2.0014 -2.4784  0.3370
 9475SOL     OW39886   2.844   3.281   8.216 -0.1487 -0.1496  0.0796
 9475SOL    HW139887   2.875   3.366   8.247  0.7584 -0.2133 -0.6312
 9475SOL    HW239888   2.897   3.215   8.262  0.2738  0.3263  0.2734
 9476SOL     OW39889   3.844   2.891   8.483  0.3983 -0.2277  0.0337
 9476SOL    HW139890   3.885   2.971   8.449  0.4863 -0.1980  0.2149
 9476SOL    HW239891   3.821   2.916   8.572 -3.1334 -0.9020 -0.6731
 9477SOL     OW39892   4.443   0.708  11.356 -0.0510 -0.2024  0.3863
 9477SOL    HW139893   4.386   0.655  11.411  1.1146 -0.1290  1.6949
 9477SOL    HW239894   4.384   0.762  11.304 -1.3894 -0.8958  1.1898
 9478SOL     OW39895   2.154   1.401   4.261  0.0845 -0.0025  0.3087
 9478SOL    HW139896   2.237   1.377   4.301 -0.2950  0.1733  1.2117
 9478SOL    HW239897   2.123   1.447   4.339 -2.0306  1.0962 -1.1777
 9479SOL     OW39898   2.160   3.121   3.883 -0.4906 -0.7671 -0.2283
 9479SOL    HW139899   2.133   3.210   3.907  0.3177 -0.7653  0.6679
 9479SOL    HW239900   2.231   3.108   3.946  0.2090  1.9066 -0.4886
 9480SOL     OW39901   3.241   2.176   2.577  0.3544 -0.1201  0.1593
 9480SOL    HW139902   3.205   2.247   2.523 -0.2540 -0.4178  0.1760
 9480SOL    HW239903   3.247   2.098   2.523  0.5965 -0.0878  0.1388
 9481SOL     OW39904   2.218   1.448   4.905  0.2148 -0.3423  0.2062
 9481SOL    HW139905   2.191   1.510   4.837  0.1329 -1.7160 -0.9963
 9481SOL    HW239906   2.133   1.419   4.938 -0.3335  0.5963 -0.3962
 9482SOL     OW39907   4.248   0.418   8.395 -0.1820  0.1843 -0.2765
 9482SOL    HW139908   4.176   0.362   8.424  1.4460 -0.9491  1.5381
 9482SOL    HW239909   4.195   0.494   8.374 -1.4361 -0.1164  1.8793
 9483SOL     OW39910   3.076   3.262   5.952 -0.1637  0.2584  0.1884
 9483SOL    HW139911   3.081   3.353   5.923 -2.6594  0.3273 -0.0638
 9483SOL    HW239912   3.127   3.226   5.879  1.6890 -1.5260  2.3585
 9484SOL     OW39913   2.368   1.603  11.261  0.5089  0.2655 -0.8301
 9484SOL    HW139914   2.395   1.523  11.306 -2.4209 -0.2345  0.0124
 9484SOL    HW239915   2.387   1.676  11.320  2.2725  0.0099 -1.0696
 9485SOL     OW39916   1.430   2.795   1.953  0.2300  0.0605 -0.0007
 9485SOL    HW139917   1.493   2.723   1.961 -1.8675 -1.9420 -1.3482
 9485SOL    HW239918   1.483   2.863   1.911  3.3018 -2.1920  0.2476
 9486SOL     OW39919   2.274   2.491   2.954 -0.3370  0.4246 -0.0125
 9486SOL    HW139920   2.178   2.485   2.951 -0.1074 -3.1428 -0.4903
 9486SOL    HW239921   2.283   2.568   3.010  0.9414  0.5094 -0.3391
 9487SOL     OW39922   4.640   3.317   8.530  0.7545 -0.0399  0.2083
 9487SOL    HW139923   4.699   3.390   8.513  0.7528 -0.2793 -0.8313
 9487SOL    HW239924   4.615   3.299   8.440  1.1268  2.3472 -0.3521
 9488SOL     OW39925   3.960   0.569   4.105  0.4721  0.0203 -0.6270
 9488SOL    HW139926   3.927   0.519   4.030  1.6761 -1.1722 -0.3618
 9488SOL    HW239927   4.040   0.613   4.079 -1.5399  4.1315  0.1356
 9489SOL     OW39928   1.547   1.669   7.493  0.7814  0.0151  0.0531
 9489SOL    HW139929   1.564   1.614   7.570 -2.1110 -1.3429 -0.2857
 9489SOL    HW239930   1.586   1.754   7.516  2.3075 -0.5836 -0.2933
 9490SOL     OW39931   3.254   4.372  16.497  0.2608 -0.3093 -0.3945
 9490SOL    HW139932   3.226   4.446  16.444 -1.3281 -1.2550 -0.8822
 9490SOL    HW239933   3.349   4.377  16.505  0.0322  3.4198  0.0692
 9491SOL     OW39934   3.540   3.140   6.634  0.3512  0.3844  0.6055
 9491SOL    HW139935   3.570   3.207   6.696 -1.3061  0.7953  0.9640
 9491SOL    HW239936   3.454   3.172   6.607  0.8725 -0.1079 -1.6576
 9492SOL     OW39937   0.041   1.697  12.240  1.3585 -0.4481 -0.3126
 9492SOL    HW139938   4.694   1.697  12.176  0.2965  2.5703  0.8667
 9492SOL    HW239939   0.056   1.791  12.250 -0.1096 -0.2832  0.4790
 9493SOL     OW39940   2.613   0.245  15.340 -0.2732  0.3227 -0.7562
 9493SOL    HW139941   2.646   0.326  15.301  0.5471  0.8796  1.0618
 9493SOL    HW239942   2.634   0.183  15.271 -0.8588 -0.6829 -0.0176
 9494SOL     OW39943   4.547   2.456   8.882 -0.4235  0.4766 -0.2506
 9494SOL    HW139944   4.470   2.408   8.851 -0.3001  1.6230 -2.3052
 9494SOL    HW239945   4.517   2.546   8.869 -1.4802  0.1073 -0.4411
 9495SOL     OW39946   2.111   2.868   3.810 -0.2318 -0.2525 -0.0078
 9495SOL    HW139947   2.184   2.831   3.860 -1.6062 -0.6837  1.6721
 9495SOL    HW239948   2.117   2.957   3.844  0.9574 -0.4247  0.2472
 9496SOL     OW39949   1.290   1.013   0.134 -0.5270  0.2673 -0.0063
 9496SOL    HW139950   1.205   0.974   0.114 -1.8711  2.8903  0.6001
 9496SOL    HW239951   1.290   1.070   0.057 -1.1474 -1.1154 -1.0311
 9497SOL     OW39952   4.535   0.360   8.981  0.1198 -0.2497 -0.0195
 9497SOL    HW139953   4.522   0.268   8.960 -3.2041  0.2405 -0.1570
 9497SOL    HW239954   4.457   0.404   8.946  1.1838  2.5029  1.0560
 9498SOL     OW39955   3.566   0.873  17.677  0.5776  0.4519 -0.3633
 9498SOL    HW139956   3.488   0.927  17.664 -0.2240 -0.2204  1.7407
 9498SOL    HW239957   3.565   0.859   0.074 -0.7734  1.9398 -0.1556
 9499SOL     OW39958   4.341   2.768   7.139 -0.0320  0.6667 -0.1539
 9499SOL    HW139959   4.339   2.736   7.229 -1.1033  2.2326  0.3751
 9499SOL    HW239960   4.415   2.828   7.150  1.1655 -0.2046 -3.5593
 9500SOL     OW39961   4.569   1.722  16.318 -0.8383  0.7282 -0.2018
 9500SOL    HW139962   4.643   1.685  16.270 -1.6726 -0.0817 -0.8618
 9500SOL    HW239963   4.565   1.660  16.391 -2.2958 -0.1497 -1.0228
 9501SOL     OW39964   1.850   4.391   4.943 -0.2893  0.8875 -0.0369
 9501SOL    HW139965   1.910   4.447   4.992  2.2278 -0.8169 -1.1545
 9501SOL    HW239966   1.839   4.427   4.855 -0.8948  0.3845 -0.1666
 9502SOL     OW39967   2.615   2.049  13.985  0.5440  0.1236 -0.2991
 9502SOL    HW139968   2.710   2.058  13.982  0.4164  0.7902 -1.9460
 9502SOL    HW239969   2.584   2.135  13.956  1.7321  0.7139  0.1500
 9503SOL     OW39970   3.064   4.039   6.889 -0.3470 -0.6699 -0.3440
 9503SOL    HW139971   2.980   4.000   6.865  0.1275 -2.3549  0.6609
 9503SOL    HW239972   3.121   3.998   6.824 -0.4674  0.0576 -0.8941
 9504SOL     OW39973   1.770   3.193  16.937 -0.3882 -0.0705  0.1540
 9504SOL    HW139974   1.806   3.178  17.024 -0.6708  3.2946  0.8395
 9504SOL    HW239975   1.692   3.248  16.949 -0.1652  0.1315  0.6577
 9505SOL     OW39976   1.515   3.925   4.669  0.3734 -0.3246 -0.2921
 9505SOL    HW139977   1.430   3.918   4.625  0.1738 -0.5397  0.1247
 9505SOL    HW239978   1.563   3.848   4.642  0.3709  0.7128 -3.2734
 9506SOL     OW39979   4.707   2.071   5.034 -0.0796 -0.2581  0.2518
 9506SOL    HW139980   0.044   2.116   5.092  0.2951  0.3235 -0.5974
 9506SOL    HW239981   0.032   1.993   5.011  0.4559 -0.2816  1.4656
 9507SOL     OW39982   4.288   2.141  12.234  0.4378 -0.1514  0.5752
 9507SOL    HW139983   4.238   2.146  12.315 -2.7308 -0.4348 -1.3555
 9507SOL    HW239984   4.223   2.162  12.168  0.3984 -1.3348  0.2234
 9508SOL     OW39985   0.229   2.148   4.754 -0.3241 -0.2104 -0.6500
 9508SOL    HW139986   0.245   2.239   4.779 -1.4318  0.5510 -2.6553
 9508SOL    HW239987   0.316   2.112   4.737  0.1214  0.7588 -0.4060
 9509SOL     OW39988   3.384   3.965  10.158 -0.5255  0.1822 -0.3451
 9509SOL    HW139989   3.467   3.970  10.206  0.4695  0.4053 -2.0631
 9509SOL    HW239990   3.375   3.873  10.134  1.8836  0.1227 -1.0358
 9510SOL     OW39991   1.981   1.168   3.521  0.0227  0.1696  0.3658
 9510SOL    HW139992   1.916   1.186   3.454 -0.2803  1.8222  1.0948
 9510SOL    HW239993   2.049   1.160   3.454 -0.8099 -0.8072 -0.3506
 9511SOL     OW39994   3.611   0.684   4.873  0.0633 -0.2699 -0.3798
 9511SOL    HW139995   3.584   0.774   4.893  0.2042  0.1532 -2.0609
 9511SOL    HW239996   3.571   0.665   4.788  0.3854  1.0032 -0.8189
 9512SOL     OW39997   0.897   0.513  15.212  0.0557 -0.3176  0.6887
 9512SOL    HW139998   0.856   0.596  15.238 -0.1081 -1.0352  2.6860
 9512SOL    HW239999   0.974   0.547  15.167  0.7467 -2.1260  0.5076
 9513SOL     OW40000   0.063   4.249   5.370 -0.1142  0.3578 -0.1159
 9513SOL    HW140001   4.722   4.268   5.437  2.1046  1.8253  1.6384
 9513SOL    HW240002   4.720   4.238   5.302 -0.9810  2.2396  0.4283
 9514SOL     OW40003   1.357   3.675   5.504 -0.0806  0.3734  0.1891
 9514SOL    HW140004   1.294   3.693   5.573 -1.1073  1.3424 -0.9848
 9514SOL    HW240005   1.348   3.581   5.487 -0.0504 -0.0374  2.4949
 9515SOL     OW40006   4.068   4.294   9.215 -0.0960  0.0099 -0.0611
 9515SOL    HW140007   3.997   4.229   9.220 -0.3553  0.2131 -1.0333
 9515SOL    HW240008   4.023   4.373   9.245  1.2907  0.6587  0.2755
 9516SOL     OW40009   2.605   0.801   5.905  0.0117 -0.4235 -0.4069
 9516SOL    HW140010   2.635   0.772   5.991  2.5822  0.6515 -0.9317
 9516SOL    HW240011   2.596   0.716   5.862  1.4774 -1.4421  1.3356
 9517SOL     OW40012   4.439   4.476   1.085 -0.1741  0.2855  0.0951
 9517SOL    HW140013   4.532   4.497   1.076  0.0961 -0.4069  1.1727
 9517SOL    HW240014   4.405   4.565   1.092  1.1929  0.8244 -0.0767
 9518SOL     OW40015   4.457   2.406   2.317 -0.3401 -0.1284 -0.1073
 9518SOL    HW140016   4.507   2.386   2.396  1.4013 -1.0100 -1.4226
 9518SOL    HW240017   4.486   2.334   2.261  0.1146 -0.1236  0.1282
 9519SOL     OW40018   3.106   1.617   8.273 -0.2664 -0.4130  0.6638
 9519SOL    HW140019   3.033   1.676   8.251  1.9037  2.2031  0.4255
 9519SOL    HW240020   3.067   1.576   8.350  0.5332 -1.0927  0.7120
 9520SOL     OW40021   4.114   3.581   5.851 -0.4077  0.1862 -0.2223
 9520SOL    HW140022   4.176   3.531   5.798 -1.0275  0.0233 -0.7916
 9520SOL    HW240023   4.028   3.547   5.828 -0.5411  1.0039 -0.9683
 9521SOL     OW40024   2.217   2.716   1.469  0.2221  0.5178 -0.7657
 9521SOL    HW140025   2.227   2.797   1.518  0.8771 -0.3038  0.4598
 9521SOL    HW240026   2.134   2.722   1.421 -0.7011  2.2178  1.0567
 9522SOL     OW40027   1.957   0.040  10.595 -0.0505 -0.1670 -0.1288
 9522SOL    HW140028   1.898   4.695  10.567  0.2536 -0.7361  0.6295
 9522SOL    HW240029   2.033   0.022  10.539  1.3813  0.4974  1.6102
 9523SOL     OW40030   2.798   3.328   2.648  0.9485  0.3121 -0.3648
 9523SOL    HW140031   2.744   3.395   2.606 -0.2571 -0.4242  0.0136
 9523SOL    HW240032   2.793   3.362   2.737  0.3954  0.0766 -0.3046
 9524SOL     OW40033   3.345   2.495   4.574 -0.2917 -0.2263 -0.2769
 9524SOL    HW140034   3.380   2.583   4.560  0.8620 -0.3391  1.8512
 9524SOL    HW240035   3.312   2.507   4.663 -0.3798 -1.3324 -0.1692
 9525SOL     OW40036   3.754   4.081  13.801  0.0804  0.3292  0.2146
 9525SOL    HW140037   3.837   4.101  13.843 -0.7469 -1.2000  2.5397
 9525SOL    HW240038   3.706   4.130  13.868  0.8217 -1.3081  1.9248
 9526SOL     OW40039   2.486   4.508   5.296 -0.3309 -0.2411 -0.7958
 9526SOL    HW140040   2.511   4.590   5.338 -2.2273 -0.3430  0.5300
 9526SOL    HW240041   2.512   4.516   5.204 -1.3598  1.2580 -0.9549
 9527SOL     OW40042   0.353   2.108   5.329  0.1939 -0.1253 -0.1412
 9527SOL    HW140043   0.327   2.102   5.421  1.3838 -0.5184  0.1733
 9527SOL    HW240044   0.448   2.097   5.337  0.2122 -0.4822 -0.8238
 9528SOL     OW40045   2.620   3.924   8.561 -0.1071 -0.1752 -0.1140
 9528SOL    HW140046   2.571   4.006   8.570  2.1590  1.1936 -0.3418
 9528SOL    HW240047   2.704   3.952   8.524 -0.9737  1.5404 -0.8024
 9529SOL     OW40048   2.150   0.042   3.216 -0.1305  0.1303  0.2670
 9529SOL    HW140049   2.231   4.716   3.225 -0.5804 -0.8067 -0.8118
 9529SOL    HW240050   2.085   4.696   3.225  1.3712 -1.2951  0.0456
 9530SOL     OW40051   1.514   3.572   0.408 -0.4716  0.2217 -0.3277
 9530SOL    HW140052   1.537   3.608   0.493 -2.2434  1.6638 -0.4607
 9530SOL    HW240053   1.546   3.631   0.339 -2.6556  1.4884 -0.2405
 9531SOL     OW40054   3.630   3.464   6.009  0.6310 -0.4415  0.0806
 9531SOL    HW140055   3.654   3.530   6.074 -0.7529  1.5375 -1.4147
 9531SOL    HW240056   3.628   3.525   5.935  2.5245 -0.7205 -0.1794
 9532SOL     OW40057   4.404   2.589   9.878 -0.8586  0.1007 -0.1875
 9532SOL    HW140058   4.446   2.550   9.801  0.0666 -1.7774  1.2669
 9532SOL    HW240059   4.331   2.529   9.888 -0.9537  0.6401  2.2638
 9533SOL     OW40060   0.364   3.325   5.738 -0.7126  0.0199 -0.1080
 9533SOL    HW140061   0.368   3.275   5.819  2.5505 -0.1962 -0.3731
 9533SOL    HW240062   0.428   3.391   5.765  0.7923 -0.7440 -1.7243
 9534SOL     OW40063   2.160   2.921   8.238  0.6766  0.3659 -0.0364
 9534SOL    HW140064   2.225   2.990   8.228  1.1103 -0.0490 -0.0610
 9534SOL    HW240065   2.144   2.896   8.147 -1.0305 -0.9458  0.6270
 9535SOL     OW40066   0.825   2.906   3.670  0.0145 -0.1744 -0.0659
 9535SOL    HW140067   0.806   2.971   3.602 -0.2859  0.6191  0.7731
 9535SOL    HW240068   0.772   2.837   3.629 -0.6821  1.0472 -1.2355
 9536SOL     OW40069   1.248   3.965   5.701  0.1481  0.4127  0.9172
 9536SOL    HW140070   1.181   4.030   5.678 -1.4858 -1.3496  0.6747
 9536SOL    HW240071   1.266   3.987   5.792 -1.5319  1.4276  1.0104
 9537SOL     OW40072   4.023   4.243   2.906  0.1144 -0.1987 -0.5876
 9537SOL    HW140073   3.943   4.195   2.884  0.0272 -0.2640 -0.1272
 9537SOL    HW240074   4.070   4.208   2.830 -0.0052 -3.8842  1.0291
 9538SOL     OW40075   0.646   4.310   5.048 -0.7249 -0.4404  0.6063
 9538SOL    HW140076   0.714   4.250   5.017 -1.0964 -1.4844  1.7739
 9538SOL    HW240077   0.604   4.252   5.112 -0.9978 -1.1984 -0.2599
 9539SOL     OW40078   2.691   3.287   2.337 -0.3004 -0.0039  0.5895
 9539SOL    HW140079   2.779   3.308   2.370 -0.3156 -0.7443  1.1100
 9539SOL    HW240080   2.670   3.373   2.301 -0.1158 -0.0532  0.3594
 9540SOL     OW40081   1.276   3.736   4.915 -0.2382  0.3052 -0.0398
 9540SOL    HW140082   1.338   3.777   4.855  3.7813 -2.3070  2.3757
 9540SOL    HW240083   1.210   3.805   4.908 -0.3375  0.2099 -0.0380
 9541SOL     OW40084   0.506   4.436  15.613 -0.0966 -0.1296 -0.3804
 9541SOL    HW140085   0.497   4.402  15.702  0.1067 -0.3926 -0.4599
 9541SOL    HW240086   0.529   4.366  15.552 -1.2791 -2.0479  1.3762
 9542SOL     OW40087   1.212   1.902  16.788  0.1474  0.1264 -0.2946
 9542SOL    HW140088   1.180   1.992  16.781  0.8248  0.3544 -0.4311
 9542SOL    HW240089   1.307   1.909  16.780  0.3377 -0.8245  1.1621
 9543SOL     OW40090   2.999   0.003   2.868  0.8543  0.5816  0.2689
 9543SOL    HW140091   3.090   4.715   2.894  0.6070 -0.8018  0.4854
 9543SOL    HW240092   2.960   0.042   2.947 -0.4440  0.1352 -0.1505
 9544SOL     OW40093   3.817   3.318   6.933 -0.3048 -0.1079  0.1104
 9544SOL    HW140094   3.829   3.396   6.987 -1.0049  0.6899 -0.8852
 9544SOL    HW240095   3.886   3.333   6.869 -0.7130  1.5672  0.0821
 9545SOL     OW40096   0.352   3.513  11.393  0.2135  0.9268 -0.1649
 9545SOL    HW140097   0.264   3.550  11.384  0.1466  1.1497  1.4085
 9545SOL    HW240098   0.374   3.570  11.466 -0.7904  2.5354 -1.1016
 9546SOL     OW40099   3.807   4.508   5.428  0.3313 -0.4769  0.2752
 9546SOL    HW140100   3.863   4.540   5.357 -0.5972 -1.7665 -1.0173
 9546SOL    HW240101   3.861   4.550   5.496  1.9728 -1.5757 -0.3588
 9547SOL     OW40102   4.603   1.427  16.444  0.1461 -0.0413 -0.1450
 9547SOL    HW140103   4.612   1.332  16.439  0.2859  0.0312 -1.1969
 9547SOL    HW240104   4.619   1.449  16.352  0.0556 -0.7683 -0.3306
 9548SOL     OW40105   2.436   2.889   3.152 -0.1458 -0.0949  0.0032
 9548SOL    HW140106   2.418   2.971   3.106 -0.4958  0.4098  1.0360
 9548SOL    HW240107   2.472   2.832   3.084 -1.6175 -1.6751  0.5410
 9549SOL     OW40108   0.647   1.102   6.384  0.0958  0.0790 -0.4520
 9549SOL    HW140109   0.733   1.128   6.351 -0.0409  3.3645  1.6866
 9549SOL    HW240110   0.623   1.037   6.319  0.9779 -0.2773 -0.4166
 9550SOL     OW40111   1.920   1.621   6.942 -0.2592 -0.2552  0.6330
 9550SOL    HW140112   1.954   1.551   6.887 -2.1973 -1.6616  1.2494
 9550SOL    HW240113   1.881   1.575   7.016 -0.1841 -0.1425  0.7452
 9551SOL     OW40114   4.000   1.539   9.882 -0.0776  0.2674 -0.1768
 9551SOL    HW140115   3.912   1.542   9.846 -0.1663  0.1125  0.0246
 9551SOL    HW240116   3.995   1.613   9.942  0.1062  0.3758 -0.2919
 9552SOL     OW40117   0.601   0.575   9.298 -0.4618  0.4891  0.6063
 9552SOL    HW140118   0.516   0.596   9.339 -0.4939  0.5662  0.4994
 9552SOL    HW240119   0.654   0.653   9.311 -1.9725  1.3896  1.4624
 9553SOL     OW40120   0.491   3.571   5.516  0.2109 -0.6464 -0.4180
 9553SOL    HW140121   0.568   3.544   5.566 -0.3257 -1.2042  0.1039
 9553SOL    HW240122   0.515   3.661   5.497 -0.8317  0.0096  1.4714
 9554SOL     OW40123   0.616   2.828   7.999  0.0654 -0.0732  0.2718
 9554SOL    HW140124   0.614   2.763   7.929 -2.3072  0.8893 -0.5473
 9554SOL    HW240125   0.551   2.890   7.967  0.2437  1.2908  2.5666
 9555SOL     OW40126   2.129   1.344  16.925 -0.0618 -0.2459  0.0273
 9555SOL    HW140127   2.037   1.332  16.947 -0.5643  0.7147 -1.5752
 9555SOL    HW240128   2.170   1.368  17.008  0.3617  1.7258 -0.7563
 9556SOL     OW40129   1.196   3.689   0.167 -0.5981  0.3289 -0.4173
 9556SOL    HW140130   1.255   3.632   0.116  1.2525  0.7095  1.3012
 9556SOL    HW240131   1.147   3.725   0.094  0.4095  1.8282 -0.3534
 9557SOL     OW40132   1.789   1.837   4.475  0.0058 -0.3006  0.1545
 9557SOL    HW140133   1.809   1.744   4.461  1.4183  0.0372 -0.0276
 9557SOL    HW240134   1.794   1.841   4.571  0.3470 -2.4939  0.2317
 9558SOL     OW40135   3.629   3.021   4.516  0.6156 -0.5785 -0.3716
 9558SOL    HW140136   3.637   3.115   4.533  1.0065 -1.0569  2.1699
 9558SOL    HW240137   3.661   2.990   4.601 -0.8391 -0.4256  0.2212
 9559SOL     OW40138   0.863   0.685  13.910 -0.0850 -0.1891 -0.1039
 9559SOL    HW140139   0.951   0.680  13.873 -0.4438  0.4058 -1.0402
 9559SOL    HW240140   0.888   0.695  14.002  2.0026  1.2095 -0.8104
 9560SOL     OW40141   1.577   1.481  13.564  0.0840 -0.6386  0.4073
 9560SOL    HW140142   1.598   1.415  13.631 -1.1075 -0.7576  0.6754
 9560SOL    HW240143   1.664   1.497  13.529 -0.7219  1.4623 -0.6239
 9561SOL     OW40144   0.360   3.530   9.579 -0.4230 -0.1843  0.6201
 9561SOL    HW140145   0.314   3.614   9.586 -0.0640  0.0595  0.1066
 9561SOL    HW240146   0.314   3.498   9.501 -0.9551 -1.7940  1.5847
 9562SOL     OW40147   1.350   4.442   7.576 -0.3392  0.7325 -0.3587
 9562SOL    HW140148   1.360   4.409   7.665 -3.6115 -1.9627 -0.9924
 9562SOL    HW240149   1.442   4.423   7.556 -1.1252 -1.6316 -1.6907
 9563SOL     OW40150   0.813   3.730   6.704  0.2658  0.1271  0.3441
 9563SOL    HW140151   0.805   3.678   6.624 -1.1203  2.6679 -1.2156
 9563SOL    HW240152   0.790   3.657   6.760 -0.1523  2.3315  3.0382
 9564SOL     OW40153   1.675   0.513   4.913  0.0900  0.1283  0.2161
 9564SOL    HW140154   1.661   0.453   4.986 -1.0255  1.8306  1.4118
 9564SOL    HW240155   1.610   0.487   4.848 -1.4847  1.0922  1.4044
 9565SOL     OW40156   0.583   2.212   4.642 -0.2270 -0.2677 -0.4698
 9565SOL    HW140157   0.560   2.126   4.678  1.1209 -1.5750 -2.6815
 9565SOL    HW240158   0.567   2.257   4.725 -0.0976 -0.6584 -0.2318
 9566SOL     OW40159   1.405   1.475   3.321  0.2245  0.0799 -0.2411
 9566SOL    HW140160   1.445   1.456   3.405 -1.3222 -1.7941  0.0850
 9566SOL    HW240161   1.471   1.526   3.275 -1.0643  1.6697 -0.3422
 9567SOL     OW40162   3.768   0.102   7.061 -0.1318  0.0969 -0.6705
 9567SOL    HW140163   3.857   0.072   7.081 -0.5296 -1.2632 -0.9316
 9567SOL    HW240164   3.794   0.143   6.979  1.4571 -0.8697 -0.6620
 9568SOL     OW40165   3.183   4.345   5.217  0.2079  0.5147  0.0381
 9568SOL    HW140166   3.124   4.420   5.213 -1.4331 -0.7244  1.0387
 9568SOL    HW240167   3.167   4.301   5.301  1.2830  0.3373  0.1506
   4.72403   4.72403  17.69775
