Membrane in water
40167
    1TCq1    O1    1   2.728   3.462  10.768  0.2324 -0.6653  0.4276
    1TCq1    C1    2   2.693   3.592  10.744 -0.0118  0.0268 -0.7950
    1TCq1    O2    3   2.744   3.659  10.656 -0.0641  0.0868 -0.3818
    1TCq1    C2    4   2.587   3.643  10.832 -0.7605  0.1333  0.3289
    1TCq1    C3    5   2.530   3.758  10.778 -0.2714  0.3916  0.6924
    1TCq1    C4    6   2.418   3.807  10.847  0.2753 -0.2087  0.0685
    1TCq1    C5    7   2.369   3.735  10.953 -0.3392  0.5252  0.0989
    1TCq1    C6    8   2.426   3.621  10.996 -0.0382  0.0756  0.4394
    1TCq1    C7    9   2.536   3.573  10.935  0.0276 -0.6588  0.4312
    1TCq1    C8   10   2.381   3.554  11.119  0.1640 -0.0512  0.1107
    1TCq1    O4   11   2.295   3.612  11.183 -0.0706 -0.4218 -0.0184
    1TCq1    C9   12   2.350   3.932  10.799 -0.6584 -0.7974  0.2124
    1TCq1    O5   13   2.260   3.978  10.871 -0.1391  0.8626 -0.4225
    1TCq1    O6   14   2.398   3.998  10.703 -0.0465  0.1402  0.7237
    1TCq1    H1   15   2.677   3.417  10.839 -1.3477  1.2786  0.5161
    1TCq1    H2   16   2.559   3.806  10.685  3.4701  0.7882  2.0598
    1TCq1    H3   17   2.277   3.772  10.996 -1.4610  0.7037 -2.4195
    1TCq1    H4   18   2.603   3.498  10.977 -1.4828 -1.3759  1.5620
    2MPD2     C   19   2.382   3.191  11.479 -0.9464 -0.6051  0.3708
    2MPD2    C1   20   2.358   3.328  11.492 -0.1204 -0.4603 -0.0824
    2MPD2    C2   21   2.366   3.406  11.375  0.0313 -0.7733 -0.5690
    2MPD2    C3   22   2.413   3.353  11.253 -0.4817 -0.3416  0.8425
    2MPD2    C4   23   2.454   3.225  11.256 -0.0437 -0.3698  0.3618
    2MPD2    C5   24   2.442   3.150  11.366 -0.1935  0.4413 -0.1559
    2MPD2     H   25   2.339   3.511  11.370 -0.1688 -0.7573  1.1259
    2MPD2    H1   26   2.485   3.179  11.164  1.4630  0.5624  0.3933
    2MPD2    H2   27   2.388   3.120  11.561 -2.0012  1.2964  2.1033
    2MPD2    H3   28   2.477   3.047  11.354  1.5557  1.1276 -1.0753
    2MPD2     N   29   2.435   3.428  11.139  0.4171  0.2806  0.7377
    2MPD2    H5   30   2.475   3.383  11.058  3.6507  2.3997  1.1788
    2MPD2    N1   31   2.315   3.379  11.613  0.0810  0.0481  0.0223
    2MPD2    H7   32   2.304   3.479  11.621 -0.5618  0.1256 -1.8020
    3TCq1    O1   33   1.659   0.566  10.762 -0.5447 -0.9150 -0.2167
    3TCq1    C1   34   1.581   0.453  10.788  0.3638  0.2418 -0.1446
    3TCq1    O2   35   1.507   0.404  10.707 -0.0271  0.4075  0.5370
    3TCq1    C2   36   1.594   0.422  10.930  0.0805  0.3505  0.3001
    3TCq1    C3   37   1.691   0.474  11.000  0.3724 -0.2318 -0.0169
    3TCq1    C4   38   1.678   0.478  11.139 -0.0415 -0.6235  0.0648
    3TCq1    C5   39   1.575   0.423  11.210  0.2912  0.3477  0.2795
    3TCq1    C6   40   1.483   0.357  11.134  0.9654 -0.2346  0.5162
    3TCq1    C7   41   1.487   0.365  10.996 -0.3636 -0.0669  0.5466
    3TCq1    C8   42   1.349   0.326  11.185  0.2170  0.5059  0.0879
    3TCq1    O4   43   1.275   0.249  11.119 -0.9668 -0.5439 -0.5839
    3TCq1    C9   44   1.785   0.555  11.197  0.1035 -0.6181 -0.1926
    3TCq1    O5   45   1.774   0.584  11.316 -0.5464 -0.0333  0.1549
    3TCq1    O6   46   1.880   0.588  11.122  0.6519  0.7209 -0.1343
    3TCq1    H1   47   1.706   0.588  10.846  0.1459 -1.5693 -0.4320
    3TCq1    H2   48   1.779   0.509  10.946  1.7548 -0.1668  2.2819
    3TCq1    H3   49   1.580   0.416  11.318 -2.1460 -3.5069  0.1329
    3TCq1    H4   50   1.404   0.327  10.938 -1.2356  0.2782  1.5760
    4MPD2     C   51   0.948   0.429  11.484 -0.8977  0.5295 -0.6531
    4MPD2    C1   52   1.041   0.525  11.506 -0.3911 -1.1320 -0.2228
    4MPD2    C2   53   1.168   0.510  11.447 -0.4782  0.0100  0.0152
    4MPD2    C3   54   1.194   0.399  11.367  0.1615 -0.3144  0.0290
    4MPD2    C4   55   1.099   0.306  11.346  0.1784  0.1079  0.0430
    4MPD2    C5   56   0.982   0.314  11.414  0.0878 -0.5647 -0.1285
    4MPD2     H   57   1.243   0.587  11.459 -0.3002 -0.8563  4.4730
    4MPD2    H1   58   1.110   0.223  11.277  1.9759 -1.7875  2.6241
    4MPD2    H2   59   0.847   0.452  11.516 -1.5029 -0.8195 -1.5989
    4MPD2    H3   60   0.918   0.228  11.409 -0.8597  0.0449  1.7610
    4MPD2     N   61   1.318   0.405  11.296 -0.7840 -0.1929  0.2401
    4MPD2    H5   62   1.394   0.469  11.317 -0.1913 -1.0339  0.6627
    4MPD2    N1   63   1.019   0.652  11.567 -0.7129  0.0400  0.7452
    4MPD2    H7   64   1.082   0.725  11.534 -1.0456  1.1349  2.4978
    5TCq1    O1   65   1.976   1.433  11.456 -0.5953 -0.2482 -0.2785
    5TCq1    C1   66   2.013   1.316  11.393  1.0311  0.8644 -0.5364
    5TCq1    O2   67   2.116   1.287  11.332 -0.2229 -0.2229  0.1444
    5TCq1    C2   68   1.899   1.236  11.354  0.3239  0.2408  0.7002
    5TCq1    C3   69   1.776   1.250  11.415  0.6578 -0.1040  0.2568
    5TCq1    C4   70   1.665   1.198  11.363 -0.4817 -0.4665  0.2283
    5TCq1    C5   71   1.661   1.152  11.236  0.3283 -0.3037  0.3520
    5TCq1    C6   72   1.784   1.138  11.170 -0.5449 -0.2179  0.4998
    5TCq1    C7   73   1.901   1.174  11.233  0.5496  0.5338  0.5322
    5TCq1    C8   74   1.773   1.082  11.037 -0.2179 -0.0348 -0.4221
    5TCq1    O4   75   1.872   1.028  10.984  0.1104 -0.5075 -0.4140
    5TCq1    C9   76   1.542   1.201  11.433  0.9447  0.1539 -0.1247
    5TCq1    O5   77   1.434   1.190  11.369  0.3649  0.5156 -0.0190
    5TCq1    O6   78   1.544   1.250  11.546 -0.1536  0.0646  0.0677
    5TCq1    H1   79   1.886   1.430  11.495  0.0920 -1.7254  1.1678
    5TCq1    H2   80   1.761   1.303  11.508 -0.6364 -1.1922  0.6727
    5TCq1    H3   81   1.571   1.101  11.204 -0.8660  1.5954  0.6306
    5TCq1    H4   82   1.989   1.167  11.170  0.1222  2.7414 -0.2918
    6MPD2     C   83   1.496   1.115  10.813 -0.8666 -1.1289  0.6497
    6MPD2    C1   84   1.617   1.074  10.849 -0.0040 -0.5978 -0.2146
    6MPD2    C2   85   1.696   0.986  10.764 -0.2614 -0.7773 -0.3420
    6MPD2    C3   86   1.627   0.927  10.660  0.2518  0.1724  0.1471
    6MPD2    C4   87   1.495   0.972  10.631  0.5612  0.4654 -0.0739
    6MPD2    C5   88   1.435   1.071  10.700  1.1791  0.4195 -0.1070
    6MPD2     H   89   1.797   0.949  10.776 -0.3063 -0.3307  1.3463
    6MPD2    H1   90   1.450   0.933  10.540  2.0034  0.6968 -0.8836
    6MPD2    H2   91   1.432   1.172  10.880  0.3079  0.0404  0.7879
    6MPD2    H3   92   1.342   1.122  10.678  1.8194  1.3377 -0.6959
    6MPD2     N   93   1.691   0.827  10.584  0.1167 -0.1902  0.1589
    6MPD2    H5   94   1.792   0.832  10.593  0.1946 -1.0704 -0.2682
    6MPD2    N1   95   1.648   1.104  10.983 -0.6316  0.3641  0.1495
    6MPD2    H7   96   1.583   1.163  11.034 -1.0882  1.8578 -2.1361
    7TCq1    O1   97   3.715   1.628  12.561 -0.4957 -0.3379 -0.2056
    7TCq1    C1   98   3.641   1.551  12.641 -0.1483 -0.1741  0.9422
    7TCq1    O2   99   3.576   1.595  12.731  0.1231 -0.0755  0.5511
    7TCq1    C2  100   3.683   1.410  12.639  0.5033 -0.1079 -0.0780
    7TCq1    C3  101   3.723   1.345  12.525  0.1801 -0.0926 -0.1684
    7TCq1    C4  102   3.733   1.212  12.532 -0.2353 -0.6531  0.6692
    7TCq1    C5  103   3.710   1.135  12.640  0.0966  0.6448 -0.0421
    7TCq1    C6  104   3.694   1.206  12.759 -0.3329  0.2491 -0.6377
    7TCq1    C7  105   3.674   1.342  12.763  0.2231  0.2047  0.5413
    7TCq1    C8  106   3.753   1.132  12.875 -0.6055 -0.2764  0.4624
    7TCq1    O4  107   3.738   1.012  12.878 -0.3042 -0.1558  0.0944
    7TCq1    C9  108   3.729   1.149  12.405 -0.8338 -0.0961 -0.3275
    7TCq1    O5  109   3.688   1.216  12.309 -0.1087  0.2419  0.1684
    7TCq1    O6  110   3.755   1.026  12.405  0.3406 -0.3094  0.5983
    7TCq1    H1  111   3.788   1.583  12.514  1.3684  1.9727  0.4736
    7TCq1    H2  112   3.738   1.395  12.429 -0.0095 -2.6626 -1.5394
    7TCq1    H3  113   3.722   1.028  12.638 -0.2867  0.5963  0.1537
    7TCq1    H4  114   3.654   1.402  12.851  0.1625  2.5491 -1.0616
    8MPD2     C  115   4.092   1.118  13.266  0.3250 -0.2209 -0.3951
    8MPD2    C1  116   4.005   1.022  13.216  0.5618 -0.1184  0.1391
    8MPD2    C2  117   3.916   1.048  13.115 -0.4037 -0.0027  0.4475
    8MPD2    C3  118   3.908   1.180  13.064  0.5475 -0.4208 -0.2157
    8MPD2    C4  119   3.989   1.277  13.119 -0.2610 -0.7009 -0.5334
    8MPD2    C5  120   4.088   1.248  13.215 -0.1105 -0.0857  0.1841
    8MPD2     H  121   3.860   0.968  13.067  0.0699  0.0954 -0.2780
    8MPD2    H1  122   3.978   1.376  13.076 -0.0512 -0.1607  0.6513
    8MPD2    H2  123   4.145   1.096  13.358  1.8802  1.6601 -0.8542
    8MPD2    H3  124   4.151   1.326  13.256 -0.9509  0.9739 -0.5372
    8MPD2     N  125   3.834   1.220  12.949  0.5781  0.4452 -0.2041
    8MPD2    H5  126   3.851   1.314  12.914 -1.2685  0.5358 -0.8323
    8MPD2    N1  127   4.018   0.899  13.288  0.8656 -0.5152  0.1617
    8MPD2    H7  128   4.082   0.892  13.367  2.2417 -1.2513 -1.0255
    9TCq1    O1  129   1.658   4.329  10.873  0.5454  0.4524  0.0503
    9TCq1    C1  130   1.666   4.393  10.751 -0.0782 -0.3215 -0.3522
    9TCq1    O2  131   1.571   4.417  10.678  0.3154 -1.2402  0.1717
    9TCq1    C2  132   1.790   4.455  10.734  0.5632 -0.6835  0.7766
    9TCq1    C3  133   1.821   4.496  10.609  0.3534  0.2943  0.3892
    9TCq1    C4  134   1.935   4.572  10.586 -0.6950  0.5629 -0.1723
    9TCq1    C5  135   2.003   4.616  10.688 -0.3154 -1.2660 -0.4126
    9TCq1    C6  136   1.974   4.581  10.817  0.2451 -0.2632  0.2663
    9TCq1    C7  137   1.872   4.488  10.842  0.6550 -0.3430  0.3432
    9TCq1    C8  138   2.064   4.607  10.931 -0.2067  1.0290 -0.5682
    9TCq1    O4  139   2.167   4.663  10.899 -0.9682 -0.0779  0.8099
    9TCq1    C9  140   1.972   4.601  10.448  0.2466 -0.4640 -0.2963
    9TCq1    O5  141   1.965   4.507  10.368 -0.0677 -0.1239  0.1638
    9TCq1    O6  142   2.011   4.715  10.422  0.1558  0.1627  0.5747
    9TCq1    H1  143   1.748   4.322  10.912  0.8715 -1.2249 -1.0133
    9TCq1    H2  144   1.763   4.462  10.524 -0.8688  2.0236  0.5229
    9TCq1    H3  145   2.090   4.678  10.670  1.0506 -3.1599 -0.4309
    9TCq1    H4  146   1.841   4.464  10.943  0.5030 -2.6491 -0.2432
   10MPD2     C  147   2.248   4.614  11.165  0.1678 -0.6275 -0.4225
   10MPD2    C1  148   2.117   4.574  11.165  0.4797 -0.3204 -0.0240
   10MPD2    C2  149   2.063   4.547  11.289  0.3392  0.1045 -0.0191
   10MPD2    C3  150   2.129   4.560  11.406 -0.0704 -0.1508  0.6657
   10MPD2    C4  151   2.253   4.603  11.396  0.1892  0.8116 -0.2140
   10MPD2    C5  152   2.314   4.629  11.285  0.1552  0.1382 -0.1437
   10MPD2     H  153   1.958   4.517  11.294 -0.2365  2.5304  2.2365
   10MPD2    H1  154   2.310   4.628  11.485 -1.3289  3.3271  0.0190
   10MPD2    H2  155   2.297   4.637  11.071  0.1241 -2.1430 -0.8040
   10MPD2    H3  156   2.417   4.664  11.293  0.7393 -1.2103 -1.8346
   10MPD2     N  157   2.072   4.530  11.530 -0.2858  0.3416 -0.0600
   10MPD2    H5  158   2.133   4.543  11.610  0.2171 -2.1195 -0.0383
   10MPD2    N1  159   2.025   4.574  11.059  0.3957  0.4123  0.2331
   10MPD2    H7  160   1.930   4.543  11.079  0.3717  0.0204 -0.4822
   11TCq1    O1  161   3.426   0.122  14.095  0.2954  0.3004 -0.4425
   11TCq1    C1  162   3.526   0.079  14.179  0.1867  0.0430  0.0596
   11TCq1    O2  163   3.647   0.086  14.158 -0.0998  0.4390  0.2378
   11TCq1    C2  164   3.473   0.051  14.309 -0.0105  0.0739  0.3337
   11TCq1    C3  165   3.534   0.113  14.410  0.2917  0.5354 -0.0206
   11TCq1    C4  166   3.474   0.120  14.535 -0.4179  0.1149  0.3513
   11TCq1    C5  167   3.348   0.069  14.565 -0.2550  0.0634 -0.4263
   11TCq1    C6  168   3.290   0.009  14.454 -0.0055  0.1482  0.6016
   11TCq1    C7  169   3.346   4.714  14.331  0.3033 -0.0875 -0.2959
   11TCq1    C8  170   3.153   4.683  14.479 -0.3405 -0.0495  0.2365
   11TCq1    O4  171   3.104   4.713  14.586  0.8384 -0.6494  0.6253
   11TCq1    C9  172   3.545   0.202  14.636  0.2692  0.2569  0.2222
   11TCq1    O5  173   3.489   0.218  14.750  0.0267  0.4451  0.2784
   11TCq1    O6  174   3.649   0.266  14.595  0.4549  0.2930 -0.0646
   11TCq1    H1  175   3.337   0.140  14.132  0.5387  0.0230  0.2857
   11TCq1    H2  176   3.624   0.168  14.387 -0.8141  2.5472  0.3796
   11TCq1    H3  177   3.300   0.075  14.662  0.5139  0.2549 -0.0592
   11TCq1    H4  178   3.303   4.668  14.243 -0.5021  0.7913 -0.3550
   12MPD2     C  179   2.877   4.618  14.462 -0.0235  0.4544 -0.1027
   12MPD2    C1  180   2.967   4.578  14.363 -0.4339  0.2183 -0.5937
   12MPD2    C2  181   2.931   4.478  14.274 -0.0388 -0.9434  1.0411
   12MPD2    C3  182   2.799   4.429  14.278 -0.0591 -0.5807 -0.4477
   12MPD2    C4  183   2.715   4.471  14.382  0.0207  0.5249 -0.1534
   12MPD2    C5  184   2.751   4.568  14.477  0.2647  0.1958  0.7174
   12MPD2     H  185   2.995   4.443  14.194 -1.9263  1.5805 -1.5615
   12MPD2    H1  186   2.612   4.439  14.387  0.7714 -1.6961  1.0537
   12MPD2    H2  187   2.888   4.702  14.529  0.4130  0.0882  0.2799
   12MPD2    H3  188   2.690   4.597  14.561 -1.2155  1.2343 -0.7327
   12MPD2     N  189   2.761   4.350  14.170  0.2216  0.7109 -0.3215
   12MPD2    H5  190   2.836   4.311  14.115 -0.4542  0.8340 -1.3282
   12MPD2    N1  191   3.100   4.619  14.369  0.1037 -0.1497  0.2605
   12MPD2    H7  192   3.164   4.605  14.291 -0.8396  1.2288 -0.7623
   13TCq1    O1  193   2.408   4.203  11.281  1.0626 -0.2126  0.0088
   13TCq1    C1  194   2.330   4.264  11.364  0.2925  0.0828  0.3150
   13TCq1    O2  195   2.357   4.293  11.484 -0.3050 -0.1302  0.1370
   13TCq1    C2  196   2.196   4.234  11.323  0.1309  0.2205  0.2342
   13TCq1    C3  197   2.167   4.241  11.194 -0.2706  0.1703  0.1927
   13TCq1    C4  198   2.034   4.220  11.166  0.2997 -0.1525  0.3862
   13TCq1    C5  199   1.940   4.187  11.254  0.5256 -0.2727  0.1331
   13TCq1    C6  200   1.984   4.170  11.383 -0.5290  0.6102  0.4938
   13TCq1    C7  201   2.113   4.196  11.425  0.5806 -0.2216  0.0304
   13TCq1    C8  202   1.898   4.120  11.486 -0.7344  0.3129  0.0370
   13TCq1    O4  203   1.924   4.144  11.606  0.5953  0.1425  0.4353
   13TCq1    C9  204   1.990   4.246  11.033 -0.8273  0.3525 -0.2700
   13TCq1    O5  205   2.083   4.242  10.948 -0.2958 -0.3349 -0.1133
   13TCq1    O6  206   1.866   4.245  11.001 -0.3529  0.2198 -0.3201
   13TCq1    H1  207   2.361   4.172  11.200  0.7020  0.5999 -0.0882
   13TCq1    H2  208   2.240   4.272  11.121 -0.5161  1.5883  0.5453
   13TCq1    H3  209   1.838   4.165  11.227  0.6447  0.0620 -0.6100
   13TCq1    H4  210   2.154   4.196  11.525  0.3731  0.9675  0.1183
   14MPD2     C  211   1.579   3.970  11.403 -0.3445 -0.1606  0.5774
   14MPD2    C1  212   1.670   4.041  11.481  0.1535 -0.1224 -0.5307
   14MPD2    C2  213   1.629   4.094  11.605 -0.9563 -0.2121 -0.3382
   14MPD2    C3  214   1.500   4.086  11.645 -0.0131  0.3531  0.6940
   14MPD2    C4  215   1.406   4.017  11.564 -0.1118  0.8320  0.4156
   14MPD2    C5  216   1.450   3.957  11.447 -0.5327 -0.1038 -0.1524
   14MPD2     H  217   1.702   4.145  11.666 -1.9027 -2.1181  2.4036
   14MPD2    H1  218   1.300   4.012  11.584  0.2346 -0.4070  1.9527
   14MPD2    H2  219   1.604   3.930  11.305 -0.8818 -1.1001  0.8237
   14MPD2    H3  220   1.372   3.918  11.383 -0.2429 -0.6754 -0.1603
   14MPD2     N  221   1.466   4.153  11.762  0.4801 -0.3909  0.0591
   14MPD2    H5  222   1.535   4.187  11.828  0.2478 -1.7888  1.0145
   14MPD2    N1  223   1.797   4.048  11.429  0.0578 -0.0865  0.3955
   14MPD2    H7  224   1.812   4.024  11.331  0.9682  0.6846  0.3487
   15TCq1    O1  225   4.209   3.635   1.697 -0.3688  0.3594 -0.4607
   15TCq1    C1  226   4.130   3.548   1.760 -0.8478  0.4397 -0.1580
   15TCq1    O2  227   4.070   3.590   1.862  0.7907  0.3025  0.3012
   15TCq1    C2  228   4.089   3.435   1.674  0.7810 -0.1477  0.7241
   15TCq1    C3  229   3.968   3.376   1.701 -0.2415 -0.4746 -0.4757
   15TCq1    C4  230   3.928   3.265   1.621  0.2819 -0.1061  0.2323
   15TCq1    C5  231   4.013   3.211   1.534 -0.7567  0.3066 -0.1534
   15TCq1    C6  232   4.135   3.273   1.511  0.2388  0.4044 -0.6521
   15TCq1    C7  233   4.177   3.387   1.575 -0.7800 -0.0773  0.6036
   15TCq1    C8  234   4.223   3.229   1.407  0.0933 -0.8003  0.2694
   15TCq1    O4  235   4.339   3.272   1.403  0.1982 -0.1475  0.1003
   15TCq1    C9  236   3.808   3.197   1.656 -0.2547  0.1468  0.3480
   15TCq1    O5  237   3.743   3.135   1.564  1.1164 -0.0514 -0.1337
   15TCq1    O6  238   3.744   3.239   1.757 -0.9709  0.3790 -0.5649
   15TCq1    H1  239   4.240   3.609   1.608  1.6006  0.7161  0.1186
   15TCq1    H2  240   3.906   3.412   1.783 -0.0075 -0.0377 -0.4891
   15TCq1    H3  241   3.983   3.121   1.482 -1.1851  1.3597 -1.7485
   15TCq1    H4  242   4.281   3.418   1.579 -1.6366  2.8087  0.0773
   16MPD2     C  243   4.141   3.014   1.119 -0.6526  0.0471  0.3047
   16MPD2    C1  244   4.224   3.084   1.202  0.0894  0.4445 -0.7183
   16MPD2    C2  245   4.362   3.080   1.168  0.1617 -0.0933  0.4122
   16MPD2    C3  246   4.408   3.017   1.050  0.0521 -0.1920 -0.4072
   16MPD2    C4  247   4.313   2.967   0.964  0.2674  0.4174 -0.1192
   16MPD2    C5  248   4.181   2.959   0.998 -0.0014  0.4983  0.6875
   16MPD2     H  249   4.425   3.120   1.247  0.3212  2.4069 -0.9724
   16MPD2    H1  250   4.333   2.922   0.867  3.3023  3.3246 -0.8602
   16MPD2    H2  251   4.034   3.003   1.134 -0.6400  0.7044  0.8932
   16MPD2    H3  252   4.113   2.910   0.929 -0.1828 -0.6577  1.6808
   16MPD2     N  253   4.547   3.003   1.017 -0.4431 -0.1763  0.4012
   16MPD2    H5  254   4.616   3.031   1.087 -1.7471  1.5603  1.0013
   16MPD2    N1  255   4.159   3.142   1.316 -0.5880  0.0507  0.1083
   16MPD2    H7  256   4.059   3.126   1.318 -0.5728 -0.1536 -0.5690
   17TCq1    O1  257   1.671   4.085  10.569  0.1214 -0.2876 -0.0066
   17TCq1    C1  258   1.757   4.013  10.643  0.3032 -0.3567 -0.4477
   17TCq1    O2  259   1.789   4.034  10.759 -0.2881 -0.2374 -0.5219
   17TCq1    C2  260   1.808   3.908  10.557  0.0987 -0.3721 -0.1919
   17TCq1    C3  261   1.846   3.952  10.432 -0.4504  0.5220  0.3729
   17TCq1    C4  262   1.940   3.873  10.367  0.0673 -0.8902  0.2636
   17TCq1    C5  263   2.005   3.773  10.426 -1.0452 -0.5215  0.3890
   17TCq1    C6  264   1.983   3.752  10.563  0.2592  0.2349  0.4258
   17TCq1    C7  265   1.883   3.814  10.621  0.5806  0.1313  1.1587
   17TCq1    C8  266   2.062   3.651  10.632  0.2891  0.0430  0.0794
   17TCq1    O4  267   2.030   3.620  10.749 -0.4309 -0.5350  0.5121
   17TCq1    C9  268   1.982   3.926  10.237  0.3672  0.0173  0.0125
   17TCq1    O5  269   2.102   3.908  10.204 -0.7015 -0.1456 -0.3427
   17TCq1    O6  270   1.906   4.014  10.186 -0.4424 -0.1258 -0.0599
   17TCq1    H1  271   1.654   4.036  10.486  0.1925 -1.9312  0.9523
   17TCq1    H2  272   1.798   4.037  10.385  0.4297  0.8320  0.0458
   17TCq1    H3  273   2.088   3.721  10.379 -0.0246 -0.4355  2.1210
   17TCq1    H4  274   1.848   3.782  10.719 -1.4097  0.6637  0.6145
   18MPD2     C  275   2.264   3.452  10.727  0.8476 -0.4191  0.4042
   18MPD2    C1  276   2.283   3.539  10.618 -0.8600 -0.1574 -0.7094
   18MPD2    C2  277   2.398   3.519  10.542 -0.4338 -0.7883  0.3872
   18MPD2    C3  278   2.483   3.413  10.563  0.1783  0.1215  0.2223
   18MPD2    C4  279   2.448   3.323  10.664 -0.8617  0.2687  0.6657
   18MPD2    C5  280   2.343   3.347  10.747  0.3497 -0.2122 -0.5424
   18MPD2     H  281   2.410   3.588  10.459 -3.2246  0.9620  1.4300
   18MPD2    H1  282   2.501   3.229  10.676 -1.8027 -0.6107 -2.2176
   18MPD2    H2  283   2.175   3.462  10.787  0.2480 -2.2921 -0.1944
   18MPD2    H3  284   2.310   3.276  10.822  1.9421 -0.6331 -0.2446
   18MPD2     N  285   2.596   3.386  10.484 -0.6155  0.4179 -0.3418
   18MPD2    H5  286   2.653   3.308  10.514 -0.7591 -0.1015 -1.4236
   18MPD2    N1  287   2.187   3.632  10.574 -0.0869 -0.9301 -0.6090
   18MPD2    H7  288   2.207   3.683  10.489  0.0578  1.9439  1.1294
   19TMC2    C1  289   4.232   4.631  14.096  0.1224 -0.1844 -0.1491
   19TMC2    C2  290   4.230   4.706  13.978 -0.4771  0.4176  0.2526
   19TMC2    C3  291   4.139   4.672  13.880 -0.1619 -0.2081 -0.3592
   19TMC2    C4  292   4.141   4.525  14.110 -0.3265  0.3856  0.1820
   19TMC2    C5  293   4.041   4.507  14.016  0.4973 -0.0551 -0.1617
   19TMC2    C6  294   4.042   4.584  13.899 -0.2834 -0.3442  0.2160
   19TMC2     C  295   4.355   4.642  14.175  0.0317 -0.1115  0.3514
   19TMC2     O  296   4.447   4.706  14.120  0.1480  0.2157  0.6415
   19TMC2     H  297   4.299   0.066  13.968 -0.3427  0.3783  0.8737
   19TMC2    H1  298   4.178   4.438  14.165 -1.1648  0.0214  0.1568
   19TMC2    H2  299   3.950   4.581  13.843 -0.3785  0.6313  0.3179
   19TMC2    C7  300   3.962   4.390  14.029 -0.5202  0.3099 -1.0174
   19TMC2    C8  301   4.133   0.039  13.765  0.6247  0.2739 -0.5157
   19TMC2    O1  302   3.970   4.330  14.134 -0.2751  0.3525  0.5444
   19TMC2    O2  303   4.187   0.147  13.757  0.3220 -0.2288 -0.0182
   19TMC2    O5  304   4.087   4.689  13.657 -0.1833 -0.0482  0.0048
   19TMC2    H5  305   4.062   4.594  13.667  1.6527 -0.6023 -0.7969
   20MPD2     C  306   4.558   4.679  14.393  0.3374 -0.1208 -0.0991
   20MPD2    C1  307   4.440   4.616  14.410  0.3438  0.4303 -0.0750
   20MPD2    C2  308   4.420   4.544  14.527  0.4032 -0.9585  0.1952
   20MPD2    C3  309   4.511   4.546  14.630 -1.0800  0.0886  0.3624
   20MPD2    C4  310   4.628   4.610  14.613  0.8388  0.2539 -0.6212
   20MPD2    C5  311   4.650   4.671  14.495 -0.8865 -0.7508  0.2398
   20MPD2     H  312   4.325   4.493  14.536 -0.6191  0.9331 -0.0383
   20MPD2    H1  313   4.706   4.624  14.687 -0.7299  0.0026  1.0891
   20MPD2    H2  314   4.591   0.004  14.302  0.6027  0.2251  0.1885
   20MPD2    H3  315   0.022   4.720  14.482  0.0804 -2.5460  0.6893
   20MPD2     N  316   4.484   4.490  14.755  0.6253  0.6174  0.4268
   20MPD2    H5  317   4.558   4.482  14.824  1.0462 -1.7047 -0.2976
   20MPD2    N1  318   4.340   4.597  14.307  0.6012 -0.1478  0.3092
   20MPD2    H7  319   4.251   4.560  14.337  1.3361 -2.9108 -0.9772
   21MPD2     C  320   1.789   0.309  14.509 -0.7273 -0.2739  0.0944
   21MPD2    C1  321   1.792   0.177  14.476  0.4471 -0.7497 -0.3439
   21MPD2    C2  322   1.677   0.107  14.505  0.4157  0.0880 -0.4829
   21MPD2    C3  323   1.564   0.173  14.560 -0.2000 -0.0565 -0.0058
   21MPD2    C4  324   1.569   0.312  14.590 -0.0491 -0.5652  0.3790
   21MPD2    C5  325   1.683   0.380  14.561 -0.5825  0.1396 -0.1616
   21MPD2     H  326   1.667   0.003  14.475 -1.9316  0.1331  0.1169
   21MPD2    H1  327   1.482   0.366  14.627 -0.1880 -1.2111  0.9958
   21MPD2    H2  328   1.874   0.370  14.483 -0.9957  0.1161  0.1199
   21MPD2    H3  329   1.682   0.486  14.583  1.6902 -0.4307  2.7936
   21MPD2     N  330   1.447   0.104  14.601 -0.6465  0.5830  0.2384
   21MPD2    H5  331   1.386   0.155  14.664 -0.7600  0.9806 -0.2000
   21MPD2    N1  332   1.886   0.118  14.396 -0.5025  0.0804 -0.5159
   21MPD2    H7  333   1.859   0.029  14.354  0.5928 -1.9842  3.1988
   22TCq2    C1  334   1.410   4.697  14.579  0.5947  0.2886  0.7439
   22TCq2    O2  335   1.460   4.617  14.502 -0.5841 -0.2959  0.1073
   22TCq2    C2  336   1.315   4.660  14.680  0.8565 -0.9158  0.8401
   22TCq2    C3  337   1.363   4.562  14.764 -0.3708  0.4870 -0.2097
   22TCq2    C4  338   1.308   4.562  14.885 -0.1268  0.9240  0.0594
   22TCq2    C5  339   1.214   4.649  14.923 -0.2525  0.3035 -0.3416
   22TCq2    C6  340   1.169   0.012  14.833 -0.0072  0.4968  0.2157
   22TCq2    C7  341   1.217   0.026  14.709  0.2450  0.2196  0.8465
   22TCq2    C8  342   1.039   0.060  14.873  0.3610  0.6067  0.6258
   22TCq2    O4  343   0.971   0.006  14.964  0.0302  0.0205  0.3583
   22TCq2    C9  344   1.361   4.477  14.990 -0.8090  0.0202  0.0329
   22TCq2    O5  345   1.412   4.371  14.939 -0.2654  0.2874  0.1053
   22TCq2    O6  346   1.303   4.483  15.106 -0.0318  0.5049 -0.1177
   22TCq2    H2  347   1.443   4.490  14.749 -0.3507  0.4997 -0.1658
   22TCq2    H3  348   1.180   4.651  15.026  3.4057 -1.7282  0.9144
   22TCq2    H4  349   1.184   0.102  14.640 -1.4906  0.0163  1.4263
   23MPD2     C  350   3.499   0.738  14.951  0.1299 -0.2179 -0.1613
   23MPD2    C1  351   3.371   0.765  14.991 -0.2702  0.0715 -0.3302
   23MPD2    C2  352   3.305   0.873  14.945 -0.3557 -0.0426 -0.3635
   23MPD2    C3  353   3.356   0.942  14.835 -0.2773 -0.9685 -0.1377
   23MPD2    C4  354   3.476   0.908  14.776  0.1872 -0.1972 -0.1877
   23MPD2    C5  355   3.548   0.806  14.842 -0.2763 -0.1621  0.2010
   23MPD2     H  356   3.215   0.901  14.999 -1.4095 -0.0807 -2.1062
   23MPD2    H1  357   3.529   0.969  14.703 -0.5116 -1.6540 -1.9093
   23MPD2    H2  358   3.566   0.663  14.992  0.0511  0.5903  1.4538
   23MPD2    H3  359   3.651   0.792  14.813  0.0732  0.5269  1.1191
   23MPD2     N  360   3.278   1.044  14.771  0.4137  0.2614  0.1678
   23MPD2    H5  361   3.318   1.087  14.688  1.9143 -2.1158 -0.3366
   23MPD2    N1  362   3.329   0.697  15.105 -0.3584  0.4433  0.6031
   23MPD2    H7  363   3.250   0.738  15.155  0.4435 -0.4293  2.5703
   24TCq2    C1  364   3.143   1.079  14.796  0.7193  0.0398 -0.5382
   24TCq2    O2  365   3.065   1.017  14.869  0.7152  0.1116 -0.8170
   24TCq2    C2  366   3.081   1.169  14.704  0.8197  0.9898  0.0681
   24TCq2    C3  367   3.140   1.289  14.665  0.4815  0.5457 -0.2674
   24TCq2    C4  368   3.081   1.363  14.567  0.6192  0.3950 -0.2044
   24TCq2    C5  369   2.968   1.312  14.504  0.6723  0.6012 -0.7578
   24TCq2    C6  370   2.927   1.185  14.537  0.4311 -0.3285  0.5392
   24TCq2    C7  371   2.974   1.117  14.641  0.3187 -0.1327 -0.1218
   24TCq2    C8  372   2.807   1.132  14.480 -0.0841  0.4180  0.1347
   24TCq2    O4  373   2.811   1.016  14.453  0.0384 -0.0534 -0.1283
   24TCq2    C9  374   3.128   1.493  14.529 -0.1511  0.2382  0.9435
   24TCq2    O5  375   3.071   1.553  14.435  0.9535 -0.5134  0.1504
   24TCq2    O6  376   3.210   1.554  14.603 -0.2484 -0.2243  0.5154
   24TCq2    H2  377   3.234   1.307  14.717  0.2595  1.1931 -0.0895
   24TCq2    H3  378   2.933   1.362  14.414  0.6817  1.8015 -0.0976
   24TCq2    H4  379   2.924   1.031  14.684  1.8027 -1.0233 -0.1671
   25TMC2    C1  380   2.025   3.169  11.453  0.6346 -0.1590  0.4409
   25TMC2    C2  381   2.045   3.264  11.358 -0.3861  0.2152 -0.2637
   25TMC2    C3  382   2.010   3.391  11.383  0.0545 -0.0597  0.0266
   25TMC2    C4  383   1.972   3.198  11.577 -0.2265  0.3864  0.2304
   25TMC2    C5  384   1.917   3.322  11.591 -0.3343  0.0406  0.3774
   25TMC2    C6  385   1.937   3.418  11.495 -0.6933 -0.3060 -0.1371
   25TMC2     C  386   2.052   3.032  11.435  0.4631  0.1672 -0.3991
   25TMC2     O  387   2.159   3.008  11.373 -0.6253 -0.4557 -0.5478
   25TMC2     H  388   2.089   3.233  11.263  0.3207  1.8826 -0.4813
   25TMC2    H1  389   1.961   3.117  11.647 -0.7004  0.0030 -0.2908
   25TMC2    H2  390   1.894   3.518  11.498  1.1749  0.4803  0.1269
   25TMC2    C7  391   1.839   3.348  11.706  0.6790  0.4753 -0.0646
   25TMC2    C8  392   1.979   3.482  11.277  0.2453  0.4053  0.4564
   25TMC2    O1  393   1.864   3.278  11.804  0.6834  0.3359 -0.0857
   25TMC2    O2  394   1.970   3.603  11.297 -0.3481  0.8117  0.2339
   25TMC2    O5  395   1.873   3.420  11.225 -0.3402  1.2005 -0.4434
   25TMC2    H5  396   1.878   3.322  11.225  0.1105  1.2270  0.2679
   26MPD2     C  397   1.919   2.541  11.369  0.7899  0.0786  0.4351
   26MPD2    C1  398   1.807   2.612  11.419 -0.2058 -0.0208 -0.7060
   26MPD2    C2  399   1.827   2.746  11.458 -0.7172 -0.4172  0.2080
   26MPD2    C3  400   1.947   2.811  11.446 -0.5077 -0.8020 -0.2166
   26MPD2    C4  401   2.050   2.733  11.403  0.4916 -0.2776 -0.4787
   26MPD2    C5  402   2.040   2.600  11.367 -0.2983 -0.6110  0.0614
   26MPD2     H  403   1.740   2.803  11.487 -0.5518 -0.4529  0.7833
   26MPD2    H1  404   2.147   2.779  11.385  0.0230 -0.0290 -2.3874
   26MPD2    H2  405   1.902   2.437  11.344 -0.9326  0.4545  0.0885
   26MPD2    H3  406   2.121   2.538  11.330  1.0813 -0.6552  3.1165
   26MPD2     N  407   1.944   2.950  11.456 -0.2694 -0.0600 -0.1717
   26MPD2    H5  408   1.856   2.998  11.473 -1.1753 -0.6728 -3.2163
   26MPD2    N1  409   1.681   2.550  11.401 -0.8926 -0.5492  0.4954
   26MPD2    H7  410   1.688   2.456  11.362 -1.5349  0.6852 -2.5880
   27TMC2    C1  411   0.489   0.750  12.585  0.1793  0.5838 -0.0802
   27TMC2    C2  412   0.383   0.828  12.562 -0.6664  0.6004  0.7671
   27TMC2    C3  413   0.414   0.965  12.565 -0.2810 -0.1807  0.8188
   27TMC2    C4  414   0.616   0.789  12.613 -0.2064  0.1405  0.2683
   27TMC2    C5  415   0.644   0.923  12.628  0.3842  0.2598  0.1731
   27TMC2    C6  416   0.543   1.011  12.595 -0.5947 -0.0207  0.7155
   27TMC2     C  417   0.466   0.612  12.618 -0.7530 -0.2289 -0.4966
   27TMC2     O  418   0.562   0.537  12.591  0.7222  0.0568 -0.6198
   27TMC2     H  419   0.293   0.780  12.527 -0.0010 -0.3616  0.3536
   27TMC2    H1  420   0.692   0.718  12.641  0.5750  0.6213 -0.6517
   27TMC2    H2  421   0.559   1.118  12.601  3.1450 -0.6069  1.1913
   27TMC2    C7  422   0.719   0.964  12.742 -0.9949 -0.0604  0.2715
   27TMC2    C8  423   0.312   1.072  12.539 -0.9935 -0.5954  0.1563
   27TMC2    O1  424   0.799   0.881  12.783  0.3133 -0.1194  0.2897
   27TMC2    O2  425   0.353   1.185  12.522 -0.2572  0.0059 -0.1684
   27TMC2    O5  426   0.208   1.035  12.607  0.3266 -0.1360  0.1855
   27TMC2    H5  427   0.202   0.943  12.639 -0.8914  0.1370  0.7549
   28MPD2     C  428   0.164   0.231  12.806 -0.1492 -0.0947  0.6375
   28MPD2    C1  429   0.122   0.356  12.848  0.0099 -0.1588  0.2056
   28MPD2    C2  430   0.186   0.474  12.805  0.0109 -0.1035 -0.6971
   28MPD2    C3  431   0.286   0.469  12.714  0.3735  0.0608 -0.2152
   28MPD2    C4  432   0.330   0.348  12.665 -0.8095 -0.0755  0.0284
   28MPD2    C5  433   0.268   0.232  12.707 -0.2343  1.0114 -1.3346
   28MPD2     H  434   0.165   0.567  12.856 -0.2573  0.3090 -1.5601
   28MPD2    H1  435   0.402   0.348  12.585 -1.0150  2.7725 -0.1555
   28MPD2    H2  436   0.118   0.140  12.844 -0.2252 -0.2654  0.1327
   28MPD2    H3  437   0.300   0.142  12.655  1.0563 -0.0673  1.3163
   28MPD2     N  438   0.340   0.593  12.670  0.1548 -0.1414  0.1154
   28MPD2    H5  439   0.289   0.674  12.705 -0.7911 -0.3386 -0.8171
   28MPD2    N1  440   0.009   0.361  12.938 -0.0228 -0.1983  0.6308
   28MPD2    H7  441   4.694   0.273  12.971 -0.7472  1.1185  3.3007
   29MPD2     C  442   0.369   2.430  13.818  0.5697 -0.0804  0.1401
   29MPD2    C1  443   0.486   2.414  13.879 -0.1004  0.3676  0.2703
   29MPD2    C2  444   0.514   2.490  13.992  0.1687 -0.0253  0.3842
   29MPD2    C3  445   0.426   2.581  14.041  0.2843 -0.0072 -0.2012
   29MPD2    C4  446   0.311   2.602  13.968  0.2714 -0.1677 -0.3961
   29MPD2    C5  447   0.289   2.535  13.853  0.0355 -0.5804 -0.3439
   29MPD2     H  448   0.610   2.478  14.042 -0.6419 -2.6834  1.2890
   29MPD2    H1  449   0.234   2.671  14.001  1.0697  0.4780  0.1114
   29MPD2    H2  450   0.347   2.384  13.722  0.5714  0.0824  0.0619
   29MPD2    H3  451   0.194   2.561  13.807  0.4229  0.0216 -0.8027
   29MPD2     N  452   0.458   2.666  14.151  0.1912  0.3319 -0.7402
   29MPD2    H5  453   0.398   2.748  14.161 -0.6651 -0.2958 -0.7199
   29MPD2    N1  454   0.598   2.344  13.827 -0.2031  0.7037 -0.1497
   29MPD2    H7  455   0.685   2.355  13.876 -0.7851 -1.0937  1.2703
   30TCq2    C1  456   0.549   2.637  14.249  0.5106  0.6777 -0.0560
   30TCq2    O2  457   0.613   2.532  14.259 -0.5684  0.2186  0.0433
   30TCq2    C2  458   0.591   2.751  14.321 -0.3080 -0.4002  0.1005
   30TCq2    C3  459   0.700   2.738  14.403 -0.5710  0.0228 -0.0663
   30TCq2    C4  460   0.754   2.841  14.469  0.1266 -0.3261  0.0650
   30TCq2    C5  461   0.705   2.968  14.451  0.2419 -0.1080 -0.1377
   30TCq2    C6  462   0.596   2.980  14.368 -0.3941  0.3832 -0.4458
   30TCq2    C7  463   0.543   2.872  14.298 -0.1918  0.0179  0.0640
   30TCq2    C8  464   0.530   3.106  14.358 -0.4168  0.2268 -1.2263
   30TCq2    O4  465   0.452   3.112  14.263 -0.7494  0.1186  0.3888
   30TCq2    C9  466   0.857   2.812  14.568 -0.0086 -0.0158 -0.1241
   30TCq2    O5  467   0.905   2.696  14.574 -0.2962 -0.1582  0.2837
   30TCq2    O6  468   0.899   2.913  14.633  0.0917 -0.1073  0.6464
   30TCq2    H2  469   0.739   2.640  14.425 -0.3634 -0.2111 -1.4640
   30TCq2    H3  470   0.773   3.048  14.479  0.0919 -0.0768  0.1375
   30TCq2    H4  471   0.464   2.883  14.225 -1.4834  1.8929  1.7182
   31MPD2     C  472   3.058   1.484  14.933  0.4677  0.2755 -0.4173
   31MPD2    C1  473   2.952   1.572  14.932 -0.7357 -0.6132 -0.7303
   31MPD2    C2  474   2.839   1.543  15.008 -0.4857 -0.0407 -0.5952
   31MPD2    C3  475   2.832   1.432  15.086  0.2681 -0.1319 -0.2778
   31MPD2    C4  476   2.937   1.343  15.092 -0.1932 -0.4656 -0.2335
   31MPD2    C5  477   3.048   1.374  15.021 -0.3847 -0.2811 -0.2789
   31MPD2     H  478   2.771   1.627  15.016  0.1217  0.2863  1.1481
   31MPD2    H1  479   2.933   1.252  15.150 -0.5645 -1.2693 -1.5185
   31MPD2    H2  480   3.146   1.505  14.873 -0.5647 -1.7621 -2.6732
   31MPD2    H3  481   3.125   1.297  15.025  0.3415  0.4038 -0.9123
   31MPD2     N  482   2.718   1.398  15.161 -0.3610  0.6104 -0.5068
   31MPD2    H5  483   2.725   1.306  15.203 -0.9001  1.2614  1.0000
   31MPD2    N1  484   2.958   1.684  14.854 -0.6129 -0.2182  0.7346
   31MPD2    H7  485   3.048   1.704  14.811 -0.8730 -0.7682 -0.0609
   32TCq2    C1  486   2.600   1.469  15.159  0.0730 -0.5180 -0.1850
   32TCq2    O2  487   2.572   1.580  15.110 -0.1400 -0.3230 -0.3380
   32TCq2    C2  488   2.483   1.405  15.230  0.3661  0.1466  0.2737
   32TCq2    C3  489   2.361   1.469  15.248  0.7198  0.2509  0.2680
   32TCq2    C4  490   2.274   1.428  15.347 -0.6810  0.3362 -0.0413
   32TCq2    C5  491   2.308   1.326  15.433 -0.6113 -0.1249  0.1863
   32TCq2    C6  492   2.434   1.270  15.422  0.2188  0.1481  0.5934
   32TCq2    C7  493   2.520   1.315  15.327 -0.3837 -0.0872 -0.0290
   32TCq2    C8  494   2.506   1.221  15.540 -0.0784 -0.2106  0.0064
   32TCq2    O4  495   2.606   1.154  15.523  0.2873 -0.0310 -0.6935
   32TCq2    C9  496   2.145   1.492  15.353 -0.3256  0.4877 -0.0986
   32TCq2    O5  497   2.079   1.476  15.459 -0.5367 -0.5929 -0.0309
   32TCq2    O6  498   2.095   1.540  15.243 -0.5364  0.3459 -0.4194
   32TCq2    H2  499   2.336   1.546  15.177  0.0250  0.2914  0.5577
   32TCq2    H3  500   2.237   1.284  15.504 -0.1197  1.3076  1.5353
   32TCq2    H4  501   2.622   1.278  15.333  0.1116  1.2031 -0.5087
   33MPD2     C  502   3.121   4.016  10.132  0.4115 -0.2715 -0.2870
   33MPD2    C1  503   3.000   3.946  10.139 -0.4853  0.2114  0.0475
   33MPD2    C2  504   2.885   4.018  10.102  0.2943  0.4247 -0.3710
   33MPD2    C3  505   2.884   4.153  10.058 -0.4467 -0.6560 -0.5760
   33MPD2    C4  506   3.009   4.210  10.033  0.2439  0.4350  0.8796
   33MPD2    C5  507   3.126   4.140  10.070  0.3258 -0.1335  0.3188
   33MPD2     H  508   2.788   3.970  10.110  0.1721  0.6485 -0.5165
   33MPD2    H1  509   3.008   4.311   9.996  1.3018 -0.3875 -1.3433
   33MPD2    H2  510   3.214   3.974  10.168  0.9991  0.5127 -0.9011
   33MPD2    H3  511   3.221   4.189  10.050 -0.2800  1.6333  1.7660
   33MPD2     N  512   2.769   4.231  10.029 -0.1130 -0.1920  0.0548
   33MPD2    H5  513   2.792   4.320   9.986 -2.1802 -0.9305 -2.5592
   33MPD2    N1  514   2.995   3.814  10.181 -0.3554 -0.0927 -0.7927
   33MPD2    H7  515   3.084   3.782  10.216 -1.0342 -2.1595 -0.9481
   34TCq2    C1  516   2.642   4.198  10.059 -0.0951  0.1771 -0.0012
   34TCq2    O2  517   2.600   4.091  10.094 -0.3672 -0.0519 -0.0005
   34TCq2    C2  518   2.535   4.294  10.035  0.5774  0.0942  0.6712
   34TCq2    C3  519   2.405   4.258  10.058 -0.1942 -0.7456 -0.0312
   34TCq2    C4  520   2.308   4.354  10.045  0.4552 -0.3702  0.6471
   34TCq2    C5  521   2.335   4.474  10.001  0.5497 -0.1761 -0.1612
   34TCq2    C6  522   2.465   4.510   9.983 -0.1739 -0.6013 -0.9451
   34TCq2    C7  523   2.568   4.419   9.991 -0.4330 -0.3204 -0.2387
   34TCq2    C8  524   2.499   4.643   9.939  0.0930 -0.1920  0.4868
   34TCq2    O4  525   2.613   4.675   9.945 -0.2571  0.0055  0.1195
   34TCq2    C9  526   2.171   4.309  10.072 -0.5258 -0.3333  0.1608
   34TCq2    O5  527   2.076   4.393  10.084  0.3791  0.0944  0.2458
   34TCq2    O6  528   2.158   4.183  10.089  0.5327 -0.8871 -0.2821
   34TCq2    H2  529   2.384   4.154  10.080 -1.9613 -0.4362 -0.3019
   34TCq2    H3  530   2.249   4.537   9.983  0.5659 -0.2754 -0.5870
   34TCq2    H4  531   2.666   4.438   9.950 -0.0617  0.7725  1.1582
   35MPD2     C  532   4.314   1.218  12.186 -0.0378 -0.3146 -0.7775
   35MPD2    C1  533   4.218   1.125  12.166  0.5175  0.2150 -1.0633
   35MPD2    C2  534   4.157   1.115  12.038  0.1544 -0.5078  0.8143
   35MPD2    C3  535   4.192   1.193  11.932 -0.4500 -0.4758  0.6193
   35MPD2    C4  536   4.299   1.283  11.957 -0.4988 -0.1017  0.3696
   35MPD2    C5  537   4.355   1.297  12.080  0.6550 -0.0103  0.3413
   35MPD2     H  538   4.077   1.042  12.031  0.7086 -1.2684  2.3869
   35MPD2    H1  539   4.347   1.333  11.873 -1.1731  0.0943  0.1038
   35MPD2    H2  540   4.367   1.230  12.280  1.2112 -0.5200 -1.4576
   35MPD2    H3  541   4.435   1.367  12.101 -1.3022  1.6451  2.2149
   35MPD2     N  542   4.137   1.185  11.804  0.4400  0.1886  0.1946
   35MPD2    H5  543   4.181   1.242  11.732 -1.1227 -1.2258 -1.8657
   35MPD2    N1  544   4.163   1.052  12.271 -0.3220 -0.1332  0.2567
   35MPD2    H7  545   4.100   0.976  12.247  1.5025 -1.1234 -1.4234
   36TCq2    C1  546   4.031   1.110  11.763  0.2536  0.0835 -0.1269
   36TCq2    O2  547   3.953   1.029  11.824  0.4026 -0.4306 -0.4742
   36TCq2    C2  548   4.003   1.115  11.615 -0.2289  0.5216 -0.2774
   36TCq2    C3  549   4.071   1.199  11.531 -0.7016 -0.2472  0.0227
   36TCq2    C4  550   4.039   1.195  11.401 -0.2972 -0.4142 -0.3315
   36TCq2    C5  551   3.957   1.103  11.353  0.6724  0.4461  0.0090
   36TCq2    C6  552   3.902   1.011  11.432  0.3182  0.0246 -0.5804
   36TCq2    C7  553   3.910   1.024  11.566  0.1973  0.4656 -0.1718
   36TCq2    C8  554   3.812   0.918  11.369 -0.3193 -0.3552 -1.1833
   36TCq2    O4  555   3.789   0.949  11.252 -0.5893  0.3912  0.1288
   36TCq2    C9  556   4.118   1.270  11.306  0.3624 -0.1683 -0.0052
   36TCq2    O5  557   4.059   1.306  11.202  0.1375  0.0357 -0.3700
   36TCq2    O6  558   4.243   1.286  11.327 -0.4123 -0.1096  0.0567
   36TCq2    H2  559   4.155   1.262  11.555 -0.8789 -0.2796  0.7397
   36TCq2    H3  560   3.954   1.106  11.245 -0.5563  0.5981  0.0484
   36TCq2    H4  561   3.855   0.959  11.633 -0.6572  3.9876  2.5600
   37TMC2    C1  562   1.065   0.866  12.296 -0.4834 -0.0642 -0.3857
   37TMC2    C2  563   0.935   0.854  12.262 -0.4159  0.4957 -0.0591
   37TMC2    C3  564   0.900   0.810  12.133 -0.2811 -0.3927  0.2759
   37TMC2    C4  565   1.152   0.808  12.216 -0.9179  0.2362 -0.7145
   37TMC2    C5  566   1.110   0.758  12.090 -0.0370 -0.7211  0.1385
   37TMC2    C6  567   0.984   0.764  12.043 -0.4982  0.0873  0.1236
   37TMC2     C  568   1.107   0.837  12.434  0.4502 -0.0941  0.2719
   37TMC2     O  569   1.223   0.867  12.461  0.3530 -0.0433 -0.2488
   37TMC2     H  570   0.864   0.918  12.315  0.6447  0.2810  1.6062
   37TMC2    H1  571   1.255   0.818  12.248 -1.3051  1.9855 -0.0132
   37TMC2    H2  572   0.947   0.706  11.958 -1.5783  3.0888 -1.4745
   37TMC2    C7  573   1.218   0.689  12.018  0.2766  0.3496  0.2984
   37TMC2    C8  574   0.762   0.789  12.088  0.7408  0.0993 -0.1224
   37TMC2    O1  575   1.329   0.726  12.047 -0.0896 -0.4145  0.1329
   37TMC2    O2  576   0.743   0.846  11.979 -0.2866  0.2965  0.8291
   37TMC2    O5  577   0.690   0.801  12.205 -0.2332  0.0517 -0.0460
   37TMC2    H5  578   0.726   0.730  12.262 -1.2156  0.5540  1.1892
   38MPD2     C  579   1.048   0.514  12.829  0.3129  0.4764  0.0058
   38MPD2    C1  580   1.124   0.626  12.815 -0.2801 -0.1948  0.7467
   38MPD2    C2  581   1.119   0.697  12.697  0.2133  0.0345  0.1691
   38MPD2    C3  582   1.025   0.676  12.605 -0.3317  0.9872 -0.0516
   38MPD2    C4  583   0.948   0.559  12.620  0.1402  0.1629 -0.1889
   38MPD2    C5  584   0.963   0.478  12.731 -0.1686  0.1431 -0.1971
   38MPD2     H  585   1.183   0.784  12.687 -0.6580  0.6490  0.0547
   38MPD2    H1  586   0.887   0.523  12.538  0.3337 -0.9738  0.1627
   38MPD2    H2  587   1.054   0.448  12.915 -0.2268 -0.4023 -0.6428
   38MPD2    H3  588   0.925   0.377  12.728 -0.6238  0.3087  0.0322
   38MPD2     N  589   1.014   0.743  12.480 -0.1570  0.4330 -0.2616
   38MPD2    H5  590   0.936   0.707  12.426  1.6149 -1.7944 -1.3239
   38MPD2    N1  591   1.210   0.678  12.920  0.1952 -0.0274  0.2336
   38MPD2    H7  592   1.288   0.741  12.901  0.2693  0.0220  0.6850
   39MPD2     C  593   4.593   2.846   1.453  0.1676 -0.3973 -0.2728
   39MPD2    C1  594   4.467   2.886   1.489 -0.8638 -0.0572  0.1260
   39MPD2    C2  595   4.357   2.846   1.422 -0.1420  0.4880 -0.7834
   39MPD2    C3  596   4.371   2.760   1.315 -0.7143 -0.0532 -0.1842
   39MPD2    C4  597   4.495   2.722   1.270  0.3642  0.2096  0.0164
   39MPD2    C5  598   4.600   2.760   1.351 -0.2815  0.2212 -0.0222
   39MPD2     H  599   4.259   2.888   1.444 -0.0220  0.6433 -0.5438
   39MPD2    H1  600   4.511   2.653   1.188 -0.0552  0.5385 -0.3411
   39MPD2    H2  601   4.686   2.882   1.496  1.0089 -1.5551 -1.1041
   39MPD2    H3  602   4.698   2.727   1.316  0.4392 -2.4700  4.6268
   39MPD2     N  603   4.263   2.715   1.248 -0.3786  0.4777 -0.1138
   39MPD2    H5  604   4.293   2.673   1.161 -1.0981 -1.2905  0.4817
   39MPD2    N1  605   4.459   2.978   1.599 -0.1796  0.3690 -0.3545
   39MPD2    H7  606   4.548   3.003   1.641  0.1284 -1.0995 -0.1332
   40TCq2    C1  607   4.350   3.026   1.652  0.3578 -0.2087  0.1081
   40TCq2    O2  608   4.235   2.994   1.643  0.2795  0.3797  0.5977
   40TCq2    C2  609   4.388   3.130   1.750 -0.0237  0.0765 -0.9190
   40TCq2    C3  610   4.300   3.141   1.857 -0.0264  0.1380  0.0603
   40TCq2    C4  611   4.299   3.261   1.933  0.1526  0.1102  0.2398
   40TCq2    C5  612   4.390   3.362   1.902  0.7486  0.2559  0.0306
   40TCq2    C6  613   4.464   3.355   1.788 -0.0900  0.5014 -0.3476
   40TCq2    C7  614   4.461   3.243   1.710 -0.5304 -0.0984 -0.3325
   40TCq2    C8  615   4.584   3.433   1.784  0.3159  0.6537 -0.0045
   40TCq2    O4  616   4.614   3.469   1.901  0.3616  0.3886  0.2041
   40TCq2    C9  617   4.217   3.260   2.050 -0.1232  0.8415  0.2059
   40TCq2    O5  618   4.238   3.356   2.132  0.5544 -0.4122  0.2131
   40TCq2    O6  619   4.121   3.182   2.055  0.0388 -0.1225 -0.3439
   40TCq2    H2  620   4.243   3.052   1.879  0.1824 -0.4432 -1.7171
   40TCq2    H3  621   4.390   3.447   1.971  4.4563 -0.1085  0.5035
   40TCq2    H4  622   4.522   3.243   1.619  1.0920  1.0309  0.7466
   41TMC2    C1  623   3.621   0.591  13.488  0.5817 -0.0791  0.5494
   41TMC2    C2  624   3.616   0.458  13.447 -0.1385 -0.2018 -0.0744
   41TMC2    C3  625   3.587   0.433  13.315 -0.1328  0.4994  0.1059
   41TMC2    C4  626   3.573   0.699  13.409 -0.1918  0.1221 -0.5275
   41TMC2    C5  627   3.534   0.664  13.280  0.0003  0.6378  0.3907
   41TMC2    C6  628   3.534   0.533  13.235  0.8145 -0.3080 -0.3569
   41TMC2     C  629   3.658   0.626  13.625  0.2597 -0.6264  0.2446
   41TMC2     O  630   3.688   0.526  13.690 -0.1748 -0.5976 -0.4855
   41TMC2     H  631   3.639   0.375  13.513  1.0977  0.8472  0.8078
   41TMC2    H1  632   3.561   0.803  13.438 -1.7717 -0.2547  0.1620
   41TMC2    H2  633   3.492   0.505  13.138 -1.4687 -1.8254  1.0531
   41TMC2    C7  634   3.482   0.761  13.177  0.1308 -0.0314 -0.8793
   41TMC2    C8  635   3.557   0.295  13.269  0.2742  0.2929  0.4715
   41TMC2    O1  636   3.454   0.718  13.070  0.4973  0.1604 -0.1963
   41TMC2    O2  637   3.529   0.204  13.345 -0.1699 -0.0624 -0.0561
   41TMC2    O5  638   3.619   0.283  13.145 -0.1491  0.5251 -0.5482
   41TMC2    H5  639   3.656   0.370  13.119 -0.1909  0.4376 -0.8991
   42MPD2     C  640   3.790   0.731  13.861  0.4342 -0.1339 -0.1718
   42MPD2    C1  641   3.727   0.810  13.769 -0.2533  0.1878  0.0430
   42MPD2    C2  642   3.739   0.948  13.790  0.1946 -0.0892 -0.3854
   42MPD2    C3  643   3.787   1.007  13.906 -0.2858 -0.1624 -0.6946
   42MPD2    C4  644   3.836   0.922  13.997  0.4755  0.2390 -0.1802
   42MPD2    C5  645   3.847   0.787  13.978  0.1475 -0.0384  1.0693
   42MPD2     H  646   3.697   1.016  13.716 -0.8681 -0.7750 -0.4077
   42MPD2    H1  647   3.882   0.959  14.087 -0.5975  1.1058  0.0225
   42MPD2    H2  648   3.780   0.623  13.865 -1.3570  0.0292 -0.6328
   42MPD2    H3  649   3.889   0.721  14.052 -0.5918 -0.3262  1.2370
   42MPD2     N  650   3.785   1.144  13.932  0.0945  0.0650  0.0264
   42MPD2    H5  651   3.805   1.173  14.028  2.3164 -1.4866  0.0307
   42MPD2    N1  652   3.669   0.759  13.654 -0.5497 -0.6008  0.1862
   42MPD2    H7  653   3.645   0.829  13.585 -2.2555  0.1728  1.5651
   43MPD2     C  654   1.483   3.682   0.311  0.5895  0.1403 -0.0428
   43MPD2    C1  655   1.387   3.590   0.357  0.1494  0.0856  0.5912
   43MPD2    C2  656   1.296   3.615   0.459 -0.1587  0.4016  0.6511
   43MPD2    C3  657   1.305   3.734   0.525 -0.1315 -0.4534  0.0736
   43MPD2    C4  658   1.404   3.827   0.490  0.1883  0.5073  0.0875
   43MPD2    C5  659   1.489   3.799   0.385 -0.9807 -0.0984 -1.3792
   43MPD2     H  660   1.231   3.536   0.495 -0.6678  0.6338  0.2214
   43MPD2    H1  661   1.417   3.922   0.539  0.1814  1.1487 -1.1514
   43MPD2    H2  662   1.561   3.668   0.237  1.1496  2.3511  0.1253
   43MPD2    H3  663   1.564   3.874   0.361 -0.1520 -0.3328  0.4965
   43MPD2     N  664   1.210   3.772   0.627  0.0513 -0.0035 -0.0126
   43MPD2    H5  665   1.227   3.861   0.673 -1.2732  0.9439 -1.3785
   43MPD2    N1  666   1.372   3.465   0.294 -0.2232 -0.1218 -0.1689
   43MPD2    H7  667   1.293   3.404   0.315 -0.4651  0.4961  0.7136
   44TCq2    C1  668   0.686   3.796   0.928  0.7510  0.0214  0.0305
   44TCq2    O2  669   0.628   3.773   0.819  0.2490 -0.3572 -0.3092
   44TCq2    C2  670   0.832   3.789   0.913  0.3087  0.6077  0.4461
   44TCq2    C3  671   0.915   3.857   1.006 -0.2283  0.0821  0.3323
   44TCq2    C4  672   1.045   3.880   0.977  0.3110 -0.3693  0.3058
   44TCq2    C5  673   1.103   3.831   0.869  0.2036  0.0574  0.7483
   44TCq2    C6  674   1.029   3.762   0.782 -0.2289  0.7303 -0.5550
   44TCq2    C7  675   0.892   3.735   0.796 -0.4117 -0.4999  0.7637
   44TCq2    C8  676   1.093   3.705   0.662 -0.8661  0.2317  0.5568
   44TCq2    O4  677   1.033   3.618   0.600  0.2613 -0.2893 -0.1997
   44TCq2    C9  678   1.131   3.940   1.077  0.3397  0.5778 -0.1572
   44TCq2    O5  679   1.241   3.983   1.042  0.4867 -0.0390  0.3331
   44TCq2    O6  680   1.072   3.972   1.183  0.5225 -0.8820  0.1540
   44TCq2    H2  681   0.871   3.902   1.094 -2.3165  0.2439 -0.8017
   44TCq2    H3  682   1.211   3.817   0.864 -0.2180 -2.6697 -0.6389
   44TCq2    H4  683   0.842   3.671   0.725  0.7989  0.4551 -0.9619
   45TMC2    C1  684   0.753   0.722  10.122 -0.2039 -0.0050 -0.3760
   45TMC2    C2  685   0.872   0.672  10.093  0.3208  0.3051  0.0149
   45TMC2    C3  686   0.978   0.763  10.078  0.3861 -0.0447  0.5375
   45TMC2    C4  687   0.731   0.856  10.155  0.1331 -0.0379 -0.0923
   45TMC2    C5  688   0.839   0.938  10.145  0.0298  0.0206  0.6251
   45TMC2    C6  689   0.959   0.893  10.114 -0.0200 -0.2939 -0.4715
   45TMC2     C  690   0.639   0.634  10.097 -0.1969 -1.0144  0.0466
   45TMC2     O  691   0.652   0.512  10.100 -0.4169  0.5971  0.6075
   45TMC2     H  692   0.883   0.569  10.060  0.4120 -0.2398  1.7472
   45TMC2    H1  693   0.637   0.898  10.191  0.4571  0.3537  0.2965
   45TMC2    H2  694   1.048   0.955  10.121 -3.2353  4.1916  0.2780
   45TMC2    C7  695   0.830   1.078  10.183  0.2898  0.4581 -0.5083
   45TMC2    C8  696   1.100   0.720  10.029  0.0950 -0.1704  0.6858
   45TMC2    O1  697   0.782   1.113  10.292  0.2519 -0.3591 -0.2436
   45TMC2    O2  698   1.129   0.602  10.031  0.0158  0.2160  0.2035
   45TMC2    O5  699   1.145   0.807   9.937  0.0465  0.5901 -0.1679
   45TMC2    H5  700   1.083   0.882   9.922 -1.6970 -0.3858  2.2341
   46MPD2     C  701   0.370   0.527  10.079  0.2320 -0.7667  0.2489
   46MPD2    C1  702   0.400   0.654  10.035  0.2643  0.3153 -0.2403
   46MPD2    C2  703   0.294   0.732   9.980  0.0687 -0.3193 -0.6097
   46MPD2    C3  704   0.160   0.687   9.979 -0.5856 -0.0228 -0.9395
   46MPD2    C4  705   0.137   0.560  10.023 -0.2396  0.1143  0.0655
   46MPD2    C5  706   0.241   0.484  10.075  0.5724  0.1766  0.5031
   46MPD2     H  707   0.330   0.832   9.961 -0.3938  0.3617  1.9777
   46MPD2    H1  708   0.037   0.518  10.026 -1.0159  2.0587  1.2146
   46MPD2    H2  709   0.440   0.463  10.132  0.1803  0.8723  2.3374
   46MPD2    H3  710   0.207   0.394  10.125  1.9682 -0.1511  0.8461
   46MPD2     N  711   0.061   0.784   9.938 -0.5795  0.0130 -0.1206
   46MPD2    H5  712   0.094   0.877   9.916 -0.7870  0.1730  0.2540
   46MPD2    N1  713   0.532   0.713  10.055 -0.8444  0.4458  0.6971
   46MPD2    H7  714   0.533   0.813  10.042 -0.3035  0.2477 -0.8505
   47TMC2    C1  715   2.182   1.905   9.561 -0.4410  0.0196 -0.6004
   47TMC2    C2  716   2.193   1.973   9.444  0.0055 -0.1214  0.3441
   47TMC2    C3  717   2.079   2.046   9.411  0.2829  0.2012  0.2221
   47TMC2    C4  718   2.077   1.916   9.649  0.7377  0.1787 -0.0781
   47TMC2    C5  719   1.969   1.985   9.605 -0.4689 -0.8147 -0.8584
   47TMC2    C6  720   1.963   2.050   9.484 -0.0377  0.4527 -0.0839
   47TMC2     C  721   2.300   1.849   9.623 -0.6757  0.1214 -0.0145
   47TMC2     O  722   2.312   1.847   9.745 -0.4979  0.3826 -0.2349
   47TMC2     H  723   2.275   1.961   9.374 -0.4235  1.8617 -0.4958
   47TMC2    H1  724   2.068   1.840   9.726  1.4578  0.6595  0.4846
   47TMC2    H2  725   1.879   2.109   9.449  0.7008  0.8573 -1.1831
   47TMC2    C7  726   1.858   1.994   9.696  0.0653  0.4408 -0.0849
   47TMC2    C8  727   2.063   2.056   9.266 -0.4160  0.3390 -0.4847
   47TMC2    O1  728   1.885   1.959   9.813 -0.5334 -0.4968 -0.3444
   47TMC2    O2  729   1.960   2.028   9.208 -0.0694 -0.7542  0.0598
   47TMC2    O5  730   2.182   2.069   9.204 -0.1175  0.5008 -0.1899
   47TMC2    H5  731   2.246   2.127   9.251  0.3223 -0.6963  0.7194
   48MPD2     C  732   2.526   1.668   9.677  0.7378 -0.7477  0.4159
   48MPD2    C1  733   2.491   1.716   9.550  0.5693 -0.4746 -0.4645
   48MPD2    C2  734   2.568   1.684   9.443 -0.2405  0.3301  0.2644
   48MPD2    C3  735   2.689   1.615   9.467 -0.2168  0.1078  0.0358
   48MPD2    C4  736   2.709   1.551   9.582  0.8367  0.6439 -0.6418
   48MPD2    C5  737   2.622   1.569   9.686  0.9361 -1.2961  0.5526
   48MPD2     H  738   2.541   1.714   9.343 -1.4781  1.3696  0.9057
   48MPD2    H1  739   2.787   1.484   9.616  0.6514  1.2900  1.0282
   48MPD2    H2  740   2.461   1.679   9.762  1.0190  2.1172  0.2510
   48MPD2    H3  741   2.650   1.516   9.776 -0.6571 -1.1544  1.1198
   48MPD2     N  742   2.777   1.596   9.357  0.0622  0.3187 -0.0114
   48MPD2    H5  743   2.754   1.644   9.270 -1.0319 -0.9843 -0.4462
   48MPD2    N1  744   2.378   1.796   9.525 -0.1746  0.2042  0.2545
   48MPD2    H7  745   2.353   1.814   9.428  0.1870 -1.4398 -0.1477
   49MPD2     C  746   1.731   3.493  10.705 -0.0108 -0.2306  0.0793
   49MPD2    C1  747   1.601   3.529  10.742 -0.4805 -0.3130 -0.2163
   49MPD2    C2  748   1.550   3.493  10.871  0.2850 -0.4956  0.7798
   49MPD2    C3  749   1.628   3.421  10.961 -0.4128  0.3647  1.1460
   49MPD2    C4  750   1.750   3.371  10.917  0.4085 -0.0357 -0.0230
   49MPD2    C5  751   1.797   3.406  10.789  0.1985  0.0136 -0.2424
   49MPD2     H  752   1.447   3.520  10.889 -0.3704 -2.3764 -0.2024
   49MPD2    H1  753   1.802   3.304  10.984 -1.8430  0.4602  2.2244
   49MPD2    H2  754   1.770   3.508  10.605  1.9514  0.4215  0.9473
   49MPD2    H3  755   1.894   3.373  10.755  0.5435 -0.5537  1.2635
   49MPD2     N  756   1.592   3.374  11.092 -0.5080 -1.0463 -0.6330
   49MPD2    H5  757   1.664   3.321  11.139 -3.2941 -1.8438  2.7563
   49MPD2    N1  758   1.525   3.594  10.640 -0.8940 -0.3717 -0.0329
   49MPD2    H7  759   1.573   3.637  10.561 -0.9316 -2.5463 -1.2449
   50TCq2    C1  760   1.388   3.601  10.637 -0.1251  0.5714 -0.1026
   50TCq2    O2  761   1.309   3.549  10.716 -0.0265  0.2973 -0.1095
   50TCq2    C2  762   1.352   3.677  10.517 -0.1777  0.5622 -0.9576
   50TCq2    C3  763   1.444   3.765  10.463  0.7419  0.6777 -0.2928
   50TCq2    C4  764   1.401   3.829  10.347  1.0505 -0.2006  0.4182
   50TCq2    C5  765   1.290   3.786  10.284  0.0215  0.1094  0.7097
   50TCq2    C6  766   1.212   3.684  10.333  0.3745  0.2935 -0.2199
   50TCq2    C7  767   1.240   3.639  10.457  0.7860 -0.6481  0.0857
   50TCq2    C8  768   1.083   3.640  10.278 -0.2289 -0.1946  0.1710
   50TCq2    O4  769   1.011   3.718  10.212 -0.0790 -0.3304  0.6396
   50TCq2    C9  770   1.488   3.916  10.285  0.3081  0.8828 -1.0106
   50TCq2    O5  771   1.588   3.960  10.351 -0.3289 -0.2641 -0.6309
   50TCq2    O6  772   1.462   3.951  10.167 -0.1747 -0.5328  0.0581
   50TCq2    H2  773   1.533   3.800  10.514  0.3000  0.3122  0.7336
   50TCq2    H3  774   1.254   3.841  10.197 -0.1171 -2.1103 -0.6281
   50TCq2    H4  775   1.175   3.569  10.509 -0.8839  0.6190 -0.3019
   51MPD2     C  776   2.482   2.048   1.006  0.7136  0.3885  0.4875
   51MPD2    C1  777   2.475   1.950   1.104 -0.2381  0.1281 -0.2822
   51MPD2    C2  778   2.486   1.989   1.237 -0.0320  0.7758 -0.2989
   51MPD2    C3  779   2.493   2.127   1.262 -0.0721  0.5643 -0.1295
   51MPD2    C4  780   2.488   2.222   1.166 -0.1846  0.0696  0.3265
   51MPD2    C5  781   2.469   2.182   1.036  0.2945 -0.7406  0.3223
   51MPD2     H  782   2.476   1.910   1.310  1.1508  0.1838 -0.7786
   51MPD2    H1  783   2.474   2.326   1.193 -0.8717  0.1051 -0.1648
   51MPD2    H2  784   2.463   2.034   0.900  0.5144 -0.0346  0.5787
   51MPD2    H3  785   2.453   2.255   0.958 -0.4404 -2.6625 -1.3196
   51MPD2     N  786   2.484   2.170   1.392 -0.1094 -0.5988 -0.4807
   51MPD2    H5  787   2.474   2.270   1.406  0.5642 -0.8288  1.6075
   51MPD2    N1  788   2.464   1.814   1.084 -0.1251  0.4967 -0.2834
   51MPD2    H7  789   2.462   1.751   1.164  0.1974  0.5005 -0.2712
   52TCq2    C1  790   2.509   2.095   1.507  0.0040 -0.1748 -0.0699
   52TCq2    O2  791   2.570   1.988   1.511  0.4083  0.6183  0.3560
   52TCq2    C2  792   2.485   2.180   1.628 -0.0333  0.0632  0.4256
   52TCq2    C3  793   2.557   2.139   1.740 -0.3188  0.4584  0.1618
   52TCq2    C4  794   2.564   2.219   1.851 -0.3548 -0.0489 -0.6007
   52TCq2    C5  795   2.506   2.341   1.842 -0.0899 -0.9964  0.4789
   52TCq2    C6  796   2.424   2.375   1.736  0.3532  0.2677 -0.4930
   52TCq2    C7  797   2.409   2.296   1.626  0.5418 -0.5887 -0.0928
   52TCq2    C8  798   2.351   2.507   1.729  0.2014  0.5219 -0.5014
   52TCq2    O4  799   2.298   2.540   1.622  0.0802  0.2617  0.2537
   52TCq2    C9  800   2.640   2.186   1.967  0.4508 -0.7657 -0.5178
   52TCq2    O5  801   2.650   2.072   2.004 -0.3170  0.0079 -0.2261
   52TCq2    O6  802   2.687   2.281   2.034  0.2469 -0.2192  0.3436
   52TCq2    H2  803   2.606   2.042   1.741  0.5308  0.8949  1.0315
   52TCq2    H3  804   2.530   2.402   1.928  0.1655 -1.4595  0.7318
   52TCq2    H4  805   2.340   2.316   1.544  1.2082  0.4425 -0.3993
   53TMC2    C1  806   1.824   0.497  11.702 -0.5669  0.3639  0.1106
   53TMC2    C2  807   1.891   0.512  11.580 -0.2659  0.2598 -0.1174
   53TMC2    C3  808   2.002   0.586  11.589  0.3216 -0.5430 -0.0813
   53TMC2    C4  809   1.874   0.548  11.820  0.5287 -0.1854  0.9783
   53TMC2    C5  810   1.972   0.638  11.817 -0.2930 -0.3025  0.1992
   53TMC2    C6  811   2.036   0.657  11.697  0.1924  0.2019 -0.6995
   53TMC2     C  812   1.696   0.433  11.689  0.0445 -0.6367 -0.0769
   53TMC2     O  813   1.659   0.385  11.585 -0.4681  0.0434  0.0946
   53TMC2     H  814   1.867   0.445  11.499  0.6463  0.0799 -0.2391
   53TMC2    H1  815   1.823   0.534  11.914  2.6954  2.2195  2.4894
   53TMC2    H2  816   2.120   0.724  11.684 -0.2722  0.8532 -0.3586
   53TMC2    C7  817   2.002   0.727  11.927 -0.9208 -0.0263 -0.0957
   53TMC2    C8  818   2.100   0.592  11.481 -0.4481  0.1571 -0.3481
   53TMC2    O1  819   2.114   0.778  11.913 -0.5254  0.1948 -0.3077
   53TMC2    O2  820   2.218   0.603  11.489  0.3727  0.3709  0.0074
   53TMC2    O5  821   2.033   0.557  11.370 -0.7451 -0.0871  0.0016
   53TMC2    H5  822   1.935   0.562  11.376 -0.7855 -1.9043  1.0383
   54MPD2     C  823   1.429   0.319  11.727  0.0629  0.3328  0.3201
   54MPD2    C1  824   1.482   0.424  11.799  0.5678 -0.6101  0.2781
   54MPD2    C2  825   1.403   0.498  11.884  0.7726  0.4337  0.0939
   54MPD2    C3  826   1.268   0.507  11.865  0.1534  0.2313  0.3253
   54MPD2    C4  827   1.213   0.410  11.781  0.6025  0.2685  0.2873
   54MPD2    C5  828   1.297   0.327  11.715 -0.0574  1.0252  0.1987
   54MPD2     H  829   1.462   0.560  11.951 -1.0012  0.2522  1.8272
   54MPD2    H1  830   1.105   0.407  11.767  1.1136 -4.5678 -2.4694
   54MPD2    H2  831   1.484   0.237  11.684 -0.0768  1.1528 -1.3971
   54MPD2    H3  832   1.250   0.247  11.658  1.3285 -0.2639  0.8884
   54MPD2     N  833   1.177   0.590  11.937 -0.2035 -0.2272 -0.1817
   54MPD2    H5  834   1.079   0.567  11.928 -0.7840  1.7209  1.2270
   54MPD2    N1  835   1.620   0.446  11.804 -0.0031 -1.0247  0.0041
   54MPD2    H7  836   1.660   0.504  11.877  0.6796 -2.4012  0.7139
   55MPD2     C  837   3.214   3.246  17.694  0.1319 -0.0852  0.2233
   55MPD2    C1  838   3.191   3.137   0.080  0.6725  0.6465 -0.0337
   55MPD2    C2  839   3.074   3.137   0.157  0.1670 -0.0603 -0.2372
   55MPD2    C3  840   2.997   3.248   0.169  0.5849  0.6371  0.0724
   55MPD2    C4  841   3.023   3.359   0.093 -0.0656  0.4273  0.2465
   55MPD2    C5  842   3.131   3.357   0.011  0.2225  0.0652 -0.0510
   55MPD2     H  843   3.049   3.046   0.211  0.0080  0.0562 -0.1114
   55MPD2    H1  844   2.966   3.451   0.091 -3.0929 -1.4609 -0.3621
   55MPD2    H2  845   3.298   3.248  17.626 -1.2127  0.0328 -1.4598
   55MPD2    H3  846   3.151   3.452  17.659  0.2670  0.5927  1.0291
   55MPD2     N  847   2.891   3.265   0.254  0.4096 -1.0600  0.2214
   55MPD2    H5  848   2.850   3.358   0.258  4.2343  0.5564  1.4000
   55MPD2    N1  849   3.263   3.013   0.059 -0.4310  0.0214 -0.0961
   55MPD2    H7  850   3.321   3.015  17.672  1.3304 -3.8075  1.0316
   56TCq2    C1  851   3.266   2.912   0.142  0.0383 -0.9684 -0.1902
   56TCq2    O2  852   3.221   2.899   0.255  0.5400 -0.3027 -0.2437
   56TCq2    C2  853   3.339   2.795   0.088  0.1135  0.6323 -0.6194
   56TCq2    C3  854   3.364   2.781  17.645  0.3671 -0.6853  1.0460
   56TCq2    C4  855   3.438   2.674  17.604  1.3957 -0.0384  0.1011
   56TCq2    C5  856   3.486   2.576  17.689  0.0118  0.6125  0.0574
   56TCq2    C6  857   3.437   2.589   0.118  0.4310  0.4004  0.4856
   56TCq2    C7  858   3.375   2.699   0.174  0.0963  1.0096  1.0484
   56TCq2    C8  859   3.479   2.479   0.203 -0.2006 -0.2763 -0.1892
   56TCq2    O4  860   3.593   2.428   0.194 -0.0542 -0.1240 -0.3751
   56TCq2    C9  861   3.492   2.671  17.473  0.0242 -0.4806 -0.2113
   56TCq2    O5  862   3.487   2.778  17.407 -0.2255 -0.2454  0.5459
   56TCq2    O6  863   3.558   2.576  17.434 -0.1084  0.1139 -0.3261
   56TCq2    H2  864   3.333   2.855  17.571  1.3361 -0.6761  0.6543
   56TCq2    H3  865   3.550   2.494  17.657  0.6836  1.4652 -0.7819
   56TCq2    H4  866   3.352   2.694   0.280 -4.7847  1.2831  0.0149
   57TMC2    C1  867   2.189   0.008  13.844  0.0170 -0.6787 -0.8459
   57TMC2    C2  868   2.296   4.696  13.928 -0.2777  0.1128 -0.1676
   57TMC2    C3  869   2.404   4.643  13.867 -0.3354  0.0633  0.1305
   57TMC2    C4  870   2.199   4.712  13.707 -0.7556 -0.3282 -0.2708
   57TMC2    C5  871   2.310   4.647  13.657 -0.1695 -0.2452 -0.6509
   57TMC2    C6  872   2.420   4.622  13.726  0.1303  0.6156 -0.1181
   57TMC2     C  873   2.078   0.078  13.900 -0.4228 -0.4282 -0.5300
   57TMC2     O  874   2.067   0.139  14.005  0.3201  0.3787  0.3453
   57TMC2     H  875   2.301   0.017  14.026 -1.0659  0.3957 -0.2592
   57TMC2    H1  876   2.116   0.016  13.644 -1.8866 -1.9070  0.5151
   57TMC2    H2  877   2.514   4.599  13.677 -0.2230 -1.2632  0.0932
   57TMC2    C7  878   2.307   4.614  13.514  0.2567 -0.3678  0.5937
   57TMC2    C8  879   2.511   4.619  13.963 -0.4102 -0.0786  0.1353
   57TMC2    O1  880   2.228   4.673  13.438 -0.4241 -0.7257 -0.4447
   57TMC2    O2  881   2.504   4.663  14.078 -0.1877 -0.2293 -0.0694
   57TMC2    O5  882   2.619   4.577  13.897  0.2207  0.7699  0.0912
   57TMC2    H5  883   2.596   4.540  13.809 -3.4351 -3.2683  2.7971
   58MPD2     C  884   1.568   4.722  13.981 -0.2491 -0.0351  0.6377
   58MPD2    C1  885   1.649   0.099  14.042 -0.3955 -0.2165 -0.0628
   58MPD2    C2  886   1.781   0.113  14.000  0.0085 -0.2702  0.3081
   58MPD2    C3  887   1.831   0.017  13.905 -0.0166 -0.2284  0.7107
   58MPD2    C4  888   1.750   4.640  13.852  0.0610 -0.9467  0.2638
   58MPD2    C5  889   1.623   4.630  13.893 -0.3391  0.5996  0.1380
   58MPD2     H  890   1.842   0.195  14.038  1.1545 -0.1930 -1.7025
   58MPD2    H1  891   1.775   4.575  13.769  2.2584  1.5839 -1.0609
   58MPD2    H2  892   1.470   4.695  14.020  0.0406 -1.5652  0.2893
   58MPD2    H3  893   1.558   4.547  13.869  0.6181  0.6417 -2.6105
   58MPD2     N  894   1.969   0.006  13.860  0.9398  0.3309 -0.6745
   58MPD2    H5  895   1.975   4.659  13.788  1.3131 -1.9802  1.6066
   58MPD2    N1  896   1.601   0.187  14.139  0.2934  0.1787  0.3854
   58MPD2    H7  897   1.667   0.231  14.203 -0.4163  2.5760 -0.4947
   59MPD2     C  898   4.342   4.608  13.263  0.0952 -0.9417 -0.2564
   59MPD2    C1  899   4.465   4.603  13.190 -0.5053  0.1415 -0.6674
   59MPD2    C2  900   4.587   4.602  13.257 -0.4893  0.5560 -0.2707
   59MPD2    C3  901   4.590   4.623  13.391 -0.0220  0.1692  0.1633
   59MPD2    C4  902   4.474   4.626  13.460 -0.2665  0.1869 -0.2827
   59MPD2    C5  903   4.350   4.612  13.397  0.8363  0.1339  0.0724
   59MPD2     H  904   4.679   4.587  13.201 -1.2141 -0.7430 -1.1211
   59MPD2    H1  905   4.471   4.647  13.567  1.1773  2.0493 -0.6100
   59MPD2    H2  906   4.241   4.593  13.226 -0.6707  2.2233  0.5370
   59MPD2    H3  907   4.260   4.621  13.458  0.5866 -0.9010 -0.1391
   59MPD2     N  908   4.710   4.649  13.457 -0.7236  0.0492 -0.0687
   59MPD2    H5  909   4.705   4.659  13.558 -0.2355  0.8111 -0.1195
   59MPD2    N1  910   4.473   4.592  13.046 -0.0867  0.2541 -0.3367
   59MPD2    H7  911   4.561   4.621  13.005 -0.3247  1.5928  0.1008
   60TCq2    C1  912   4.361   4.570  12.967 -0.2945 -0.2780  0.2948
   60TCq2    O2  913   4.255   4.516  12.991  0.3194 -0.4897  0.0820
   60TCq2    C2  914   4.396   4.602  12.825 -0.3472 -0.3135 -0.3906
   60TCq2    C3  915   4.334   4.542  12.720 -0.3771 -0.3560 -0.6731
   60TCq2    C4  916   4.404   4.517  12.604  0.3591 -0.7226 -0.2409
   60TCq2    C5  917   4.515   4.591  12.581 -0.6653  0.0392 -0.6875
   60TCq2    C6  918   4.564   4.677  12.680 -0.0350  0.1055  0.4197
   60TCq2    C7  919   4.511   4.680  12.807 -0.7522  0.5069 -0.0337
   60TCq2    C8  920   4.625   0.072  12.631  0.2105  0.2219 -0.3563
   60TCq2    O4  921   4.719   0.050  12.555  0.3229  0.1346  0.4124
   60TCq2    C9  922   4.356   4.412  12.512  0.4209  0.2489  0.0194
   60TCq2    O5  923   4.418   4.398  12.407  0.0243  0.3170 -1.2811
   60TCq2    O6  924   4.242   4.369  12.537 -0.2320  0.0907  0.2600
   60TCq2    H2  925   4.246   4.482  12.743 -1.4720  0.5123 -2.5940
   60TCq2    H3  926   4.558   4.585  12.481 -0.4862 -0.5281 -0.5749
   60TCq2    H4  927   4.545   0.034  12.875  1.8649  0.5280 -1.3527
   61MPD2     C  928   4.505   1.316  15.284 -0.1847  0.5519  0.1088
   61MPD2    C1  929   4.428   1.430  15.273 -0.4537  0.5196 -0.2465
   61MPD2    C2  930   4.453   1.519  15.171  0.7243 -0.0058  0.2528
   61MPD2    C3  931   4.541   1.483  15.067 -0.1353  0.4084  0.0413
   61MPD2    C4  932   4.605   1.363  15.073 -0.5563 -0.4871  0.2435
   61MPD2    C5  933   4.585   1.286  15.178 -0.2257 -0.4622 -0.0318
   61MPD2     H  934   4.396   1.611  15.172  4.9121  2.6441 -2.5977
   61MPD2    H1  935   4.660   1.321  14.989 -0.0935 -1.6298  1.1255
   61MPD2    H2  936   4.503   1.243  15.364 -1.5883  1.2655  0.7396
   61MPD2    H3  937   4.634   1.190  15.184 -1.2571 -0.8897  1.8197
   61MPD2     N  938   4.563   1.581  14.971 -1.0949  0.5891 -0.1657
   61MPD2    H5  939   4.517   1.671  14.987  0.9882  1.4476  0.9243
   61MPD2    N1  940   4.333   1.463  15.377  0.3863  0.1539  0.2384
   61MPD2    H7  941   4.276   1.545  15.359 -1.0104 -0.8408  0.1325
   62TCq2    C1  942   4.310   1.388  15.489 -1.2423 -0.2087  0.3437
   62TCq2    O2  943   4.361   1.285  15.534 -0.8217  0.5035 -0.4232
   62TCq2    C2  944   4.206   1.449  15.578  0.1462  0.2266 -0.4796
   62TCq2    C3  945   4.133   1.370  15.663  0.2809 -0.2747  0.4456
   62TCq2    C4  946   4.019   1.419  15.721 -0.4292 -0.2375  0.4477
   62TCq2    C5  947   3.972   1.543  15.694 -0.0100  0.0169  0.2174
   62TCq2    C6  948   4.053   1.622  15.618 -0.1212  0.1175  0.0878
   62TCq2    C7  949   4.169   1.580  15.563  0.2026 -0.0050  0.1684
   62TCq2    C8  950   4.014   1.755  15.574  0.6233  0.0360 -0.5288
   62TCq2    O4  951   4.092   1.828  15.511  0.2256  0.2509 -0.5087
   62TCq2    C9  952   3.934   1.332  15.804  0.2608 -0.0130 -0.5554
   62TCq2    O5  953   3.985   1.220  15.835  0.4764 -0.2112 -0.0967
   62TCq2    O6  954   3.813   1.368  15.822  0.0650  0.0060 -0.4253
   62TCq2    H2  955   4.163   1.267  15.679 -0.7289 -0.5401  0.6539
   62TCq2    H3  956   3.877   1.571  15.738  0.4268 -0.1478  1.2726
   62TCq2    H4  957   4.229   1.653  15.509  1.2106  0.8441  2.4488
   63TMC2    C1  958   3.148   1.333  10.254 -0.3767  0.1178 -1.0303
   63TMC2    C2  959   3.244   1.338  10.352 -0.3039  0.2738 -0.5362
   63TMC2    C3  960   3.315   1.456  10.367  0.0229 -0.0072  0.0849
   63TMC2    C4  961   3.141   1.433  10.163  0.0102  0.1452 -0.1749
   63TMC2    C5  962   3.219   1.544  10.179  0.0902  0.3543 -0.5623
   63TMC2    C6  963   3.318   1.544  10.271 -1.0613  0.9059 -0.5896
   63TMC2     C  964   3.054   1.226  10.255 -0.3974  0.2867  0.0189
   63TMC2     O  965   2.989   1.208  10.152  0.2713 -0.5405  0.2104
   63TMC2     H  966   3.286   1.257  10.409  1.5659  0.9895 -0.9050
   63TMC2    H1  967   3.080   1.416  10.075 -1.5536  0.8423  0.7732
   63TMC2    H2  968   3.379   1.633  10.278  2.2978 -1.3647 -1.2351
   63TMC2    C7  969   3.223   1.632  10.059  0.2879  0.4726 -0.2728
   63TMC2    C8  970   3.427   1.448  10.458 -0.7214 -0.0411 -0.6226
   63TMC2    O1  971   3.118   1.624   9.996  0.1016 -0.3907  0.2641
   63TMC2    O2  972   3.545   1.466  10.435  0.0935  0.0620 -0.5817
   63TMC2    O5  973   3.385   1.392  10.578  0.0034  0.0334  0.6800
   63TMC2    H5  974   3.288   1.375  10.583  0.1395 -0.2723  2.5229
   64MPD2     C  975   2.870   0.812  10.494  0.7061  0.3888  0.5094
   64MPD2    C1  976   2.952   0.885  10.582  0.3689  0.5187 -0.7290
   64MPD2    C2  977   3.014   0.989  10.534  0.5334 -0.5095  0.3971
   64MPD2    C3  978   2.991   1.038  10.404  0.1858 -0.0601  0.1538
   64MPD2    C4  979   2.908   0.978  10.323 -0.4285  0.4273 -1.4598
   64MPD2    C5  980   2.850   0.862  10.363 -0.0474 -0.5452  0.2368
   64MPD2     H  981   3.078   1.038  10.607  0.5866  0.1335 -0.0862
   64MPD2    H1  982   2.896   1.000  10.217 -0.4227  0.5273 -1.4395
   64MPD2    H2  983   2.822   0.719  10.523 -0.8730  0.9515 -0.2899
   64MPD2    H3  984   2.802   0.806  10.284 -0.0613 -0.6583  0.3261
   64MPD2     N  985   3.063   1.154  10.375  0.2606 -0.3144  0.0879
   64MPD2    H5  986   3.122   1.191  10.450  1.8756  1.0571 -1.8503
   64MPD2    N1  987   2.982   0.844  10.716  0.0080  0.3637 -0.7059
   64MPD2    H7  988   3.059   0.886  10.768 -0.0473  0.4903 -0.7268
   65MPD2     C  989   0.274   0.875  15.774 -0.0956 -0.2581 -0.4243
   65MPD2    C1  990   0.284   0.837  15.639 -0.4110 -0.2286  0.0526
   65MPD2    C2  991   0.266   0.702  15.611 -0.2909 -0.2606 -0.6609
   65MPD2    C3  992   0.241   0.611  15.709 -0.1976 -0.0663  0.7092
   65MPD2    C4  993   0.227   0.652  15.841 -0.0558  0.0913 -0.1214
   65MPD2    C5  994   0.247   0.784  15.872  0.4886  0.3431  0.6191
   65MPD2     H  995   0.265   0.671  15.507  1.2043  1.3316 -1.1525
   65MPD2    H1  996   0.207   0.592  15.929 -0.5279 -0.4838 -0.6160
   65MPD2    H2  997   0.299   0.976  15.805 -0.7132 -0.4402  0.6941
   65MPD2    H3  998   0.260   0.799  15.979  0.5698  2.2209  0.3468
   65MPD2     N  999   0.234   0.471  15.681 -0.1605 -0.2494  0.3356
   65MPD2    H5 1000   0.209   0.416  15.763  0.1135  0.1471  0.6858
   65MPD2    N1 1001   0.329   0.913  15.530  0.1786 -0.0905 -0.5684
   65MPD2    H7 1002   0.329   0.867  15.440  0.4618 -0.4822 -0.3660
   66TCq2    C1 1003   0.358   1.043  15.531 -1.0865 -0.0609 -0.0892
   66TCq2    O2 1004   0.361   1.111  15.631  0.3193 -0.3393 -0.2771
   66TCq2    C2 1005   0.395   1.095  15.403 -0.0886 -1.6500  0.3954
   66TCq2    C3 1006   0.400   1.013  15.297  0.0894 -0.1515 -0.6552
   66TCq2    C4 1007   0.364   1.067  15.178 -0.3725 -0.0059  0.2166
   66TCq2    C5 1008   0.335   1.199  15.159  0.1475  0.3650 -0.7569
   66TCq2    C6 1009   0.327   1.276  15.269  0.8109  1.1060 -0.2540
   66TCq2    C7 1010   0.350   1.229  15.397 -0.2200 -0.1822 -0.5951
   66TCq2    C8 1011   0.264   1.409  15.259 -0.0692  0.1471 -0.2249
   66TCq2    O4 1012   0.286   1.468  15.152 -0.1890  0.0686 -0.1989
   66TCq2    C9 1013   0.374   0.990  15.055  0.2138  0.3422  0.4104
   66TCq2    O5 1014   0.400   0.870  15.064  0.5326 -0.2761  0.0457
   66TCq2    O6 1015   0.339   1.050  14.952  0.4379 -0.3705 -0.1135
   66TCq2    H2 1016   0.409   0.905  15.298  1.0250 -0.0802 -1.0773
   66TCq2    H3 1017   0.312   1.237  15.060 -1.3327  2.4243  0.3662
   66TCq2    H4 1018   0.352   1.290  15.487  0.2278 -1.3361  0.1730
   67MPD2     C 1019   4.648   0.297  14.050 -0.0159 -0.4666 -0.5254
   67MPD2    C1 1020   4.577   0.382  14.127  0.1620  0.2621 -0.3662
   67MPD2    C2 1021   4.443   0.397  14.102 -0.7161 -0.8783 -0.4133
   67MPD2    C3 1022   4.379   0.333  13.997  0.1071  0.3970  0.4301
   67MPD2    C4 1023   4.458   0.248  13.914  0.1435 -0.2323 -0.0079
   67MPD2    C5 1024   4.588   0.233  13.944 -0.2298 -0.1742 -0.2961
   67MPD2     H 1025   4.379   0.459  14.164 -0.2761  0.3319 -1.1866
   67MPD2    H1 1026   4.422   0.203  13.822  1.3162 -1.3060  0.0512
   67MPD2    H2 1027   0.029   0.302  14.076  0.3708  1.6770 -2.4874
   67MPD2    H3 1028   4.647   0.164  13.884 -1.6444  1.0401 -3.0899
   67MPD2     N 1029   4.241   0.340  13.971 -0.2138  0.2306 -0.2669
   67MPD2    H5 1030   4.211   0.299  13.883  1.6342  0.4131 -0.9636
   67MPD2    N1 1031   4.654   0.456  14.223 -0.3347  0.4918 -0.6095
   67MPD2    H7 1032   0.021   0.415  14.243 -0.0371  1.0945 -0.7446
   68TCq2    C1 1033   4.611   0.561  14.307  0.6333  0.2705 -0.1397
   68TCq2    O2 1034   4.509   0.628  14.297 -0.2671 -0.4225  0.1136
   68TCq2    C2 1035   4.696   0.582  14.424  0.2623  0.3562  0.0052
   68TCq2    C3 1036   4.720   0.716  14.461  0.7784  0.0400  0.8917
   68TCq2    C4 1037   0.076   0.739  14.574 -0.6470  0.1020  0.5935
   68TCq2    C5 1038   0.119   0.631  14.653  0.0071 -0.7737 -0.4055
   68TCq2    C6 1039   0.092   0.503  14.611  0.7528 -0.4631  0.1042
   68TCq2    C7 1040   0.021   0.476  14.493  0.3270  0.1261 -0.5372
   68TCq2    C8 1041   0.163   0.395  14.679  0.0443 -0.5400 -0.5406
   68TCq2    O4 1042   0.145   0.291  14.616  0.3870 -0.6455  0.7877
   68TCq2    C9 1043   0.115   0.867  14.608  0.4333  0.3993 -0.5245
   68TCq2    O5 1044   0.057   0.961  14.549  0.1135  0.2529 -0.0297
   68TCq2    O6 1045   0.187   0.885  14.708  0.1179  0.0785  0.0710
   68TCq2    H2 1046   4.672   0.795  14.405  0.5734 -0.9248 -0.2980
   68TCq2    H3 1047   0.185   0.645  14.738 -1.3178 -0.1371  0.5094
   68TCq2    H4 1048   4.723   0.374  14.463  1.5225 -0.4238  0.4812
   69TMC2    C1 1049   1.981   1.279  12.158  0.4330  0.5869  0.2887
   69TMC2    C2 1050   1.846   1.284  12.187  0.6378  0.3352  0.5240
   69TMC2    C3 1051   1.766   1.256  12.079 -0.4969  0.1065  0.3592
   69TMC2    C4 1052   2.027   1.231  12.040  0.2750 -0.1312 -0.2226
   69TMC2    C5 1053   1.937   1.200  11.940 -0.2930 -0.2072  0.6753
   69TMC2    C6 1054   1.806   1.212  11.956  0.0374  0.1942 -0.2769
   69TMC2     C 1055   2.077   1.325  12.251  0.5966 -0.0960 -0.8752
   69TMC2     O 1056   2.182   1.356  12.202  0.3127 -0.2849  0.0016
   69TMC2     H 1057   1.805   1.323  12.279  0.6923 -1.0770  1.1430
   69TMC2    H1 1058   2.134   1.235  12.025  0.3732  0.2716  0.5896
   69TMC2    H2 1059   1.736   1.202  11.873 -1.7627  1.0780  1.1473
   69TMC2    C7 1060   1.996   1.133  11.827 -0.9185  0.1659 -0.1009
   69TMC2    C8 1061   1.624   1.277  12.096 -0.1409  0.0118  0.6993
   69TMC2    O1 1062   2.119   1.135  11.816 -0.3839 -0.3699 -0.4884
   69TMC2    O2 1063   1.573   1.300  12.199 -0.0988  0.0235  0.3935
   69TMC2    O5 1064   1.579   1.338  11.980  0.1270  0.0069 -0.2241
   69TMC2    H5 1065   1.641   1.333  11.904  1.9456 -0.0225  1.2616
   70MPD2     C 1066   2.240   1.373  12.485  0.5803  0.0900 -0.8073
   70MPD2    C1 1067   2.120   1.302  12.483 -0.4074 -0.3908  0.3064
   70MPD2    C2 1068   2.073   1.241  12.602  0.2628  0.2669  0.3052
   70MPD2    C3 1069   2.142   1.248  12.718  0.5385  0.1741 -0.1554
   70MPD2    C4 1070   2.255   1.330  12.716  0.0459 -0.0656 -0.0835
   70MPD2    C5 1071   2.307   1.377  12.603 -0.1463  0.0147 -0.1067
   70MPD2     H 1072   1.985   1.177  12.608  0.3514  0.1113 -0.0385
   70MPD2    H1 1073   2.326   1.341  12.797  0.0989  1.5825 -0.3458
   70MPD2    H2 1074   2.284   1.417  12.397  0.6303  0.2104 -0.7231
   70MPD2    H3 1075   2.404   1.423  12.597 -1.4827  2.6586 -1.5437
   70MPD2     N 1076   2.109   1.175  12.836  0.1445  0.1389  0.1540
   70MPD2    H5 1077   2.163   1.195  12.920  0.4526  2.0861 -0.5124
   70MPD2    N1 1078   2.040   1.293  12.371  0.1445  0.2888  0.4338
   70MPD2    H7 1079   1.946   1.263  12.392  0.0501 -0.5938 -1.3111
   71TMC2    C1 1080   0.072   1.462   1.800 -0.2681  0.0246  0.0582
   71TMC2    C2 1081   0.169   1.501   1.894  0.3162 -0.3237  0.3939
   71TMC2    C3 1082   0.140   1.528   2.024  0.0685  0.1605 -0.2360
   71TMC2    C4 1083   4.662   1.454   1.844  0.0730 -0.5667 -0.2292
   71TMC2    C5 1084   4.642   1.473   1.976 -0.0087 -0.0445  0.1190
   71TMC2    C6 1085   0.010   1.521   2.065  0.1183  0.4801  0.0777
   71TMC2     C 1086   0.091   1.468   1.659  0.4554 -0.3813  0.5723
   71TMC2     O 1087   4.722   1.485   1.580 -0.1843 -0.2808  0.0135
   71TMC2     H 1088   0.270   1.514   1.856  0.1380  1.5403  0.5536
   71TMC2    H1 1089   4.577   1.431   1.780  0.9323 -2.3082 -0.7595
   71TMC2    H2 1090   4.703   1.541   2.167  1.7685 -0.4547  0.7652
   71TMC2    C7 1091   4.504   1.463   2.027  0.2211 -0.6758  0.9030
   71TMC2    C8 1092   0.253   1.518   2.111 -0.0079 -0.2723  0.4066
   71TMC2    O1 1093   4.490   1.430   2.141  0.1465 -0.0150 -0.0260
   71TMC2    O2 1094   0.368   1.488   2.080  0.0865  0.0248 -0.2228
   71TMC2    O5 1095   0.230   1.576   2.230 -0.6727 -0.1580 -0.6120
   71TMC2    H5 1096   0.137   1.607   2.228 -0.0284  1.7026 -1.5157
   72MPD2     C 1097   0.485   1.559   1.317  0.6924  0.4333 -0.3694
   72MPD2    C1 1098   0.357   1.604   1.314  0.2777  0.3590  0.8290
   72MPD2    C2 1099   0.266   1.566   1.412 -0.6886 -0.4199 -0.5030
   72MPD2    C3 1100   0.301   1.488   1.522  0.0859  1.2137  0.3034
   72MPD2    C4 1101   0.430   1.440   1.523  0.2314  0.0557 -0.4384
   72MPD2    C5 1102   0.519   1.473   1.423  0.1082  0.5030 -0.8648
   72MPD2     H 1103   0.160   1.588   1.397 -0.5178  0.3155 -0.6337
   72MPD2    H1 1104   0.463   1.379   1.606  0.7644  1.3105  0.2607
   72MPD2    H2 1105   0.556   1.571   1.236  1.6033 -0.0474  0.3633
   72MPD2    H3 1106   0.624   1.449   1.427  0.3575  2.0223  1.5071
   72MPD2     N 1107   0.222   1.450   1.634  0.1066 -0.0014 -0.6113
   72MPD2    H5 1108   0.262   1.394   1.708 -0.6681  0.0155 -0.1866
   72MPD2    N1 1109   0.301   1.667   1.194 -0.0612 -0.4194 -0.3355
   72MPD2    H7 1110   0.201   1.679   1.189  0.4792  3.6565 -0.9877
   73TMC2    C1 1111   3.498   3.380  13.904 -0.0653  0.6985  0.2165
   73TMC2    C2 1112   3.582   3.335  14.006  0.0946  0.3291 -0.1093
   73TMC2    C3 1113   3.645   3.424  14.090 -0.2854  0.2536  0.6314
   73TMC2    C4 1114   3.483   3.518  13.880  0.1700 -0.4418  0.5870
   73TMC2    C5 1115   3.548   3.601  13.962  0.4246  0.5801 -0.1947
   73TMC2    C6 1116   3.623   3.560  14.064  0.2141 -0.1581  0.5196
   73TMC2     C 1117   3.540   3.330  13.772  0.4162 -0.1880  0.5351
   73TMC2     O 1118   3.548   3.416  13.683  0.5059 -0.1160 -0.6055
   73TMC2     H 1119   3.591   3.229  14.027  1.6173  0.5925  0.6060
   73TMC2    H1 1120   3.415   3.554  13.804 -1.6350  0.5588  2.6957
   73TMC2    H2 1121   3.647   3.626  14.146 -2.2217  0.1023  1.0096
   73TMC2    C7 1122   3.620   3.704  13.880 -0.8857  0.4427 -0.3751
   73TMC2    C8 1123   3.694   3.380  14.215  0.1966 -0.0403  0.4577
   73TMC2    O1 1124   3.669   3.795  13.946  0.3849 -0.5372  0.0888
   73TMC2    O2 1125   3.786   3.429  14.274  0.5977  0.5497  0.0386
   73TMC2    O5 1126   3.582   3.334  14.281  0.0125 -0.2369  0.3879
   73TMC2    H5 1127   3.508   3.323  14.218  0.1602 -1.0459  0.3601
   74MPD2     C 1128   3.732   2.976  13.460  0.6338 -0.0261 -0.0151
   74MPD2    C1 1129   3.719   3.109  13.440  0.0867 -0.4763 -0.2116
   74MPD2    C2 1130   3.656   3.190  13.537  0.6198  0.2442  0.1014
   74MPD2    C3 1131   3.633   3.131  13.662 -0.0497  0.4004  0.3277
   74MPD2    C4 1132   3.651   2.999  13.684 -0.0309 -0.0139  0.4692
   74MPD2    C5 1133   3.699   2.926  13.581 -0.0324  0.2199 -0.1924
   74MPD2     H 1134   3.629   3.293  13.518  0.7789  0.1084 -0.9025
   74MPD2    H1 1135   3.619   2.949  13.774  5.7658  0.1270  2.5890
   74MPD2    H2 1136   3.770   2.912  13.381 -0.9409  1.5464 -2.0452
   74MPD2    H3 1137   3.696   2.819  13.600  1.1323  0.4060  1.0788
   74MPD2     N 1138   3.583   3.199  13.774 -0.2201 -0.1101 -0.3199
   74MPD2    H5 1139   3.575   3.143  13.858  1.9428 -0.1155 -0.1155
   74MPD2    N1 1140   3.777   3.159  13.320  0.1786 -0.4664  0.1140
   74MPD2    H7 1141   3.834   3.095  13.266  0.7839 -0.1183  0.3407
   75TCq2    C1 1142   4.145   0.416  14.038 -0.4995 -0.1712  0.9696
   75TCq2    O2 1143   4.167   0.486  14.135 -0.6451  0.2473 -0.4886
   75TCq2    C2 1144   3.999   0.395  14.012 -1.0729  0.4946 -0.2732
   75TCq2    C3 1145   3.907   0.409  14.112  0.1277 -0.0984 -0.3864
   75TCq2    C4 1146   3.771   0.382  14.105  0.3201 -0.3198 -0.4099
   75TCq2    C5 1147   3.733   0.323  13.993  0.5322  0.0116  0.5576
   75TCq2    C6 1148   3.824   0.295  13.897  0.1127 -1.0771 -0.3514
   75TCq2    C7 1149   3.958   0.333  13.897  0.1977 -0.1247  0.1833
   75TCq2    C8 1150   3.789   0.202  13.789  0.1158  0.4725  0.5330
   75TCq2    O4 1151   3.852   0.208  13.683  0.5932  0.3886 -0.1253
   75TCq2    C9 1152   3.675   0.412  14.209  0.3378 -0.7238  0.2022
   75TCq2    O5 1153   3.720   0.463  14.314  0.2627  0.7611 -0.1470
   75TCq2    O6 1154   3.557   0.395  14.178  0.4144  0.0462  0.0742
   75TCq2    H2 1155   3.943   0.457  14.203  1.5744 -2.7725  0.4378
   75TCq2    H3 1156   3.628   0.296  13.983  0.3337  0.9895 -0.0444
   75TCq2    H4 1157   4.019   0.319  13.809 -0.2541 -1.4286  0.0817
   76MPD2     C 1158   2.981   0.789  11.308 -0.4202 -0.7379 -0.0970
   76MPD2    C1 1159   2.858   0.775  11.370 -0.1128 -0.2541  0.6838
   76MPD2    C2 1160   2.848   0.688  11.476 -0.3580  0.5826 -0.6331
   76MPD2    C3 1161   2.961   0.630  11.530 -0.9686 -0.4958 -0.3419
   76MPD2    C4 1162   3.082   0.655  11.469  0.8694  0.0049 -0.7429
   76MPD2    C5 1163   3.093   0.730  11.355 -0.0264 -0.0072 -0.7609
   76MPD2     H 1164   2.753   0.670  11.526  0.0880  2.2275  0.7654
   76MPD2    H1 1165   3.163   0.601  11.517 -1.1997 -2.5836 -0.1481
   76MPD2    H2 1166   2.993   0.854  11.222  0.4978 -2.5065 -1.3089
   76MPD2    H3 1167   3.179   0.725  11.289  0.9424 -0.8854  0.5817
   76MPD2     N 1168   2.954   0.538  11.638  0.0058  0.4861 -0.3319
   76MPD2    H5 1169   3.051   0.516  11.660 -0.2972 -0.6396 -0.1382
   76MPD2    N1 1170   2.738   0.833  11.328 -0.3504  0.3285 -0.2382
   76MPD2    H7 1171   2.656   0.810  11.384  1.3722 -3.1439  0.8806
   77TCq2    C1 1172   2.851   0.481  11.700 -0.5263 -0.0259  0.7321
   77TCq2    O2 1173   2.728   0.487  11.677 -0.2697 -0.1601  0.1774
   77TCq2    C2 1174   2.899   0.381  11.791 -0.2623  0.2850  0.0068
   77TCq2    C3 1175   2.808   0.276  11.824 -1.0155 -0.6390 -0.0313
   77TCq2    C4 1176   2.841   0.181  11.913  0.1180 -0.2250 -0.8373
   77TCq2    C5 1177   2.967   0.182  11.974  0.1223  0.3301 -0.2555
   77TCq2    C6 1178   3.058   0.282  11.940  0.8689  0.6490  0.3771
   77TCq2    C7 1179   3.027   0.383  11.849  0.6615  0.3660  0.0696
   77TCq2    C8 1180   3.182   0.280  12.011  0.1175 -0.1612 -0.4213
   77TCq2    O4 1181   3.214   0.173  12.067  0.3219 -0.2101 -0.5326
   77TCq2    C9 1182   2.752   0.075  11.937 -0.1599  0.4487 -0.7586
   77TCq2    O5 1183   2.788   0.010  12.039  0.3161  0.1217 -0.1681
   77TCq2    O6 1184   2.634   0.076  11.888  0.3250 -0.0308  0.7415
   77TCq2    H2 1185   2.708   0.271  11.784 -0.1699 -2.1883 -2.0026
   77TCq2    H3 1186   2.991   0.100  12.041 -1.3104  2.3907  2.7825
   77TCq2    H4 1187   3.109   0.451  11.830  2.5965 -1.8017  0.7219
   78MPD1     C 1188   3.671   1.347   1.522  0.2700 -0.1837 -0.4615
   78MPD1    C1 1189   3.777   1.313   1.443  0.8412 -0.3344 -0.5959
   78MPD1    C2 1190   3.887   1.269   1.506 -0.2945  0.0391  0.7697
   78MPD1    C3 1191   3.904   1.265   1.646  0.5273  0.1266 -0.0886
   78MPD1    C4 1192   3.792   1.289   1.726  0.3346 -0.4199  0.2711
   78MPD1    C5 1193   3.674   1.329   1.657  0.2589 -0.0205  0.4445
   78MPD1     H 1194   3.969   1.229   1.448 -0.1722 -0.0386  0.9940
   78MPD1    H1 1195   3.779   1.275   1.833  0.1443 -1.4598  0.1119
   78MPD1    H2 1196   3.580   1.368   1.468  1.9049  1.4496 -2.6007
   78MPD1    H3 1197   3.583   1.363   1.706  0.3862  0.4945  0.3234
   78MPD1     N 1198   4.022   1.244   1.717  0.6226  0.2478  0.2808
   78MPD1    H5 1199   4.011   1.226   1.816 -0.6972  2.1773  0.4828
   78MPD1    N1 1200   3.750   1.288   1.303 -0.2259  0.2947  0.3350
   78MPD1    H6 1201   3.675   1.348   1.268  1.1113  1.6153 -0.3066
   78MPD1    H7 1202   3.832   1.315   1.249  1.9887 -2.4968  2.3483
   79TCq2    C1 1203   4.150   1.251   1.665  0.2443 -0.6844 -0.2733
   79TCq2    O2 1204   4.186   1.267   1.548 -0.2165  0.2817 -0.9405
   79TCq2    C2 1205   4.243   1.221   1.769 -0.4720  0.6474 -0.0391
   79TCq2    C3 1206   4.202   1.193   1.901  0.2332 -0.1680  0.6903
   79TCq2    C4 1207   4.282   1.116   1.982 -1.0564 -0.1758 -0.2971
   79TCq2    C5 1208   4.404   1.083   1.944 -0.4413  0.2828  1.1322
   79TCq2    C6 1209   4.440   1.113   1.819 -0.1943  0.1549  0.0563
   79TCq2    C7 1210   4.362   1.178   1.724 -0.3653 -0.1235 -0.0953
   79TCq2    C8 1211   4.581   1.109   1.786 -0.0005 -0.6767 -0.2533
   79TCq2    O4 1212   4.659   1.122   1.879  0.0465 -0.1456  0.2822
   79TCq2    C9 1213   4.229   1.075   2.112  0.3305  0.0938  0.5145
   79TCq2    O5 1214   4.110   1.093   2.132 -0.4586  0.0092 -0.1473
   79TCq2    O6 1215   4.324   1.046   2.191  0.7313  0.6110  0.0044
   79TCq2    H2 1216   4.120   1.244   1.950 -0.2503  0.6264 -0.9129
   79TCq2    H3 1217   4.476   1.040   2.013  0.5300  0.7194  0.3854
   79TCq2    H4 1218   4.404   1.227   1.637 -4.3711 -1.7382 -2.9620
   80MPD2     C 1219   2.123   0.600  12.903  0.0953  0.3890 -0.0501
   80MPD2    C1 1220   2.010   0.598  12.830 -0.0640 -0.2230 -0.1127
   80MPD2    C2 1221   1.881   0.610  12.894  0.0877  0.2390  0.3013
   80MPD2    C3 1222   1.873   0.617  13.032  0.0240 -0.4117  0.0585
   80MPD2    C4 1223   1.987   0.631  13.100 -0.0214 -0.1300  0.3831
   80MPD2    C5 1224   2.110   0.616  13.036  0.6200  0.3814  0.0842
   80MPD2     H 1225   1.792   0.617  12.833  0.1984 -0.8665  0.0064
   80MPD2    H1 1226   1.985   0.653  13.206  4.0283 -2.6627  0.9916
   80MPD2    H2 1227   2.222   0.606  12.859 -0.6640  5.5261 -1.0660
   80MPD2    H3 1228   2.200   0.627  13.096  1.1274  0.6283 -0.7288
   80MPD2     N 1229   1.752   0.638  13.106 -0.1778 -0.2995 -0.0201
   80MPD2    H5 1230   1.752   0.628  13.207 -0.1861 -1.1424 -0.0994
   80MPD2    N1 1231   2.008   0.581  12.690  0.3022 -0.4500  0.6859
   80MPD2    H7 1232   1.918   0.590  12.643  0.6161 -0.3487  0.0961
   81TCq2    C1 1233   2.115   0.551  12.600  0.8009  0.3612  0.7000
   81TCq2    O2 1234   2.233   0.529  12.624 -0.1035 -0.3557 -0.4632
   81TCq2    C2 1235   2.072   0.534  12.465  0.2626  0.1626  0.2160
   81TCq2    C3 1236   2.171   0.538  12.375  0.2468  0.2601 -0.2277
   81TCq2    C4 1237   2.142   0.506  12.241  0.8075 -0.0448 -0.2486
   81TCq2    C5 1238   2.018   0.479  12.202  0.4833  0.3949 -0.0467
   81TCq2    C6 1239   1.924   0.469  12.304 -0.0978  0.0936 -0.1136
   81TCq2    C7 1240   1.942   0.490  12.439 -0.2076 -0.2117 -0.0945
   81TCq2    C8 1241   1.786   0.446  12.257  0.2156  0.2363  0.2589
   81TCq2    O4 1242   1.759   0.479  12.144  0.8019  0.8244 -0.1102
   81TCq2    C9 1243   2.243   0.510  12.137 -0.1583  0.3072 -0.4526
   81TCq2    O5 1244   2.211   0.501  12.016  0.4144 -0.0390  0.4726
   81TCq2    O6 1245   2.367   0.512  12.165  0.5699 -0.5311 -0.5669
   81TCq2    H2 1246   2.274   0.568  12.394 -0.6338  2.5038  1.0527
   81TCq2    H3 1247   1.995   0.458  12.098 -0.0989 -0.5165  0.2602
   81TCq2    H4 1248   1.871   0.464  12.516 -1.5015  1.9642 -0.5567
   82MPD2     C 1249   4.130   4.637  11.545  0.2877  0.3686 -0.0591
   82MPD2    C1 1250   4.206   0.011  11.478 -0.3184  0.3696 -0.1910
   82MPD2    C2 1251   4.318   0.046  11.544  0.4356  0.2277  0.4519
   82MPD2    C3 1252   4.361   4.701  11.660 -0.4463  0.4400  0.2753
   82MPD2    C4 1253   4.291   4.594  11.719  0.1262 -0.3106  0.5072
   82MPD2    C5 1254   4.170   4.568  11.657 -0.2339  0.3146  0.3429
   82MPD2     H 1255   4.382   0.121  11.500 -0.2055  0.8472  0.5612
   82MPD2    H1 1256   4.333   4.525  11.792 -2.6191 -2.4485  0.0572
   82MPD2    H2 1257   4.041   4.603  11.493 -0.3760 -0.3909  1.5543
   82MPD2    H3 1258   4.123   4.479  11.696 -1.4053 -0.6220 -3.1815
   82MPD2     N 1259   4.491   4.719  11.705 -0.1822  0.3321 -0.1623
   82MPD2    H5 1260   4.525   4.654  11.776  0.2130  0.7964  0.0785
   82MPD2    N1 1261   4.171   0.064  11.349 -0.4923 -0.0815 -1.0065
   82MPD2    H7 1262   4.229   0.144  11.322  2.8936 -1.2362  2.9262
   83TCq2    C1 1263   4.588   0.085  11.661 -0.4496 -0.9611  0.9928
   83TCq2    O2 1264   4.581   0.172  11.576  0.2579 -0.4719 -0.2131
   83TCq2    C2 1265   0.004   0.042  11.688 -0.4415  0.5549 -0.0246
   83TCq2    C3 1266   0.105   0.125  11.645  0.5852  0.8344 -0.6084
   83TCq2    C4 1267   0.233   0.077  11.658 -0.9234  0.5945  0.2378
   83TCq2    C5 1268   0.261   4.672  11.691 -0.0149  0.8810 -0.6409
   83TCq2    C6 1269   0.153   4.592  11.730 -0.2130 -0.1380 -0.1703
   83TCq2    C7 1270   0.024   4.639  11.742 -0.2704 -0.0697  1.0297
   83TCq2    C8 1271   0.180   4.457  11.767 -0.4328 -0.0592 -0.7488
   83TCq2    O4 1272   0.188   4.428  11.885  0.2432  0.8558 -0.6674
   83TCq2    C9 1273   0.351   0.165  11.642 -0.4856 -0.6657  0.8661
   83TCq2    O5 1274   0.463   0.122  11.673 -0.4788  0.0131  0.1182
   83TCq2    O6 1275   0.336   0.267  11.568 -0.1399 -0.4202 -0.0537
   83TCq2    H2 1276   0.081   0.224  11.609  0.5555  1.2809  0.6609
   83TCq2    H3 1277   0.361   4.634  11.680 -0.7050 -1.2664  0.5488
   83TCq2    H4 1278   4.670   4.570  11.772 -1.6113  0.6834 -0.7040
   84TCq2    C1 1279   1.471   3.410  11.151  0.4542  0.9765 -0.5648
   84TCq2    O2 1280   1.379   3.483  11.119  0.1330  0.1051  0.0110
   84TCq2    C2 1281   1.462   3.360  11.289  0.2940 -0.1765  0.3363
   84TCq2    C3 1282   1.536   3.247  11.325 -0.0561 -0.0978 -0.5383
   84TCq2    C4 1283   1.524   3.206  11.457 -0.3801 -0.2590 -0.4035
   84TCq2    C5 1284   1.445   3.272  11.548  0.5049  0.4123 -0.1391
   84TCq2    C6 1285   1.366   3.375  11.502 -0.3416  0.4281 -0.5280
   84TCq2    C7 1286   1.377   3.421  11.372 -0.1699  0.3279  0.6654
   84TCq2    C8 1287   1.273   3.437  11.593 -0.1435  1.1331 -0.1152
   84TCq2    O4 1288   1.198   3.521  11.551  0.0485 -0.9639  0.4322
   84TCq2    C9 1289   1.610   3.111  11.506 -0.2587 -0.3402 -0.8388
   84TCq2    O5 1290   1.699   3.073  11.421  0.1579 -0.1706  0.5018
   84TCq2    O6 1291   1.604   3.080  11.628 -0.1427 -0.3284  0.1072
   84TCq2    H2 1292   1.593   3.188  11.254  0.7440  0.1751 -0.1215
   84TCq2    H3 1293   1.446   3.236  11.651  1.0083 -0.2635 -0.3789
   84TCq2    H4 1294   1.331   3.515  11.346 -1.1528  0.1124  1.6580
   85MPD2     C 1295   2.143   1.463  16.429 -0.2771 -0.0744  0.5164
   85MPD2    C1 1296   2.054   1.489  16.330  0.2931 -0.3941 -0.1690
   85MPD2    C2 1297   2.075   1.595  16.233 -0.7026 -0.1931 -0.2886
   85MPD2    C3 1298   2.186   1.669  16.255  0.3921 -0.0094 -0.3936
   85MPD2    C4 1299   2.279   1.640  16.353  0.0240 -0.2176  0.1595
   85MPD2    C5 1300   2.255   1.542  16.437  0.5968 -0.1315 -0.4631
   85MPD2     H 1301   1.997   1.617  16.161 -1.2046 -0.3169  0.2229
   85MPD2    H1 1302   2.363   1.705  16.375  0.8256 -1.4375  0.6875
   85MPD2    H2 1303   2.137   1.378  16.497 -1.9302 -2.4138 -2.5931
   85MPD2    H3 1304   2.338   1.522  16.504  0.6161 -1.1639 -0.7916
   85MPD2     N 1305   2.202   1.785  16.178 -0.2821  0.8528  0.1092
   85MPD2    H5 1306   2.120   1.824  16.134  1.2810  0.3777 -3.2020
   85MPD2    N1 1307   1.938   1.409  16.306 -0.3371  0.3345  0.3894
   85MPD2    H7 1308   1.885   1.436  16.224  2.7596 -0.9903 -2.0650
   86TCq2    C1 1309   2.325   1.848  16.150  0.3762  0.5815  0.2576
   86TCq2    O2 1310   2.437   1.805  16.166  0.0580 -0.4074 -0.5728
   86TCq2    C2 1311   2.305   1.956  16.054  0.1276  0.3246 -0.2515
   86TCq2    C3 1312   2.237   2.071  16.094 -0.2218  0.2273  0.2172
   86TCq2    C4 1313   2.232   2.189  16.022 -0.1560  0.0191  0.2755
   86TCq2    C5 1314   2.296   2.192  15.898 -0.1598  0.3577  0.7564
   86TCq2    C6 1315   2.377   2.078  15.867  0.3101 -0.6908 -0.6023
   86TCq2    C7 1316   2.383   1.962  15.941  0.0537 -0.0222  0.0036
   86TCq2    C8 1317   2.442   2.067  15.736  0.5024  0.4273 -0.2646
   86TCq2    O4 1318   2.483   1.955  15.707 -0.5628 -0.6665 -0.5321
   86TCq2    C9 1319   2.149   2.305  16.053 -1.0525  0.0275 -0.0246
   86TCq2    O5 1320   2.187   2.413  15.999 -0.7953 -0.1038  0.1030
   86TCq2    O6 1321   2.049   2.287  16.131 -0.1713  0.1494  0.6407
   86TCq2    H2 1322   2.175   2.074  16.183 -0.0100  0.0594  0.3699
   86TCq2    H3 1323   2.306   2.282  15.840 -0.7803 -0.9219 -1.3460
   86TCq2    H4 1324   2.456   1.883  15.934 -0.7526 -0.6197 -1.4538
   87MPD2     C 1325   4.207   0.745   1.895 -0.7070 -0.3682 -0.3717
   87MPD2    C1 1326   4.302   0.729   1.800 -0.3091  0.1362  0.4930
   87MPD2    C2 1327   4.290   0.797   1.678 -0.2057  0.0902  0.0780
   87MPD2    C3 1328   4.176   0.857   1.647  0.3008 -0.3491  0.5484
   87MPD2    C4 1329   4.068   0.850   1.733  0.0441 -0.1208  0.3102
   87MPD2    C5 1330   4.090   0.811   1.862  0.4501  0.0338 -0.0768
   87MPD2     H 1331   4.366   0.788   1.601  0.7320  0.1734  0.9813
   87MPD2    H1 1332   3.974   0.901   1.715  2.4006  3.5823 -1.6106
   87MPD2    H2 1333   4.222   0.699   1.992 -0.8725 -0.3418 -0.3348
   87MPD2    H3 1334   4.006   0.800   1.930 -1.0545  1.4049 -1.7404
   87MPD2     N 1335   4.159   0.933   1.525 -0.0228  0.1781  0.1265
   87MPD2    H5 1336   4.067   0.962   1.494  0.5705  3.5605  1.5114
   87MPD2    N1 1337   4.410   0.646   1.825 -0.0431  0.1907  0.4418
   87MPD2    H7 1338   4.423   0.608   1.918 -0.4612 -0.1990  0.3360
   88TCq2    C1 1339   4.520   0.626   1.739 -0.1378  0.0711 -0.0559
   88TCq2    O2 1340   4.537   0.654   1.621 -0.6320  0.0021  0.1679
   88TCq2    C2 1341   4.623   0.546   1.806  0.3301 -0.1246 -0.2762
   88TCq2    C3 1342   4.654   0.543   1.939 -0.0543  0.2456  0.1972
   88TCq2    C4 1343   0.039   0.466   1.979 -0.0313 -0.1940 -0.7317
   88TCq2    C5 1344   0.107   0.393   1.891  0.5837  0.0227 -0.6926
   88TCq2    C6 1345   0.078   0.410   1.759 -0.4075  0.4596 -0.6069
   88TCq2    C7 1346   4.691   0.477   1.710 -0.1782 -0.5376 -0.4861
   88TCq2    C8 1347   0.168   0.349   1.659  0.0499 -0.4346  0.0464
   88TCq2    O4 1348   0.122   0.319   1.547  0.1657  0.1679  0.2032
   88TCq2    C9 1349   0.071   0.456   2.119  0.6007 -0.0030  0.0141
   88TCq2    O5 1350   0.022   0.541   2.193  0.0446 -0.0596 -0.2088
   88TCq2    O6 1351   0.147   0.362   2.156 -0.3578  0.7618  0.3402
   88TCq2    H2 1352   4.598   0.591   2.019  0.5589 -0.8371  1.2678
   88TCq2    H3 1353   0.194   0.340   1.928 -0.8260 -2.0547 -0.3591
   88TCq2    H4 1354   4.671   0.487   1.604  1.3592  2.3312 -0.5154
   89MPD2     C 1355   0.098   3.610   1.725  0.6378 -0.0902  0.2250
   89MPD2    C1 1356   0.032   3.528   1.631 -1.1999  0.7082  0.1708
   89MPD2    C2 1357   0.084   3.515   1.502 -0.2611  0.7734 -0.0085
   89MPD2    C3 1358   0.200   3.579   1.466  0.1302  0.1127  0.4840
   89MPD2    C4 1359   0.265   3.666   1.552 -0.0358  0.3553  0.1849
   89MPD2    C5 1360   0.217   3.674   1.685  0.0202  0.3591  0.6660
   89MPD2     H 1361   0.037   3.440   1.440  2.0392  0.1790 -1.0353
   89MPD2    H1 1362   0.355   3.718   1.521  0.1151  0.0213  0.0657
   89MPD2    H2 1363   0.066   3.626   1.827  0.2514 -0.8320  0.2228
   89MPD2    H3 1364   0.261   3.742   1.757  1.1075 -0.5327  0.8392
   89MPD2     N 1365   0.261   3.540   1.342  0.3526  0.3227  0.0617
   89MPD2    H5 1366   0.204   3.485   1.279 -0.7556  0.8009  0.6375
   89MPD2    N1 1367   4.643   3.447   1.667 -0.0847 -0.1643 -0.9538
   89MPD2    H7 1368   4.596   3.403   1.589  1.0616 -1.1009 -1.0962
   90TCq2    C1 1369   0.391   3.554   1.305  0.2899  0.4079 -0.7881
   90TCq2    O2 1370   0.479   3.606   1.371 -0.4245 -0.3244  0.8209
   90TCq2    C2 1371   0.408   3.511   1.162  0.0348  0.4624  0.0376
   90TCq2    C3 1372   0.304   3.514   1.078 -0.0078  0.4754 -0.5297
   90TCq2    C4 1373   0.325   3.486   0.947 -0.0889  0.3568 -0.0446
   90TCq2    C5 1374   0.448   3.449   0.902  0.1691  0.5769  0.1452
   90TCq2    C6 1375   0.549   3.448   0.995 -0.5702  0.0239 -0.3303
   90TCq2    C7 1376   0.532   3.491   1.123 -0.2914 -0.3964  0.1473
   90TCq2    C8 1377   0.670   3.389   0.952 -0.3735 -1.0488 -0.7925
   90TCq2    O4 1378   0.661   3.321   0.849  0.1149 -0.3822 -0.3388
   90TCq2    C9 1379   0.218   3.517   0.850 -0.2416 -0.1994  0.8592
   90TCq2    O5 1380   0.231   3.483   0.729 -0.2404  0.1578 -0.1423
   90TCq2    O6 1381   0.131   3.602   0.894 -0.1028 -0.0780  0.3073
   90TCq2    H2 1382   0.211   3.563   1.104 -1.1547 -1.9521 -0.1333
   90TCq2    H3 1383   0.462   3.426   0.797 -2.4403  0.1698 -0.1103
   90TCq2    H4 1384   0.605   3.462   1.197  1.0487  1.6426 -0.3709
   91TMC2    C1 1385   2.238   2.719  16.661 -0.2938 -0.4026 -0.4148
   91TMC2    C2 1386   2.339   2.789  16.716 -0.3455 -0.4002  0.4818
   91TMC2    C3 1387   2.305   2.899  16.792  0.7422  0.1747  0.0394
   91TMC2    C4 1388   2.108   2.730  16.706 -0.1673  0.5796  0.7569
   91TMC2    C5 1389   2.079   2.832  16.790 -0.0830 -0.1373 -0.4776
   91TMC2    C6 1390   2.176   2.921  16.828 -0.2068  0.9610  0.3527
   91TMC2     C 1391   2.269   2.600  16.586 -0.4078 -0.1246 -0.2526
   91TMC2     O 1392   2.185   2.515  16.568 -0.5422  0.1777  0.3648
   91TMC2     H 1393   2.442   2.782  16.684 -1.0260  1.8323 -2.1909
   91TMC2    H1 1394   2.040   2.646  16.697 -0.7004  1.0535  0.3060
   91TMC2    H2 1395   2.136   3.002  16.888  1.1216  0.8461  1.4040
   91TMC2    C7 1396   1.944   2.851  16.842  0.0470 -0.1374  0.6817
   91TMC2    C8 1397   2.410   2.996  16.820 -0.6662  0.1529 -0.2061
   91TMC2    O1 1398   1.930   2.898  16.954  0.7595  0.6624 -0.3416
   91TMC2    O2 1399   2.527   2.973  16.802  0.0327 -0.3655 -0.0029
   91TMC2    O5 1400   2.360   3.119  16.813 -0.0601  0.4088  0.0074
   91TMC2    H5 1401   2.263   3.124  16.802 -0.0533  0.1449 -0.1869
   92MPD2     C 1402   2.422   2.392  16.429 -0.5327 -0.1279  1.0254
   92MPD2    C1 1403   2.457   2.529  16.442  0.3445 -0.5696  0.6296
   92MPD2    C2 1404   2.579   2.566  16.384 -0.1752  0.0096  0.2344
   92MPD2    C3 1405   2.655   2.477  16.311 -0.9110 -0.1950  0.5623
   92MPD2    C4 1406   2.608   2.349  16.286  0.4215 -0.1198 -0.1593
   92MPD2    C5 1407   2.492   2.313  16.341  0.0698 -0.0769  0.1024
   92MPD2     H 1408   2.624   2.664  16.395 -0.1629 -0.0854  1.0217
   92MPD2    H1 1409   2.657   2.286  16.213  0.9724  0.0663  0.0519
   92MPD2    H2 1410   2.338   2.355  16.486 -1.9917  1.4846 -0.0849
   92MPD2    H3 1411   2.462   2.210  16.326  2.1885 -0.6657 -0.0394
   92MPD2     N 1412   2.783   2.527  16.270  0.3830  0.1575 -0.0963
   92MPD2    H5 1413   2.801   2.626  16.285 -1.2405  0.5013 -0.4680
   92MPD2    N1 1414   2.391   2.616  16.530 -0.1402  0.2059  0.2871
   92MPD2    H7 1415   2.443   2.704  16.535  0.5145 -0.1939  0.4657
   93MPD2     C 1416   3.974   2.461  14.247  0.6537  0.6491 -0.1027
   93MPD2    C1 1417   3.957   2.585  14.185  0.0980 -0.3271 -0.2011
   93MPD2    C2 1418   3.828   2.628  14.172  0.6183 -0.2833  0.3337
   93MPD2    C3 1419   3.718   2.559  14.215 -0.1142 -0.8134 -0.7470
   93MPD2    C4 1420   3.736   2.439  14.278  1.1789 -0.9467  1.0984
   93MPD2    C5 1421   3.867   2.391  14.291 -0.1990 -0.7482 -0.0084
   93MPD2     H 1422   3.809   2.723  14.124  3.7333  0.4098  0.4712
   93MPD2    H1 1423   3.648   2.381  14.303 -1.9386  3.2947  0.1135
   93MPD2    H2 1424   4.071   2.415  14.261  0.9934  0.2403 -3.6066
   93MPD2    H3 1425   3.880   2.291  14.330  0.4919 -0.8484 -0.5096
   93MPD2     N 1426   3.584   2.606  14.207  0.0618  0.2728 -0.5324
   93MPD2    H5 1427   3.513   2.534  14.209  0.9079 -0.5185  1.0500
   93MPD2    N1 1428   4.058   2.676  14.138  0.4854 -0.0508 -0.4117
   93MPD2    H7 1429   4.028   2.770  14.116  0.0856 -0.1454 -0.2726
   94TCq2    C1 1430   4.189   2.648  14.137  0.2379 -0.4054 -0.1600
   94TCq2    O2 1431   4.237   2.535  14.139  0.6782 -0.5493 -0.1238
   94TCq2    C2 1432   4.264   2.770  14.136  0.0179 -0.1303  0.8811
   94TCq2    C3 1433   4.208   2.879  14.185  0.3136  0.1566 -0.6636
   94TCq2    C4 1434   4.269   3.003  14.169  0.3763  0.0612 -0.2566
   94TCq2    C5 1435   4.381   3.013  14.094 -0.4311  0.2783  0.0908
   94TCq2    C6 1436   4.436   2.901  14.035 -0.1844 -0.0737  0.1276
   94TCq2    C7 1437   4.378   2.776  14.061  0.0831 -0.4387 -0.8786
   94TCq2    C8 1438   4.561   2.910  13.969 -0.2069  0.1457  0.4304
   94TCq2    O4 1439   4.632   2.812  13.973 -0.3770  0.4121  0.0122
   94TCq2    C9 1440   4.212   3.118  14.234 -0.7234 -0.4552  0.2630
   94TCq2    O5 1441   4.088   3.103  14.255  0.4502 -0.4540  0.2984
   94TCq2    O6 1442   4.277   3.223  14.222  0.0761  0.0144 -0.1554
   94TCq2    H2 1443   4.120   2.868  14.248  1.6617  1.6826  1.5017
   94TCq2    H3 1444   4.439   3.104  14.082  1.0814 -0.4191  2.1580
   94TCq2    H4 1445   4.420   2.686  14.018 -2.3613 -1.8514 -0.2951
   95TMC2    C1 1446   4.157   4.452  15.924  0.0454  0.5176  0.1436
   95TMC2    C2 1447   4.238   4.378  16.011 -0.6423 -0.0253  0.0848
   95TMC2    C3 1448   4.178   4.293  16.102 -0.3255 -0.5826  0.1774
   95TMC2    C4 1449   4.029   4.427  15.912 -0.5399  0.0012  0.5816
   95TMC2    C5 1450   3.971   4.334  16.000 -0.0471 -0.2843  0.3957
   95TMC2    C6 1451   4.045   4.263  16.090  0.4495 -0.5358 -0.2209
   95TMC2     C 1452   4.220   4.561  15.849 -0.2226 -1.1796  0.3575
   95TMC2     O 1453   4.340   4.561  15.834 -0.0114  0.2615 -0.0479
   95TMC2     H 1454   4.339   4.418  16.013  0.1489 -1.9417 -1.7309
   95TMC2    H1 1455   3.981   4.456  15.819  0.5597  0.9519  0.3108
   95TMC2    H2 1456   4.000   4.198  16.165  0.9170  0.5362  0.9891
   95TMC2    C7 1457   3.829   4.298  15.989 -0.5117 -0.7558  1.2193
   95TMC2    C8 1458   4.251   4.213  16.200 -0.2512 -0.3664 -0.1018
   95TMC2    O1 1459   3.791   4.206  16.060 -0.3864 -0.0659  0.2029
   95TMC2    O2 1460   4.197   4.160  16.297 -0.4203  1.2192  0.0043
   95TMC2    O5 1461   4.383   4.229  16.172 -0.1794 -0.1632 -0.1777
   95TMC2    H5 1462   4.409   4.241  16.079 -1.2216  2.4504 -0.1177
   96MPD2     C 1463   4.192   0.313  15.646 -0.2750  0.2057 -0.7406
   96MPD2    C1 1464   4.297   0.226  15.654 -0.0549 -0.3163  0.3580
   96MPD2    C2 1465   4.284   0.100  15.712 -0.5188 -0.7896  0.5155
   96MPD2    C3 1466   4.156   0.057  15.751  0.1242 -0.2100 -0.2298
   96MPD2    C4 1467   4.052   0.147  15.740  0.4810 -0.2364  0.2698
   96MPD2    C5 1468   4.070   0.274  15.692 -0.5144 -0.1578  0.1078
   96MPD2     H 1469   4.368   0.031  15.709 -0.7654 -1.1081  1.0495
   96MPD2    H1 1470   3.951   0.115  15.760  0.0237  0.8792 -0.3119
   96MPD2    H2 1471   4.192   0.407  15.593  1.7991  1.0591  0.7518
   96MPD2    H3 1472   3.983   0.335  15.671  0.4372  1.1238 -0.1129
   96MPD2     N 1473   4.126   4.659  15.823  0.0247  0.4560 -0.5211
   96MPD2    H5 1474   4.032   4.654  15.863 -1.2956  0.9738 -3.5535
   96MPD2    N1 1475   4.422   0.273  15.602  0.0918 -0.3358 -0.1706
   96MPD2    H7 1476   4.420   0.355  15.541  0.9010 -1.9120 -2.2976
   97MPD2     C 1477   2.153   2.082   1.816  0.6884  0.2894 -0.5405
   97MPD2    C1 1478   2.115   2.158   1.710  0.5643 -0.1836  0.7205
   97MPD2    C2 1479   2.124   2.103   1.583  0.7014 -0.3164 -0.4250
   97MPD2    C3 1480   2.172   1.972   1.562  0.1227 -0.3937  0.5009
   97MPD2    C4 1481   2.207   1.891   1.676 -0.9701 -0.1279  0.4063
   97MPD2    C5 1482   2.194   1.947   1.800  0.5881 -0.5041  1.1962
   97MPD2     H 1483   2.101   2.163   1.495  0.2184  1.6531  1.0589
   97MPD2    H1 1484   2.219   1.784   1.664 -1.0679 -0.4325  2.9647
   97MPD2    H2 1485   2.149   2.126   1.915  0.4151 -1.0910  0.0693
   97MPD2    H3 1486   2.212   1.879   1.882 -1.8886 -2.0283  0.4693
   97MPD2     N 1487   2.188   1.905   1.439  0.7133  0.0504  0.1137
   97MPD2    H5 1488   2.225   1.811   1.442 -1.3100 -0.7547  0.1356
   97MPD2    N1 1489   2.073   2.288   1.746 -0.7352  0.6310  0.1148
   97MPD2    H7 1490   2.072   2.318   1.843  3.1755  1.8123 -0.2338
   98TCq2    C1 1491   2.154   1.961   1.316  0.8571  0.1932 -0.8533
   98TCq2    O2 1492   2.144   2.079   1.286  0.4586 -0.4448 -0.2471
   98TCq2    C2 1493   2.134   1.857   1.209 -0.5485 -0.0719  0.0835
   98TCq2    C3 1494   2.095   1.734   1.244 -0.5338 -0.4995 -0.2384
   98TCq2    C4 1495   2.058   1.643   1.150 -0.2698  0.5105  0.1586
   98TCq2    C5 1496   2.063   1.678   1.018 -0.1130  0.6265 -0.2837
   98TCq2    C6 1497   2.094   1.811   0.991  0.5348  0.0646 -0.6047
   98TCq2    C7 1498   2.125   1.903   1.083 -0.6782 -0.0737 -0.5227
   98TCq2    C8 1499   2.112   1.852   0.854  0.8958  0.9676 -0.1079
   98TCq2    O4 1500   2.184   1.951   0.834  0.2395  0.2654 -0.7543
   98TCq2    C9 1501   2.042   1.506   1.182  0.1208 -0.1768 -1.0820
   98TCq2    O5 1502   1.981   1.485   1.294  0.4341  0.0511  0.4173
   98TCq2    O6 1503   2.050   1.424   1.082 -0.5204 -0.0378 -0.7414
   98TCq2    H2 1504   2.089   1.703   1.348 -0.1501 -0.0983 -0.0935
   98TCq2    H3 1505   2.035   1.604   0.944  1.2665 -1.4572  1.2814
   98TCq2    H4 1506   2.115   2.008   1.056 -1.2496  0.4757  1.7780
   99MPD2     C 1507   0.250   3.929   1.175  1.0120  0.2302  0.6638
   99MPD2    C1 1508   0.355   3.937   1.263  0.1226 -0.1470 -0.5937
   99MPD2    C2 1509   0.474   3.895   1.216  0.7950 -1.2992 -0.1660
   99MPD2    C3 1510   0.503   3.857   1.085 -0.0347 -0.4618  0.9363
   99MPD2    C4 1511   0.400   3.858   0.999 -0.5022 -0.1286  0.1834
   99MPD2    C5 1512   0.273   3.889   1.049  0.2328  0.0781  0.1869
   99MPD2     H 1513   0.564   3.890   1.276 -1.0409 -1.7301  2.5084
   99MPD2    H1 1514   0.420   3.835   0.895 -0.5297  2.2230 -0.3414
   99MPD2    H2 1515   0.149   3.951   1.206 -0.1192 -1.4791 -1.9147
   99MPD2    H3 1516   0.186   3.881   0.986  1.4057  1.1458 -1.5722
   99MPD2     N 1517   0.634   3.830   1.048 -0.3959 -0.2087  0.3487
   99MPD2    H5 1518   0.695   3.820   1.128  1.0889 -2.9753 -1.1250
   99MPD2    N1 1519   0.351   3.985   1.397  0.2344  0.8796 -0.1648
   99MPD2    H7 1520   0.434   3.997   1.454 -1.1589 -2.2812  2.5779
  100TCq2    C1 1521   0.238   4.037   1.459 -0.6577 -0.1312 -0.5944
  100TCq2    O2 1522   0.121   4.033   1.423  0.3138  0.9691 -0.1384
  100TCq2    C2 1523   0.260   4.061   1.597  0.1510 -0.3360 -0.1704
  100TCq2    C3 1524   0.356   4.009   1.669  0.2326 -0.1505 -0.4452
  100TCq2    C4 1525   0.376   4.052   1.799 -0.5014  0.1137 -0.2515
  100TCq2    C5 1526   0.281   4.132   1.868  0.1853 -0.3755 -0.3199
  100TCq2    C6 1527   0.184   4.179   1.791  0.1059  0.2297  0.1255
  100TCq2    C7 1528   0.163   4.136   1.661 -0.0734  0.2754  0.3694
  100TCq2    C8 1529   0.112   4.301   1.839  0.2014  0.3761 -0.2313
  100TCq2    O4 1530   0.161   4.365   1.933 -0.3490  0.7098 -0.1449
  100TCq2    C9 1531   0.472   3.985   1.875  0.2053 -0.4490  1.0292
  100TCq2    O5 1532   0.482   4.020   1.998 -0.9704  0.0016 -0.3963
  100TCq2    O6 1533   0.519   3.878   1.830 -0.2723  0.0122 -0.4714
  100TCq2    H2 1534   0.431   3.940   1.633  1.8542  1.9288 -1.0409
  100TCq2    H3 1535   0.293   4.154   1.974  0.3782 -0.6046 -0.2954
  100TCq2    H4 1536   0.084   4.179   1.601 -0.4947  1.7247  1.9950
  101MPD2     C 1537   0.861   0.326  13.138 -0.0897 -0.3947 -0.3469
  101MPD2    C1 1538   0.804   0.393  13.238 -0.2362  0.0756 -0.3878
  101MPD2    C2 1539   0.707   0.325  13.320  0.1197 -0.3831 -0.1342
  101MPD2    C3 1540   0.690   0.188  13.307  0.1607 -0.4040 -0.1349
  101MPD2    C4 1541   0.742   0.127  13.195 -0.6801 -0.0285  0.3403
  101MPD2    C5 1542   0.831   0.198  13.118 -0.1223  0.8156 -0.2652
  101MPD2     H 1543   0.652   0.369  13.401 -0.1986  1.5204 -1.3837
  101MPD2    H1 1544   0.715   0.027  13.165 -1.6423  0.2684  0.2075
  101MPD2    H2 1545   0.936   0.369  13.073 -0.3447  0.1960 -0.2464
  101MPD2    H3 1546   0.881   0.144  13.038 -0.2960  0.3191 -0.0311
  101MPD2     N 1547   0.593   0.132  13.392  0.0948  0.0021 -0.1898
  101MPD2    H5 1548   0.548   0.194  13.459  3.4444  1.8416  0.3346
  101MPD2    N1 1549   0.848   0.526  13.262 -0.2109  0.1342  0.1568
  101MPD2    H7 1550   0.913   0.570  13.198 -1.4580  1.5991 -0.0943
  102TCq2    C1 1551   1.058   0.977  13.198 -0.1717 -0.2141 -0.0996
  102TCq2    O2 1552   1.063   0.925  13.089  0.3107  0.2795  0.1008
  102TCq2    C2 1553   1.019   0.887  13.307  0.3459  0.2617  0.8797
  102TCq2    C3 1554   1.026   0.938  13.435 -0.2531  0.6681  0.2138
  102TCq2    C4 1555   0.969   0.884  13.543 -0.4660  0.5359 -0.0267
  102TCq2    C5 1556   0.900   0.768  13.524  0.3186 -0.4153  0.4947
  102TCq2    C6 1557   0.899   0.706  13.395  0.1655  0.1076 -0.3991
  102TCq2    C7 1558   0.946   0.774  13.284 -0.1573  0.0431  0.9372
  102TCq2    C8 1559   0.822   0.586  13.379  0.9175 -0.2328 -0.0923
  102TCq2    O4 1560   0.756   0.551  13.478  0.1905  0.3668  0.0623
  102TCq2    C9 1561   0.973   0.956  13.671  0.6974 -0.4269 -0.0750
  102TCq2    O5 1562   1.040   1.061  13.678  0.1941 -0.2235  1.0149
  102TCq2    O6 1563   0.883   0.927  13.752 -0.3286  0.5935 -0.6175
  102TCq2    H2 1564   1.093   1.019  13.459  1.1817 -0.0617 -1.3216
  102TCq2    H3 1565   0.846   0.729  13.609 -0.4290 -0.4957 -0.0208
  102TCq2    H4 1566   0.932   0.756  13.178  2.0216  0.9181  0.4993
  103TMC2    C1 1567   3.383   0.949  12.337  0.3074 -0.2529 -0.0894
  103TMC2    C2 1568   3.374   1.079  12.296  0.6861 -0.6303  0.3173
  103TMC2    C3 1569   3.346   1.168  12.398  0.7440 -0.3511  0.2643
  103TMC2    C4 1570   3.364   0.909  12.467 -0.2390  0.0238 -0.0292
  103TMC2    C5 1571   3.343   1.009  12.559 -0.6384  0.6314  0.2276
  103TMC2    C6 1572   3.334   1.138  12.528 -0.3524 -1.1351  0.7614
  103TMC2     C 1573   3.386   0.845  12.239  0.2361  0.1651 -0.4175
  103TMC2     O 1574   3.325   0.865  12.132 -0.2948  0.1089 -0.1874
  103TMC2     H 1575   3.361   1.109  12.192  0.5439 -0.7577  0.2976
  103TMC2    H1 1576   3.376   0.807  12.501 -0.9976  0.0255  0.2532
  103TMC2    H2 1577   3.334   1.217  12.602  2.5939 -0.2871 -0.1406
  103TMC2    C7 1578   3.380   0.986  12.698  0.3667 -0.0166 -0.3909
  103TMC2    C8 1579   3.343   1.309  12.377 -0.4696  0.2128  0.2185
  103TMC2    O1 1580   3.420   0.877  12.726 -0.1627  0.2911 -0.2704
  103TMC2    O2 1581   3.259   1.379  12.434  0.4017 -0.1252 -0.0418
  103TMC2    O5 1582   3.463   1.358  12.335 -0.2554  0.0145  0.6532
  103TMC2    H5 1583   3.532   1.296  12.305  0.2934 -0.9009  3.9021
  104MPD2     C 1584   3.539   0.514  12.271 -0.0900  0.6580  0.0931
  104MPD2    C1 1585   3.449   0.604  12.229  0.4913  0.0783  0.1497
  104MPD2    C2 1586   3.347   0.564  12.146  0.0341  0.1517 -0.0931
  104MPD2    C3 1587   3.341   0.436  12.101 -0.1846 -0.8024 -0.0124
  104MPD2    C4 1588   3.436   0.350  12.131  0.1344  0.3424 -0.6637
  104MPD2    C5 1589   3.530   0.388  12.228  1.1026 -0.3570  0.7950
  104MPD2     H 1590   3.274   0.638  12.115 -1.3500 -0.7762  0.9930
  104MPD2    H1 1591   3.434   0.248  12.094  1.8813  1.0457 -2.7353
  104MPD2    H2 1592   3.616   0.545  12.341  0.0080 -1.1432  0.7682
  104MPD2    H3 1593   3.602   0.318  12.268  0.6444 -0.2688  1.7731
  104MPD2     N 1594   3.227   0.408  12.024 -0.1870 -0.3782  0.4264
  104MPD2    H5 1595   3.167   0.484  11.995  2.2950  1.7755  0.8352
  104MPD2    N1 1596   3.455   0.736  12.282  0.5202  0.2164 -0.2818
  104MPD2    H7 1597   3.517   0.758  12.359  3.2060 -6.1977 -0.6573
  105MPD2     C 1598   0.970   4.551   0.351 -0.1169  0.1200  0.0842
  105MPD2    C1 1599   0.943   4.681   0.322 -0.1483 -0.1651  0.1671
  105MPD2    C2 1600   0.872   0.025   0.422  0.7201  0.3038  0.1499
  105MPD2    C3 1601   0.827   4.690   0.542 -0.2641 -0.8037 -0.2518
  105MPD2    C4 1602   0.859   4.558   0.571 -0.2814  0.2922 -0.7528
  105MPD2    C5 1603   0.941   4.498   0.473 -0.3485 -0.3665  0.0593
  105MPD2     H 1604   0.841   0.124   0.390  0.4354  0.4818  0.9825
  105MPD2    H1 1605   0.847   4.511   0.667  1.2003 -0.1622 -0.7944
  105MPD2    H2 1606   1.028   4.483   0.289  0.0462  1.5256 -1.3110
  105MPD2    H3 1607   0.979   4.398   0.490 -0.8429 -0.4930  0.4320
  105MPD2     N 1608   0.745   0.044   0.634 -0.3737  0.1221  0.1832
  105MPD2    H5 1609   0.712   0.135   0.601 -0.1022  0.4246  0.7492
  105MPD2    N1 1610   0.985   0.028   0.201 -0.1521 -0.4380 -0.5552
  105MPD2    H7 1611   0.969   0.128   0.192  0.4375 -0.1690  1.3632
  106TCq2    C1 1612   0.711   0.013   0.759 -0.4176  0.4856 -0.5295
  106TCq2    O2 1613   0.741   4.638   0.828 -0.5672  0.5860 -0.2527
  106TCq2    C2 1614   0.631   0.109   0.829  0.3941  0.0756  0.1170
  106TCq2    C3 1615   0.536   0.176   0.763 -0.4002  0.4336 -0.4093
  106TCq2    C4 1616   0.452   0.252   0.835  0.4795 -0.3494 -0.5630
  106TCq2    C5 1617   0.476   0.284   0.964  0.0793 -0.3232  0.3695
  106TCq2    C6 1618   0.576   0.223   1.026  0.3996  0.0356 -0.1759
  106TCq2    C7 1619   0.651   0.126   0.963 -0.3437  0.3315  0.2661
  106TCq2    C8 1620   0.610   0.242   1.164 -0.0551  0.1109 -0.1528
  106TCq2    O4 1621   0.733   0.241   1.186 -0.4230  0.0828 -0.1726
  106TCq2    C9 1622   0.349   0.322   0.760  0.1362  0.3625  0.0776
  106TCq2    O5 1623   0.284   0.398   0.836 -0.0692 -0.3766 -0.5814
  106TCq2    O6 1624   0.373   0.331   0.634 -0.2471  0.6248 -0.0394
  106TCq2    H2 1625   0.509   0.158   0.659  1.0591  2.0856 -1.0735
  106TCq2    H3 1626   0.422   0.358   1.022  0.7553  0.4531  0.0132
  106TCq2    H4 1627   0.726   0.069   1.016 -0.7236 -0.6152 -0.2107
  107TMC2    C1 1628   0.797   4.098  12.013  1.3884 -0.6347  0.1980
  107TMC2    C2 1629   0.841   4.150  11.890 -0.0105  0.3862  0.1653
  107TMC2    C3 1630   0.891   4.053  11.803  0.8943  0.0516  0.3737
  107TMC2    C4 1631   0.808   3.964  12.050  0.0967  0.8533 -0.2829
  107TMC2    C5 1632   0.869   3.882  11.965  0.2568 -0.0130  0.2927
  107TMC2    C6 1633   0.906   3.920  11.836  0.1746  0.2613  0.1356
  107TMC2     C 1634   0.732   4.185  12.105 -0.2797 -0.9659  0.1292
  107TMC2     O 1635   0.673   4.137  12.204 -0.1268 -0.1352  0.3417
  107TMC2     H 1636   0.832   4.254  11.864 -1.4089  0.4152  0.7697
  107TMC2    H1 1637   0.778   3.934  12.149 -2.5034  0.0584 -1.3324
  107TMC2    H2 1638   0.928   3.854  11.753 -2.9055  0.8627 -1.1835
  107TMC2    C7 1639   0.897   3.756  12.009  0.4300 -0.4513  0.4198
  107TMC2    C8 1640   0.932   4.097  11.676  0.3611 -0.7501  0.0117
  107TMC2    O1 1641   0.890   3.732  12.130 -0.1703 -0.4737  0.6553
  107TMC2    O2 1642   0.922   4.033  11.577  0.1191  0.2202  0.1500
  107TMC2    O5 1643   0.998   4.216  11.697  0.2448  0.0070 -0.5051
  107TMC2    H5 1644   0.999   4.218  11.795  3.6542  1.9244 -0.5724
  108MPD2     C 1645   0.741   4.548  12.122  0.3401  0.9140 -0.0248
  108MPD2    C1 1646   0.715   4.423  12.166 -0.5437  0.8576 -0.1917
  108MPD2    C2 1647   0.644   4.409  12.283 -0.8952 -0.6804 -0.6745
  108MPD2    C3 1648   0.576   4.508  12.347  0.3453 -0.2063  0.4979
  108MPD2    C4 1649   0.599   4.634  12.296  0.1892 -0.9956  0.9609
  108MPD2    C5 1650   0.680   4.645  12.190 -0.1827  0.2015  0.4003
  108MPD2     H 1651   0.619   4.313  12.327  1.9318 -1.9248 -1.8371
  108MPD2    H1 1652   0.569   0.003  12.343  0.9079  0.0317 -0.6295
  108MPD2    H2 1653   0.806   4.581  12.042 -1.7237  1.8978 -1.3069
  108MPD2    H3 1654   0.709   0.024  12.170 -0.4038  0.1841 -0.0109
  108MPD2     N 1655   0.501   4.482  12.467  0.1300  0.8886  0.2873
  108MPD2    H5 1656   0.509   4.387  12.502  0.9517  0.9464  0.2472
  108MPD2    N1 1657   0.759   4.317  12.086 -0.2039  0.0336 -0.6841
  108MPD2    H7 1658   0.812   4.343  12.003 -3.0978 -0.7957 -2.8137
  109MPD2     C 1659   0.903   1.613   1.497 -0.2483 -1.0483  0.3080
  109MPD2    C1 1660   0.860   1.597   1.624  0.0015 -0.1017 -0.3478
  109MPD2    C2 1661   0.854   1.708   1.704  0.2101  0.0672 -0.1547
  109MPD2    C3 1662   0.912   1.829   1.672 -0.6298 -1.1483  0.0792
  109MPD2    C4 1663   0.971   1.836   1.546  0.5673  0.4846  0.8268
  109MPD2    C5 1664   0.961   1.727   1.459  0.5767 -0.5557  0.4735
  109MPD2     H 1665   0.827   1.697   1.808  1.7696  1.2347  0.3743
  109MPD2    H1 1666   1.023   1.917   1.496  1.7847 -0.3123  0.7973
  109MPD2    H2 1667   0.892   1.523   1.437  0.0674 -0.9468  0.0997
  109MPD2    H3 1668   0.997   1.732   1.357 -3.0451 -2.3634 -0.8965
  109MPD2     N 1669   0.934   1.925   1.769 -0.1292 -0.7346 -0.1564
  109MPD2    H5 1670   0.909   1.901   1.865  1.2463 -0.0319  0.3896
  109MPD2    N1 1671   0.824   1.469   1.668 -0.0724 -0.6879 -0.0621
  109MPD2    H7 1672   0.848   1.388   1.611  0.2858 -0.8961  0.3837
  110TCq2    C1 1673   0.976   2.048   1.742 -0.3711 -0.8531 -0.4308
  110TCq2    O2 1674   1.050   2.083   1.653  0.3243  0.0799 -0.0347
  110TCq2    C2 1675   0.992   2.131   1.865  0.4819  0.1163  0.1101
  110TCq2    C3 1676   0.902   2.107   1.971 -0.2894  0.5965  0.0454
  110TCq2    C4 1677   0.933   2.157   2.097  0.3090 -0.0327  0.9463
  110TCq2    C5 1678   1.040   2.237   2.115 -0.0306  0.3654  1.1216
  110TCq2    C6 1679   1.134   2.238   2.018 -0.0257  0.1027  0.4198
  110TCq2    C7 1680   1.112   2.182   1.895  0.2715  0.1999 -0.3071
  110TCq2    C8 1681   1.261   2.315   2.027 -0.0373 -0.5219 -0.7851
  110TCq2    O4 1682   1.353   2.293   1.947 -0.1560  0.0473  0.1204
  110TCq2    C9 1683   0.856   2.132   2.208  0.0642  0.4956 -0.0820
  110TCq2    O5 1684   0.899   2.177   2.315  0.4041  0.3530 -0.3346
  110TCq2    O6 1685   0.741   2.074   2.202  0.4215  0.7302  0.5521
  110TCq2    H2 1686   0.811   2.049   1.963  1.5269 -2.4756  1.9635
  110TCq2    H3 1687   1.062   2.278   2.212  2.0022 -3.4687  2.3111
  110TCq2    H4 1688   1.185   2.188   1.815  0.2558  1.4462 -0.2345
  111TMC2    C1 1689   0.383   1.604  12.382 -0.0109  0.2234 -0.6456
  111TMC2    C2 1690   0.343   1.657  12.504 -1.3635  0.0435 -0.2766
  111TMC2    C3 1691   0.405   1.598  12.612  0.2669 -0.8184  0.0426
  111TMC2    C4 1692   0.467   1.499  12.371 -0.7771 -0.4893  0.1704
  111TMC2    C5 1693   0.519   1.441  12.485 -0.2147 -0.6128 -0.0076
  111TMC2    C6 1694   0.490   1.493  12.612  0.3475  0.0402  0.2565
  111TMC2     C 1695   0.317   1.644  12.255  0.4483 -0.9830  0.3759
  111TMC2     O 1696   0.347   1.581  12.155  0.0129  0.1161 -0.0469
  111TMC2     H 1697   0.283   1.746  12.519 -0.3610  0.3539  1.8474
  111TMC2    H1 1698   0.476   1.450  12.274  1.6236 -0.9873  0.6279
  111TMC2    H2 1699   0.520   1.445  12.704  1.7228 -0.9005 -0.6821
  111TMC2    C7 1700   0.632   1.348  12.473  0.2153  0.1459  0.8208
  111TMC2    C8 1701   0.407   1.683  12.730  0.1613  0.1366 -0.4062
  111TMC2    O1 1702   0.705   1.340  12.571 -0.2092  0.1750 -0.8974
  111TMC2    O2 1703   0.330   1.779  12.744  0.3196 -0.0162 -0.6188
  111TMC2    O5 1704   0.523   1.666  12.790 -0.2850  0.5027 -0.2280
  111TMC2    H5 1705   0.593   1.614  12.745  0.4227 -0.2430  1.7456
  112MPD2     C 1706   0.015   1.938  11.961 -0.5105 -0.3127  0.6768
  112MPD2    C1 1707   0.103   1.840  11.926  0.1897  0.3187 -0.6811
  112MPD2    C2 1708   0.171   1.765  12.021  0.0913  0.7654 -0.2721
  112MPD2    C3 1709   0.137   1.789  12.154 -0.6891 -0.3892  0.8155
  112MPD2    C4 1710   0.034   1.873  12.186 -0.1306  0.6565 -0.1720
  112MPD2    C5 1711   4.704   1.952  12.089  1.3168 -0.3487 -0.8655
  112MPD2     H 1712   0.244   1.692  11.989 -0.6124  0.7777 -1.9085
  112MPD2    H1 1713   0.012   1.868  12.292  1.2840  0.7439  0.1263
  112MPD2    H2 1714   4.679   1.997  11.893  0.3710 -0.0333  0.1449
  112MPD2    H3 1715   4.635   2.034  12.107  1.7760 -0.4526  1.3035
  112MPD2     N 1716   0.201   1.723  12.263  0.0361 -0.1210 -0.0319
  112MPD2    H5 1717   0.173   1.754  12.355 -2.0047  1.0790 -1.0695
  112MPD2    N1 1718   0.131   1.816  11.792  0.6834  0.5416 -0.0383
  112MPD2    H7 1719   0.202   1.747  11.766 -0.4442 -0.2657 -0.9699
  113MPD2     C 1720   4.551   4.220   1.394  0.1744 -0.4131 -0.0751
  113MPD2    C1 1721   4.470   4.337   1.384 -0.1670 -0.4382 -0.5326
  113MPD2    C2 1722   4.348   4.327   1.330  0.6823  0.1349 -0.3164
  113MPD2    C3 1723   4.300   4.205   1.286 -0.5183  0.7774  0.0099
  113MPD2    C4 1724   4.380   4.096   1.291  0.3461 -0.2760  0.4197
  113MPD2    C5 1725   4.507   4.098   1.335 -0.3466 -0.7854 -0.4911
  113MPD2     H 1726   4.287   4.416   1.339 -2.8825 -2.4549  1.6245
  113MPD2    H1 1727   4.338   4.000   1.264  0.4849  0.1393 -1.2721
  113MPD2    H2 1728   4.650   4.220   1.438  0.3253  1.3137 -0.4001
  113MPD2    H3 1729   4.576   4.015   1.334 -0.0888 -0.5674 -1.3285
  113MPD2     N 1730   4.172   4.186   1.240  0.1842  0.5478 -0.2508
  113MPD2    H5 1731   4.144   4.090   1.227 -1.1451  0.9203 -0.1365
  113MPD2    N1 1732   4.511   4.457   1.450  0.0363  0.0747  0.1490
  113MPD2    H7 1733   4.442   4.530   1.467 -0.1865 -0.5229  1.7804
  114TCq2    C1 1734   4.069   4.279   1.230 -0.0099  0.0325 -0.2099
  114TCq2    O2 1735   4.062   4.394   1.274 -0.2888 -0.3145 -0.4892
  114TCq2    C2 1736   3.962   4.224   1.160 -0.3261 -0.6610 -0.5512
  114TCq2    C3 1737   3.850   4.300   1.172  0.0406  0.0348 -0.9947
  114TCq2    C4 1738   3.743   4.259   1.095 -0.1435  0.3300  0.0073
  114TCq2    C5 1739   3.748   4.158   1.008 -0.3081 -0.1982  1.1855
  114TCq2    C6 1740   3.862   4.084   1.001 -0.1343  0.2428  0.4363
  114TCq2    C7 1741   3.971   4.118   1.075  0.0312  0.1512 -0.2445
  114TCq2    C8 1742   3.881   3.961   0.919  0.9089  0.2130 -1.0358
  114TCq2    O4 1743   3.987   3.931   0.874 -0.1601 -0.1343 -0.1359
  114TCq2    C9 1744   3.623   4.329   1.111  0.3248 -0.1188 -0.5355
  114TCq2    O5 1745   3.531   4.303   1.029  0.0665  0.4267  0.8849
  114TCq2    O6 1746   3.604   4.415   1.202 -0.6177 -0.5382  0.3579
  114TCq2    H2 1747   3.838   4.388   1.234 -2.1223 -0.7009 -0.3413
  114TCq2    H3 1748   3.666   4.120   0.949  0.2719  0.4465 -0.0433
  114TCq2    H4 1749   4.064   4.063   1.075  0.1646  0.3783 -0.4585
  115TMC2    C1 1750   0.034   1.797   0.092 -0.5283 -0.1700  0.1686
  115TMC2    C2 1751   0.172   1.767   0.069  0.2155  0.1913 -0.4737
  115TMC2    C3 1752   0.256   1.878   0.070  0.6109  1.0544  0.7207
  115TMC2    C4 1753   4.716   1.922   0.116 -0.4017  0.3168 -0.1242
  115TMC2    C5 1754   0.083   2.026   0.105  0.0228  0.3867 -0.2488
  115TMC2    C6 1755   0.219   2.010   0.085 -0.2116 -0.2576 -0.2402
  115TMC2     C 1756   4.660   1.689   0.084 -0.1022 -0.4202  0.5048
  115TMC2     O 1757   4.716   1.592   0.036 -0.2169  0.8463 -0.6360
  115TMC2     H 1758   0.206   1.667   0.044 -1.6290 -0.7547  0.7840
  115TMC2    H1 1759   4.610   1.947   0.111 -0.8040 -1.8153 -2.1349
  115TMC2    H2 1760   0.293   2.089   0.083 -0.0240 -0.4938 -2.4147
  115TMC2    C7 1761   0.018   2.156   0.087  0.0923  0.1727  0.4071
  115TMC2    C8 1762   0.398   1.848   0.048 -0.7253 -0.5473 -0.3271
  115TMC2    O1 1763   4.635   2.170   0.144 -0.3637  0.0680 -0.1720
  115TMC2    O2 1764   0.480   1.927   0.012 -0.4854  0.0659  0.2177
  115TMC2    O5 1765   0.421   1.747   0.130 -0.0002 -0.1108  0.3064
  115TMC2    H5 1766   0.351   1.694   0.173  0.0953 -0.0010  0.5951
  116MPD2     C 1767   4.201   1.495  17.673  0.3228 -0.0947  0.8067
  116MPD2    C1 1768   4.329   1.456  17.637 -0.1139 -0.1454  0.2635
  116MPD2    C2 1769   4.439   1.514  17.694 -0.1395  0.7771  0.0357
  116MPD2    C3 1770   4.417   1.628   0.075  0.1704 -0.1021 -0.6671
  116MPD2    C4 1771   4.295   1.669   0.106 -0.3331  0.2960 -0.0775
  116MPD2    C5 1772   4.185   1.603   0.061  0.0307 -0.5245  0.1534
  116MPD2     H 1773   4.540   1.487  17.665 -0.2134  1.9477 -1.3525
  116MPD2    H1 1774   4.290   1.758   0.167 -0.0698 -0.0823  0.5003
  116MPD2    H2 1775   4.111   1.446  17.637 -0.3694  0.1675  2.1821
  116MPD2    H3 1776   4.086   1.638   0.089 -0.1633 -2.1531  1.4809
  116MPD2     N 1777   4.525   1.711   0.116  0.1129  0.5978  0.1609
  116MPD2    H5 1778   4.504   1.798   0.163 -0.8673  2.0548 -2.9189
  116MPD2    N1 1779   4.353   1.357  17.542  0.2983 -0.5369  0.5901
  116MPD2    H7 1780   4.266   1.312  17.514 -0.9774  1.2376  1.7468
  117TMC2    C1 1781   3.432   3.722  14.337 -0.8282  0.1254  0.2447
  117TMC2    C2 1782   3.529   3.644  14.403  0.1544 -0.6099  0.0975
  117TMC2    C3 1783   3.653   3.707  14.428  0.2685 -0.3350  0.5730
  117TMC2    C4 1784   3.461   3.836  14.269  0.2975 -0.2694 -0.4764
  117TMC2    C5 1785   3.585   3.891  14.298 -0.0922 -0.3801 -0.6264
  117TMC2    C6 1786   3.685   3.828  14.372 -0.3378 -0.7260  0.0390
  117TMC2     C 1787   3.320   3.647  14.289  0.0749 -0.3949 -0.1069
  117TMC2     O 1788   3.335   3.525  14.298  0.6174 -0.1992  0.1118
  117TMC2     H 1789   3.508   3.547  14.446  2.2937 -1.8766 -1.7266
  117TMC2    H1 1790   3.390   3.909  14.229  0.1608  1.7240  3.3560
  117TMC2    H2 1791   3.781   3.874  14.389 -1.7468  1.9770  0.5779
  117TMC2    C7 1792   3.613   4.027  14.234  0.0699 -0.1874 -0.4095
  117TMC2    C8 1793   3.744   3.645  14.528  0.2399 -0.3721  0.1035
  117TMC2    O1 1794   3.701   4.091  14.281  0.1818  0.2429  0.1390
  117TMC2    O2 1795   3.703   3.560  14.609  0.3630  0.1172  0.0978
  117TMC2    O5 1796   3.872   3.687  14.514  0.1449  0.0525 -0.3950
  117TMC2    H5 1797   3.893   3.752  14.443 -2.0935  0.0111 -1.0872
  118MPD2     C 1798   3.571   4.099  13.883  0.3193 -1.1690  0.3154
  118MPD2    C1 1799   3.618   4.121  14.007 -0.2310 -0.1833  0.6076
  118MPD2    C2 1800   3.722   4.212  14.020  0.4528  0.3263  0.4542
  118MPD2    C3 1801   3.777   4.274  13.909  0.1162  0.6861  0.4138
  118MPD2    C4 1802   3.730   4.238  13.783 -0.1525 -0.4059  0.1110
  118MPD2    C5 1803   3.618   4.161  13.770 -0.3234 -0.4295  0.7417
  118MPD2     H 1804   3.756   4.239  14.120  0.5543 -3.2318  1.3623
  118MPD2    H1 1805   3.770   4.278  13.691 -1.3722  0.1560 -0.1732
  118MPD2    H2 1806   3.496   4.022  13.866  0.9262 -1.4778 -0.9766
  118MPD2    H3 1807   3.572   4.136  13.675  0.6462 -1.4097  0.5258
  118MPD2     N 1808   3.881   4.362  13.922  0.1874  0.3786 -0.0886
  118MPD2    H5 1809   3.897   4.422  13.842 -2.6681  0.9886 -0.1817
  118MPD2    N1 1810   3.563   4.040  14.112 -0.6209  0.3459  0.2949
  118MPD2    H7 1811   3.502   3.967  14.076  0.8224 -1.2386  1.0262
  119MPD2     C 1812   1.849   0.545  14.062 -0.3848  0.1156  0.2581
  119MPD2    C1 1813   1.709   0.547  14.038  0.3468  0.2333 -0.1005
  119MPD2    C2 1814   1.664   0.486  13.923 -0.4727 -0.0889 -0.2905
  119MPD2    C3 1815   1.752   0.434  13.836 -0.0561  0.4485  0.6414
  119MPD2    C4 1816   1.887   0.441  13.858  0.0214 -0.5202 -0.7961
  119MPD2    C5 1817   1.937   0.490  13.972 -0.1911 -0.4757 -0.5344
  119MPD2     H 1818   1.557   0.492  13.908 -0.8159 -2.0479  1.3399
  119MPD2    H1 1819   1.957   0.387  13.795  0.4754 -0.6527 -0.1776
  119MPD2    H2 1820   1.893   0.582  14.154  2.2505 -0.6446 -0.6854
  119MPD2    H3 1821   2.039   0.467  14.000 -0.5321 -0.2851  0.8409
  119MPD2     N 1822   1.718   0.365  13.716  0.2209  0.8195 -0.3568
  119MPD2    H5 1823   1.793   0.324  13.661 -0.5544 -0.0667 -0.7457
  119MPD2    N1 1824   1.620   0.604  14.130  0.4204 -0.5576 -0.6097
  119MPD2    H7 1825   1.666   0.623  14.218  0.2655 -0.6431 -0.5116
  120TCq2    C1 1826   1.597   0.333  13.673 -0.7614 -0.9341  0.1407
  120TCq2    O2 1827   1.490   0.353  13.732 -0.3539 -0.1230  0.0798
  120TCq2    C2 1828   1.595   0.252  13.555 -0.6741 -0.1366  0.6319
  120TCq2    C3 1829   1.698   0.263  13.466  0.5949  0.3335  0.9494
  120TCq2    C4 1830   1.691   0.192  13.349 -0.1853 -0.3852 -0.0723
  120TCq2    C5 1831   1.589   0.106  13.318 -0.1714 -0.8104  0.5375
  120TCq2    C6 1832   1.491   0.092  13.418 -0.4554 -0.7265  0.7220
  120TCq2    C7 1833   1.493   0.164  13.534  0.4726 -0.2187  0.2142
  120TCq2    C8 1834   1.428   4.682  13.426  0.4410  0.1544  0.1982
  120TCq2    O4 1835   1.449   4.593  13.350  0.0395  0.3445  0.3507
  120TCq2    C9 1836   1.814   0.184  13.270 -0.1814  0.4263 -0.6900
  120TCq2    O5 1837   1.916   0.249  13.301 -0.4788 -0.0218 -0.0396
  120TCq2    O6 1838   1.803   0.100  13.181  0.3029 -0.0330 -0.0159
  120TCq2    H2 1839   1.785   0.324  13.489 -0.4973  3.1632 -2.5143
  120TCq2    H3 1840   1.578   0.050  13.226  1.4509 -0.5609  0.2008
  120TCq2    H4 1841   1.410   0.177  13.602  0.4707 -0.7359  0.3150
  121TMC2    C1 1842   3.339   1.487  13.824 -0.2256 -0.2823  0.0717
  121TMC2    C2 1843   3.379   1.416  13.712  0.2407 -0.3045  0.2411
  121TMC2    C3 1844   3.279   1.383  13.620  0.4742 -0.5439  0.2341
  121TMC2    C4 1845   3.206   1.498  13.857 -0.6918  0.1316  0.0657
  121TMC2    C5 1846   3.113   1.471  13.760 -0.2917  0.1650  0.5182
  121TMC2    C6 1847   3.149   1.412  13.643  0.0868  0.1642 -0.1528
  121TMC2     C 1848   3.428   1.582  13.885  0.2263 -0.2588  0.1485
  121TMC2     O 1849   3.413   1.606  14.002 -0.2076 -0.1117 -0.6071
  121TMC2     H 1850   3.485   1.407  13.691 -0.0567  0.0026 -1.3843
  121TMC2    H1 1851   3.186   1.543  13.953 -0.8724  0.8696 -0.3166
  121TMC2    H2 1852   3.072   1.380  13.575 -1.4363  2.4257  0.4922
  121TMC2    C7 1853   2.980   1.461  13.814  0.0678  0.6047 -0.8774
  121TMC2    C8 1854   3.320   1.289  13.515  0.1421 -0.1309 -0.1259
  121TMC2    O1 1855   2.965   1.366  13.891  0.3346 -0.4015 -0.2885
  121TMC2    O2 1856   3.435   1.242  13.509  0.1514 -0.0788 -0.2895
  121TMC2    O5 1857   3.241   1.319  13.411 -0.0732 -0.1879 -1.1895
  121TMC2    H5 1858   3.188   1.399  13.433  0.9110  0.3319 -0.7252
  122MPD2     C 1859   3.648   1.800  13.913 -0.4594  0.0629  0.9313
  122MPD2    C1 1860   3.592   1.751  13.792  0.0893 -0.2576 -0.2942
  122MPD2    C2 1861   3.625   1.809  13.674 -0.5678  0.2510  0.5003
  122MPD2    C3 1862   3.703   1.920  13.675  0.7822  0.2231 -0.7434
  122MPD2    C4 1863   3.756   1.968  13.793  0.2050  0.6250  0.0752
  122MPD2    C5 1864   3.732   1.912  13.913 -1.0630 -0.5684  0.3060
  122MPD2     H 1865   3.570   1.788  13.583  0.4668  2.4525 -0.6347
  122MPD2    H1 1866   3.801   2.066  13.802 -0.1629  0.9803 -1.8823
  122MPD2    H2 1867   3.624   1.760  14.011  1.5453 -1.1698  0.9046
  122MPD2    H3 1868   3.758   1.977  13.996  1.6494 -1.3112  0.0424
  122MPD2     N 1869   3.728   1.993  13.552  0.0451  0.2252  0.4213
  122MPD2    H5 1870   3.773   2.084  13.554  0.0969  0.1971  0.6457
  122MPD2    N1 1871   3.492   1.650  13.783  0.1731  0.3955  0.1119
  122MPD2    H7 1872   3.464   1.614  13.692 -0.2348 -0.0689  0.4178
  123MPD2     C 1873   0.206   0.059  10.109  0.1199 -0.4276  0.4104
  123MPD2    C1 1874   0.332   0.041  10.167 -0.0444 -0.5268  0.4918
  123MPD2    C2 1875   0.439   0.096  10.103 -0.3711  0.2011  0.5367
  123MPD2    C3 1876   0.421   0.160   9.982 -0.4503  1.1349 -0.3562
  123MPD2    C4 1877   0.293   0.188   9.935 -0.7164  0.8540  0.8076
  123MPD2    C5 1878   0.182   0.136   9.997  0.0926 -0.2045  0.6176
  123MPD2     H 1879   0.538   0.084  10.144 -0.3782  2.3128  1.1347
  123MPD2    H1 1880   0.264   0.252   9.853 -2.1939 -0.6795  0.1488
  123MPD2    H2 1881   0.120   0.002  10.143 -1.6130  2.6125  1.0973
  123MPD2    H3 1882   0.082   0.143   9.954 -0.1971  2.1275  1.6805
  123MPD2     N 1883   0.540   0.208   9.917 -0.1770 -0.2694 -0.0603
  123MPD2    H5 1884   0.629   0.190   9.961 -0.4762  0.0393  0.6856
  123MPD2    N1 1885   0.336   4.684  10.287 -0.0597  0.2236  0.6006
  123MPD2    H7 1886   0.246   4.671  10.331  0.0762  1.1605  1.1440
  124TCq2    C1 1887   0.543   0.291   9.802 -0.6696  0.7271  0.7329
  124TCq2    O2 1888   0.465   0.321   9.720  0.2054 -0.0980 -0.0769
  124TCq2    C2 1889   0.683   0.320   9.766  0.3166 -0.6460 -0.6828
  124TCq2    C3 1890   0.703   0.401   9.657 -0.4937 -1.0251 -0.5786
  124TCq2    C4 1891   0.831   0.453   9.634 -0.0602 -0.1298 -0.5647
  124TCq2    C5 1892   0.937   0.424   9.713  0.2111  0.7494  0.9314
  124TCq2    C6 1893   0.910   0.342   9.817 -0.5094 -1.0656 -0.3987
  124TCq2    C7 1894   0.785   0.301   9.860 -0.5577 -0.2827  0.7098
  124TCq2    C8 1895   1.010   0.262   9.886  0.3400 -0.1242  0.7004
  124TCq2    O4 1896   0.967   0.161   9.940  0.9922 -0.3510  0.7816
  124TCq2    C9 1897   0.860   0.525   9.515 -0.0689 -0.7473  0.0657
  124TCq2    O5 1898   0.776   0.531   9.421 -0.2774  0.0219  0.3429
  124TCq2    O6 1899   0.978   0.571   9.509 -0.3155  0.2973 -0.1771
  124TCq2    H2 1900   0.626   0.415   9.582 -0.4794  0.9749 -0.2212
  124TCq2    H3 1901   1.035   0.461   9.687  0.9522  0.8470  3.8311
  124TCq2    H4 1902   0.779   0.264   9.961 -0.1509 -1.9542  0.1281
  125TMC2    C1 1903   0.881   2.451   9.583  0.2335  0.1113  0.0186
  125TMC2    C2 1904   0.936   2.553   9.509 -0.3610  0.2593 -0.0132
  125TMC2    C3 1905   1.067   2.560   9.507 -0.0165  0.4526  0.1120
  125TMC2    C4 1906   0.960   2.353   9.643 -0.4415  0.2851  0.8378
  125TMC2    C5 1907   1.096   2.361   9.620  0.3470  0.1431  0.0783
  125TMC2    C6 1908   1.152   2.470   9.563  0.7071 -0.3637  0.2839
  125TMC2     C 1909   0.736   2.447   9.617 -0.2442 -0.0157 -0.1559
  125TMC2     O 1910   0.700   2.364   9.697  0.0815  0.3796 -0.2206
  125TMC2     H 1911   0.874   2.626   9.457  2.2997  1.1661 -1.9279
  125TMC2    H1 1912   0.914   2.262   9.681 -0.5194 -0.2233 -0.4705
  125TMC2    H2 1913   1.259   2.487   9.567  0.5083  0.8472  0.5225
  125TMC2    C7 1914   1.181   2.282   9.705 -0.3887  0.1522 -0.5910
  125TMC2    C8 1915   1.126   2.636   9.401 -0.2067  1.3181 -0.0523
  125TMC2    O1 1916   1.122   2.234   9.797 -0.4310 -0.2913  0.2687
  125TMC2    O2 1917   1.062   2.676   9.303 -0.3306 -0.4579 -0.1992
  125TMC2    O5 1918   1.224   2.712   9.460 -0.3540  0.3600 -0.0865
  125TMC2    H5 1919   1.232   2.700   9.557 -1.7628  3.1713  0.3783
  126MPD1     C 1920   0.251   2.599   9.560 -0.3257  0.4195  0.4637
  126MPD1    C1 1921   0.334   2.705   9.537 -0.3309  0.8115  0.3300
  126MPD1    C2 1922   0.472   2.688   9.536 -0.3487  0.0093  0.1753
  126MPD1    C3 1923   0.524   2.565   9.575 -0.3590 -0.3469  0.3660
  126MPD1    C4 1924   0.445   2.462   9.609  0.2217  0.2186  0.5200
  126MPD1    C5 1925   0.309   2.474   9.581  0.5185  0.3308 -0.3750
  126MPD1     H 1926   0.540   2.768   9.512 -2.7466  2.5153  1.6663
  126MPD1    H1 1927   0.483   2.364   9.638  0.0710 -0.9770 -3.2577
  126MPD1    H2 1928   0.142   2.603   9.561 -0.3000  0.9064  0.8947
  126MPD1    H3 1929   0.251   2.382   9.577  1.8041 -0.5458  1.0401
  126MPD1     N 1930   0.666   2.556   9.563  0.3742 -0.8506 -1.1110
  126MPD1    H5 1931   0.713   2.630   9.511  1.6408 -0.8818  0.0105
  126MPD1    N1 1932   0.282   2.823   9.496  0.3737  0.2550  0.3668
  126MPD1    H6 1933   0.337   2.901   9.531  0.8385  1.0011 -2.0611
  126MPD1    H7 1934   0.183   2.828   9.522  0.0209 -0.5561 -0.8269
  127MPD2     C 1935   2.839   0.716   9.068  0.1658  0.0886  0.3020
  127MPD2    C1 1936   2.903   0.765   9.180 -1.1815  0.4382  0.1866
  127MPD2    C2 1937   2.959   0.894   9.180  0.0896 -0.9627 -0.1305
  127MPD2    C3 1938   2.932   0.976   9.077  0.7103  0.2347  0.0941
  127MPD2    C4 1939   2.865   0.927   8.968 -0.1069  0.8757  0.0262
  127MPD2    C5 1940   2.826   0.795   8.961  0.6896 -0.3612 -0.2392
  127MPD2     H 1941   2.992   0.943   9.271 -0.7048 -1.1830  0.2738
  127MPD2    H1 1942   2.852   0.986   8.878  1.3433  1.6721  0.3397
  127MPD2    H2 1943   2.784   0.622   9.067 -2.4485  1.6399 -2.9338
  127MPD2    H3 1944   2.765   0.761   8.879 -3.1956 -2.5658  3.5609
  127MPD2     N 1945   2.978   1.111   9.080  0.2746 -0.0531  0.0659
  127MPD2    H5 1946   3.024   1.140   9.165 -0.8797  0.0286  0.6699
  127MPD2    N1 1947   2.895   0.691   9.301 -0.1722 -0.4678 -0.3527
  127MPD2    H7 1948   2.849   0.600   9.298  3.0261 -2.1368  1.0895
  128TCq2    C1 1949   2.969   0.722   9.411 -0.1554 -0.2690  0.0756
  128TCq2    O2 1950   3.075   0.788   9.414  0.2230 -0.7476  0.0835
  128TCq2    C2 1951   2.935   0.646   9.524  0.4117 -0.0204  0.2335
  128TCq2    C3 1952   3.047   0.608   9.600  0.3652  0.4201  0.3610
  128TCq2    C4 1953   3.033   0.537   9.718 -0.6861  0.6206 -0.2177
  128TCq2    C5 1954   2.905   0.511   9.762  0.2232 -0.3743 -0.7860
  128TCq2    C6 1955   2.795   0.556   9.682  0.3926 -0.5323  0.5281
  128TCq2    C7 1956   2.806   0.621   9.558 -0.1709 -0.1182  0.2288
  128TCq2    C8 1957   2.658   0.523   9.727  0.1654 -0.1698  1.1784
  128TCq2    O4 1958   2.571   0.602   9.691 -0.4889 -0.1210 -0.0566
  128TCq2    C9 1959   3.153   0.492   9.782 -0.3242  0.1483 -0.0216
  128TCq2    O5 1960   3.261   0.510   9.717  0.2323 -0.0289 -0.1266
  128TCq2    O6 1961   3.146   0.454   9.898 -0.1099 -0.3400  0.2039
  128TCq2    H2 1962   3.147   0.632   9.566  0.8592 -2.9859 -0.6604
  128TCq2    H3 1963   2.887   0.449   9.850  1.8614  1.0301  0.5327
  128TCq2    H4 1964   2.723   0.664   9.503 -0.3727  0.4705  0.9828
  129MPD2     C 1965   2.138   1.050   1.563 -0.6164 -0.4392  0.4521
  129MPD2    C1 1966   2.055   1.086   1.463  0.5515 -0.0219  0.2102
  129MPD2    C2 1967   2.102   1.152   1.345 -0.4696 -0.2925 -0.1067
  129MPD2    C3 1968   2.232   1.201   1.338  0.3851  0.8777  0.1152
  129MPD2    C4 1969   2.322   1.165   1.438 -0.2289  0.5529 -0.2476
  129MPD2    C5 1970   2.268   1.092   1.546 -0.1694 -0.6453  0.0091
  129MPD2     H 1971   2.025   1.178   1.274 -1.3285 -1.9306  0.2182
  129MPD2    H1 1972   2.425   1.197   1.439  0.9075 -3.0779 -1.5885
  129MPD2    H2 1973   2.111   0.995   1.652  0.2352 -0.6531  0.5791
  129MPD2    H3 1974   2.341   1.063   1.621 -0.1143  0.1422  0.2524
  129MPD2     N 1975   2.262   1.282   1.227 -0.1777  0.0322 -0.3780
  129MPD2    H5 1976   2.184   1.300   1.165 -0.1541  0.7597 -0.1961
  129MPD2    N1 1977   1.909   1.090   1.469 -0.4688 -0.0615 -1.0346
  129MPD2    H7 1978   1.864   1.134   1.389  0.4634  2.1024 -0.3571
  130TCq2    C1 1979   1.822   1.058   1.568  0.3951 -0.2745  0.3621
  130TCq2    O2 1980   1.853   0.999   1.673  0.0819  0.0455  0.1260
  130TCq2    C2 1981   1.688   1.101   1.537 -0.3076  0.2621  0.5809
  130TCq2    C3 1982   1.666   1.184   1.435 -0.2176  0.0061 -0.2192
  130TCq2    C4 1983   1.543   1.242   1.423 -0.1072 -0.0028  0.0610
  130TCq2    C5 1984   1.446   1.212   1.509 -0.0356  0.2421 -1.2040
  130TCq2    C6 1985   1.470   1.122   1.613 -0.1965  0.5389 -0.4261
  130TCq2    C7 1986   1.591   1.060   1.630  0.5167  0.4360  0.2552
  130TCq2    C8 1987   1.368   1.111   1.722 -0.7389 -0.4985 -0.0722
  130TCq2    O4 1988   1.373   1.015   1.796  0.6428 -0.1104 -0.1231
  130TCq2    C9 1989   1.506   1.337   1.319 -1.0826 -0.5745  0.2737
  130TCq2    O5 1990   1.380   1.344   1.295 -0.4308 -0.3538  0.2469
  130TCq2    O6 1991   1.594   1.375   1.235 -0.6260 -0.4321 -0.9133
  130TCq2    H2 1992   1.742   1.202   1.359 -1.0977 -1.5200 -1.4570
  130TCq2    H3 1993   1.347   1.249   1.487 -0.4027  1.1854  2.1359
  130TCq2    H4 1994   1.607   0.986   1.707  1.4854  2.5575  2.1151
  131MPD2     C 1995   0.730   0.301  11.062 -0.1339 -0.4295 -0.1345
  131MPD2    C1 1996   0.742   0.320  10.927  0.2903  0.5912 -0.0449
  131MPD2    C2 1997   0.710   0.218  10.840 -0.2992 -1.5524 -0.1972
  131MPD2    C3 1998   0.655   0.101  10.892 -1.7488 -0.2308 -0.2293
  131MPD2    C4 1999   0.651   0.078  11.026  0.6282 -0.1378 -0.0308
  131MPD2    C5 2000   0.689   0.183  11.114  0.3123  0.3236  0.2048
  131MPD2     H 2001   0.706   0.225  10.731 -0.9710 -0.6053 -0.1164
  131MPD2    H1 2002   0.604   4.716  11.073 -0.8959  1.4817  1.4045
  131MPD2    H2 2003   0.754   0.378  11.134 -1.0971  0.1567 -0.4314
  131MPD2    H3 2004   0.684   0.159  11.219 -1.0323 -0.6298 -0.0793
  131MPD2     N 2005   0.612   0.005  10.796 -0.6414  0.3429  0.6422
  131MPD2    H5 2006   0.598   0.028  10.698  2.6582 -1.6806 -0.3231
  131MPD2    N1 2007   0.780   0.449  10.891 -0.6748 -0.0967 -0.7207
  131MPD2    H7 2008   0.798   0.518  10.963 -0.1322  1.2191 -2.1073
  132TCq2    C1 2009   1.043   0.783  10.499 -0.5636  0.4425 -0.2937
  132TCq2    O2 2010   1.063   0.686  10.428  0.6406 -0.2100 -0.0588
  132TCq2    C2 2011   0.988   0.773  10.630  0.3519 -0.0709 -0.5775
  132TCq2    C3 2012   1.033   0.836  10.742 -1.0163  0.3114 -0.4485
  132TCq2    C4 2013   0.975   0.795  10.859 -0.2199 -0.6940 -0.4041
  132TCq2    C5 2014   0.891   0.687  10.867 -0.5249  0.4876  0.2490
  132TCq2    C6 2015   0.850   0.628  10.753 -0.1166  0.6157  0.6114
  132TCq2    C7 2016   0.894   0.674  10.629  0.1499 -0.4590 -0.0769
  132TCq2    C8 2017   0.798   0.495  10.762  0.4675 -0.0686  0.3376
  132TCq2    O4 2018   0.773   0.434  10.660  0.4576 -0.4021  0.5315
  132TCq2    C9 2019   1.011   0.860  10.981 -0.2216  0.6922  1.0232
  132TCq2    O5 2020   0.977   0.803  11.090 -0.8446  0.5103  0.0792
  132TCq2    O6 2021   1.083   0.961  10.981 -0.1268 -0.4347 -0.0197
  132TCq2    H2 2022   1.110   0.912  10.745  1.5527 -2.2453 -2.0520
  132TCq2    H3 2023   0.842   0.672  10.963  1.3569 -0.3789  1.0712
  132TCq2    H4 2024   0.850   0.628  10.541 -2.2727  0.6421  0.5717
  133MPD2     C 2025   4.551   1.675   9.553  0.3741  0.2349  0.3840
  133MPD2    C1 2026   4.657   1.588   9.544  0.2282 -0.2034  0.1702
  133MPD2    C2 2027   4.647   1.472   9.616  0.1912  1.0483  0.4128
  133MPD2    C3 2028   4.536   1.443   9.697  0.4207 -0.2896 -0.0522
  133MPD2    C4 2029   4.431   1.535   9.694  0.6656 -0.0499  0.2920
  133MPD2    C5 2030   4.440   1.650   9.618 -0.5611 -0.4205 -0.8243
  133MPD2     H 2031   0.007   1.405   9.617  0.8433  1.8620  0.7053
  133MPD2    H1 2032   4.346   1.524   9.760 -0.0768 -2.3074 -1.0571
  133MPD2    H2 2033   4.555   1.768   9.498 -1.2958  1.3066  2.0912
  133MPD2    H3 2034   4.370   1.732   9.627 -1.4025 -1.3010  0.7610
  133MPD2     N 2035   4.523   1.330   9.781 -0.6955  0.5055  0.4931
  133MPD2    H5 2036   4.437   1.323   9.833  0.6460 -2.3764  2.3332
  133MPD2    N1 2037   0.043   1.622   9.468 -0.3018  0.2166 -0.5284
  133MPD2    H7 2038   0.038   1.711   9.420  0.0677  1.1834  1.2343
  134TCq2    C1 2039   0.150   1.539   9.444  0.4113 -0.1081 -0.2630
  134TCq2    O2 2040   0.171   1.419   9.468 -0.0152  0.0405 -0.5775
  134TCq2    C2 2041   0.245   1.594   9.355  0.2930 -0.0802 -0.3617
  134TCq2    C3 2042   0.331   1.507   9.291 -0.2934  0.0067 -0.7047
  134TCq2    C4 2043   0.433   1.551   9.216 -0.7978  0.1979 -0.4815
  134TCq2    C5 2044   0.444   1.687   9.191 -0.1115  0.1841 -0.6365
  134TCq2    C6 2045   0.350   1.771   9.244 -0.0290  0.9454 -0.0181
  134TCq2    C7 2046   0.245   1.725   9.317 -0.0991 -0.3595 -0.4399
  134TCq2    C8 2047   0.341   1.908   9.195  0.0106  0.6442 -0.4992
  134TCq2    O4 2048   0.261   1.981   9.254 -0.4794  0.4640 -0.1263
  134TCq2    C9 2049   0.535   1.465   9.154 -0.5146 -0.5764  0.4143
  134TCq2    O5 2050   0.518   1.345   9.177 -0.4639  0.0485 -0.2353
  134TCq2    O6 2051   0.625   1.517   9.081  0.3216 -0.2539 -0.2617
  134TCq2    H2 2052   0.339   1.402   9.315 -0.0936  0.5600  1.6547
  134TCq2    H3 2053   0.535   1.724   9.147 -1.3062  3.4159 -0.4053
  134TCq2    H4 2054   0.176   1.797   9.359 -2.4292 -0.9205 -3.2732
  135MPD2     C 2055   3.124   2.484   9.035 -0.3511 -0.6781 -0.3068
  135MPD2    C1 2056   3.074   2.387   9.113 -0.2182 -0.0672 -0.7314
  135MPD2    C2 2057   3.131   2.263   9.100  0.2787  0.1207  0.5980
  135MPD2    C3 2058   3.238   2.239   9.018  0.6930 -0.3973 -0.2289
  135MPD2    C4 2059   3.296   2.341   8.942  0.6550 -0.4955  0.6560
  135MPD2    C5 2060   3.239   2.462   8.954  0.3510 -0.0576 -0.0638
  135MPD2     H 2061   3.086   2.185   9.161  1.3259 -1.4733 -0.6677
  135MPD2    H1 2062   3.374   2.334   8.867  0.2260  1.1125  0.0623
  135MPD2    H2 2063   3.083   2.584   9.044  0.6424 -0.5445  2.7013
  135MPD2    H3 2064   3.281   2.547   8.901  0.5457  0.6005  1.1398
  135MPD2     N 2065   3.295   2.113   9.010 -0.4515 -0.7132 -0.2915
  135MPD2    H5 2066   3.382   2.098   8.960 -0.6233  0.3611 -0.9206
  135MPD2    N1 2067   2.950   2.390   9.175  0.4093 -0.0223 -0.1879
  135MPD2    H7 2068   2.906   2.310   9.219  2.3358 -0.9990 -0.0585
  136TCq2    C1 2069   2.892   2.510   9.211 -0.4154 -0.0289  0.0774
  136TCq2    O2 2070   2.946   2.619   9.216 -0.7492 -0.0336  0.3927
  136TCq2    C2 2071   2.754   2.490   9.258 -0.1259 -0.3913 -0.3997
  136TCq2    C3 2072   2.676   2.381   9.224  0.7715  0.1123 -0.5956
  136TCq2    C4 2073   2.543   2.369   9.273  0.0043  0.0969  0.1818
  136TCq2    C5 2074   2.499   2.463   9.362  0.7317 -0.3532 -0.1949
  136TCq2    C6 2075   2.590   2.560   9.403  0.5960  0.6145 -0.2105
  136TCq2    C7 2076   2.717   2.573   9.359  0.3595 -0.3216 -0.3820
  136TCq2    C8 2077   2.559   2.633   9.521 -0.5770 -0.0479  0.9389
  136TCq2    O4 2078   2.604   2.747   9.531 -0.1280  0.0788  0.2281
  136TCq2    C9 2079   2.464   2.252   9.246 -0.4073 -0.0989 -0.2805
  136TCq2    O5 2080   2.356   2.239   9.310  1.1900 -0.0970 -0.1464
  136TCq2    O6 2081   2.508   2.165   9.172  0.7747 -0.5228 -0.4277
  136TCq2    H2 2082   2.715   2.311   9.151  5.3042  1.7657  0.2487
  136TCq2    H3 2083   2.402   2.454   9.408  0.6797 -2.7284 -0.7750
  136TCq2    H4 2084   2.784   2.646   9.402  0.3705 -0.1564 -0.6802
  137MPD2     C 2085   2.305   1.307   9.564  0.2773 -0.3339 -0.2391
  137MPD2    C1 2086   2.223   1.407   9.618 -0.6400 -0.7588  0.1110
  137MPD2    C2 2087   2.240   1.440   9.750  0.2467 -0.2343  0.5232
  137MPD2    C3 2088   2.331   1.372   9.832 -0.0265 -0.2518  0.1901
  137MPD2    C4 2089   2.407   1.267   9.776 -0.4569  0.1282 -0.0269
  137MPD2    C5 2090   2.401   1.241   9.642 -0.2900 -0.4338  0.3045
  137MPD2     H 2091   2.183   1.524   9.787  0.1918 -0.7142  1.5616
  137MPD2    H1 2092   2.474   1.207   9.837  1.2731  1.2465 -0.8272
  137MPD2    H2 2093   2.295   1.286   9.458 -0.9789  0.6939 -0.3230
  137MPD2    H3 2094   2.458   1.157   9.604 -1.5485 -0.2900 -1.9268
  137MPD2     N 2095   2.353   1.429   9.953  0.4027  0.6232  0.8162
  137MPD2    H5 2096   2.308   1.518   9.970  0.7195  1.0812 -0.7641
  137MPD2    N1 2097   2.135   1.470   9.531  0.0959 -0.0631  0.2017
  137MPD2    H7 2098   2.133   1.439   9.434  2.2709  1.1460 -0.2252
  138TCq2    C1 2099   2.052   1.573   9.567  0.3704 -0.5850 -0.3619
  138TCq2    O2 2100   2.005   1.610   9.676 -0.3702  0.4338  0.2288
  138TCq2    C2 2101   1.986   1.617   9.448 -0.1888 -0.2093 -0.4733
  138TCq2    C3 2102   2.037   1.596   9.321  0.3224 -0.1506 -0.0264
  138TCq2    C4 2103   1.960   1.645   9.219  0.3842 -0.2061  0.6094
  138TCq2    C5 2104   1.845   1.713   9.241 -0.2245  0.0977 -0.2335
  138TCq2    C6 2105   1.792   1.725   9.367 -0.5147  0.5464 -0.7277
  138TCq2    C7 2106   1.858   1.665   9.472  0.4131 -0.3219 -0.5394
  138TCq2    C8 2107   1.658   1.769   9.380 -0.2436  0.1235  0.0315
  138TCq2    O4 2108   1.607   1.802   9.274 -0.3168 -0.0157  0.1524
  138TCq2    C9 2109   2.002   1.621   9.084  0.7106  0.3065  0.4465
  138TCq2    O5 2110   1.946   1.689   8.994 -0.0519  0.1234 -0.4066
  138TCq2    O6 2111   2.108   1.557   9.077  0.0953  0.6995  0.2153
  138TCq2    H2 2112   2.132   1.552   9.297 -0.9665 -0.9188 -3.7350
  138TCq2    H3 2113   1.787   1.738   9.153 -2.0571 -2.4850  0.2098
  138TCq2    H4 2114   1.814   1.668   9.571 -1.4044  0.3725 -1.3784
  139TMC2    C1 2115   2.901   4.449  13.357 -0.3610  0.4775 -0.3280
  139TMC2    C2 2116   2.851   4.449  13.233 -0.4332  0.6886 -0.1252
  139TMC2    C3 2117   2.779   4.552  13.188  0.0340  0.6307  0.0709
  139TMC2    C4 2118   2.852   4.541  13.447  0.0809  0.3833 -0.3369
  139TMC2    C5 2119   2.775   4.646  13.402 -0.0165 -1.1527  0.2563
  139TMC2    C6 2120   2.740   4.651  13.270 -0.3575  0.2929  0.4605
  139TMC2     C 2121   2.984   4.329  13.391  0.0379 -0.2138  1.2614
  139TMC2     O 2122   2.981   4.236  13.310 -0.8129 -0.0486  0.4388
  139TMC2     H 2123   2.903   4.386  13.162  0.2533  2.3793 -1.1148
  139TMC2    H1 2124   2.857   4.524  13.554  1.3916  1.2544 -0.2623
  139TMC2    H2 2125   2.670   0.003  13.238 -0.2861 -0.2521 -0.9655
  139TMC2    C7 2126   2.704   0.011  13.495  0.5760  0.2995 -0.1254
  139TMC2    C8 2127   2.735   4.561  13.044 -0.2136  0.0491  1.2670
  139TMC2    O1 2128   2.590   0.047  13.477 -0.3013 -0.3960 -0.1318
  139TMC2    O2 2129   2.661   4.650  13.011  0.1409  0.5831  0.0963
  139TMC2    O5 2130   2.762   4.446  12.975 -0.3868  0.2303  0.1009
  139TMC2    H5 2131   2.832   4.388  13.011 -0.6932  0.6661  1.3931
  140MPD2     C 2132   3.183   4.280  13.689  0.0616  0.6518  0.3865
  140MPD2    C1 2133   3.129   4.239  13.568 -0.1405  0.5682 -0.2193
  140MPD2    C2 2134   3.160   4.113  13.520  0.0812  0.5937  0.1004
  140MPD2    C3 2135   3.244   4.035  13.587  0.1090 -0.8213 -0.0211
  140MPD2    C4 2136   3.283   4.065  13.714 -0.7306 -0.8672 -0.3657
  140MPD2    C5 2137   3.248   4.189  13.775 -0.2193 -0.2954  0.4962
  140MPD2     H 2138   3.134   4.093  13.416  0.8292 -1.3886  0.2991
  140MPD2    H1 2139   3.338   3.986  13.764 -0.1344 -1.2751 -1.6950
  140MPD2    H2 2140   3.167   4.382  13.722 -0.1601  0.4093  1.0290
  140MPD2    H3 2141   3.288   4.223  13.870 -0.0420  1.2085 -0.1174
  140MPD2     N 2142   3.287   3.914  13.525  0.4019 -0.1224  0.0415
  140MPD2    H5 2143   3.265   3.905  13.426 -0.8882 -0.2898  0.3429
  140MPD2    N1 2144   3.050   4.340  13.508 -0.0120  0.1590  0.1961
  140MPD2    H7 2145   3.040   4.419  13.570  0.1008  0.0357  0.3722
  141TCq2    C1 2146   3.776   1.246  13.839 -0.3544 -0.0868  0.3740
  141TCq2    O2 2147   3.761   1.236  13.716 -0.5091 -0.4025 -0.8533
  141TCq2    C2 2148   3.788   1.371  13.906 -0.3685 -0.3836 -0.6278
  141TCq2    C3 2149   3.732   1.395  14.030  0.6509  0.2588 -0.2421
  141TCq2    C4 2150   3.788   1.491  14.108  0.2225  0.4088  0.2086
  141TCq2    C5 2151   3.900   1.553  14.067 -0.7730 -0.8074 -0.1461
  141TCq2    C6 2152   3.968   1.510  13.959  0.5567 -0.2678 -0.3189
  141TCq2    C7 2153   3.906   1.431  13.868 -0.4764 -0.3793  0.8567
  141TCq2    C8 2154   4.100   1.550  13.931  0.3207  0.1309  0.4242
  141TCq2    O4 2155   4.128   1.563  13.809  0.3419 -0.1005 -0.2231
  141TCq2    C9 2156   3.728   1.522  14.235  0.0147 -0.3001  0.0335
  141TCq2    O5 2157   3.789   1.604  14.309  0.0991  0.6838 -0.7985
  141TCq2    O6 2158   3.604   1.494  14.244 -0.6597 -0.0859 -0.0818
  141TCq2    H2 2159   3.633   1.361  14.057  0.9681 -1.6665 -1.5250
  141TCq2    H3 2160   3.934   1.629  14.137 -0.3299 -1.6347  0.5339
  141TCq2    H4 2161   3.954   1.396  13.777 -0.0595 -1.5503  1.5295
  142MPD2     C 2162   1.218   3.859  10.803  0.0181  0.6213 -0.1066
  142MPD2    C1 2163   1.145   3.895  10.693 -0.3440 -0.2280  0.1045
  142MPD2    C2 2164   1.190   4.000  10.614  0.1571 -0.6564  0.1056
  142MPD2    C3 2165   1.309   4.062  10.638 -0.2314  0.3015  0.1426
  142MPD2    C4 2166   1.392   4.011  10.739 -0.9729  0.4273  0.2825
  142MPD2    C5 2167   1.344   3.912  10.823  0.3523 -0.2049  0.3931
  142MPD2     H 2168   1.136   4.031  10.526 -0.6806 -0.5461  0.6643
  142MPD2    H1 2169   1.476   4.073  10.768 -1.8608  0.6535  2.4097
  142MPD2    H2 2170   1.186   3.777  10.867 -0.4271 -1.2792 -2.7456
  142MPD2    H3 2171   1.401   3.875  10.907  0.3788  0.8518  0.8485
  142MPD2     N 2172   1.362   4.159  10.549  0.1236  0.7693 -0.7191
  142MPD2    H5 2173   1.461   4.181  10.560  0.0820  0.4079  0.3930
  142MPD2    N1 2174   1.024   3.823  10.673 -0.2306  0.0873  0.1770
  142MPD2    H7 2175   1.005   3.736  10.721 -4.1728  0.3105 -0.9984
  143TCq2    C1 2176   1.293   4.241  10.463 -0.6070 -0.0330 -0.0820
  143TCq2    O2 2177   1.173   4.256  10.468 -0.4790  0.1173 -0.2517
  143TCq2    C2 2178   1.375   4.329  10.376 -0.0623  0.1172 -0.3348
  143TCq2    C3 2179   1.512   4.303  10.365 -0.7135 -0.4657  0.2199
  143TCq2    C4 2180   1.572   4.377  10.262  0.1323  0.4937  0.2740
  143TCq2    C5 2181   1.510   4.478  10.189  0.1892  0.3714 -0.8342
  143TCq2    C6 2182   1.380   4.503  10.222 -0.4031 -0.1344 -0.0382
  143TCq2    C7 2183   1.311   4.423  10.304  0.2233  0.3713  0.3933
  143TCq2    C8 2184   1.315   4.613  10.156 -0.3869 -0.0885  0.3392
  143TCq2    O4 2185   1.207   4.592  10.110  0.4575 -0.0657 -0.2423
  143TCq2    C9 2186   1.710   4.346  10.222 -0.0830 -0.1041  0.3592
  143TCq2    O5 2187   1.766   4.417  10.143  0.1083  0.6491 -0.0141
  143TCq2    O6 2188   1.757   4.232  10.247 -0.2016 -0.3764  0.1484
  143TCq2    H2 2189   1.567   4.228  10.420  1.1728 -0.0488 -1.0754
  143TCq2    H3 2190   1.566   4.536  10.117  0.3335  3.3726  1.6528
  143TCq2    H4 2191   1.208   4.453  10.314  0.3909  1.6089 -1.6377
  144MPD2     C 2192   4.119   3.316   0.268  0.4350  0.0151 -0.5986
  144MPD2    C1 2193   4.073   3.219   0.356 -0.3510  0.4914  0.3847
  144MPD2    C2 2194   4.075   3.231   0.497  0.4746 -0.5900 -0.1824
  144MPD2    C3 2195   4.128   3.352   0.545  0.4349  0.3614  0.7923
  144MPD2    C4 2196   4.166   3.451   0.454  0.5226 -0.8712  0.2993
  144MPD2    C5 2197   4.154   3.437   0.319  0.1042  0.4917  0.0037
  144MPD2     H 2198   4.054   3.149   0.564  0.0070  0.3805  0.8570
  144MPD2    H1 2199   4.197   3.547   0.493 -1.9649  1.0953 -2.6735
  144MPD2    H2 2200   4.136   3.312   0.161  1.1582  2.9852 -0.5900
  144MPD2    H3 2201   4.184   3.518   0.254 -2.8019  0.7531 -0.9709
  144MPD2     N 2202   4.145   3.386   0.680 -0.4335 -0.1876 -0.0027
  144MPD2    H5 2203   4.185   3.475   0.706 -1.6354  0.2301  0.4056
  144MPD2    N1 2204   4.043   3.086   0.320  0.2439 -0.9179 -0.3387
  144MPD2    H7 2205   4.028   3.020   0.395 -0.5947 -1.1629 -0.7215
  145TCq2    C1 2206   4.102   3.311   0.782  0.5050 -0.1087  0.4197
  145TCq2    O2 2207   4.040   3.209   0.790  0.0048 -0.4376 -0.3168
  145TCq2    C2 2208   4.137   3.365   0.913  0.1422  0.3438  0.0481
  145TCq2    C3 2209   4.254   3.435   0.918 -0.3255  0.6820  0.0844
  145TCq2    C4 2210   4.287   3.481   1.038  0.1288 -0.9296  0.0307
  145TCq2    C5 2211   4.207   3.468   1.150  0.1623 -0.9063 -0.3873
  145TCq2    C6 2212   4.088   3.402   1.135 -0.3285  0.3526  0.5117
  145TCq2    C7 2213   4.048   3.351   1.014 -0.5656 -0.5031  0.3950
  145TCq2    C8 2214   3.986   3.415   1.237 -0.5536 -0.6283 -0.4056
  145TCq2    O4 2215   3.909   3.320   1.249  0.2703 -0.4813  0.3125
  145TCq2    C9 2216   4.419   3.543   1.055 -0.5339  0.2836  0.2771
  145TCq2    O5 2217   4.490   3.548   0.948  0.4549 -0.1608 -0.4364
  145TCq2    O6 2218   4.453   3.586   1.164  0.0278 -0.1978 -0.2989
  145TCq2    H2 2219   4.325   3.438   0.836  1.0900 -0.7198  1.2621
  145TCq2    H3 2220   4.231   3.511   1.246  2.3148  0.2724 -1.4457
  145TCq2    H4 2221   3.967   3.280   1.004 -0.1806 -0.8743 -0.1138
  146TMC2    C1 2222   1.044   1.878  11.934 -0.1515 -0.4378 -0.6395
  146TMC2    C2 2223   0.985   1.839  11.811  0.3233  0.0467 -0.8181
  146TMC2    C3 2224   1.043   1.736  11.746  0.4238  0.5608 -0.1827
  146TMC2    C4 2225   1.169   1.834  11.977  0.7102 -0.6011  0.3107
  146TMC2    C5 2226   1.218   1.730  11.898 -1.0712  0.0862  0.4113
  146TMC2    C6 2227   1.156   1.679  11.785 -0.3540 -0.2630  0.4248
  146TMC2     C 2228   0.949   1.954  12.016 -0.4141 -0.0498 -0.0517
  146TMC2     O 2229   0.842   1.975  11.967 -0.5643 -0.3576 -0.8982
  146TMC2     H 2230   0.884   1.866  11.781  0.8097  0.6245 -1.9278
  146TMC2    H1 2231   1.220   1.866  12.067 -1.9289  0.5692  1.3889
  146TMC2    H2 2232   1.190   1.590  11.732 -0.8005  0.3751 -0.9179
  146TMC2    C7 2233   1.361   1.710  11.906  0.9890  0.8306 -0.3610
  146TMC2    C8 2234   1.010   1.710  11.611 -1.1386  0.7107 -0.2731
  146TMC2    O1 2235   1.396   1.667  11.794 -0.3742 -0.3961  0.4522
  146TMC2    O2 2236   0.984   1.596  11.570  0.1636 -0.0569  0.0950
  146TMC2    O5 2237   1.103   1.788  11.546 -0.1624  0.6323  0.2401
  146TMC2    H5 2238   1.130   1.867  11.598 -1.8165  0.3762  1.5062
  147MPD2     C 2239   1.814   1.630  12.134 -0.0135 -0.2823 -0.6014
  147MPD2    C1 2240   1.721   1.646  12.232 -0.3043 -0.3878 -0.5758
  147MPD2    C2 2241   1.592   1.672  12.195 -0.0814 -0.1851 -0.9859
  147MPD2    C3 2242   1.553   1.696  12.057  0.6000  0.4461  0.1240
  147MPD2    C4 2243   1.653   1.692  11.966 -0.3615  0.3949 -0.4498
  147MPD2    C5 2244   1.775   1.646  12.002  1.2150 -0.1454  0.0822
  147MPD2     H 2245   1.514   1.682  12.269  0.5861  1.8958 -0.5591
  147MPD2    H1 2246   1.635   1.715  11.861  0.3613 -3.4032 -1.3973
  147MPD2    H2 2247   1.915   1.604  12.162 -0.4445 -3.0994 -1.5931
  147MPD2    H3 2248   1.844   1.651  11.919  0.4573 -2.1946 -0.6737
  147MPD2     N 2249   1.418   1.718  12.030 -0.8453  0.0372  0.2430
  147MPD2    H5 2250   1.351   1.735  12.105  0.1176  0.2854  1.0406
  147MPD2    N1 2251   1.758   1.638  12.361 -0.0215 -0.6890 -0.0416
  147MPD2    H7 2252   1.858   1.652  12.375 -0.0745  0.4562 -0.7977
  148MPD2     C 2253   0.221   1.272  10.661 -0.6040 -0.0762  0.0401
  148MPD2    C1 2254   0.305   1.161  10.680 -0.6972  0.9420  0.3028
  148MPD2    C2 2255   0.251   1.034  10.671  0.3892 -0.5825 -0.1954
  148MPD2    C3 2256   0.116   1.014  10.629 -0.4844 -0.2564 -0.2157
  148MPD2    C4 2257   0.039   1.124  10.600 -0.1029  0.7584 -0.1090
  148MPD2    C5 2258   0.097   1.253  10.613  0.4610 -0.5368 -0.5947
  148MPD2     H 2259   0.318   0.949  10.678  1.6433  0.3020 -1.4271
  148MPD2    H1 2260   4.662   1.113  10.562  0.2201 -1.3702 -0.3443
  148MPD2    H2 2261   0.257   1.373  10.676  0.4812 -0.4805  0.1538
  148MPD2    H3 2262   0.040   1.339  10.580  2.2765  0.3105 -1.5378
  148MPD2     N 2263   0.057   0.880  10.618 -0.5002 -0.0376 -0.5653
  148MPD2    H5 2264   4.684   0.876  10.586 -0.3265 -0.5898 -1.0117
  148MPD2    N1 2265   0.441   1.167  10.719  0.0742  0.0888  0.1084
  148MPD2    H7 2266   0.485   1.082  10.754 -0.1804 -0.0755  0.0259
  149TCq2    C1 2267   0.524   1.276  10.731 -0.3755 -0.5149 -0.4140
  149TCq2    O2 2268   0.504   1.390  10.693 -0.6281  0.5971  0.2925
  149TCq2    C2 2269   0.644   1.246  10.817  0.8659 -0.5851 -0.5433
  149TCq2    C3 2270   0.745   1.345  10.828  0.5489  0.6120  0.4766
  149TCq2    C4 2271   0.828   1.347  10.937 -0.3482 -0.6814 -0.2790
  149TCq2    C5 2272   0.835   1.250  11.031 -0.1208  0.2612 -0.3763
  149TCq2    C6 2273   0.739   1.154  11.019  0.0973  0.8732  0.4776
  149TCq2    C7 2274   0.643   1.153  10.922 -0.4345 -0.3115  0.0011
  149TCq2    C8 2275   0.730   1.058  11.127  0.2605 -0.2336  0.5150
  149TCq2    O4 2276   0.772   1.092  11.235  0.5085 -0.4590 -0.4907
  149TCq2    C9 2277   0.954   1.413  10.912 -0.0090 -0.2117 -0.0281
  149TCq2    O5 2278   1.043   1.415  11.001 -0.3887 -0.2367 -0.0945
  149TCq2    O6 2279   0.973   1.414  10.789 -0.2087  0.2648  0.3340
  149TCq2    H2 2280   0.751   1.429  10.759  1.2621 -2.3352 -3.0732
  149TCq2    H3 2281   0.907   1.255  11.112 -1.9439  2.1041  1.1315
  149TCq2    H4 2282   0.560   1.083  10.927 -0.6004 -0.3838 -3.2220
  150MPD2     C 2283   2.213   4.589  12.307  0.0765 -0.3781 -0.0831
  150MPD2    C1 2284   2.209   4.666  12.193  0.0012  0.4262  0.1016
  150MPD2    C2 2285   2.305   0.039  12.160 -0.2595  0.8524  0.3292
  150MPD2    C3 2286   2.398   0.076  12.253  0.0660 -0.5364  0.0729
  150MPD2    C4 2287   2.399   4.723  12.366  0.1493 -0.4022 -0.0097
  150MPD2    C5 2288   2.307   4.625  12.398 -0.7491  0.2612 -0.0145
  150MPD2     H 2289   2.302   0.092  12.066  0.6375  0.3373  0.0074
  150MPD2    H1 2290   2.477   0.019  12.438  0.6689 -1.1665 -0.3566
  150MPD2    H2 2291   2.139   4.516  12.338 -1.5581  1.2939 -0.0385
  150MPD2    H3 2292   2.301   4.581  12.497 -1.4577  1.1126  0.3137
  150MPD2     N 2293   2.494   0.174  12.223 -0.2276 -0.0913 -0.0523
  150MPD2    H5 2294   2.485   0.235  12.142 -3.0049  0.2332  0.5148
  150MPD2    N1 2295   2.107   4.625  12.101  0.1723  0.2254  0.1633
  150MPD2    H7 2296   2.045   4.549  12.129  2.6322 -1.6956  0.4094
  151TCq2    C1 2297   2.618   0.194  12.288  0.0890  0.5952  0.3810
  151TCq2    O2 2298   2.673   0.124  12.371  0.3434 -0.1397  0.0761
  151TCq2    C2 2299   2.701   0.308  12.240 -0.1878 -0.0356  0.2996
  151TCq2    C3 2300   2.663   0.393  12.144 -0.4210 -0.6355  0.1052
  151TCq2    C4 2301   2.751   0.496  12.113 -0.0275  0.5164  0.4025
  151TCq2    C5 2302   2.875   0.508  12.181  0.3909  0.5594  0.8882
  151TCq2    C6 2303   2.897   0.422  12.288  0.0816  0.8688 -0.2276
  151TCq2    C7 2304   2.818   0.319  12.320 -0.2528  0.9478 -0.0237
  151TCq2    C8 2305   3.032   0.404  12.324  0.1513 -0.3635  0.2129
  151TCq2    O4 2306   3.106   0.502  12.327 -0.6807 -0.0684  0.3721
  151TCq2    C9 2307   2.719   0.586  12.005 -0.7586  0.2717  0.1759
  151TCq2    O5 2308   2.815   0.658  11.968 -0.4054  0.5915 -0.2377
  151TCq2    O6 2309   2.609   0.575  11.952 -0.5532 -0.3126 -0.2039
  151TCq2    H2 2310   2.567   0.389  12.093 -0.4400  1.4803 -0.0399
  151TCq2    H3 2311   2.953   0.581  12.161  0.3430  0.7733  1.4964
  151TCq2    H4 2312   2.838   0.266  12.412 -1.3273 -0.3158 -0.5246
  152MPD2     C 2313   1.952   3.934  12.681 -0.1254 -0.0042 -0.8980
  152MPD2    C1 2314   1.992   4.067  12.665  0.2116 -0.4243  0.3618
  152MPD2    C2 2315   1.889   4.167  12.666  0.8009  0.8147  0.7713
  152MPD2    C3 2316   1.761   4.132  12.687 -0.3863  0.2432 -0.0319
  152MPD2    C4 2317   1.731   4.005  12.707 -0.3024  0.2777 -0.1661
  152MPD2    C5 2318   1.822   3.908  12.707 -0.0232  0.3572  0.7861
  152MPD2     H 2319   1.916   4.271  12.649  3.0499  0.4209  1.9493
  152MPD2    H1 2320   1.629   3.970  12.721 -0.1899  0.3598  0.8412
  152MPD2    H2 2321   2.018   3.848  12.683 -0.1238  0.0343  1.0812
  152MPD2    H3 2322   1.786   3.809  12.736 -0.5775  0.7464  1.4419
  152MPD2     N 2323   1.663   4.239  12.695 -0.5179  0.0672  0.1836
  152MPD2    H5 2324   1.714   4.326  12.686 -0.7084  0.3191  1.5243
  152MPD2    N1 2325   2.126   4.094  12.665  0.3565 -0.7989  0.4793
  152MPD2    H7 2326   2.192   4.017  12.666  0.3861 -0.7604  1.3007
  153TCq2    C1 2327   2.183   4.212  12.650 -0.3571  0.1185  0.1278
  153TCq2    O2 2328   2.150   4.326  12.614  0.6561 -0.3760  0.1457
  153TCq2    C2 2329   2.330   4.208  12.670 -0.3862 -0.1527 -0.8094
  153TCq2    C3 2330   2.395   4.126  12.763  0.0032  0.1395 -0.7527
  153TCq2    C4 2331   2.531   4.129  12.784  0.3902  0.0243 -0.3066
  153TCq2    C5 2332   2.614   4.222  12.720  0.6905  0.9210  0.1553
  153TCq2    C6 2333   2.547   4.303  12.627  0.5695  0.8678  0.1219
  153TCq2    C7 2334   2.410   4.296  12.606  0.8609 -0.3130 -0.0154
  153TCq2    C8 2335   2.613   4.423  12.588  0.4699  0.0394 -0.2566
  153TCq2    O4 2336   2.561   4.501  12.508  0.1484 -0.5192 -0.7435
  153TCq2    C9 2337   2.585   4.041  12.884 -1.4031 -0.7782  0.7151
  153TCq2    O5 2338   2.673   4.086  12.963  0.3167 -0.0173 -0.0543
  153TCq2    O6 2339   2.510   3.942  12.908  0.6310 -0.4924  0.9111
  153TCq2    H2 2340   2.339   4.055  12.823 -0.8466  0.5612 -1.0455
  153TCq2    H3 2341   2.720   4.211  12.742  1.0199 -0.1785 -1.9439
  153TCq2    H4 2342   2.356   4.360  12.538  0.4920 -0.3936  0.2001
  154MPD2     C 2343   3.990   4.276   0.746 -0.4891  0.9141  0.5811
  154MPD2    C1 2344   4.073   4.347   0.828 -0.0148 -0.2386  0.2561
  154MPD2    C2 2345   4.022   4.456   0.893 -0.6189  0.3186  0.1452
  154MPD2    C3 2346   3.887   4.497   0.879  0.5029  0.1875 -0.3957
  154MPD2    C4 2347   3.810   4.428   0.793  0.4506 -0.9127 -0.9094
  154MPD2    C5 2348   3.861   4.317   0.734  0.8444 -0.0758 -0.2435
  154MPD2     H 2349   4.084   4.509   0.964  0.1789 -0.3689 -0.0471
  154MPD2    H1 2350   3.706   4.453   0.775  0.0809 -0.7099  1.4293
  154MPD2    H2 2351   4.027   4.194   0.685 -1.0982  0.5484  0.7030
  154MPD2    H3 2352   3.794   4.258   0.672 -0.7008 -0.9758  2.3245
  154MPD2     N 2353   3.837   4.599   0.964  0.8395 -0.0765  0.5362
  154MPD2    H5 2354   3.897   4.653   1.026  1.8688  1.0905 -1.4974
  154MPD2    N1 2355   4.205   4.301   0.846 -0.3660  0.0750  0.6642
  154MPD2    H7 2356   4.232   4.220   0.791  0.5169  0.9906 -0.2291
  155TCq2    C1 2357   4.292   4.345   0.939 -0.0166  0.2499  0.0460
  155TCq2    O2 2358   4.298   4.458   0.999 -0.6720 -0.1508  0.1310
  155TCq2    C2 2359   4.397   4.250   0.960  0.2208 -0.4860  0.2267
  155TCq2    C3 2360   4.378   4.117   0.917 -0.4361 -0.6261 -0.2689
  155TCq2    C4 2361   4.485   4.034   0.930 -0.2953 -0.2217  0.6818
  155TCq2    C5 2362   4.604   4.074   0.981  1.6460  0.2407  0.0310
  155TCq2    C6 2363   4.611   4.207   1.017 -0.8905 -0.3839  0.4587
  155TCq2    C7 2364   4.512   4.297   1.015  0.2451  0.2192 -0.1195
  155TCq2    C8 2365   0.021   4.266   1.002  0.0197  0.0180  0.8031
  155TCq2    O4 2366   0.041   4.371   1.058 -0.2794 -0.5580  0.1530
  155TCq2    C9 2367   4.466   3.890   0.918 -0.9624 -0.2458 -0.7841
  155TCq2    O5 2368   4.354   3.847   0.886  0.1022 -0.0862  0.1601
  155TCq2    O6 2369   4.575   3.824   0.918 -1.1377 -0.1380 -0.1701
  155TCq2    H2 2370   4.282   4.085   0.879 -0.2900 -0.6901 -0.5859
  155TCq2    H3 2371   4.673   3.996   1.012 -0.3308 -1.3434  0.4479
  155TCq2    H4 2372   4.520   4.399   1.049 -3.9478  0.5223 -0.0435
  156MPD2     C 2373   2.668   1.778  12.353 -0.9042  0.2801 -0.4805
  156MPD2    C1 2374   2.704   1.874  12.258  0.1086 -0.2403 -0.1244
  156MPD2    C2 2375   2.800   1.967  12.290 -0.1770 -0.2492 -0.1233
  156MPD2    C3 2376   2.858   1.966  12.413 -0.1203 -0.6508  0.3746
  156MPD2    C4 2377   2.827   1.863  12.503  0.0485  0.6020 -0.1330
  156MPD2    C5 2378   2.730   1.769  12.472 -0.2870  0.4605  0.6013
  156MPD2     H 2379   2.821   2.051  12.224  0.7328 -2.2243 -2.3223
  156MPD2    H1 2380   2.878   1.844  12.597  0.5733  1.5469 -0.2220
  156MPD2    H2 2381   2.589   1.705  12.339  0.8101 -0.7638 -4.7417
  156MPD2    H3 2382   2.705   1.693  12.544 -1.0721 -0.7698 -0.9609
  156MPD2     N 2383   2.959   2.060  12.429 -0.1460 -0.0131  0.8661
  156MPD2    H5 2384   2.980   2.122  12.351  0.0321 -0.8563  0.2412
  156MPD2    N1 2385   2.625   1.875  12.141  0.4701 -0.3675  0.8025
  156MPD2    H7 2386   2.559   1.799  12.128 -2.4307  2.3854 -0.7005
  157TCq2    C1 2387   2.642   1.963  12.036  0.1722  0.7308 -0.6857
  157TCq2    O2 2388   2.696   2.070  12.021 -0.0961  0.3316  0.4240
  157TCq2    C2 2389   2.562   1.926  11.918 -0.4740 -0.3404  0.1838
  157TCq2    C3 2390   2.429   1.883  11.935  0.7219 -0.3379 -0.7012
  157TCq2    C4 2391   2.346   1.903  11.828  0.4780 -0.6811 -0.9273
  157TCq2    C5 2392   2.398   1.938  11.708  0.0401 -0.0067 -0.8903
  157TCq2    C6 2393   2.531   1.981  11.692 -0.6815  0.3795  0.5362
  157TCq2    C7 2394   2.608   1.985  11.805  0.6764  0.5740  0.7509
  157TCq2    C8 2395   2.566   2.058  11.579  0.0575 -1.0483  0.1501
  157TCq2    O4 2396   2.664   2.132  11.587  0.3850  0.3864 -0.6487
  157TCq2    C9 2397   2.201   1.904  11.848  0.1509 -0.4810  0.4610
  157TCq2    O5 2398   2.134   1.912  11.738  0.1253 -0.2694  0.3882
  157TCq2    O6 2399   2.148   1.906  11.961 -0.8771 -0.1020  0.2386
  157TCq2    H2 2400   2.393   1.854  12.033  0.0743  0.6929 -0.6435
  157TCq2    H3 2401   2.333   1.957  11.624 -1.0425 -0.1245 -0.0760
  157TCq2    H4 2402   2.705   2.032  11.804 -1.4073  4.8036 -0.5821
  158TMC2    C1 2403   3.057   0.946  13.755 -0.1534 -0.1212  0.3309
  158TMC2    C2 2404   3.146   0.925  13.657  0.5646  0.0078  0.4692
  158TMC2    C3 2405   3.127   1.000  13.546 -0.0865 -0.7610  0.1862
  158TMC2    C4 2406   2.962   1.034  13.750  0.3058  0.0220 -0.6304
  158TMC2    C5 2407   2.943   1.110  13.639  1.0480 -0.3211  0.5087
  158TMC2    C6 2408   3.020   1.085  13.529  0.5877  0.1843 -0.0086
  158TMC2     C 2409   3.104   0.913  13.889  0.9818 -0.5725  0.5337
  158TMC2     O 2410   3.040   0.944  13.987  0.5988  0.4270 -0.4711
  158TMC2     H 2411   3.222   0.849  13.655 -0.4936 -1.0840  1.8805
  158TMC2    H1 2412   2.920   1.068  13.844 -1.2103 -1.4070 -0.7789
  158TMC2    H2 2413   3.007   1.128  13.431  1.7074 -0.8744 -0.6231
  158TMC2    C7 2414   2.810   1.165  13.622 -0.0926  0.3456  0.2706
  158TMC2    C8 2415   3.185   0.945  13.427  0.0911  0.0612 -0.0828
  158TMC2    O1 2416   2.790   1.194  13.505  0.0662  0.6467  0.1644
  158TMC2    O2 2417   3.119   0.898  13.336 -0.4605  0.1764 -0.3981
  158TMC2    O5 2418   3.313   0.916  13.456 -0.5257  0.0848  0.1187
  158TMC2    H5 2419   3.341   0.941  13.547 -1.6223  1.6553  0.0218
  159MPD2     C 2420   3.458   0.680  14.209 -0.6279 -0.3994 -0.8867
  159MPD2    C1 2421   3.328   0.730  14.233  0.0221 -0.1760  0.3357
  159MPD2    C2 2422   3.255   0.791  14.132 -1.0227 -1.0022 -0.1808
  159MPD2    C3 2423   3.304   0.797  14.003  0.0618 -0.5086  0.0590
  159MPD2    C4 2424   3.435   0.754  13.981 -0.2080  0.0212 -0.5050
  159MPD2    C5 2425   3.506   0.700  14.084 -0.9716  0.5470 -0.3846
  159MPD2     H 2426   3.152   0.823  14.144 -0.4962 -0.1766  2.1260
  159MPD2    H1 2427   3.480   0.753  13.882  0.8653  0.2584 -0.0216
  159MPD2    H2 2428   3.523   0.636  14.284  1.2545  2.2927 -0.9620
  159MPD2    H3 2429   3.599   0.655  14.053  0.8101  2.3683  2.3955
  159MPD2     N 2430   3.233   0.860  13.894  0.2602 -0.1396 -0.1846
  159MPD2    H5 2431   3.283   0.865  13.806  2.5500  3.0485  1.3288
  159MPD2    N1 2432   3.276   0.723  14.364 -0.4744 -0.0970 -0.6424
  159MPD2    H7 2433   3.317   0.656  14.428 -0.6214  2.5859  2.2103
  160TMC2    C1 2434   3.330   3.799   1.200  0.4276  0.4366 -0.9235
  160TMC2    C2 2435   3.449   3.836   1.260 -0.6949  0.0586 -0.2144
  160TMC2    C3 2436   3.496   3.965   1.237  0.4897 -0.5599  0.1028
  160TMC2    C4 2437   3.256   3.890   1.127 -0.4297  0.0221  0.3357
  160TMC2    C5 2438   3.294   4.017   1.118 -0.0567  0.0532 -0.3484
  160TMC2    C6 2439   3.408   4.055   1.188 -0.0959 -0.5423 -0.6038
  160TMC2     C 2440   3.252   3.704   1.275 -0.1426 -0.1530  0.7022
  160TMC2     O 2441   3.302   3.596   1.306  0.2081  0.3932 -0.0591
  160TMC2     H 2442   3.504   3.763   1.318 -2.4323 -3.1408 -2.6014
  160TMC2    H1 2443   3.169   3.863   1.068 -0.4202 -0.4077  0.5163
  160TMC2    H2 2444   3.431   4.160   1.203 -0.4891 -0.4148 -0.8714
  160TMC2    C7 2445   3.202   4.111   1.072 -1.1336  0.2013 -0.2682
  160TMC2    C8 2446   3.589   4.026   1.332 -0.3530  0.0557 -0.6810
  160TMC2    O1 2447   3.088   4.075   1.044 -0.0804  0.7732  0.6163
  160TMC2    O2 2448   3.575   4.141   1.368 -0.0650 -0.0021 -0.3976
  160TMC2    O5 2449   3.705   3.965   1.287  0.0645  0.1030 -0.1696
  160TMC2    H5 2450   3.701   3.872   1.256 -0.2650 -0.2100  0.8314
  161MPD2     C 2451   3.012   3.577   1.408  0.3187  0.4608 -0.0494
  161MPD2    C1 2452   3.019   3.707   1.371 -0.0490 -0.0017 -0.8009
  161MPD2    C2 2453   2.913   3.787   1.386  0.2922  0.0757 -0.1941
  161MPD2    C3 2454   2.801   3.735   1.449 -0.4315  0.7166  1.2721
  161MPD2    C4 2455   2.797   3.605   1.493 -0.0300 -0.1755 -0.0324
  161MPD2    C5 2456   2.909   3.528   1.471  0.0091 -0.4856 -0.4456
  161MPD2     H 2457   2.907   3.888   1.348  1.1935 -0.0731 -0.7494
  161MPD2    H1 2458   2.700   3.570   1.527 -0.3560 -0.3051 -1.0807
  161MPD2    H2 2459   3.095   3.509   1.391 -0.2975 -0.1878 -0.4909
  161MPD2    H3 2460   2.907   3.424   1.498 -1.2905 -0.1533  0.7589
  161MPD2     N 2461   2.692   3.833   1.456  0.1230  0.0718 -0.2602
  161MPD2    H5 2462   2.706   3.915   1.399 -1.8497  1.0254  0.6287
  161MPD2    N1 2463   3.128   3.766   1.301 -0.6773  0.0860  0.1514
  161MPD2    H7 2464   3.115   3.864   1.281  0.3188 -0.2243 -1.9849
  162TMC2    C1 2465   0.533   0.629   1.176 -0.2491  0.7954  0.0279
  162TMC2    C2 2466   0.458   0.653   1.066  0.1061  0.1316 -0.8031
  162TMC2    C3 2467   0.321   0.655   1.080  0.4494  0.0029  0.6131
  162TMC2    C4 2468   0.466   0.605   1.296  0.0878  0.6099  0.4999
  162TMC2    C5 2469   0.327   0.603   1.300 -0.1808 -0.6707 -0.4405
  162TMC2    C6 2470   0.254   0.630   1.187  0.3165  0.6456  0.0917
  162TMC2     C 2471   0.669   0.582   1.154  0.3842  0.5529  0.4949
  162TMC2     O 2472   0.684   0.536   1.042  0.4286 -0.2255  0.3744
  162TMC2     H 2473   0.504   0.678   0.971  2.4292 -2.2025 -0.2646
  162TMC2    H1 2474   0.527   0.584   1.383 -0.9859  0.2695  1.1676
  162TMC2    H2 2475   0.148   0.648   1.193  0.3553  0.7209  0.5689
  162TMC2    C7 2476   0.258   0.639   1.421  0.6744  0.3426  0.1597
  162TMC2    C8 2477   0.249   0.713   0.969 -0.2116 -0.2911 -0.4966
  162TMC2    O1 2478   0.137   0.622   1.419 -0.4523  0.0426  1.3997
  162TMC2    O2 2479   0.182   0.813   0.979 -0.0510 -0.2635  0.2036
  162TMC2    O5 2480   0.287   0.646   0.855 -0.0757 -0.1754  0.6586
  162TMC2    H5 2481   0.302   0.550   0.863  0.4300 -0.0941  0.6781
  163MPD2     C 2482   1.171   0.492   1.267  0.0789 -0.2316  0.0028
  163MPD2    C1 2483   1.111   0.533   1.147 -0.3353 -0.2290  0.3873
  163MPD2    C2 2484   0.976   0.546   1.136 -1.2816 -0.3619  0.1272
  163MPD2    C3 2485   0.903   0.541   1.259  0.0726  0.0942  0.4806
  163MPD2    C4 2486   0.962   0.520   1.382 -0.1697 -1.4298  0.0902
  163MPD2    C5 2487   1.094   0.492   1.375  0.2880  0.0536 -0.2457
  163MPD2     H 2488   0.916   0.573   1.050 -1.0291 -2.6730 -0.7614
  163MPD2    H1 2489   0.905   0.514   1.474  0.6204  0.4207  0.7043
  163MPD2    H2 2490   1.275   0.465   1.272  0.6087  2.1977  1.8576
  163MPD2    H3 2491   1.134   0.456   1.469  1.3705  0.8216 -0.4230
  163MPD2     N 2492   0.763   0.584   1.264  0.4382  0.3478  0.3020
  163MPD2    H5 2493   0.732   0.610   1.357 -0.4006  1.8640 -0.3852
  163MPD2    N1 2494   1.195   0.546   1.030 -0.2340 -0.0170  0.0198
  163MPD2    H7 2495   1.293   0.521   1.026 -0.6438 -1.6922  0.4648
  164TCq2    C1 2496   0.905   0.694  11.635 -0.1079 -0.6355 -0.3594
  164TCq2    O2 2497   0.811   0.631  11.682 -0.1371  0.0330  0.4507
  164TCq2    C2 2498   0.902   0.838  11.641  0.1065 -0.3578  0.5511
  164TCq2    C3 2499   1.011   0.910  11.603  0.4492  0.0585  0.6436
  164TCq2    C4 2500   0.990   1.040  11.589 -0.1453  0.5875 -0.7706
  164TCq2    C5 2501   0.871   1.098  11.618  0.0724  0.2543  0.2917
  164TCq2    C6 2502   0.772   1.030  11.672  0.4094  0.0244 -0.0018
  164TCq2    C7 2503   0.780   0.890  11.679  0.1680  0.0059 -0.1178
  164TCq2    C8 2504   0.659   1.097  11.719 -0.6443 -0.3282  0.3140
  164TCq2    O4 2505   0.634   1.204  11.661 -0.6674 -0.1817  0.2233
  164TCq2    C9 2506   1.109   1.119  11.566  0.2886 -0.0239  0.2018
  164TCq2    O5 2507   1.092   1.241  11.590 -0.2245 -0.2221  0.0207
  164TCq2    O6 2508   1.221   1.065  11.544  0.0643  0.4155 -0.4246
  164TCq2    H2 2509   1.109   0.869  11.585 -0.1673 -1.5899  1.0319
  164TCq2    H3 2510   0.858   1.204  11.597  0.7941  0.5525  1.3773
  164TCq2    H4 2511   0.700   0.832  11.723 -0.1133  0.5750  0.1234
  165MPD2     C 2512   2.243   2.735   1.984 -0.3489 -0.1624  0.0113
  165MPD2    C1 2513   2.282   2.702   1.862  0.3696  0.1498 -0.0324
  165MPD2    C2 2514   2.259   2.790   1.763  0.1177  0.0562 -0.4590
  165MPD2    C3 2515   2.208   2.916   1.786 -0.1332 -0.3103  0.0700
  165MPD2    C4 2516   2.158   2.947   1.913  0.1974  0.1465  0.2589
  165MPD2    C5 2517   2.182   2.854   2.015 -0.9873  0.4196 -0.3727
  165MPD2     H 2518   2.308   2.772   1.668 -0.5881  2.3167 -1.2373
  165MPD2    H1 2519   2.117   3.045   1.935 -0.0378  0.2185 -0.5141
  165MPD2    H2 2520   2.256   2.661   2.062  1.2437  2.1430  1.9182
  165MPD2    H3 2521   2.161   2.868   2.120  0.0747 -0.1549 -0.0888
  165MPD2     N 2522   2.194   3.016   1.686  0.1634  0.1290 -0.4701
  165MPD2    H5 2523   2.151   3.100   1.723 -1.3334 -1.6148  1.7435
  165MPD2    N1 2524   2.343   2.579   1.849  0.1293  0.2642  0.0654
  165MPD2    H7 2525   2.384   2.534   1.931  1.2706  2.4121  0.6943
  166TCq2    C1 2526   2.238   3.005   1.560  0.9045  0.2092 -0.1852
  166TCq2    O2 2527   2.301   2.915   1.497  0.2204 -0.4969 -0.3319
  166TCq2    C2 2528   2.221   3.141   1.506  0.2271  0.2395  0.0681
  166TCq2    C3 2529   2.111   3.217   1.545  0.3569  0.3440  0.9285
  166TCq2    C4 2530   2.103   3.347   1.514 -0.5790 -0.2475 -0.1623
  166TCq2    C5 2531   2.204   3.409   1.442  0.0804 -0.1603 -0.9151
  166TCq2    C6 2532   2.309   3.323   1.412 -0.7077 -0.5232 -0.2056
  166TCq2    C7 2533   2.319   3.193   1.440  0.5682  0.4296 -0.5997
  166TCq2    C8 2534   2.417   3.378   1.340 -0.4305  0.0729  0.4005
  166TCq2    O4 2535   2.521   3.310   1.346  0.1214  0.7799 -0.0399
  166TCq2    C9 2536   1.998   3.436   1.560  0.3870 -1.3544  0.5364
  166TCq2    O5 2537   1.982   3.537   1.486 -0.3552 -0.1623 -0.3458
  166TCq2    O6 2538   1.934   3.409   1.662  0.6567 -0.1724 -0.3758
  166TCq2    H2 2539   2.028   3.161   1.587  0.3347  0.1777  0.6609
  166TCq2    H3 2540   2.209   3.517   1.430  0.8934 -0.3751 -2.3966
  166TCq2    H4 2541   2.395   3.125   1.405  0.9416  0.8306 -0.5745
  167TMC2    C1 2542   0.632   0.962  13.474 -0.1636  0.6637 -0.0804
  167TMC2    C2 2543   0.638   0.987  13.609 -0.2690  0.0975  0.2075
  167TMC2    C3 2544   0.568   0.902  13.689  0.4162  0.1577 -0.0251
  167TMC2    C4 2545   0.562   0.862  13.419 -0.2538 -0.2645 -0.6600
  167TMC2    C5 2546   0.489   0.779  13.508 -0.4413  0.0868  0.3759
  167TMC2    C6 2547   0.487   0.806  13.641  0.2179  0.0629 -0.1825
  167TMC2     C 2548   0.698   1.058  13.391 -0.5323 -0.5876  0.0592
  167TMC2     O 2549   0.753   1.158  13.441  0.2621 -0.3625 -0.1700
  167TMC2     H 2550   0.690   1.072  13.651  2.0844 -1.5323  0.5500
  167TMC2    H1 2551   0.536   0.860  13.313  0.9873 -1.7907 -0.9423
  167TMC2    H2 2552   0.430   0.744  13.709  1.9253  0.1382  1.3240
  167TMC2    C7 2553   0.402   0.670  13.469 -0.0674 -0.4645  0.0747
  167TMC2    C8 2554   0.549   0.934  13.828  0.2610 -0.2603 -0.4594
  167TMC2    O1 2555   0.301   0.651  13.535 -0.1987 -0.3509 -0.5222
  167TMC2    O2 2556   0.454   0.895  13.895  0.2137 -0.5176 -0.6291
  167TMC2    O5 2557   0.674   0.938  13.879 -0.0717 -0.5415  0.2456
  167TMC2    H5 2558   0.752   0.922  13.822 -0.2565  1.7144 -0.6365
  168MPD2     C 2559   0.765   1.242  13.162  0.5420  0.5879 -0.0099
  168MPD2    C1 2560   0.718   1.112  13.148 -0.2612 -0.6967  0.1946
  168MPD2    C2 2561   0.701   1.064  13.026  0.2049  0.4445 -0.3216
  168MPD2    C3 2562   0.721   1.145  12.915  0.7465 -0.0999  0.0815
  168MPD2    C4 2563   0.744   1.279  12.932 -0.5767 -0.4447 -0.0823
  168MPD2    C5 2564   0.756   1.326  13.057 -0.0902 -0.2920  0.0917
  168MPD2     H 2565   0.666   0.964  13.007 -1.1757  1.2903 -2.1848
  168MPD2    H1 2566   0.752   1.346  12.847  1.4868 -3.3082 -2.1194
  168MPD2    H2 2567   0.787   1.284  13.260 -0.2154 -1.7159  1.1631
  168MPD2    H3 2568   0.779   1.431  13.070 -0.6067 -0.2690  0.7855
  168MPD2     N 2569   0.704   1.093  12.783  0.9523  0.0916 -0.0753
  168MPD2    H5 2570   0.672   1.159  12.712 -3.7472 -3.4911 -1.2605
  168MPD2    N1 2571   0.696   1.021  13.258 -0.2520  0.0047  0.3588
  168MPD2    H7 2572   0.673   0.926  13.233  3.9025 -0.8093 -0.2925
  169MPD1     C 2573   2.246   0.742   9.313  0.2848  0.3471  0.1303
  169MPD1    C1 2574   2.383   0.740   9.333 -0.0902 -0.3582 -0.2719
  169MPD1    C2 2575   2.451   0.623   9.358  0.1132  0.4240  0.0023
  169MPD1    C3 2576   2.371   0.511   9.378  0.2575  0.0064 -0.2883
  169MPD1    C4 2577   2.235   0.517   9.371 -0.2069  0.2041 -0.5103
  169MPD1    C5 2578   2.175   0.633   9.337  0.2666 -0.4606  0.0425
  169MPD1     H 2579   2.558   0.635   9.360  0.0134  1.2828  0.2098
  169MPD1    H1 2580   2.167   0.434   9.386  0.1917  0.1314  0.9859
  169MPD1    H2 2581   2.192   0.830   9.283  1.9701  1.0095 -0.9593
  169MPD1    H3 2582   2.068   0.628   9.328  0.0590  2.0733  0.9612
  169MPD1     N 2583   2.446   0.396   9.408 -0.4339  0.1352 -0.1017
  169MPD1    H5 2584   2.545   0.414   9.394 -0.6400  0.5308 -1.0392
  169MPD1    N1 2585   2.456   0.849   9.280  0.1131  0.4164  0.7276
  169MPD1    H6 2586   2.551   0.864   9.314  1.0588  0.3331 -1.8736
  169MPD1    H7 2587   2.395   0.930   9.290 -1.0897 -0.3378 -0.5365
  170MPD1     C 2588   1.589   2.212  12.911  0.0187 -0.4852  0.0203
  170MPD1    C1 2589   1.578   2.170  13.039  0.1356 -0.3043  0.3183
  170MPD1    C2 2590   1.587   2.268  13.133 -1.0065  0.1262 -0.0684
  170MPD1    C3 2591   1.588   2.404  13.104  0.3078 -0.3223 -0.0299
  170MPD1    C4 2592   1.569   2.442  12.972 -0.0449  0.8587 -0.2315
  170MPD1    C5 2593   1.572   2.344  12.878  0.0162 -0.1891 -0.2148
  170MPD1     H 2594   1.603   2.232  13.234 -0.7002 -1.5557 -0.7167
  170MPD1    H1 2595   1.557   2.547  12.946 -2.5839  0.7428  0.4895
  170MPD1    H2 2596   1.598   2.143  12.828 -0.0220 -1.2753  0.6725
  170MPD1    H3 2597   1.546   2.383  12.781  0.1249 -0.0924 -0.2041
  170MPD1     N 2598   1.581   2.494  13.213 -0.2724 -0.1071  0.2822
  170MPD1    H5 2599   1.584   2.464  13.310  0.6171  0.3071  0.3758
  170MPD1    N1 2600   1.593   2.028  13.067  0.2995 -0.5923  0.0336
  170MPD1    H6 2601   1.567   1.958  12.998 -1.2014 -1.6460  1.6339
  170MPD1    H7 2602   1.546   2.002  13.154 -0.7287 -2.2072 -1.0048
  171MPD1     C 2603   0.419   4.239  15.475 -0.0511 -0.1290  0.2594
  171MPD1    C1 2604   0.485   4.132  15.431 -0.2478  0.0148 -0.4471
  171MPD1    C2 2605   0.524   4.038  15.528  0.4182  1.3231  0.2375
  171MPD1    C3 2606   0.473   4.040  15.656  0.5494 -0.1606 -0.0969
  171MPD1    C4 2607   0.396   4.147  15.700 -1.1684  0.1934 -0.2900
  171MPD1    C5 2608   0.378   4.244  15.610  0.2465  0.3422 -0.3564
  171MPD1     H 2609   0.583   3.958  15.484 -1.6588  1.6126 -3.0393
  171MPD1    H1 2610   0.364   4.155  15.803  1.9317 -0.7371  0.7435
  171MPD1    H2 2611   0.369   4.309  15.410  1.2587 -0.0765 -0.6819
  171MPD1    H3 2612   0.309   4.324  15.635 -0.8849 -0.6304 -0.4097
  171MPD1     N 2613   0.497   3.937  15.748  0.5792  0.2641 -0.0278
  171MPD1    H5 2614   0.472   3.957  15.845 -2.4000 -0.1604 -0.7087
  171MPD1    N1 2615   0.528   4.131  15.299 -0.4112  0.5594  0.2224
  171MPD1    H6 2616   0.545   4.037  15.263 -2.0452  0.3646 -0.0573
  171MPD1    H7 2617   0.471   4.190  15.238 -0.2030  0.3447 -0.1805
  172MPD1     C 2618   4.034   2.751   0.622  0.0789 -0.7092 -0.0156
  172MPD1    C1 2619   4.069   2.659   0.528 -0.4001  0.6262  1.0409
  172MPD1    C2 2620   4.174   2.693   0.438  0.1746  0.3866  0.3255
  172MPD1    C3 2621   4.238   2.818   0.456 -0.2839  0.3810  0.5184
  172MPD1    C4 2622   4.207   2.900   0.558 -0.2742 -0.3041 -0.2154
  172MPD1    C5 2623   4.102   2.867   0.643 -0.2653  0.0366 -0.0132
  172MPD1     H 2624   4.189   2.625   0.354 -3.5063  0.8635 -0.7064
  172MPD1    H1 2625   4.265   2.990   0.576 -0.7889 -0.0082 -0.0234
  172MPD1    H2 2626   3.951   2.728   0.687  1.1609 -2.5231  0.7278
  172MPD1    H3 2627   4.083   2.946   0.715  0.6998  0.5706 -0.3448
  172MPD1     N 2628   4.336   2.872   0.365 -0.1734 -0.0296  0.1518
  172MPD1    H5 2629   4.372   2.961   0.398 -0.0748 -0.2443  0.6224
  172MPD1    N1 2630   3.986   2.546   0.520 -0.1233 -0.3342 -0.4378
  172MPD1    H6 2631   3.965   2.514   0.614  1.1127 -0.6255 -0.2606
  172MPD1    H7 2632   4.044   2.469   0.487  1.0048 -0.0564  0.9160
  173MPD1     C 2633   0.736   3.657  13.858  0.3328 -0.2038 -0.0702
  173MPD1    C1 2634   0.691   3.683  13.984 -0.3503 -0.1575  0.3116
  173MPD1    C2 2635   0.736   3.595  14.081 -0.3138  0.3908  0.2389
  173MPD1    C3 2636   0.806   3.474  14.053 -0.0233 -0.2452 -0.7879
  173MPD1    C4 2637   0.837   3.449  13.925  0.1253  0.2401 -0.1148
  173MPD1    C5 2638   0.792   3.534  13.831 -0.1034  0.0507 -0.4342
  173MPD1     H 2639   0.710   3.612  14.185  0.6130 -2.2723  0.9081
  173MPD1    H1 2640   0.914   3.377  13.897  0.5321  0.9031 -0.6946
  173MPD1    H2 2641   0.714   3.718  13.771 -0.1359 -0.5392 -0.1879
  173MPD1    H3 2642   0.844   3.511  13.739 -0.6113 -1.3340 -0.3770
  173MPD1     N 2643   0.857   3.403  14.161  0.2174 -0.0284 -0.6697
  173MPD1    H5 2644   0.849   3.448  14.252  2.0049 -0.9936 -0.0370
  173MPD1    N1 2645   0.625   3.803  14.008  0.3604  0.5770  0.3857
  173MPD1    H6 2646   0.573   3.807  14.095  0.5943 -2.7936  0.6712
  173MPD1    H7 2647   0.581   3.846  13.926  0.5797  0.3083  0.1268
  174MPD1     C 2648   1.635   2.911  14.123 -0.2226  0.5668 -0.2565
  174MPD1    C1 2649   1.608   2.859  14.246  0.5771  0.1785  0.6332
  174MPD1    C2 2650   1.479   2.892  14.304 -0.0724 -0.7425 -0.0071
  174MPD1    C3 2651   1.390   2.971  14.232  0.1989  1.3102 -0.7129
  174MPD1    C4 2652   1.417   3.008  14.103 -0.2463 -0.2576 -0.4849
  174MPD1    C5 2653   1.542   2.977  14.051  0.4067 -0.2722 -0.3964
  174MPD1     H 2654   1.446   2.865  14.404  1.0136 -0.1941  0.5010
  174MPD1    H1 2655   1.350   3.069  14.044 -0.8242 -0.8877 -0.4729
  174MPD1    H2 2656   1.733   2.906  14.078 -0.7373 -0.2919 -1.3065
  174MPD1    H3 2657   1.576   3.013  13.955  1.7074 -0.9837 -0.2105
  174MPD1     N 2658   1.260   3.005  14.274 -0.0153  0.2706  0.9675
  174MPD1    H5 2659   1.203   3.062  14.211 -0.3517  0.9390  1.8783
  174MPD1    N1 2660   1.712   2.801  14.320 -0.1542 -0.2130  0.3710
  174MPD1    H6 2661   1.782   2.751  14.265  1.1122  0.3793  1.4528
  174MPD1    H7 2662   1.688   2.744  14.402 -1.8197 -0.7972 -0.5242
  175MPD1     C 2663   3.973   4.211  15.669  0.4243  0.1328 -0.3666
  175MPD1    C1 2664   4.113   4.192  15.684 -0.1501 -0.1232  0.2125
  175MPD1    C2 2665   4.149   4.098  15.778 -0.6066 -0.6867  0.3157
  175MPD1    C3 2666   4.053   4.014  15.836 -0.1726  0.2743 -0.2855
  175MPD1    C4 2667   3.918   4.022  15.808 -0.2791 -0.4310 -0.5125
  175MPD1    C5 2668   3.876   4.131  15.727  0.3921  0.7120  0.5446
  175MPD1     H 2669   4.255   4.088  15.800 -0.7026 -0.5728  0.8322
  175MPD1    H1 2670   3.842   3.960  15.854  1.9413 -2.3741  0.5403
  175MPD1    H2 2671   3.934   4.285  15.601  1.7638  1.6401  0.5019
  175MPD1    H3 2672   3.770   4.134  15.703  0.7483 -0.6735 -1.1382
  175MPD1     N 2673   4.077   3.929  15.943  0.0829 -0.1574  0.1306
  175MPD1    H5 2674   3.994   3.893  15.989  0.5495 -0.5976  0.6297
  175MPD1    N1 2675   4.207   4.282  15.630 -0.5048 -0.2086  0.2138
  175MPD1    H6 2676   4.180   4.330  15.545 -0.9516 -3.1427 -1.3043
  175MPD1    H7 2677   4.297   4.235  15.623  0.1951  1.1517  0.1914
  176MPD1     C 2678   0.820   0.867  17.411 -0.0135  0.2485 -0.1393
  176MPD1    C1 2679   0.835   0.922  17.286 -0.3509 -0.1666  0.2243
  176MPD1    C2 2680   0.881   1.055  17.277 -0.4622 -0.4581 -0.5923
  176MPD1    C3 2681   0.898   1.126  17.395 -0.4520  0.2129  0.3461
  176MPD1    C4 2682   0.877   1.074  17.520  0.4444  0.4998  0.5584
  176MPD1    C5 2683   0.846   0.940  17.527 -0.3103  0.3629 -0.4166
  176MPD1     H 2684   0.883   1.106  17.181  0.9522 -1.8574 -1.2924
  176MPD1    H1 2685   0.878   1.135  17.609  2.1868 -0.8808  1.4906
  176MPD1    H2 2686   0.793   0.762  17.414  2.0615 -0.2704  0.0829
  176MPD1    H3 2687   0.827   0.909  17.629 -0.7111  1.4204 -0.1649
  176MPD1     N 2688   0.946   1.259  17.392 -0.3034 -0.8152 -0.4022
  176MPD1    H5 2689   0.944   1.312  17.305 -0.8209  0.4446  0.3808
  176MPD1    N1 2690   0.794   0.852  17.173  0.5257  0.7672 -0.0204
  176MPD1    H6 2691   0.851   0.885  17.096  2.7748 -2.4502  0.2509
  176MPD1    H7 2692   0.798   0.750  17.175  0.2121  0.7494 -0.5347
  177MPD1     C 2693   3.088   1.859   8.455 -0.0481  0.5441  0.5210
  177MPD1    C1 2694   3.167   1.749   8.482 -0.3961  0.8453  0.3929
  177MPD1    C2 2695   3.151   1.675   8.595 -0.1581  0.3107 -0.4166
  177MPD1    C3 2696   3.059   1.720   8.687  0.2376  1.0184  0.7635
  177MPD1    C4 2697   2.993   1.841   8.668  0.6136  0.1474  0.0599
  177MPD1    C5 2698   3.018   1.914   8.560 -0.2741  0.6771 -0.6354
  177MPD1     H 2699   3.200   1.579   8.609 -1.4855 -0.5286 -1.4868
  177MPD1    H1 2700   2.938   1.891   8.747  1.5924 -2.7661  2.6203
  177MPD1    H2 2701   3.102   1.921   8.367 -0.5828  1.0377  0.7839
  177MPD1    H3 2702   2.967   2.009   8.548 -0.8677  0.5945  1.1465
  177MPD1     N 2703   3.045   1.637   8.802 -0.5020 -1.2592 -0.1756
  177MPD1    H5 2704   3.081   1.542   8.799 -1.5170 -1.6536  0.3105
  177MPD1    N1 2705   3.249   1.702   8.376  0.2335  0.2591 -0.5875
  177MPD1    H6 2706   3.299   1.777   8.329  0.4377  0.6581  0.2815
  177MPD1    H7 2707   3.323   1.640   8.408 -0.3112  0.6354  1.3646
  178MPD1     C 2708   1.528   1.665   0.575  0.0654 -0.4208 -0.6325
  178MPD1    C1 2709   1.519   1.792   0.519  0.3345  0.0558 -0.2936
  178MPD1    C2 2710   1.540   1.791   0.383  0.4151 -0.1862 -0.3064
  178MPD1    C3 2711   1.540   1.673   0.308  0.5441  0.7721 -0.5154
  178MPD1    C4 2712   1.543   1.553   0.374 -0.3851 -0.3232  0.5691
  178MPD1    C5 2713   1.542   1.549   0.508 -0.4117 -0.1336  0.2982
  178MPD1     H 2714   1.542   1.889   0.336 -0.6459 -0.2157 -0.3994
  178MPD1    H1 2715   1.539   1.460   0.319  3.2646 -0.2132  0.1602
  178MPD1    H2 2716   1.520   1.653   0.682 -2.0714 -3.3435 -1.0831
  178MPD1    H3 2717   1.561   1.453   0.555 -1.0761 -0.7351 -0.6680
  178MPD1     N 2718   1.543   1.670   0.166 -0.3226  0.0974  0.3863
  178MPD1    H5 2719   1.547   1.576   0.129 -0.6901  0.1991  0.0879
  178MPD1    N1 2720   1.522   1.905   0.597 -0.0960 -0.3428 -0.2104
  178MPD1    H6 2721   1.493   1.991   0.551  0.8139 -0.1156 -0.3716
  178MPD1    H7 2722   1.456   1.896   0.674  0.4027 -1.5423  0.0705
  179MPD1     C 2723   0.996   0.419  15.486  0.4576  0.5139  0.7254
  179MPD1    C1 2724   1.011   0.433  15.623  0.3138 -0.2982 -0.0274
  179MPD1    C2 2725   1.079   0.341  15.684  0.2168  0.0157  0.1306
  179MPD1    C3 2726   1.127   0.226  15.629 -0.0455  0.6292 -0.0495
  179MPD1    C4 2727   1.101   0.206  15.499  0.5436  0.0885  0.5637
  179MPD1    C5 2728   1.044   0.307  15.427 -0.5774 -0.7684  0.2100
  179MPD1     H 2729   1.101   0.353  15.790 -0.3479  1.4515  0.0758
  179MPD1    H1 2730   1.126   0.119  15.438  0.0606  0.3638 -0.0287
  179MPD1    H2 2731   0.964   0.495  15.416 -2.4093 -0.6866  0.7347
  179MPD1    H3 2732   1.019   0.302  15.322 -1.8720  0.9484  0.4340
  179MPD1     N 2733   1.201   0.128  15.703 -0.3121 -0.4257 -0.0572
  179MPD1    H5 2734   1.239   0.047  15.656 -0.3948 -0.9628  0.8166
  179MPD1    N1 2735   0.963   0.555  15.684  0.1847  0.4013 -0.0309
  179MPD1    H6 2736   0.883   0.588  15.631  0.6962  0.3234 -0.8526
  179MPD1    H7 2737   0.947   0.552  15.784 -2.0433  1.1539 -0.3819
  180MPD1     C 2738   1.482   1.927  15.263 -0.1272  0.9103  0.3739
  180MPD1    C1 2739   1.393   1.846  15.197  0.5577 -0.1103 -0.6724
  180MPD1    C2 2740   1.397   1.847  15.059  0.1815 -0.0326  0.1384
  180MPD1    C3 2741   1.463   1.950  14.989  1.0923 -1.1496 -0.1833
  180MPD1    C4 2742   1.544   2.039  15.054 -0.0747 -0.4845  0.7721
  180MPD1    C5 2743   1.551   2.023  15.187 -0.4667 -0.2416 -0.4078
  180MPD1     H 2744   1.336   1.780  15.000  1.7287 -1.5258  0.2088
  180MPD1    H1 2745   1.595   2.125  15.012 -1.0269 -1.0900 -1.6215
  180MPD1    H2 2746   1.490   1.924  15.371 -0.3656 -0.8691  0.3476
  180MPD1    H3 2747   1.601   2.101  15.243 -0.8785  1.2493 -2.1181
  180MPD1     N 2748   1.427   1.962  14.851  0.3290  0.4433  0.3510
  180MPD1    H5 2749   1.358   1.897  14.815 -0.4335  0.2621  2.1579
  180MPD1    N1 2750   1.335   1.737  15.262  0.7226 -0.3719  0.1776
  180MPD1    H6 2751   1.260   1.694  15.208 -1.1162  1.4297  1.3236
  180MPD1    H7 2752   1.291   1.765  15.349  0.2142  2.9309 -1.1704
  181MPD1     C 2753   3.381   3.503   9.426 -0.4355  0.1658 -0.1807
  181MPD1    C1 2754   3.308   3.514   9.543 -0.0225 -0.3496  0.4790
  181MPD1    C2 2755   3.371   3.490   9.664 -0.1198 -0.6037 -0.4885
  181MPD1    C3 2756   3.506   3.447   9.668 -0.2443 -0.1117  0.5389
  181MPD1    C4 2757   3.574   3.446   9.545 -0.3264 -0.0544  0.2189
  181MPD1    C5 2758   3.507   3.465   9.426 -0.1292 -0.6759  0.1197
  181MPD1     H 2759   3.318   3.486   9.758 -0.8385  0.8113 -0.8450
  181MPD1    H1 2760   3.679   3.420   9.535 -0.0601  1.0034  0.3000
  181MPD1    H2 2761   3.335   3.520   9.329 -1.0233 -1.4709 -0.1851
  181MPD1    H3 2762   3.564   3.440   9.338 -0.1482 -0.3280  0.0086
  181MPD1     N 2763   3.572   3.400   9.787  0.1764  0.5427 -0.1028
  181MPD1    H5 2764   3.664   3.359   9.772 -0.0987  0.5508 -1.7820
  181MPD1    N1 2765   3.172   3.538   9.543  0.0915 -1.1625  0.3963
  181MPD1    H6 2766   3.144   3.538   9.641  0.8852  0.0077  0.6155
  181MPD1    H7 2767   3.141   3.623   9.496 -1.2230 -0.9893  1.5663
  182MPD1     C 2768   4.504   2.378   1.313  0.4082 -0.7649 -0.0072
  182MPD1    C1 2769   4.496   2.318   1.190 -0.8062  0.5558  0.3507
  182MPD1    C2 2770   4.371   2.305   1.133 -1.0590  0.5205  0.1334
  182MPD1    C3 2771   4.253   2.328   1.199  0.2158 -0.5523  0.0955
  182MPD1    C4 2772   4.268   2.395   1.318  0.0516 -0.0231 -0.4984
  182MPD1    C5 2773   4.389   2.425   1.375  0.0493  0.0039  0.4677
  182MPD1     H 2774   4.358   2.266   1.032 -0.6236  0.1879  0.2086
  182MPD1    H1 2775   4.183   2.414   1.383 -0.5918 -1.2591 -0.9828
  182MPD1    H2 2776   4.594   2.390   1.371  0.4664 -1.2432  0.0052
  182MPD1    H3 2777   4.396   2.460   1.478  0.0574 -1.6162  1.0279
  182MPD1     N 2778   4.129   2.284   1.148  0.1281  0.4105  1.2366
  182MPD1    H5 2779   4.055   2.314   1.210  0.3111  1.0656  1.1439
  182MPD1    N1 2780   4.620   2.278   1.137  0.3168 -0.3070  0.9337
  182MPD1    H6 2781   4.700   2.273   1.200  1.3171  1.7124 -0.1651
  182MPD1    H7 2782   4.611   2.186   1.096 -0.7517 -0.9547  2.6099
  183MPD1     C 2783   3.597   4.010  10.397 -0.1150 -0.3542 -0.5515
  183MPD1    C1 2784   3.732   3.991  10.431 -0.2279 -1.2465 -0.2892
  183MPD1    C2 2785   3.817   3.930  10.339 -0.2838 -0.4002  0.0566
  183MPD1    C3 2786   3.762   3.861  10.233 -0.4180 -0.2808 -0.7809
  183MPD1    C4 2787   3.622   3.868  10.212 -0.8110 -0.3053 -0.0994
  183MPD1    C5 2788   3.542   3.956  10.283  0.1052 -0.4491 -0.2873
  183MPD1     H 2789   3.925   3.925  10.354 -0.0941  1.8108 -0.4736
  183MPD1    H1 2790   3.575   3.812  10.131  1.0420  0.1333 -1.4728
  183MPD1    H2 2791   3.537   4.079  10.456  0.1331 -0.2840 -0.3778
  183MPD1    H3 2792   3.440   3.969  10.249  0.2962  0.0544 -0.6602
  183MPD1     N 2793   3.855   3.788  10.143  0.7921  0.3635 -0.1840
  183MPD1    H5 2794   3.953   3.780  10.167  1.5718  1.4080 -2.9811
  183MPD1    N1 2795   3.791   4.054  10.545  0.2999 -0.5586 -0.2711
  183MPD1    H6 2796   3.720   4.054  10.618  0.9043  1.4619  0.3128
  183MPD1    H7 2797   3.872   4.002  10.578  1.9210  1.7336 -0.6742
  184MPD1     C 2798   2.560   0.524  10.189 -0.5690 -0.9153  0.4854
  184MPD1    C1 2799   2.692   0.534  10.189  0.2661 -0.4749 -0.5465
  184MPD1    C2 2800   2.752   0.626  10.094 -0.9830 -0.2489  0.3066
  184MPD1    C3 2801   2.677   0.709  10.016 -0.1211 -0.2021 -0.2034
  184MPD1    C4 2802   2.534   0.700  10.021 -0.2834  0.3928  0.8615
  184MPD1    C5 2803   2.479   0.610  10.114  0.5050  0.1742  0.1653
  184MPD1     H 2804   2.860   0.630  10.077 -0.8558 -1.1356  0.8863
  184MPD1    H1 2805   2.474   0.759   9.952 -1.3734  0.8920  2.2408
  184MPD1    H2 2806   2.513   0.445  10.246 -5.1611  1.7780  0.4460
  184MPD1    H3 2807   2.374   0.583  10.125  0.4071 -0.3500 -2.1851
  184MPD1     N 2808   2.723   0.805   9.927  0.4687  0.0225 -0.0180
  184MPD1    H5 2809   2.654   0.863   9.880  1.2466 -1.3498 -2.8949
  184MPD1    N1 2810   2.769   0.451  10.268 -0.2873  0.0355 -0.6912
  184MPD1    H6 2811   2.704   0.422  10.340 -0.6259 -1.9348 -1.7981
  184MPD1    H7 2812   2.842   0.502  10.318 -0.1209  0.0587 -0.9611
  185MPD1     C 2813   2.532   1.276   9.073 -0.1845 -0.2205 -0.0096
  185MPD1    C1 2814   2.578   1.147   9.089  0.3995  0.4104 -0.6506
  185MPD1    C2 2815   2.627   1.109   9.221  0.9160  0.3497  0.1426
  185MPD1    C3 2816   2.625   1.198   9.324  0.1603  0.1245  0.0222
  185MPD1    C4 2817   2.576   1.328   9.303  0.0965  0.2050  0.4876
  185MPD1    C5 2818   2.527   1.360   9.183  0.1932  0.3690 -0.7764
  185MPD1     H 2819   2.663   1.008   9.233 -0.8245 -0.2808  0.0683
  185MPD1    H1 2820   2.549   1.391   9.387  2.3575  1.6881  0.0973
  185MPD1    H2 2821   2.487   1.310   8.980  0.3989 -0.2084 -0.2894
  185MPD1    H3 2822   2.494   1.460   9.159  0.9555  0.2441 -2.3825
  185MPD1     N 2823   2.678   1.171   9.456  0.5943 -0.6453 -0.1612
  185MPD1    H5 2824   2.687   1.255   9.513 -0.1664  0.0812 -1.1133
  185MPD1    N1 2825   2.550   1.042   8.997 -0.1225  0.3787 -0.6866
  185MPD1    H6 2826   2.558   1.062   8.897  1.4302  0.0926 -0.6161
  185MPD1    H7 2827   2.610   0.961   9.004 -1.3836 -0.4750  0.0722
  186MPD1     C 2828   0.808   0.595  15.967 -0.2340 -0.6693 -0.3303
  186MPD1    C1 2829   0.881   0.700  16.005  0.4503 -0.2343  1.5085
  186MPD1    C2 2830   1.002   0.684  16.064  0.4810 -0.0501  0.4871
  186MPD1    C3 2831   1.052   0.556  16.085  0.0628  0.6030  0.6892
  186MPD1    C4 2832   0.971   0.450  16.058 -0.6869  0.1672 -0.9625
  186MPD1    C5 2833   0.855   0.469  15.996  0.1285 -0.4115  0.0627
  186MPD1     H 2834   1.053   0.774  16.096 -3.6926  2.2065  0.6937
  186MPD1    H1 2835   0.990   0.345  16.081 -1.5753  0.0529 -0.7484
  186MPD1    H2 2836   0.712   0.605  15.920 -0.4746 -2.0084 -0.1285
  186MPD1    H3 2837   0.792   0.383  15.977 -0.4933 -0.0280  0.3779
  186MPD1     N 2838   1.179   0.537  16.148 -0.1085  0.5739 -0.2122
  186MPD1    H5 2839   1.206   0.440  16.164  1.9948  1.2886  0.4794
  186MPD1    N1 2840   0.828   0.826  15.992 -0.6221  0.3011 -0.4145
  186MPD1    H6 2841   0.739   0.826  15.942 -0.3073 -0.2567 -0.9715
  186MPD1    H7 2842   0.891   0.896  15.954 -0.5506  0.5920  0.2238
  187MPD1     C 2843   1.272   2.392  17.635  0.6728 -0.0728  0.7271
  187MPD1    C1 2844   1.140   2.403  17.667 -0.5231  0.4801  0.8073
  187MPD1    C2 2845   1.048   2.409  17.562 -0.2021  0.1017  0.0422
  187MPD1    C3 2846   1.088   2.403  17.431 -0.5525 -0.6212  0.7160
  187MPD1    C4 2847   1.220   2.392  17.405 -0.0376  0.0982  0.2379
  187MPD1    C5 2848   1.318   2.389  17.504  0.0823  0.7781  0.1241
  187MPD1     H 2849   0.942   2.422  17.580 -0.2952 -1.1854  0.4404
  187MPD1    H1 2850   1.236   2.401  17.298 -2.8582  0.1897 -0.1983
  187MPD1    H2 2851   1.350   2.395   0.014  2.3616  1.8623 -1.0641
  187MPD1    H3 2852   1.424   2.382  17.482  0.1165 -1.7333  1.1232
  187MPD1     N 2853   1.002   2.416  17.326  0.1731  1.1617  0.2006
  187MPD1    H5 2854   1.037   2.422  17.231 -1.8447 -0.6189 -0.6716
  187MPD1    N1 2855   1.102   2.432   0.102 -0.2820 -0.1603 -0.3727
  187MPD1    H6 2856   1.022   2.373   0.122  1.1876 -1.5694  1.4187
  187MPD1    H7 2857   1.171   2.403   0.171  0.4397 -1.1065 -1.4756
  188MPD1     C 2858   0.977   2.359   9.186 -0.4059 -0.8740  0.2021
  188MPD1    C1 2859   0.841   2.354   9.180  0.2987  0.8709  0.1329
  188MPD1    C2 2860   0.762   2.270   9.263 -0.6701 -0.6033  0.1246
  188MPD1    C3 2861   0.823   2.179   9.342  0.7787  0.1881 -0.9710
  188MPD1    C4 2862   0.960   2.173   9.332 -0.1408  0.0105  0.2493
  188MPD1    C5 2863   1.038   2.266   9.266 -0.1213 -0.1714 -0.0914
  188MPD1     H 2864   0.655   2.278   9.246 -0.7026 -0.8709  0.2093
  188MPD1    H1 2865   1.017   2.109   9.398  0.0979 -1.1607 -1.0657
  188MPD1    H2 2866   1.036   2.410   9.111 -1.0530 -0.5123 -0.0610
  188MPD1    H3 2867   1.145   2.251   9.258  0.2124  2.9611 -1.5179
  188MPD1     N 2868   0.750   2.075   9.410 -0.3939 -0.2843 -0.2546
  188MPD1    H5 2869   0.803   1.999   9.452  0.1355 -0.4461 -1.1929
  188MPD1    N1 2870   0.781   2.430   9.080  0.0937  0.3910  0.5496
  188MPD1    H6 2871   0.695   2.474   9.111  1.7154  3.6397  0.4007
  188MPD1    H7 2872   0.835   2.511   9.050  2.0330 -1.9315 -2.2213
  189MPD1     C 2873   3.050   2.002   0.409  0.0549 -0.0450 -0.2267
  189MPD1    C1 2874   2.952   1.934   0.471 -0.1786  0.0396  0.0672
  189MPD1    C2 2875   2.823   1.976   0.456 -0.8789  0.6290  0.1700
  189MPD1    C3 2876   2.783   2.090   0.386 -0.3913 -0.0433 -0.2811
  189MPD1    C4 2877   2.886   2.163   0.328 -0.3640  0.6518  0.1968
  189MPD1    C5 2878   3.018   2.114   0.339 -0.0101  0.6799  0.6250
  189MPD1     H 2879   2.746   1.906   0.487 -0.2841 -0.2431 -0.3199
  189MPD1    H1 2880   2.878   2.252   0.267 -0.8666  0.4040 -0.1067
  189MPD1    H2 2881   3.156   1.976   0.409 -0.0441 -0.4150  1.2741
  189MPD1    H3 2882   3.104   2.163   0.295  1.5619 -1.8391  0.8516
  189MPD1     N 2883   2.646   2.129   0.375  0.3176 -0.9523  0.2078
  189MPD1    H5 2884   2.580   2.063   0.414 -0.4221  0.6166  1.6308
  189MPD1    N1 2885   2.972   1.802   0.533  0.0524  0.1409  0.3551
  189MPD1    H6 2886   2.919   1.787   0.619  1.1941 -1.5922  0.7706
  189MPD1    H7 2887   3.068   1.794   0.567  0.8097  1.3756 -1.5341
  190MPD1     C 2888   1.280   2.212  15.883  0.9015 -0.3744  0.3802
  190MPD1    C1 2889   1.346   2.118  15.954  0.1321 -0.2098  0.3853
  190MPD1    C2 2890   1.373   1.994  15.900  0.7551 -0.3873  0.1190
  190MPD1    C3 2891   1.322   1.956  15.772 -0.3857  0.3420  0.2792
  190MPD1    C4 2892   1.256   2.056  15.698 -0.0205 -0.2652  0.1198
  190MPD1    C5 2893   1.229   2.177  15.763 -0.4443 -0.6421 -0.5881
  190MPD1     H 2894   1.422   1.924  15.966  1.5732 -0.9030 -1.0333
  190MPD1    H1 2895   1.209   2.030  15.604  0.8037  0.3476 -0.4670
  190MPD1    H2 2896   1.259   2.315  15.908  1.8968 -0.0469 -0.1302
  190MPD1    H3 2897   1.175   2.258  15.715 -1.3026 -0.0168  1.4500
  190MPD1     N 2898   1.350   1.825  15.730 -0.2222 -0.1115  0.0749
  190MPD1    H5 2899   1.399   1.775  15.803  1.4349 -1.2736 -1.8325
  190MPD1    N1 2900   1.404   2.156  16.073 -0.6333 -0.4668  0.4168
  190MPD1    H6 2901   1.366   2.235  16.125 -1.4108  0.0824 -0.9645
  190MPD1    H7 2902   1.416   2.076  16.134 -0.2382  0.0105  0.9669
  191MPD1     C 2903   0.159   3.080  13.156 -0.5131 -0.1078 -0.5052
  191MPD1    C1 2904   0.041   3.108  13.094 -0.1601 -0.0552 -0.1211
  191MPD1    C2 2905   0.038   3.213  13.001  0.2918 -0.3647 -0.6226
  191MPD1    C3 2906   0.150   3.286  12.982  0.2648  0.1915  0.2414
  191MPD1    C4 2907   0.262   3.258  13.048 -0.7229  0.1147  0.3075
  191MPD1    C5 2908   0.265   3.163  13.146 -0.4859  0.2650 -0.0048
  191MPD1     H 2909   4.672   3.250  12.952 -1.1446 -2.3014  0.5007
  191MPD1    H1 2910   0.353   3.314  13.034 -1.3941  1.1081 -0.0644
  191MPD1    H2 2911   0.157   3.006  13.235  0.0809  0.4744  0.0589
  191MPD1    H3 2912   0.357   3.154  13.202 -1.3285  0.1365  1.3679
  191MPD1     N 2913   0.138   3.401  12.893 -0.2214 -0.1708 -0.7147
  191MPD1    H5 2914   0.049   3.427  12.851  0.6010  1.9405 -1.1592
  191MPD1    N1 2915   4.662   3.014  13.108 -0.1524  0.6048  0.0246
  191MPD1    H6 2916   4.648   2.975  13.201  0.8715  0.3488  0.0623
  191MPD1    H7 2917   4.575   3.063  13.086 -1.8417 -1.7434  1.4524
  192MPD1     C 2918   4.681   4.266  13.248  0.1691 -0.3827  0.7616
  192MPD1    C1 2919   4.586   4.200  13.169  0.1754  0.1644 -0.3533
  192MPD1    C2 2920   4.634   4.107  13.079  0.0036  0.1571 -0.3609
  192MPD1    C3 2921   0.043   4.088  13.057 -0.8303 -0.1948  1.1593
  192MPD1    C4 2922   0.127   4.163  13.125  0.3729  0.2560  0.5084
  192MPD1    C5 2923   0.085   4.253  13.221 -0.4147 -0.0117 -0.3760
  192MPD1     H 2924   4.568   4.050  13.014  0.4373 -0.6110 -0.1266
  192MPD1    H1 2925   0.234   4.152  13.117 -0.3011 -4.2357 -2.4695
  192MPD1    H2 2926   4.661   4.329  13.333  2.2492  1.1047  0.1334
  192MPD1    H3 2927   0.155   4.296  13.291  0.7037  1.4590 -2.4092
  192MPD1     N 2928   0.102   3.996  12.975  0.4518 -0.2084 -0.3673
  192MPD1    H5 2929   0.201   4.009  12.957  0.9989 -1.8233  1.4834
  192MPD1    N1 2930   4.452   4.190  13.208  0.1076 -0.4383  0.3033
  192MPD1    H6 2931   4.399   4.176  13.122  0.9941 -2.3164  0.0712
  192MPD1    H7 2932   4.425   4.275  13.258  1.0718  0.9996 -1.6034
  193MPD1     C 2933   0.029   3.392  16.290  0.0821 -0.0447  0.5767
  193MPD1    C1 2934   0.032   3.517  16.345  0.4157  0.1778  0.2227
  193MPD1    C2 2935   0.146   3.566  16.389 -0.6274 -0.7953  0.3086
  193MPD1    C3 2936   0.258   3.487  16.397 -0.8831 -0.0249 -0.0070
  193MPD1    C4 2937   0.249   3.353  16.371 -0.3486 -0.6640 -0.2803
  193MPD1    C5 2938   0.140   3.314  16.304 -0.3729 -0.3012  0.4762
  193MPD1     H 2939   0.141   3.672  16.409  0.5909 -0.7221  0.1937
  193MPD1    H1 2940   0.332   3.285  16.383 -0.8338 -1.1655  0.2414
  193MPD1    H2 2941   4.663   3.359  16.238  0.8578 -1.1304 -0.0812
  193MPD1    H3 2942   0.144   3.214  16.263 -0.5059  0.9568 -2.6143
  193MPD1     N 2943   0.382   3.530  16.451 -0.3792 -0.0606  0.0646
  193MPD1    H5 2944   0.458   3.466  16.432 -0.9802 -1.0749  1.0485
  193MPD1    N1 2945   4.645   3.600  16.319 -0.0798 -0.0971 -0.4851
  193MPD1    H6 2946   4.629   3.673  16.388 -1.7630 -0.2479 -0.7159
  193MPD1    H7 2947   4.558   3.549  16.309  0.1850 -0.4062 -1.1831
  194MPD1     C 2948   2.907   0.897  16.384 -0.5144 -0.1170  0.0967
  194MPD1    C1 2949   2.966   0.917  16.507  0.8525  0.3899 -0.1179
  194MPD1    C2 2950   3.014   0.809  16.581 -0.7409 -0.6012  0.5244
  194MPD1    C3 2951   3.006   0.681  16.530 -0.0549  0.0631  0.3608
  194MPD1    C4 2952   2.953   0.664  16.402 -0.2379  0.0843  0.0967
  194MPD1    C5 2953   2.900   0.772  16.334 -0.5345  0.0782  0.2996
  194MPD1     H 2954   3.057   0.821  16.679  1.5325 -0.3971 -0.5037
  194MPD1    H1 2955   2.952   0.564  16.359 -0.7981 -0.1117  0.5748
  194MPD1    H2 2956   2.873   0.982  16.326  1.6633  0.3060 -0.5685
  194MPD1    H3 2957   2.872   0.755  16.230 -0.2759  1.2532  0.0464
  194MPD1     N 2958   3.055   0.563  16.601 -0.4092  0.1676  0.1814
  194MPD1    H5 2959   3.048   0.474  16.553 -0.8361  0.6572 -0.6506
  194MPD1    N1 2960   2.981   1.046  16.553  0.1129 -0.3001  0.6431
  194MPD1    H6 2961   2.962   1.123  16.489  1.4663 -0.5460 -0.0587
  194MPD1    H7 2962   3.071   1.051  16.600  0.9105 -1.9838 -0.7038
  195MPD1     C 2963   0.232   3.051   0.512 -0.0063  0.0266 -0.0645
  195MPD1    C1 2964   0.366   3.060   0.483 -0.5252  0.0007 -0.2009
  195MPD1    C2 2965   0.432   2.939   0.481  0.4541  0.2705  0.4815
  195MPD1    C3 2966   0.362   2.817   0.480 -0.0304  0.6360 -0.0602
  195MPD1    C4 2967   0.225   2.817   0.501 -0.5560  0.0623  0.0017
  195MPD1    C5 2968   0.166   2.935   0.515  0.0888 -0.3379 -0.6203
  195MPD1     H 2969   0.537   2.925   0.458  0.8283 -0.6477  2.7706
  195MPD1    H1 2970   0.169   2.725   0.494 -1.7390  1.0619 -3.3980
  195MPD1    H2 2971   0.171   3.140   0.520 -0.5488 -0.3136 -0.3406
  195MPD1    H3 2972   0.057   2.936   0.520  0.1885 -0.3066  1.6641
  195MPD1     N 2973   0.425   2.688   0.450  0.7785 -0.3336  0.2110
  195MPD1    H5 2974   0.355   2.615   0.455  0.0457  0.3680  0.1567
  195MPD1    N1 2975   0.438   3.178   0.492  0.8787  0.3705  0.3149
  195MPD1    H6 2976   0.519   3.179   0.431  1.5206  0.7013  1.1731
  195MPD1    H7 2977   0.379   3.255   0.463 -1.5153 -1.9314 -0.9733
  196MPD1     C 2978   4.282   1.464   0.888 -0.1210  0.8077  0.8989
  196MPD1    C1 2979   4.342   1.499   0.762 -0.0981 -0.2677  0.3241
  196MPD1    C2 2980   4.463   1.565   0.768 -0.2460 -0.0671 -0.6274
  196MPD1    C3 2981   4.515   1.599   0.895  0.0358 -0.4780 -0.1512
  196MPD1    C4 2982   4.453   1.563   1.013  0.3311  0.2876 -0.1167
  196MPD1    C5 2983   4.331   1.495   1.015  0.4102  0.0882 -0.0900
  196MPD1     H 2984   4.505   1.592   0.672 -0.2822  0.6744 -0.4369
  196MPD1    H1 2985   4.493   1.589   1.111 -0.0619  0.1420  0.0830
  196MPD1    H2 2986   4.194   1.401   0.880 -0.2777  1.2167 -0.5927
  196MPD1    H3 2987   4.289   1.459   1.108  0.3374 -1.1187 -0.5958
  196MPD1     N 2988   4.636   1.666   0.913 -0.1703 -0.6444 -0.2369
  196MPD1    H5 2989   4.672   1.676   1.007 -0.8737 -2.9875  0.2588
  196MPD1    N1 2990   4.299   1.429   0.645 -0.3523 -0.0032  0.4680
  196MPD1    H6 2991   4.198   1.414   0.651 -0.6430  1.3043 -1.3152
  196MPD1    H7 2992   4.313   1.477   0.556 -1.0039 -1.1796 -0.2689
  197MPD1     C 2993   3.495   4.663  17.534 -0.3464 -0.5306 -0.1725
  197MPD1    C1 2994   3.579   4.553  17.540 -0.3755 -0.2317 -0.1046
  197MPD1    C2 2995   3.676   4.548  17.442  0.2571  0.5282 -0.3598
  197MPD1    C3 2996   3.675   4.629  17.335  0.1507  0.3766  0.4235
  197MPD1    C4 2997   3.572   4.719  17.322 -0.1745  0.3511  0.0006
  197MPD1    C5 2998   3.487   0.019  17.423 -0.0204  0.2702 -0.4719
  197MPD1     H 2999   3.742   4.461  17.447  1.4135  1.5573  2.8520
  197MPD1    H1 3000   3.574   0.056  17.232  2.1161  0.7721  0.3410
  197MPD1    H2 3001   3.419   4.675  17.610  0.6283  0.0340  0.7140
  197MPD1    H3 3002   3.401   0.086  17.421 -1.4293 -1.5392 -0.1253
  197MPD1     N 3003   3.778   4.632  17.229 -0.8768 -0.2571 -0.7920
  197MPD1    H5 3004   3.765   4.699  17.154  1.1626  2.3968  1.2175
  197MPD1    N1 3005   3.566   4.472  17.653  0.2659 -0.5123 -0.4963
  197MPD1    H6 3006   3.469   4.476  17.683  0.4835  0.5804  0.0698
  197MPD1    H7 3007   3.594   4.377  17.628  1.8866 -0.8167  2.4266
  198MPD1     C 3008   0.824   2.383  15.885  0.0832  0.3601 -0.2361
  198MPD1    C1 3009   0.790   2.404  16.024 -0.3882  0.0481 -0.0681
  198MPD1    C2 3010   0.840   2.510  16.089  0.2184 -0.1445  0.5726
  198MPD1    C3 3011   0.914   2.607  16.021  1.0446 -0.5014 -0.3110
  198MPD1    C4 3012   0.951   2.590  15.886  0.4107  0.4543 -0.1064
  198MPD1    C5 3013   0.903   2.476  15.821  0.5451 -0.1090  0.7205
  198MPD1     H 3014   0.824   2.520  16.196 -0.2857  2.2082  0.2606
  198MPD1    H1 3015   1.014   2.664  15.840  2.1017 -0.2356  1.1192
  198MPD1    H2 3016   0.790   2.298  15.827  4.6080  0.0545 -2.3691
  198MPD1    H3 3017   0.932   2.463  15.717 -0.1856  1.8413  0.2799
  198MPD1     N 3018   0.982   2.697  16.106  0.1865  0.2980  0.6895
  198MPD1    H5 3019   0.954   2.689  16.203 -0.9656 -3.4833  0.0412
  198MPD1    N1 3020   0.723   2.301  16.093 -0.5775 -0.3192  0.4894
  198MPD1    H6 3021   0.665   2.242  16.034 -2.4733 -1.0037  3.0224
  198MPD1    H7 3022   0.670   2.331  16.174  0.0634  1.1432  0.3619
  199MPD1     C 3023   3.620   4.306   9.949 -1.1588  0.0243 -0.1182
  199MPD1    C1 3024   3.630   4.175   9.980 -0.4037  0.0141 -0.0174
  199MPD1    C2 3025   3.535   4.089   9.926 -0.7161  1.0466 -0.5857
  199MPD1    C3 3026   3.433   4.132   9.845 -0.1544  0.2847  0.4741
  199MPD1    C4 3027   3.420   4.266   9.820  0.4405 -0.0877  0.0338
  199MPD1    C5 3028   3.514   4.351   9.873  0.4059  0.2656  0.1000
  199MPD1     H 3029   3.546   3.983   9.946  1.2927  2.0005  3.4515
  199MPD1    H1 3030   3.336   4.300   9.761  1.2784 -0.4016 -1.3523
  199MPD1    H2 3031   3.688   4.385   9.981  1.1647 -1.5776 -1.1420
  199MPD1    H3 3032   3.513   4.458   9.857  0.1260  0.1573 -0.6161
  199MPD1     N 3033   3.323   4.061   9.815 -0.3720  0.4004  0.5204
  199MPD1    H5 3034   3.261   4.111   9.753 -0.8204  0.7791  1.2693
  199MPD1    N1 3035   3.749   4.121  10.031  0.2562 -0.1192 -0.8107
  199MPD1    H6 3036   3.728   4.042  10.091  1.8363  1.2545  1.5753
  199MPD1    H7 3037   3.781   4.196  10.093  3.6781 -0.9895 -1.5547
  200MPD1     C 3038   1.626   3.796  14.792 -0.3363  0.2689  0.6968
  200MPD1    C1 3039   1.690   3.682  14.830 -0.3158 -0.0399  0.0857
  200MPD1    C2 3040   1.823   3.675  14.806 -0.8950 -0.2274 -0.2839
  200MPD1    C3 3041   1.902   3.774  14.746 -0.1421  0.2152  0.0361
  200MPD1    C4 3042   1.839   3.892  14.722  0.2596  0.2428  0.4083
  200MPD1    C5 3043   1.703   3.906  14.749  0.0016  0.2320  0.0120
  200MPD1     H 3044   1.876   3.582  14.823 -4.1131 -2.1652 -0.8474
  200MPD1    H1 3045   1.896   3.971  14.675 -1.0628 -1.1436 -3.5059
  200MPD1    H2 3046   1.524   3.818  14.823 -0.0220  1.0591  1.1796
  200MPD1    H3 3047   1.658   4.004  14.733  0.4769  0.2044 -1.5435
  200MPD1     N 3048   2.038   3.747  14.712 -0.0509  0.0592  0.4136
  200MPD1    H5 3049   2.054   3.648  14.698  0.4440  0.3504 -1.1074
  200MPD1    N1 3050   1.625   3.560  14.856  0.6190 -0.0209 -0.2438
  200MPD1    H6 3051   1.689   3.497  14.906 -0.1630 -1.4372 -1.0180
  200MPD1    H7 3052   1.537   3.570  14.906  1.0807  0.4327  0.4725
  201MPD1     C 3053   4.122   2.788  13.473  0.0888 -0.2970  0.1383
  201MPD1    C1 3054   4.104   2.717  13.356  0.2085 -0.4513  0.4101
  201MPD1    C2 3055   4.216   2.675  13.287 -0.1630  0.2504  0.5471
  201MPD1    C3 3056   4.343   2.718  13.328  0.1346  0.0109 -0.6715
  201MPD1    C4 3057   4.360   2.791  13.444  0.8102  0.6012  0.3271
  201MPD1    C5 3058   4.245   2.828  13.509  0.8692  0.2074  0.4823
  201MPD1     H 3059   4.207   2.622  13.193  2.1768 -0.5534  0.7738
  201MPD1    H1 3060   4.458   2.816  13.484  0.7750 -1.5414  1.7202
  201MPD1    H2 3061   4.045   2.799  13.548  1.4402  1.7600  1.2391
  201MPD1    H3 3062   4.254   2.866  13.610  0.6370 -1.1470  1.0236
  201MPD1     N 3063   4.455   2.675  13.251  0.7212  0.1761 -0.6552
  201MPD1    H5 3064   4.434   2.620  13.167 -3.9375  0.6696  0.1701
  201MPD1    N1 3065   3.977   2.658  13.329 -0.1112 -0.7949 -0.1809
  201MPD1    H6 3066   3.896   2.704  13.368 -0.6959 -1.4539 -0.6046
  201MPD1    H7 3067   3.966   2.633  13.231  0.3768  2.9226 -1.1733
  202MPD1     C 3068   4.305   2.567   9.382 -0.7379  0.3845 -0.2092
  202MPD1    C1 3069   4.314   2.455   9.460  0.2670  1.1799 -0.4355
  202MPD1    C2 3070   4.323   2.482   9.594 -0.4172 -0.3834 -0.4393
  202MPD1    C3 3071   4.309   2.604   9.652  0.0148  0.9829  0.2567
  202MPD1    C4 3072   4.281   2.708   9.573 -0.6310  0.3673  0.0276
  202MPD1    C5 3073   4.286   2.695   9.439 -0.0047  0.0993  0.4957
  202MPD1     H 3074   4.356   2.394   9.647 -1.7374 -1.9147 -2.1539
  202MPD1    H1 3075   4.254   2.808   9.605  2.8429  1.2525  0.2820
  202MPD1    H2 3076   4.296   2.552   9.275  0.7106 -1.0773 -0.1314
  202MPD1    H3 3077   4.260   2.782   9.380 -0.7531  0.3039  1.1184
  202MPD1     N 3078   4.320   2.628   9.787  0.1819 -0.7427  0.4733
  202MPD1    H5 3079   4.318   2.726   9.815  2.2796 -0.7309  0.5824
  202MPD1    N1 3080   4.374   2.340   9.413  0.0769  0.5076 -0.3585
  202MPD1    H6 3081   4.355   2.255   9.466  1.3556 -0.0917 -0.8753
  202MPD1    H7 3082   4.346   2.327   9.316 -1.6230 -1.7150  0.4256
  203MPD1     C 3083   2.895   3.379  12.977  0.2305  0.1127  0.1408
  203MPD1    C1 3084   3.007   3.349  13.053 -0.2346  0.2442 -0.3677
  203MPD1    C2 3085   3.081   3.236  13.018 -0.0955 -0.7506  0.1631
  203MPD1    C3 3086   3.052   3.168  12.905  0.3075 -0.2148  0.0391
  203MPD1    C4 3087   2.937   3.205  12.833  0.3476 -0.2393  0.1696
  203MPD1    C5 3088   2.855   3.310  12.868  0.6285  0.3646 -0.5752
  203MPD1     H 3089   3.168   3.205  13.074  1.3512 -0.5031 -1.9159
  203MPD1    H1 3090   2.911   3.143  12.748  1.9233  0.6146 -0.9436
  203MPD1    H2 3091   2.842   3.472  12.993 -1.7877 -0.8945 -0.6699
  203MPD1    H3 3092   2.760   3.324  12.818  0.3597 -0.0747 -0.1814
  203MPD1     N 3093   3.136   3.058  12.871  0.4308 -0.4969  0.2570
  203MPD1    H5 3094   3.209   3.035  12.936  0.2952  0.3432  0.6987
  203MPD1    N1 3095   3.037   3.433  13.166  0.2665  0.0038 -0.1064
  203MPD1    H6 3096   3.136   3.418  13.183  0.3513  0.7842  0.0916
  203MPD1    H7 3097   3.020   3.533  13.158  2.3175  0.4244  0.9530
  204MPD1     C 3098   2.800   4.669  17.486 -0.1427  0.4108  0.3924
  204MPD1    C1 3099   2.796   4.583  17.597  0.2315 -0.1485 -1.1423
  204MPD1    C2 3100   2.759   4.450  17.573 -0.1794  0.1044  0.1097
  204MPD1    C3 3101   2.726   4.405  17.451  0.2822  0.0425 -0.3047
  204MPD1    C4 3102   2.729   4.494  17.348 -0.5805  0.1923  0.0283
  204MPD1    C5 3103   2.777   4.620  17.363 -0.2537 -0.3579  0.1257
  204MPD1     H 3104   2.762   4.381  17.657 -1.8737  1.2729  1.1254
  204MPD1    H1 3105   2.712   4.462  17.246 -1.3901  1.2044 -0.1484
  204MPD1    H2 3106   2.833   0.048  17.503 -1.0839  0.7502  0.1217
  204MPD1    H3 3107   2.786   4.671  17.268 -1.1248 -1.1863 -0.4074
  204MPD1     N 3108   2.672   4.272  17.440 -0.7503  0.4961  0.0948
  204MPD1    H5 3109   2.662   4.218  17.525 -1.8704  0.5670  0.0188
  204MPD1    N1 3110   2.866   4.616   0.025 -0.0154 -0.4313  0.0719
  204MPD1    H6 3111   2.863   4.716   0.042  1.6100 -0.4261  0.3411
  204MPD1    H7 3112   2.811   4.583   0.104  0.4729 -3.8273 -1.0062
  205MPD1     C 3113   3.556   3.302  16.949 -0.9331 -0.1251 -0.0938
  205MPD1    C1 3114   3.569   3.199  17.044  0.3160 -0.4155  0.2604
  205MPD1    C2 3115   3.467   3.164  17.125 -0.1365  0.4197  0.0403
  205MPD1    C3 3116   3.336   3.220  17.098 -0.2019 -0.5486 -0.1962
  205MPD1    C4 3117   3.322   3.322  17.004 -0.3281 -0.0273  0.4743
  205MPD1    C5 3118   3.432   3.360  16.934  0.3277 -0.2996  0.0876
  205MPD1     H 3119   3.482   3.098  17.209 -3.1116 -1.1508 -0.6416
  205MPD1    H1 3120   3.230   3.378  16.999 -0.1788  0.1798  0.0929
  205MPD1    H2 3121   3.642   3.333  16.891 -1.5257  0.5581 -0.6040
  205MPD1    H3 3122   3.425   3.447  16.870 -3.1090 -0.9997 -0.4998
  205MPD1     N 3123   3.226   3.188  17.175 -0.6123 -0.3612  0.2683
  205MPD1    H5 3124   3.133   3.224  17.157 -1.1811 -2.6067 -1.3841
  205MPD1    N1 3125   3.694   3.146  17.074 -1.0687  0.5154  0.2602
  205MPD1    H6 3126   3.773   3.148  17.010 -0.7078 -2.3627  0.6230
  205MPD1    H7 3127   3.686   3.053  17.113 -2.1433  0.7538  0.6013
  206MPD1     C 3128   3.478   0.778  16.722  0.0301  0.0605  0.2883
  206MPD1    C1 3129   3.465   0.914  16.686  0.5356 -0.3184 -0.6713
  206MPD1    C2 3130   3.414   0.938  16.561 -0.0234 -0.4841 -0.1706
  206MPD1    C3 3131   3.357   0.844  16.474 -0.6246  0.1622  0.7348
  206MPD1    C4 3132   3.366   0.718  16.520  0.1274 -1.2182  0.0543
  206MPD1    C5 3133   3.426   0.681  16.637 -0.3094 -0.0582 -0.0677
  206MPD1     H 3134   3.408   1.041  16.527 -0.0352 -0.4138  0.0429
  206MPD1    H1 3135   3.326   0.639  16.458  0.5661  0.3209 -2.1658
  206MPD1    H2 3136   3.522   0.743  16.815 -1.0572  2.6055  1.7911
  206MPD1    H3 3137   3.437   0.574  16.648 -1.7092  0.0714  2.5821
  206MPD1     N 3138   3.300   0.877  16.351 -0.5523 -0.0465  0.0935
  206MPD1    H5 3139   3.282   0.798  16.290  0.5777 -0.9301  0.9014
  206MPD1    N1 3140   3.545   1.008  16.762  0.2496  0.2007 -0.3813
  206MPD1    H6 3141   3.514   1.104  16.755  0.5487  0.3080 -0.2410
  206MPD1    H7 3142   3.547   0.981  16.860 -1.7801  0.1645 -0.3575
  207MPD1     C 3143   0.191   3.909  10.028 -0.9495 -0.4427  0.3408
  207MPD1    C1 3144   0.172   3.793  10.106  0.6148 -0.4235 -0.5209
  207MPD1    C2 3145   0.281   3.755  10.186 -0.5469 -0.5300  0.5231
  207MPD1    C3 3146   0.399   3.827  10.185 -0.1061  0.4729 -0.7317
  207MPD1    C4 3147   0.407   3.940  10.106  0.3342 -0.0540 -0.2252
  207MPD1    C5 3148   0.298   3.989  10.035 -0.1107  0.8443  0.2848
  207MPD1     H 3149   0.278   3.656  10.231  0.9526 -1.1237 -0.6649
  207MPD1    H1 3150   0.501   3.994  10.103  1.2346 -1.5476  1.3294
  207MPD1    H2 3151   0.110   3.946   9.966  1.3062  0.1473 -2.2436
  207MPD1    H3 3152   0.308   4.079   9.975  0.2470  1.2122  0.9017
  207MPD1     N 3153   0.516   3.789  10.258 -0.0114 -0.0886  0.3697
  207MPD1    H5 3154   0.602   3.839  10.238 -0.4331  0.0035 -1.1725
  207MPD1    N1 3155   0.053   3.718  10.106  0.7410 -0.0892 -0.4981
  207MPD1    H6 3156   4.693   3.772  10.088  0.7470  0.8898  2.4718
  207MPD1    H7 3157   0.048   3.675  10.198  0.8616 -1.4941 -1.1498
  208MPD1     C 3158   3.732   2.417  16.976 -0.3077  0.1306  0.1110
  208MPD1    C1 3159   3.632   2.327  16.991  0.6281 -0.0596 -0.8934
  208MPD1    C2 3160   3.597   2.278  17.114 -0.3554  0.3171 -0.7656
  208MPD1    C3 3161   3.664   2.310  17.231  0.1527 -0.1972 -0.3018
  208MPD1    C4 3162   3.769   2.404  17.217  0.6902 -0.3651  0.0355
  208MPD1    C5 3163   3.797   2.453  17.095  0.1251  0.2119 -0.2024
  208MPD1     H 3164   3.514   2.210  17.124  0.1540 -0.3786 -1.2584
  208MPD1    H1 3165   3.831   2.435  17.300  0.7412  0.1869 -0.2101
  208MPD1    H2 3166   3.759   2.468  16.884  0.5091  1.1941  0.9288
  208MPD1    H3 3167   3.882   2.521  17.097  1.1006 -1.0307  0.6342
  208MPD1     N 3168   3.630   2.243  17.348  0.3336  0.2836  0.3946
  208MPD1    H5 3169   3.548   2.186  17.331  0.2980  0.2570  0.6664
  208MPD1    N1 3170   3.544   2.306  16.878  0.1293  0.3375  0.9969
  208MPD1    H6 3171   3.498   2.216  16.887  0.6473 -0.0490 -0.1671
  208MPD1    H7 3172   3.584   2.311  16.784 -4.0636  0.8201 -0.7887
  209MPD1     C 3173   0.669   2.149  10.820  1.1938  0.0939 -0.4499
  209MPD1    C1 3174   0.690   2.256  10.734 -0.5861  1.2544 -0.5421
  209MPD1    C2 3175   0.767   2.369  10.784 -0.4235 -0.2229  0.4748
  209MPD1    C3 3176   0.804   2.368  10.912 -0.0500  0.1767  0.4922
  209MPD1    C4 3177   0.783   2.263  11.001 -0.2397  0.1570  0.1554
  209MPD1    C5 3178   0.716   2.158  10.945  0.4371  0.3452  0.4793
  209MPD1     H 3179   0.789   2.461  10.731  0.0590 -0.8699 -0.4466
  209MPD1    H1 3180   0.796   2.256  11.109 -0.8789 -2.6965  0.0342
  209MPD1    H2 3181   0.615   2.064  10.779  2.5547 -0.8926 -0.2219
  209MPD1    H3 3182   0.692   2.070  11.004 -0.2899 -0.3907 -0.9028
  209MPD1     N 3183   0.869   2.483  10.965 -0.0159  0.2648 -0.1752
  209MPD1    H5 3184   0.881   2.558  10.898 -1.2593  2.7577  2.3671
  209MPD1    N1 3185   0.627   2.255  10.609 -0.3150 -0.4892  0.9380
  209MPD1    H6 3186   0.640   2.169  10.555  1.3095 -0.6074  1.5323
  209MPD1    H7 3187   0.653   2.327  10.542  0.4202 -2.3558 -0.7955
  210MPD1     C 3188   0.952   3.120  11.844 -0.4211 -0.5171  0.0735
  210MPD1    C1 3189   0.958   2.982  11.823 -0.4204  0.0563 -0.6599
  210MPD1    C2 3190   0.953   2.927  11.694  0.5957  0.1926  0.0863
  210MPD1    C3 3191   0.938   3.012  11.586 -0.6638  0.6739  0.0588
  210MPD1    C4 3192   0.928   3.150  11.609  0.2735 -0.1516  0.3918
  210MPD1    C5 3193   0.937   3.200  11.734  0.1627  0.2404  0.4719
  210MPD1     H 3194   0.956   2.818  11.692 -1.4352  0.1145  0.8582
  210MPD1    H1 3195   0.933   3.222  11.528  0.1918  0.0816  0.5920
  210MPD1    H2 3196   0.950   3.164  11.943 -0.4865 -2.3999  0.9194
  210MPD1    H3 3197   0.924   3.306  11.757  0.2877  0.0452  1.4308
  210MPD1     N 3198   0.949   2.971  11.455  0.0930  0.3235 -0.8740
  210MPD1    H5 3199   0.924   3.039  11.384  0.4591  0.1523 -1.1689
  210MPD1    N1 3200   1.001   2.909  11.937 -0.4794 -0.2304  0.3214
  210MPD1    H6 3201   0.984   2.964  12.021 -1.2086  0.7231 -0.4624
  210MPD1    H7 3202   1.103   2.912  11.936 -0.5789  2.8464  1.2342
  211MPD1     C 3203   3.717   2.573  15.726  0.1584 -0.5790 -0.6054
  211MPD1    C1 3204   3.674   2.696  15.782 -0.8934  0.5824 -0.2624
  211MPD1    C2 3205   3.557   2.689  15.855  0.3618 -0.4422 -0.4189
  211MPD1    C3 3206   3.506   2.569  15.896 -0.1761  0.1526 -0.2276
  211MPD1    C4 3207   3.566   2.448  15.855 -0.4067  0.5625 -0.4943
  211MPD1    C5 3208   3.665   2.454  15.767 -0.4510 -0.2931  0.2844
  211MPD1     H 3209   3.502   2.778  15.885  0.8299  0.0415 -0.9715
  211MPD1    H1 3210   3.522   2.355  15.888  1.6802 -0.1973  0.1228
  211MPD1    H2 3211   3.794   2.556  15.652  0.8601 -1.5506  0.3400
  211MPD1    H3 3212   3.708   2.360  15.733  2.5268  1.0983  0.1870
  211MPD1     N 3213   3.399   2.582  15.979 -0.0904  0.2354 -0.4590
  211MPD1    H5 3214   3.386   2.679  16.007  0.4089 -0.2788  1.5840
  211MPD1    N1 3215   3.714   2.819  15.716 -0.1797 -0.6144  0.4144
  211MPD1    H6 3216   3.811   2.822  15.685 -0.4173 -0.4357 -0.2962
  211MPD1    H7 3217   3.718   2.894  15.785  0.1145  0.9838 -1.3585
  212MPD1     C 3218   2.646   1.111  16.408  0.4883 -0.0939 -0.4055
  212MPD1    C1 3219   2.638   1.140  16.544  1.1803  0.1748  0.3023
  212MPD1    C2 3220   2.544   1.072  16.617  0.4264  0.1851  0.9579
  212MPD1    C3 3221   2.460   0.971  16.567 -0.4072 -0.6565 -0.8326
  212MPD1    C4 3222   2.477   0.940  16.442  0.2683 -0.4575  0.3483
  212MPD1    C5 3223   2.565   1.010  16.362 -0.0511 -0.5986  0.5782
  212MPD1     H 3224   2.537   1.098  16.722 -0.7114  1.7607  0.4892
  212MPD1    H1 3225   2.410   0.863  16.404 -0.1165  0.5418 -1.0088
  212MPD1    H2 3226   2.706   1.156  16.330 -2.4218  1.8337 -1.5358
  212MPD1    H3 3227   2.570   1.001  16.254  0.6813 -0.4404  0.5990
  212MPD1     N 3228   2.384   0.885  16.647 -0.2366 -0.5817  0.6652
  212MPD1    H5 3229   2.345   0.804  16.598 -0.9194  1.2950 -1.8773
  212MPD1    N1 3230   2.703   1.249  16.603 -0.0121  0.1608 -0.2146
  212MPD1    H6 3231   2.801   1.264  16.579  0.1388 -1.1303 -0.4271
  212MPD1    H7 3232   2.695   1.252  16.704  2.8070  1.0917 -0.0269
  213MPD1     C 3233   0.507   1.570  16.068 -0.4647  0.4595 -0.4812
  213MPD1    C1 3234   0.381   1.624  16.073  0.2679  0.2232 -0.3903
  213MPD1    C2 3235   0.364   1.720  15.963  0.5101 -0.0030  0.3326
  213MPD1    C3 3236   0.433   1.720  15.846 -0.5746 -0.2681  0.0203
  213MPD1    C4 3237   0.545   1.643  15.853 -0.3874  0.1059  0.8921
  213MPD1    C5 3238   0.587   1.570  15.956 -0.4221 -0.5046  0.1372
  213MPD1     H 3239   0.274   1.780  15.955  0.2884 -0.6327 -1.8729
  213MPD1    H1 3240   0.621   1.634  15.776  0.7980  0.6178  1.9963
  213MPD1    H2 3241   0.527   1.492  16.141 -1.3731  0.7108  0.0399
  213MPD1    H3 3242   0.677   1.511  15.948  0.2912  0.2584  2.7467
  213MPD1     N 3243   0.392   1.799  15.737  0.1877 -0.1957  0.0639
  213MPD1    H5 3244   0.315   1.863  15.757  0.4314  0.2852 -0.5168
  213MPD1    N1 3245   0.321   1.654  16.193  0.5225  0.0842 -0.0672
  213MPD1    H6 3246   0.228   1.693  16.186  0.7196  0.4352 -0.7245
  213MPD1    H7 3247   0.314   1.567  16.246  0.0727  0.4408  0.4520
  214MPD1     C 3248   4.343   2.157  15.235 -0.2481  0.0113 -0.5658
  214MPD1    C1 3249   4.371   2.145  15.365 -0.2072  0.3442 -0.0420
  214MPD1    C2 3250   4.501   2.106  15.399 -0.4271  0.4020  0.0876
  214MPD1    C3 3251   4.602   2.113  15.306  0.3865  0.2448 -0.0240
  214MPD1    C4 3252   4.569   2.136  15.176 -0.5076 -0.5341  0.4326
  214MPD1    C5 3253   4.441   2.157  15.144 -0.0202 -0.4630  0.1385
  214MPD1     H 3254   4.514   2.072  15.501  1.8182  0.3220 -0.2162
  214MPD1    H1 3255   4.646   2.124  15.099 -1.5830  1.0993 -0.8900
  214MPD1    H2 3256   4.241   2.165  15.199  0.8571  0.1010 -3.6959
  214MPD1    H3 3257   4.420   2.183  15.041 -1.5141 -0.5091  0.4301
  214MPD1     N 3258   0.013   2.084  15.340  0.5822 -0.2346  0.4651
  214MPD1    H5 3259   0.072   2.074  15.258 -1.9329  2.0454 -1.6085
  214MPD1    N1 3260   4.273   2.108  15.457  0.7060  0.2982 -0.3069
  214MPD1    H6 3261   4.185   2.148  15.424  0.0147 -0.5948  0.4577
  214MPD1    H7 3262   4.289   2.125  15.556  0.7775 -0.6728 -0.1491
  215MPD1     C 3263   4.597   3.222  10.856  0.2989  0.4629  0.4747
  215MPD1    C1 3264   4.624   3.151  10.968  0.7301 -0.0015 -0.1704
  215MPD1    C2 3265   0.032   3.143  11.006 -0.1373 -0.3652  0.3975
  215MPD1    C3 3266   0.128   3.217  10.935 -0.7616  0.4349 -0.3075
  215MPD1    C4 3267   0.097   3.283  10.826  0.4081 -0.2756 -0.8561
  215MPD1    C5 3268   4.693   3.293  10.786  0.1483  0.6086 -0.1940
  215MPD1     H 3269   0.071   3.105  11.100 -1.7966 -0.8029  0.9226
  215MPD1    H1 3270   0.161   3.332  10.753  0.2384  0.1412 -0.7285
  215MPD1    H2 3271   4.500   3.229  10.808  0.1518  2.7387  1.0958
  215MPD1    H3 3272   4.673   3.353  10.697  0.2958 -1.2501 -1.4921
  215MPD1     N 3273   0.256   3.227  10.995  0.0188 -0.1399 -0.2603
  215MPD1    H5 3274   0.266   3.179  11.084 -2.1233  1.8296  1.0233
  215MPD1    N1 3275   4.520   3.074  11.021  0.4373 -0.4401  0.1362
  215MPD1    H6 3276   4.433   3.127  11.015 -1.7441 -3.8224  1.4929
  215MPD1    H7 3277   4.529   3.053  11.121  1.3081 -0.4031  0.0634
  216MPD1     C 3278   2.655   4.724  16.460  0.1088  0.3432 -0.0999
  216MPD1    C1 3279   2.677   4.617  16.540 -0.0733 -0.0303 -0.8100
  216MPD1    C2 3280   2.636   4.624  16.672 -0.2173  0.2191 -0.5365
  216MPD1    C3 3281   2.569   0.011  16.725  0.2790 -0.3716  0.4394
  216MPD1    C4 3282   2.551   0.116  16.644 -0.8169  0.2003  0.0065
  216MPD1    C5 3283   2.595   0.108  16.510  0.2920  0.1499 -0.8666
  216MPD1     H 3284   2.649   4.533  16.730 -1.4694  0.1983 -0.2961
  216MPD1    H1 3285   2.504   0.211  16.669 -0.6963  0.7718 -1.9764
  216MPD1    H2 3286   2.709   0.001  16.366 -0.4909  0.1866 -0.4424
  216MPD1    H3 3287   2.578   0.188  16.438  1.1069  0.2488 -0.9490
  216MPD1     N 3288   2.532   0.002  16.861  0.2310 -0.2518 -0.3350
  216MPD1    H5 3289   2.564   4.643  16.911  3.7642  2.2730  1.6382
  216MPD1    N1 3290   2.727   4.500  16.485 -0.0225 -0.4801 -0.1105
  216MPD1    H6 3291   2.803   4.536  16.428  0.8048  1.1067  1.9952
  216MPD1    H7 3292   2.758   4.435  16.557  0.7693 -0.6122 -0.5719
  217MPD1     C 3293   3.654   1.500   8.285  0.0936 -0.0635 -0.1267
  217MPD1    C1 3294   3.619   1.633   8.289 -0.3522  0.4411 -0.0953
  217MPD1    C2 3295   3.577   1.690   8.411  0.6440 -0.0244 -0.4599
  217MPD1    C3 3296   3.542   1.608   8.521  0.6607  0.3475 -0.1881
  217MPD1    C4 3297   3.564   1.471   8.508 -0.2990  0.3517 -0.5905
  217MPD1    C5 3298   3.625   1.423   8.392  0.1068  0.7131  0.1770
  217MPD1     H 3299   3.556   1.796   8.420  0.1446 -0.2405  0.9063
  217MPD1    H1 3300   3.548   1.406   8.593  0.0069  0.8454 -0.1616
  217MPD1    H2 3301   3.684   1.448   8.195  0.2166 -3.0862  1.6606
  217MPD1    H3 3302   3.637   1.315   8.389 -0.6954  0.6398 -0.5669
  217MPD1     N 3303   3.473   1.648   8.643  0.5612  0.0960 -0.3278
  217MPD1    H5 3304   3.455   1.568   8.703  3.2871 -0.5034 -0.2957
  217MPD1    N1 3305   3.636   1.720   8.178  0.1005 -0.1649 -0.6351
  217MPD1    H6 3306   3.686   1.802   8.211 -0.8781  0.7000 -1.2910
  217MPD1    H7 3307   3.699   1.675   8.112  0.9127 -0.5576  0.4141
  218MPD1     C 3308   4.242   3.056  12.925 -0.6535 -0.1443  0.1012
  218MPD1    C1 3309   4.262   3.168  12.851  0.6226 -0.3528 -0.0410
  218MPD1    C2 3310   4.390   3.182  12.794  0.1827  0.4549 -0.9038
  218MPD1    C3 3311   4.485   3.091  12.809 -0.2630 -0.0341  0.4481
  218MPD1    C4 3312   4.467   2.984  12.890  0.3288 -0.3766  0.1737
  218MPD1    C5 3313   4.344   2.967  12.947  0.3925 -0.3718 -0.4536
  218MPD1     H 3314   4.407   3.269  12.733  1.5819  0.1867 -0.8813
  218MPD1    H1 3315   4.538   2.904  12.908  2.5144  1.0748 -2.0843
  218MPD1    H2 3316   4.149   3.029  12.974 -1.0010 -1.8266 -1.4870
  218MPD1    H3 3317   4.323   2.877  13.004 -1.4152  1.2363  1.4460
  218MPD1     N 3318   4.600   3.116  12.738 -0.6330  0.2258 -0.4733
  218MPD1    H5 3319   4.610   3.208  12.695 -1.2239  0.0482 -1.0009
  218MPD1    N1 3320   4.158   3.252  12.819 -0.4567  0.1618 -0.0732
  218MPD1    H6 3321   4.192   3.343  12.790  0.6735  0.2338  1.5425
  218MPD1    H7 3322   4.093   3.265  12.896 -0.1635  1.4242 -0.0516
  219MPD1     C 3323   0.506   3.728  12.227 -1.7736  0.1299 -0.1103
  219MPD1    C1 3324   0.389   3.744  12.299 -0.5733  0.1809 -0.2998
  219MPD1    C2 3325   0.346   3.636  12.376 -0.3878  0.5123  0.2908
  219MPD1    C3 3326   0.427   3.521  12.386  0.4192 -0.2678  1.0407
  219MPD1    C4 3327   0.544   3.512  12.319 -0.4985 -0.2570  0.0627
  219MPD1    C5 3328   0.579   3.616  12.237 -0.9574 -0.2113 -0.3580
  219MPD1     H 3329   0.241   3.633  12.404  0.0649  2.7906  2.3117
  219MPD1    H1 3330   0.599   3.418  12.323 -0.3743 -0.1980 -0.2424
  219MPD1    H2 3331   0.546   3.809  12.167  0.2504 -0.7222  0.1014
  219MPD1    H3 3332   0.676   3.599  12.190 -0.0718 -0.0746  1.4134
  219MPD1     N 3333   0.373   3.397  12.428 -0.3857 -0.3528  0.1622
  219MPD1    H5 3334   0.434   3.318  12.410  1.2549  0.5796  1.5550
  219MPD1    N1 3335   0.309   3.859  12.286  0.3762  0.4301  0.5590
  219MPD1    H6 3336   0.248   3.880  12.365  0.7669  0.2619  0.9052
  219MPD1    H7 3337   0.365   3.942  12.266  1.0494 -0.4801 -1.2680
  220MPD1     C 3338   0.215   4.525   9.884  0.5243 -0.4884 -0.2629
  220MPD1    C1 3339   0.333   4.504   9.951 -0.2568 -0.2015 -0.3515
  220MPD1    C2 3340   0.338   4.413  10.056  0.5069 -0.8261 -0.9193
  220MPD1    C3 3341   0.230   4.345  10.103 -0.7021 -0.3729  0.5015
  220MPD1    C4 3342   0.113   4.363  10.031  0.4301 -0.1564 -0.0481
  220MPD1    C5 3343   0.103   4.449   9.920 -0.0627 -0.3477 -0.3768
  220MPD1     H 3344   0.430   4.394  10.110 -0.5960 -0.2511  1.1552
  220MPD1    H1 3345   0.018   4.314  10.051 -0.6200  1.9466  0.1461
  220MPD1    H2 3346   0.208   4.595   9.802  1.7181 -0.4594 -0.3390
  220MPD1    H3 3347   0.005   4.469   9.879 -0.5717  0.2819  1.1586
  220MPD1     N 3348   0.240   4.262  10.215 -0.4223 -0.0116 -0.1180
  220MPD1    H5 3349   0.332   4.235  10.249 -0.1027 -1.5760 -2.2012
  220MPD1    N1 3350   0.461   4.546   9.901 -0.1227 -0.0192 -0.3326
  220MPD1    H6 3351   0.456   4.635   9.852  3.5453  0.3785  0.0363
  220MPD1    H7 3352   0.533   4.552   9.973  0.1703 -0.8802 -0.5653
  221MPD1     C 3353   2.189   1.853  16.759 -0.2580 -0.5472 -0.4461
  221MPD1    C1 3354   2.224   1.988  16.756 -0.1923 -0.2600 -0.0050
  221MPD1    C2 3355   2.335   2.033  16.684  0.4919 -0.6407  0.0270
  221MPD1    C3 3356   2.420   1.941  16.625  0.9957 -0.1986 -0.0909
  221MPD1    C4 3357   2.387   1.808  16.643  0.3310 -0.1874 -0.4628
  221MPD1    C5 3358   2.273   1.755  16.701 -0.6513  0.4750 -0.4495
  221MPD1     H 3359   2.355   2.139  16.677  0.7317 -0.6544  0.4877
  221MPD1    H1 3360   2.442   1.725  16.598  1.5898 -0.3249  1.3494
  221MPD1    H2 3361   2.095   1.810  16.791 -1.3072  1.0149 -1.4647
  221MPD1    H3 3362   2.247   1.650  16.695 -2.0242  0.6420  2.5250
  221MPD1     N 3363   2.539   1.983  16.554  0.3092 -0.4717  0.2320
  221MPD1    H5 3364   2.601   1.908  16.524 -0.7083 -0.6818 -1.3551
  221MPD1    N1 3365   2.135   2.083  16.805  0.3441  0.4299 -0.6673
  221MPD1    H6 3366   2.178   2.172  16.829  0.0645 -0.3824  2.7868
  221MPD1    H7 3367   2.083   2.059  16.889  2.5932 -2.1469 -0.0096
  222MPD1     C 3368   2.679   0.672  16.670 -0.0108 -0.5688  1.2363
  222MPD1    C1 3369   2.672   0.749  16.783 -0.4423 -0.7904  0.1095
  222MPD1    C2 3370   2.612   0.702  16.898 -0.4101 -0.5925 -0.4797
  222MPD1    C3 3371   2.563   0.574  16.899 -0.7698  0.5692  0.3124
  222MPD1    C4 3372   2.570   0.497  16.783  0.3333 -0.9940 -0.0849
  222MPD1    C5 3373   2.623   0.548  16.669  0.3566 -0.0651 -0.7948
  222MPD1     H 3374   2.612   0.770  16.982  1.0855 -2.1319  0.7674
  222MPD1    H1 3375   2.516   0.403  16.775  0.0454 -0.6846 -1.9092
  222MPD1    H2 3376   2.718   0.715  16.578  1.2257 -4.3055  0.0250
  222MPD1    H3 3377   2.630   0.497  16.573 -1.0126 -0.0947 -0.8792
  222MPD1     N 3378   2.496   0.514  17.011  0.1235  0.1954 -0.2037
  222MPD1    H5 3379   2.458   0.422  16.991 -0.9914  0.6406 -0.1020
  222MPD1    N1 3380   2.756   0.866  16.788  0.0786 -0.5005  0.3244
  222MPD1    H6 3381   2.781   0.911  16.700 -0.8805 -0.2495  0.1801
  222MPD1    H7 3382   2.735   0.939  16.856  1.8056  0.7963 -0.5244
  223MPD1     C 3383   2.038   4.551  17.095  0.0938  0.0637  0.4831
  223MPD1    C1 3384   2.057   4.628  16.990  1.0082 -0.2395 -0.0888
  223MPD1    C2 3385   2.114   0.028  17.012 -1.2787 -0.1088  0.0690
  223MPD1    C3 3386   2.110   0.087  17.138 -0.0565  0.2519  0.1878
  223MPD1    C4 3387   2.066   0.007  17.247  0.7034 -0.1929  0.3421
  223MPD1    C5 3388   2.042   4.595  17.225 -0.0264 -0.5338 -0.7144
  223MPD1     H 3389   2.154   0.083  16.928 -0.8957  2.1176  1.7262
  223MPD1    H1 3390   2.042   0.055  17.342  1.1413 -0.0310  0.3738
  223MPD1    H2 3391   1.998   4.453  17.071  0.4724  0.4000 -1.5445
  223MPD1    H3 3392   2.007   4.538  17.311 -0.7856  0.2070 -0.5332
  223MPD1     N 3393   2.141   0.223  17.149  0.0275 -0.9389 -0.3374
  223MPD1    H5 3394   2.142   0.282  17.067 -0.1403  0.4430  0.6470
  223MPD1    N1 3395   2.059   4.573  16.861 -0.2874  0.7972 -0.3700
  223MPD1    H6 3396   1.991   4.498  16.867  0.3224  0.4424  1.9006
  223MPD1    H7 3397   2.029   4.641  16.791 -1.0490 -2.2759 -3.0508
  224MPD1     C 3398   3.898   2.289   8.794  0.3309  0.1985 -0.4213
  224MPD1    C1 3399   3.825   2.378   8.872 -0.1307 -0.2475  0.0741
  224MPD1    C2 3400   3.847   2.372   9.016  0.1282  0.6699 -0.5149
  224MPD1    C3 3401   3.935   2.283   9.077  0.1373 -0.4592  0.3420
  224MPD1    C4 3402   4.001   2.195   8.994 -0.2966 -0.0796 -0.0517
  224MPD1    C5 3403   3.983   2.205   8.859 -0.2958 -0.2143 -0.1109
  224MPD1     H 3404   3.781   2.431   9.078 -0.2446 -2.5116  2.0731
  224MPD1    H1 3405   4.069   2.122   9.036 -1.0801 -0.9635 -0.3094
  224MPD1    H2 3406   3.886   2.308   8.689  2.3804 -1.6963 -1.0003
  224MPD1    H3 3407   4.034   2.139   8.789 -0.9606  1.2191 -1.9335
  224MPD1     N 3408   3.956   2.278   9.219  0.6184 -0.0906 -0.3640
  224MPD1    H5 3409   4.016   2.200   9.245 -0.3009 -0.9637 -0.8561
  224MPD1    N1 3410   3.707   2.435   8.828  0.5459  0.1306 -0.2622
  224MPD1    H6 3411   3.684   2.509   8.894  2.1038  1.3084 -1.0647
  224MPD1    H7 3412   3.718   2.477   8.737  1.4632 -1.8733 -1.0808
  225MPD1     C 3413   0.033   3.735  13.550 -0.2324  0.3727 -0.2356
  225MPD1    C1 3414   4.638   3.669  13.548 -0.0717  0.7228  0.1108
  225MPD1    C2 3415   4.565   3.664  13.423 -0.4445  0.0645 -0.2584
  225MPD1    C3 3416   4.616   3.733  13.312  0.0937 -0.4310  0.0189
  225MPD1    C4 3417   0.017   3.786  13.317 -0.1186  0.2863  0.1601
  225MPD1    C5 3418   0.088   3.777  13.433 -0.1010  0.6804 -0.2088
  225MPD1     H 3419   4.466   3.621  13.416  0.2732 -1.6824  0.2419
  225MPD1    H1 3420   0.066   3.839  13.237  1.2496  0.8804  1.3803
  225MPD1    H2 3421   0.090   3.742  13.642 -0.0259  0.4461 -0.3683
  225MPD1    H3 3422   0.190   3.813  13.435  0.5826 -1.1721 -1.8796
  225MPD1     N 3423   4.531   3.769  13.201 -0.6853 -0.4073 -0.5782
  225MPD1    H5 3424   4.566   3.846  13.146 -0.4589  0.8951  1.4036
  225MPD1    N1 3425   4.583   3.629  13.672 -0.3137  0.1540 -0.0333
  225MPD1    H6 3426   4.517   3.552  13.667 -0.7703  0.3610  3.0833
  225MPD1    H7 3427   4.657   3.610  13.740 -0.9735 -0.1700  0.5864
  226MPD1     C 3428   3.628   1.984   9.245 -0.4266 -1.0963 -1.0589
  226MPD1    C1 3429   3.618   2.093   9.166  0.5731  0.3671  0.4126
  226MPD1    C2 3430   3.594   2.216   9.220  0.2934 -0.8995 -0.2367
  226MPD1    C3 3431   3.593   2.236   9.359 -0.2181  0.5421 -0.2307
  226MPD1    C4 3432   3.615   2.125   9.441 -0.9281  0.2508  0.0036
  226MPD1    C5 3433   3.630   1.998   9.386 -0.1941 -0.1743  0.1811
  226MPD1     H 3434   3.576   2.301   9.155 -0.6528 -0.2699  0.8333
  226MPD1    H1 3435   3.604   2.134   9.548  2.8964  2.7903  0.1585
  226MPD1    H2 3436   3.638   1.885   9.201 -1.6827 -2.2786  1.2982
  226MPD1    H3 3437   3.661   1.924   9.459  0.9684 -1.1869 -1.3310
  226MPD1     N 3438   3.573   2.367   9.406  0.2398 -0.0419 -0.0861
  226MPD1    H5 3439   3.560   2.436   9.332  1.7879  0.3740  0.0195
  226MPD1    N1 3440   3.601   2.075   9.031  0.6443 -0.3083 -0.4607
  226MPD1    H6 3441   3.634   2.155   8.978  0.8136 -0.2281 -0.2355
  226MPD1    H7 3442   3.658   1.998   8.997 -0.0956 -0.0969 -2.1723
  227MPD1     C 3443   3.125   2.736  10.217  0.3700 -0.5355  0.0149
  227MPD1    C1 3444   3.126   2.627  10.140 -0.1081  0.4989  0.4117
  227MPD1    C2 3445   3.206   2.615  10.025  0.1157  0.4634  0.3202
  227MPD1    C3 3446   3.303   2.707  10.001  0.0545 -0.5415  0.2753
  227MPD1    C4 3447   3.305   2.812  10.082 -0.3213 -0.2875  0.4551
  227MPD1    C5 3448   3.222   2.831  10.190  0.2500  0.0238  0.1879
  227MPD1     H 3449   3.204   2.526   9.962  0.3682 -0.0078  0.9755
  227MPD1    H1 3450   3.377   2.891  10.066 -0.8886  0.0596 -0.4239
  227MPD1    H2 3451   3.069   2.747  10.309  0.1688 -4.6510  0.3763
  227MPD1    H3 3452   3.243   2.906  10.266  2.9731 -0.7886  0.2307
  227MPD1     N 3453   3.390   2.681   9.891  0.1533  0.2899  0.6403
  227MPD1    H5 3454   3.374   2.591   9.846  0.6438  1.6959 -2.3728
  227MPD1    N1 3455   3.017   2.531  10.164  0.4193  0.1174 -0.7503
  227MPD1    H6 3456   2.992   2.525  10.262  1.7042  2.2638 -0.2832
  227MPD1    H7 3457   3.030   2.438  10.125  0.9217  0.5643 -1.6506
  228MPD1     C 3458   2.483   1.964  12.505 -0.1841 -0.1671  0.6042
  228MPD1    C1 3459   2.373   1.967  12.424 -0.3451  0.7233  0.1487
  228MPD1    C2 3460   2.262   1.899  12.460 -0.3117 -0.6027  0.1343
  228MPD1    C3 3461   2.248   1.833  12.584  0.0839  0.6532  0.2292
  228MPD1    C4 3462   2.350   1.843  12.671 -0.0280 -0.9517  0.1084
  228MPD1    C5 3463   2.466   1.899  12.627  0.0215 -0.2707 -0.7063
  228MPD1     H 3464   2.180   1.896  12.389  1.3836  0.7977 -1.8767
  228MPD1    H1 3465   2.342   1.798  12.769 -0.5056 -3.9232 -1.2702
  228MPD1    H2 3466   2.578   2.008  12.480 -1.1614  0.0941 -2.7203
  228MPD1    H3 3467   2.554   1.895  12.691  0.0123  1.8213 -0.5727
  228MPD1     N 3468   2.128   1.760  12.604 -0.0415  0.6534  0.4430
  228MPD1    H5 3469   2.064   1.756  12.525  0.6813 -0.3894 -0.0905
  228MPD1    N1 3470   2.403   2.008  12.292 -0.6487  0.0605  0.5037
  228MPD1    H6 3471   2.323   2.058  12.255 -0.6020 -2.3758 -2.9106
  228MPD1    H7 3472   2.483   2.071  12.292 -0.0393 -0.7160 -2.4011
  229MPD1     C 3473   1.083   0.868  15.097 -0.7693  0.6026  0.1944
  229MPD1    C1 3474   1.094   0.776  14.995 -0.1415 -0.4397 -0.1633
  229MPD1    C2 3475   1.144   0.650  15.022 -0.0864 -0.9704 -0.3501
  229MPD1    C3 3476   1.189   0.615  15.146  0.3081 -0.2960  0.3900
  229MPD1    C4 3477   1.150   0.697  15.251 -0.3418  0.8821 -0.6176
  229MPD1    C5 3478   1.106   0.819  15.215 -0.4172 -0.6013 -0.4768
  229MPD1     H 3479   1.148   0.577  14.941  0.7441  0.4836 -1.6327
  229MPD1    H1 3480   1.178   0.668  15.352  0.9587  0.6521 -1.0550
  229MPD1    H2 3481   1.055   0.970  15.074  1.9763  1.4621  0.7107
  229MPD1    H3 3482   1.094   0.886  15.299  1.4022  1.5786 -1.9679
  229MPD1     N 3483   1.240   0.488  15.180  0.1238  0.1737  0.1831
  229MPD1    H5 3484   1.243   0.462  15.278 -0.8613  0.2045  0.2214
  229MPD1    N1 3485   1.034   0.797  14.869  0.2598  0.2173 -0.3194
  229MPD1    H6 3486   1.034   0.895  14.839  0.9743  0.5698  0.8539
  229MPD1    H7 3487   1.066   0.738  14.792 -0.0500 -0.2295 -0.1010
  230MPD1     C 3488   1.653   4.617  15.863 -0.1987 -0.0074 -0.5687
  230MPD1    C1 3489   1.650   4.533  15.749  0.0835  0.0681 -0.4333
  230MPD1    C2 3490   1.596   4.573  15.630 -0.4031  0.3837 -1.1687
  230MPD1    C3 3491   1.567   4.713  15.616  0.0294 -0.1300 -0.2710
  230MPD1    C4 3492   1.583   0.077  15.726  0.5049 -0.1569 -0.1142
  230MPD1    C5 3493   1.616   0.028  15.847  0.1232  1.1588 -0.1756
  230MPD1     H 3494   1.574   4.500  15.553  1.8631 -0.4124 -1.0536
  230MPD1    H1 3495   1.568   0.185  15.721  2.4277  0.1258  0.1339
  230MPD1    H2 3496   1.680   4.582  15.962 -1.9851  0.6058  0.1479
  230MPD1    H3 3497   1.618   0.095  15.932 -0.7504 -0.9378  1.4920
  230MPD1     N 3498   1.520   0.040  15.493 -0.2696 -0.3955 -0.8133
  230MPD1    H5 3499   1.496   4.694  15.422 -0.7947  0.3584 -1.3740
  230MPD1    N1 3500   1.670   4.392  15.751 -0.5279 -0.7033 -0.0630
  230MPD1    H6 3501   1.751   4.358  15.802  0.6221  2.9227  0.5710
  230MPD1    H7 3502   1.700   4.369  15.656  0.3493  0.2853 -0.0193
  231MPD1     C 3503   0.048   2.373  15.745  0.2758 -0.0839  0.7271
  231MPD1    C1 3504   4.706   2.370  15.629  0.1366 -0.1942  0.5368
  231MPD1    C2 3505   0.025   2.435  15.518 -0.2218 -0.1087  0.1245
  231MPD1    C3 3506   0.148   2.482  15.512  0.1106  0.9469 -0.1839
  231MPD1    C4 3507   0.224   2.480  15.626  0.1625  0.8952  0.7668
  231MPD1    C5 3508   0.172   2.424  15.740  0.1296 -0.8139 -0.5857
  231MPD1     H 3509   4.687   2.442  15.429  1.8998 -0.6884 -1.3766
  231MPD1    H1 3510   0.324   2.522  15.630  1.0692 -1.1835  0.3083
  231MPD1    H2 3511   0.005   2.345  15.841  0.7208  1.7449  1.4479
  231MPD1    H3 3512   0.238   2.422  15.826  0.5708  0.1236 -0.9004
  231MPD1     N 3513   0.185   2.547  15.394  0.2440 -0.3062  0.4663
  231MPD1    H5 3514   0.106   2.545  15.330  0.3074  0.5499  0.3634
  231MPD1    N1 3515   4.567   2.332  15.638  0.3956  0.0090  0.0066
  231MPD1    H6 3516   4.505   2.401  15.680 -0.0839 -0.2729 -0.2288
  231MPD1    H7 3517   4.528   2.319  15.545  2.2536 -1.7692 -0.5178
  232MPD1     C 3518   2.864   3.701   0.200 -0.1005 -0.1322  0.5036
  232MPD1    C1 3519   2.784   3.637   0.294  0.5574 -0.2081 -0.3859
  232MPD1    C2 3520   2.646   3.643   0.284 -0.6932  0.2844 -0.5486
  232MPD1    C3 3521   2.590   3.738   0.209 -0.1209 -0.6155 -0.1044
  232MPD1    C4 3522   2.665   3.807   0.116 -0.5776  0.8890 -0.2440
  232MPD1    C5 3523   2.804   3.783   0.112 -0.2633  0.7454  0.6459
  232MPD1     H 3524   2.589   3.594   0.362  0.3627  0.1300  0.1291
  232MPD1    H1 3525   2.615   3.865   0.040 -1.8787  0.4926  0.3110
  232MPD1    H2 3526   2.970   3.679   0.196 -0.3756 -1.6236  1.3406
  232MPD1    H3 3527   2.870   3.844   0.051 -2.1714  1.5768 -0.5884
  232MPD1     N 3528   2.452   3.757   0.218 -0.0524 -0.2100 -0.7346
  232MPD1    H5 3529   2.406   3.705   0.292  0.7778  0.0396 -0.0401
  232MPD1    N1 3530   2.835   3.535   0.376 -0.2089 -0.4155 -0.4768
  232MPD1    H6 3531   2.930   3.550   0.408 -0.3376 -1.8664  0.5799
  232MPD1    H7 3532   2.778   3.532   0.461  0.4072  0.3450 -0.0388
  233MPD1     C 3533   2.406   2.768   1.205  0.6053 -0.0769  0.4936
  233MPD1    C1 3534   2.411   2.637   1.240  0.5561 -0.4128  0.6856
  233MPD1    C2 3535   2.532   2.593   1.300  0.8887  0.2546  0.3740
  233MPD1    C3 3536   2.634   2.675   1.341 -0.5713 -0.8499  0.1308
  233MPD1    C4 3537   2.623   2.807   1.315  0.6423 -0.1201 -0.6914
  233MPD1    C5 3538   2.511   2.852   1.242  0.0276  0.8535  0.6088
  233MPD1     H 3539   2.534   2.487   1.324 -2.6165  0.1247  0.0930
  233MPD1    H1 3540   2.696   2.883   1.341 -0.0247 -0.0975  1.1392
  233MPD1    H2 3541   2.323   2.811   1.150  0.7450 -1.9137 -1.1698
  233MPD1    H3 3542   2.516   2.957   1.215 -0.8682  0.7571  0.0760
  233MPD1     N 3543   2.749   2.642   1.419  1.2051  0.2754  0.4249
  233MPD1    H5 3544   2.820   2.711   1.440  1.4826  0.4263 -1.0255
  233MPD1    N1 3545   2.325   2.546   1.174  0.3173 -0.1127 -0.0331
  233MPD1    H6 3546   2.293   2.463   1.224 -1.8324  0.8902  0.2540
  233MPD1    H7 3547   2.239   2.593   1.147  1.5225  1.6702 -0.7264
  234MPD1     C 3548   3.757   0.723  10.299 -0.3694  0.3747  0.0172
  234MPD1    C1 3549   3.888   0.747  10.261  0.1472  0.1254 -0.5749
  234MPD1    C2 3550   3.906   0.807  10.136 -0.0084 -0.0130  0.6134
  234MPD1    C3 3551   3.793   0.846  10.060  0.7302  0.2875 -0.7165
  234MPD1    C4 3552   3.664   0.806  10.101 -0.4464  0.0873  1.0228
  234MPD1    C5 3553   3.650   0.745  10.222  0.9738  0.4451  0.2117
  234MPD1     H 3554   4.006   0.830  10.100 -0.2642 -0.2905 -0.2594
  234MPD1    H1 3555   3.572   0.828  10.048 -0.2626 -0.1440  0.6104
  234MPD1    H2 3556   3.740   0.678  10.396  0.6937 -1.1690 -0.5118
  234MPD1    H3 3557   3.551   0.728  10.262  1.2549  0.8896  1.0953
  234MPD1     N 3558   3.816   0.935   9.954  0.3120  0.4651  0.7554
  234MPD1    H5 3559   3.910   0.974   9.947  0.1045  0.7895 -0.1270
  234MPD1    N1 3560   3.991   0.741  10.362 -0.1953  0.8041 -0.3229
  234MPD1    H6 3561   3.971   0.668  10.429 -2.2128  2.8641  1.3260
  234MPD1    H7 3562   4.085   0.728  10.325 -0.2388 -1.2872  0.3350
  235MPD1     C 3563   4.699   3.934  10.824 -0.2011 -0.0914  0.5759
  235MPD1    C1 3564   0.108   3.927  10.862  0.1961 -0.1089  0.6176
  235MPD1    C2 3565   0.177   4.046  10.836  0.2755 -0.1705 -1.1618
  235MPD1    C3 3566   0.120   4.152  10.765  0.5881  0.1362  0.6739
  235MPD1    C4 3567   4.707   4.144  10.727  0.0817  0.2432 -1.4164
  235MPD1    C5 3568   4.635   4.040  10.769  0.7917  0.0170  0.1670
  235MPD1     H 3569   0.284   4.048  10.852  0.0804  1.6107 -0.0690
  235MPD1    H1 3570   4.656   4.217  10.667 -1.2916  0.3248 -0.1594
  235MPD1    H2 3571   4.646   3.840  10.841 -0.8155  0.0038 -0.7448
  235MPD1    H3 3572   4.531   4.034  10.739  1.1976 -1.5416 -0.9242
  235MPD1     N 3573   0.206   4.264  10.737 -0.1088 -0.0878 -0.0015
  235MPD1    H5 3574   0.293   4.269  10.789 -0.9146 -1.9089  1.5423
  235MPD1    N1 3575   0.173   3.811  10.902  0.8047  0.5670 -0.4893
  235MPD1    H6 3576   0.261   3.839  10.945  1.2441 -3.3181  1.1159
  235MPD1    H7 3577   0.128   3.751  10.971 -0.4975  3.0544  0.8183
  236MPD1     C 3578   4.126   0.493  10.182 -0.1819 -0.4006 -0.4780
  236MPD1    C1 3579   4.138   0.405  10.289 -0.6378  0.7850 -0.3450
  236MPD1    C2 3580   4.230   0.436  10.392 -0.3514 -0.2107 -0.1154
  236MPD1    C3 3581   4.327   0.537  10.380  0.3673  0.7564 -0.9206
  236MPD1    C4 3582   4.320   0.616  10.269 -0.4172 -0.5848 -0.1014
  236MPD1    C5 3583   4.221   0.590  10.171  0.0627  0.3293 -0.2062
  236MPD1     H 3584   4.227   0.377  10.483  1.1897  1.0489  0.7711
  236MPD1    H1 3585   4.390   0.698  10.268 -1.5200  0.3610 -0.4534
  236MPD1    H2 3586   4.052   0.468  10.107 -0.1500 -1.4345 -0.1716
  236MPD1    H3 3587   4.212   0.662  10.091  0.5478 -0.0583 -0.6077
  236MPD1     N 3588   4.428   0.562  10.474 -0.8008 -0.5046 -0.1527
  236MPD1    H5 3589   4.468   0.656  10.471 -0.5629 -0.5424  1.5696
  236MPD1    N1 3590   4.038   0.316  10.309  0.0521 -0.3114  0.0170
  236MPD1    H6 3591   4.015   0.269  10.222 -0.3109  0.2525 -0.1897
  236MPD1    H7 3592   4.076   0.234  10.356  0.7155  0.4703  0.8317
  237MPD1     C 3593   0.014   3.245  15.897  0.3489 -0.4389 -0.0617
  237MPD1    C1 3594   0.028   3.339  15.799  0.0179  0.0652 -0.4620
  237MPD1    C2 3595   4.636   3.378  15.733 -0.3949  0.2677  0.4150
  237MPD1    C3 3596   4.515   3.307  15.747 -0.1686 -0.0820  0.4950
  237MPD1    C4 3597   4.512   3.205  15.832  0.3076 -0.1342  0.4340
  237MPD1    C5 3598   4.623   3.172  15.912  0.9058  0.5017 -0.1924
  237MPD1     H 3599   4.632   3.458  15.661  0.7764 -0.7143 -0.7410
  237MPD1    H1 3600   4.425   3.143  15.853 -0.6767  1.5872  1.4144
  237MPD1    H2 3601   0.103   3.219  15.953 -0.6145  0.5514  1.9214
  237MPD1    H3 3602   4.619   3.084  15.975 -0.0002  1.4452  1.0730
  237MPD1     N 3603   4.399   3.329  15.671  0.1225  0.3715 -0.5653
  237MPD1    H5 3604   4.315   3.274  15.687  0.0927  1.1029  1.8009
  237MPD1    N1 3605   0.145   3.418  15.805  0.5714 -0.2215 -0.0468
  237MPD1    H6 3606   0.175   3.458  15.716  0.2289 -0.6931 -0.3745
  237MPD1    H7 3607   0.222   3.356  15.830 -0.3377 -1.2476  0.2235
  238MPD1     C 3608   1.624   2.403  15.624  0.2879  0.2483 -0.3688
  238MPD1    C1 3609   1.550   2.290  15.620 -0.2522 -0.1146  0.0749
  238MPD1    C2 3610   1.471   2.260  15.506  0.5894  0.4168  0.1049
  238MPD1    C3 3611   1.469   2.348  15.400  0.3507 -0.3234 -0.2320
  238MPD1    C4 3612   1.547   2.465  15.409  0.7551 -0.5516  0.7091
  238MPD1    C5 3613   1.626   2.487  15.514  1.0293  0.2297  0.6441
  238MPD1     H 3614   1.429   2.161  15.501 -0.4974  0.8296  0.9696
  238MPD1    H1 3615   1.534   2.549  15.341  0.1070 -3.2506 -2.5359
  238MPD1    H2 3616   1.701   2.410  15.701 -0.4759 -1.1516  0.5182
  238MPD1    H3 3617   1.669   2.585  15.530 -1.0006  1.2868 -0.4901
  238MPD1     N 3618   1.397   2.331  15.282  0.4119 -0.2759 -0.3417
  238MPD1    H5 3619   1.419   2.406  15.218 -0.2150 -0.4173 -0.7227
  238MPD1    N1 3620   1.572   2.186  15.712 -0.0292  0.3332  0.0666
  238MPD1    H6 3621   1.583   2.212  15.810  0.6198  0.2637  0.0134
  238MPD1    H7 3622   1.508   2.107  15.707 -0.5747  0.8519 -1.0207
  239MPD1     C 3623   1.797   2.682  15.232 -0.0981 -0.0571 -0.6321
  239MPD1    C1 3624   1.889   2.661  15.130  0.0140  0.1008  0.1854
  239MPD1    C2 3625   1.867   2.732  15.014  0.4913  0.4118 -0.0373
  239MPD1    C3 3626   1.782   2.833  14.998  0.0927 -0.4807 -0.4432
  239MPD1    C4 3627   1.694   2.848  15.108 -0.3915  0.3831  0.5581
  239MPD1    C5 3628   1.691   2.763  15.212 -0.1266 -0.0863  0.4271
  239MPD1     H 3629   1.938   2.717  14.933 -0.2865 -2.9527 -0.0742
  239MPD1    H1 3630   1.621   2.929  15.111 -0.1158  0.6691 -0.3830
  239MPD1    H2 3631   1.798   2.627  15.325  0.2065 -0.2885 -0.7735
  239MPD1    H3 3632   1.616   2.772  15.290  0.0022  0.3134  0.5056
  239MPD1     N 3633   1.767   2.926  14.888  0.4317  0.1811 -0.0651
  239MPD1    H5 3634   1.691   2.992  14.900 -1.3879 -2.1482  1.0069
  239MPD1    N1 3635   1.977   2.554  15.137  1.0154  0.2800  0.5403
  239MPD1    H6 3636   2.046   2.554  15.061  0.1537  0.5983 -0.2412
  239MPD1    H7 3637   2.020   2.525  15.225  1.2456 -0.1953  0.2757
  240MPD1     C 3638   1.188   2.650  15.342  0.1910  0.2401  0.1438
  240MPD1    C1 3639   1.100   2.553  15.376 -0.4674  0.1258 -0.7252
  240MPD1    C2 3640   1.015   2.507  15.276 -0.0624  0.4500 -0.1813
  240MPD1    C3 3641   1.032   2.530  15.141 -0.0797 -0.1266 -0.5980
  240MPD1    C4 3642   1.129   2.626  15.105  0.5127 -0.8594  0.3148
  240MPD1    C5 3643   1.199   2.684  15.207 -0.2141 -1.5508 -0.0701
  240MPD1     H 3644   0.940   2.434  15.304 -1.1433  1.5209 -0.3029
  240MPD1    H1 3645   1.141   2.655  15.001 -0.1660 -2.8087 -0.3142
  240MPD1    H2 3646   1.254   2.695  15.416 -2.2755 -1.6761  3.5021
  240MPD1    H3 3647   1.276   2.756  15.179  0.8471 -3.3547 -1.7818
  240MPD1     N 3648   0.953   2.465  15.044  0.3914 -0.3240 -0.0193
  240MPD1    H5 3649   0.910   2.381  15.080  0.1312 -0.0586  0.2874
  240MPD1    N1 3650   1.064   2.534  15.510  0.1771  0.1264 -0.2378
  240MPD1    H6 3651   1.143   2.545  15.574 -0.5421  1.0717  0.4813
  240MPD1    H7 3652   1.006   2.452  15.523  1.0428 -0.3381  0.7246
  241MPD1     C 3653   0.304   1.736  14.907  0.2892  0.6922  0.3816
  241MPD1    C1 3654   0.389   1.793  15.004 -0.8845  0.2375  0.0094
  241MPD1    C2 3655   0.465   1.904  14.967  0.0366 -0.2990  1.0083
  241MPD1    C3 3656   0.468   1.954  14.833  0.1403 -0.5418 -0.1359
  241MPD1    C4 3657   0.387   1.886  14.742  0.5252  0.3953 -0.6810
  241MPD1    C5 3658   0.313   1.776  14.776 -0.0227 -0.7295 -0.8572
  241MPD1     H 3659   0.522   1.949  15.048 -1.4331  0.0240  1.8573
  241MPD1    H1 3660   0.408   1.894  14.636 -0.2667 -0.2659 -0.8846
  241MPD1    H2 3661   0.243   1.651  14.934  2.4256 -1.5949 -1.9808
  241MPD1    H3 3662   0.260   1.722  14.698 -0.0842 -1.7422 -0.1139
  241MPD1     N 3663   0.554   2.058  14.787 -0.3780  0.4930 -0.1110
  241MPD1    H5 3664   0.537   2.091  14.692 -1.1769 -2.4986 -1.0081
  241MPD1    N1 3665   0.397   1.743  15.131 -0.1057  0.0389  0.2222
  241MPD1    H6 3666   0.491   1.738  15.171 -0.1374  1.3637  0.4558
  241MPD1    H7 3667   0.336   1.667  15.158  2.5335 -2.1206  0.1971
  242MPD1     C 3668   0.877   1.658  15.640  0.6417 -0.4584 -0.0242
  242MPD1    C1 3669   0.951   1.719  15.540 -0.6275 -0.1944  0.6016
  242MPD1    C2 3670   1.005   1.643  15.439  0.1147  0.3749  0.1460
  242MPD1    C3 3671   0.989   1.504  15.429 -0.4775  0.0031 -0.4685
  242MPD1    C4 3672   0.920   1.446  15.530  0.2267 -0.0858 -0.8881
  242MPD1    C5 3673   0.865   1.520  15.634  0.6572  0.2084 -0.5919
  242MPD1     H 3674   1.061   1.698  15.364  1.0450  0.7583  1.1223
  242MPD1    H1 3675   0.922   1.338  15.540 -1.2047  0.0501  0.9752
  242MPD1    H2 3676   0.832   1.713  15.723 -0.1169 -1.6370  0.3555
  242MPD1    H3 3677   0.827   1.460  15.716 -2.0651  3.2405  0.3777
  242MPD1     N 3678   1.041   1.426  15.318  0.1482  0.0491  0.3321
  242MPD1    H5 3679   1.030   1.325  15.322 -1.9346  0.2853  0.3834
  242MPD1    N1 3680   0.978   1.854  15.543  0.3645  0.4039 -0.3119
  242MPD1    H6 3681   0.967   1.891  15.637  0.5514 -1.8613  0.5956
  242MPD1    H7 3682   1.076   1.864  15.520  0.7318 -3.3749 -0.4979
  243MPD1     C 3683   2.841   0.323  17.009  0.6080  0.1717  0.1391
  243MPD1    C1 3684   2.917   0.290  17.118 -0.4492 -0.1611 -0.2322
  243MPD1    C2 3685   2.954   0.155  17.133 -0.4398 -0.0153  0.6404
  243MPD1    C3 3686   2.917   0.060  17.049  0.6450  0.2418  0.0281
  243MPD1    C4 3687   2.857   0.105  16.930  0.0722 -0.6602  0.1171
  243MPD1    C5 3688   2.818   0.230  16.908  0.3788  0.2089 -0.0695
  243MPD1     H 3689   3.022   0.138  17.216 -0.0495  0.2501  0.3684
  243MPD1    H1 3690   2.840   0.037  16.847  0.7785 -0.4779 -0.1691
  243MPD1    H2 3691   2.806   0.423  16.985  3.1624  1.3250  1.1883
  243MPD1    H3 3692   2.768   0.262  16.817 -1.3278  1.4395  1.2953
  243MPD1     N 3693   2.946   4.647  17.065 -0.1513  0.3406  0.0380
  243MPD1    H5 3694   3.021   4.614  17.124  0.4187  0.1948 -0.7651
  243MPD1    N1 3695   2.980   0.391  17.197  0.4060  0.2307  0.3415
  243MPD1    H6 3696   2.986   0.359  17.294 -1.8046 -0.1882  0.3575
  243MPD1    H7 3697   2.928   0.478  17.202 -0.4679 -0.2164 -0.9298
  244MPD1     C 3698   3.421   3.964  17.577  0.0670 -0.4126 -0.5013
  244MPD1    C1 3699   3.348   3.871  17.504 -0.6513 -0.3760  0.1357
  244MPD1    C2 3700   3.261   3.924  17.409  0.1967  0.6062  0.2762
  244MPD1    C3 3701   3.238   4.053  17.389 -0.0965  0.0160  0.7161
  244MPD1    C4 3702   3.314   4.141  17.465  0.0473 -0.5377 -0.0029
  244MPD1    C5 3703   3.411   4.093  17.546 -0.2738 -0.0885  0.4946
  244MPD1     H 3704   3.209   3.850  17.349  0.3547  0.2454  0.5835
  244MPD1    H1 3705   3.309   4.249  17.453  2.6140 -0.2923  1.0105
  244MPD1    H2 3706   3.500   3.931  17.643 -0.5558  0.3543  0.6246
  244MPD1    H3 3707   3.483   4.163  17.586 -0.6615  0.7110 -0.2042
  244MPD1     N 3708   3.135   4.096  17.301 -0.0280  0.2701 -0.0767
  244MPD1    H5 3709   3.067   4.029  17.267 -2.0803  2.7298 -0.7478
  244MPD1    N1 3710   3.349   3.739  17.542  0.3780 -0.3485  0.0841
  244MPD1    H6 3711   3.436   3.705  17.583  0.4550 -2.5013 -1.8952
  244MPD1    H7 3712   3.326   3.676  17.466 -1.5238 -1.3280  1.4580
  245MPD1     C 3713   3.884   4.565  13.236 -0.2959 -0.2071  0.4339
  245MPD1    C1 3714   3.823   4.592  13.354  0.1614 -0.0739  0.4420
  245MPD1    C2 3715   3.848   4.710  13.420  0.5649  0.0977 -0.6319
  245MPD1    C3 3716   3.913   0.086  13.351 -0.7884  0.2483 -0.1061
  245MPD1    C4 3717   3.974   0.055  13.236 -0.3194  0.0579 -0.9353
  245MPD1    C5 3718   3.953   4.662  13.171  0.4645 -0.3233  0.7968
  245MPD1     H 3719   3.829   4.721  13.526  0.6846  0.4531 -0.6465
  245MPD1    H1 3720   4.048   0.111  13.179 -0.0234  0.2410 -0.3803
  245MPD1    H2 3721   3.888   4.469  13.185 -0.3145 -0.3804  0.7617
  245MPD1    H3 3722   3.998   4.649  13.073  1.7587  0.6313  1.2646
  245MPD1     N 3723   3.927   0.214  13.408  0.1876 -0.2346 -0.1868
  245MPD1    H5 3724   3.885   0.225  13.500 -0.8142  2.7725 -1.0165
  245MPD1    N1 3725   3.778   4.476  13.424 -0.3490  0.5496  0.8097
  245MPD1    H6 3726   3.714   4.493  13.501  1.5717  1.0775  2.2827
  245MPD1    H7 3727   3.723   4.410  13.369 -3.0092  0.6998  3.2611
  246MPD1     C 3728   0.492   2.252   8.843  0.2425  0.2220  0.0948
  246MPD1    C1 3729   0.544   2.133   8.816 -0.3340 -0.4593 -0.1602
  246MPD1    C2 3730   0.513   2.020   8.887  0.5905 -0.1289  0.3865
  246MPD1    C3 3731   0.433   2.039   8.998  0.8034 -0.6240  0.8030
  246MPD1    C4 3732   0.387   2.159   9.034 -0.2453  0.1901  0.6301
  246MPD1    C5 3733   0.426   2.266   8.961  0.1725 -0.0924  0.0056
  246MPD1     H 3734   0.561   1.923   8.876  1.1355  0.2961 -0.9081
  246MPD1    H1 3735   0.307   2.156   9.107 -0.3675 -0.2871  0.4744
  246MPD1    H2 3736   0.505   2.332   8.771  0.5365 -0.7669 -0.9616
  246MPD1    H3 3737   0.383   2.362   8.987  0.8003  0.2851 -0.3662
  246MPD1     N 3738   0.400   1.916   9.066 -0.0134 -0.2600 -0.2801
  246MPD1    H5 3739   0.451   1.834   9.032 -0.2308 -0.4338 -0.1907
  246MPD1    N1 3740   0.611   2.117   8.692  0.3664  0.2197 -0.6650
  246MPD1    H6 3741   0.671   2.197   8.670  0.6785 -0.0364 -0.7399
  246MPD1    H7 3742   0.655   2.028   8.671 -1.1997 -0.9092  0.8548
  247MPD1     C 3743   3.382   4.310  15.759 -0.2765  0.4845  0.3062
  247MPD1    C1 3744   3.446   4.200  15.824  0.5740  0.4489  0.3543
  247MPD1    C2 3745   3.568   4.228  15.880 -0.6988 -0.1244 -1.0011
  247MPD1    C3 3746   3.631   4.352  15.856  0.0398 -0.1037  0.2035
  247MPD1    C4 3747   3.577   4.443  15.768 -0.8307 -0.4887 -0.1396
  247MPD1    C5 3748   3.449   4.423  15.722 -0.0571 -0.1111 -0.5575
  247MPD1     H 3749   3.620   4.145  15.925 -0.4478  0.5012 -0.1344
  247MPD1    H1 3750   3.633   4.532  15.742 -2.2973  0.7531  0.9826
  247MPD1    H2 3751   3.280   4.305  15.724  0.8366 -0.9901 -2.7483
  247MPD1    H3 3752   3.397   4.502  15.668  0.7074 -0.4365 -1.7898
  247MPD1     N 3753   3.757   4.375  15.899 -0.2188 -0.1426  0.2607
  247MPD1    H5 3754   3.805   4.451  15.851 -0.9091  1.0131  1.4060
  247MPD1    N1 3755   3.375   4.091  15.869 -0.5616 -0.8730  0.3803
  247MPD1    H6 3756   3.306   4.059  15.802  1.5487 -0.4191 -2.0206
  247MPD1    H7 3757   3.440   4.014  15.886  0.2517 -0.2762 -0.0284
  248MPD1     C 3758   0.495   4.209   0.805 -0.0065  0.1455 -0.6192
  248MPD1    C1 3759   0.412   4.107   0.757  0.9213  0.3629 -0.2496
  248MPD1    C2 3760   0.279   4.109   0.790  0.2866 -0.5202 -0.2136
  248MPD1    C3 3761   0.225   4.200   0.879 -0.6978  0.8731 -0.3467
  248MPD1    C4 3762   0.313   4.296   0.937  0.3928 -0.0976  0.4301
  248MPD1    C5 3763   0.442   4.304   0.890  0.3921  0.2483 -0.3520
  248MPD1     H 3764   0.206   4.040   0.749  0.6457 -1.3623  0.5702
  248MPD1    H1 3765   0.286   4.363   1.018  1.8816 -1.1490  1.7811
  248MPD1    H2 3766   0.600   4.218   0.781 -0.0673 -0.9132 -1.3107
  248MPD1    H3 3767   0.513   4.370   0.938 -1.1155  1.4325  0.2576
  248MPD1     N 3768   0.093   4.183   0.913 -0.0987 -0.4968 -0.3591
  248MPD1    H5 3769   0.043   4.112   0.861  1.8171 -3.0961  1.3189
  248MPD1    N1 3770   0.449   4.031   0.642 -0.2908 -0.2273  0.5478
  248MPD1    H6 3771   0.376   3.959   0.637 -0.2888 -0.1871 -0.0320
  248MPD1    H7 3772   0.541   3.988   0.638 -1.0159 -1.8111  0.5632
  249MPD1     C 3773   0.756   3.278  10.136 -0.1597  0.0465 -1.2108
  249MPD1    C1 3774   0.843   3.222  10.225 -0.4381 -0.7348 -0.1791
  249MPD1    C2 3775   0.949   3.288  10.269 -0.5707 -0.0237 -0.4360
  249MPD1    C3 3776   0.953   3.427  10.263  0.1176  0.1669 -0.2101
  249MPD1    C4 3777   0.841   3.492  10.205 -0.3750  0.1434  0.2422
  249MPD1    C5 3778   0.751   3.412  10.132 -0.0121  0.4473  0.6378
  249MPD1     H 3779   1.034   3.240  10.314  0.3207 -1.1426 -3.3455
  249MPD1    H1 3780   0.826   3.599  10.195  2.4798  0.5666  0.2789
  249MPD1    H2 3781   0.687   3.215  10.080 -0.5498 -0.6675  0.0719
  249MPD1    H3 3782   0.675   3.447  10.064 -0.3202 -0.4428  0.5211
  249MPD1     N 3783   1.063   3.504  10.310  0.8730  0.1822  0.4765
  249MPD1    H5 3784   1.138   3.451  10.353  0.9146 -0.4040 -0.3217
  249MPD1    N1 3785   0.838   3.082  10.229 -0.2519  0.6551 -0.1676
  249MPD1    H6 3786   0.745   3.051  10.204  0.1670 -1.6376  1.1149
  249MPD1    H7 3787   0.870   3.035  10.313 -0.6661  2.0835  0.8069
  250MPD2     C 3788   2.419   3.405  13.478 -0.0671  0.2558 -0.2988
  250MPD2    C1 3789   2.492   3.427  13.366  0.5706  0.0159  0.0778
  250MPD2    C2 3790   2.479   3.341  13.263 -0.5723  0.1195  0.3035
  250MPD2    C3 3791   2.386   3.238  13.263  0.1474 -0.0192 -1.1713
  250MPD2    C4 3792   2.321   3.209  13.379  0.8105 -0.3016  0.2388
  250MPD2    C5 3793   2.331   3.302  13.483 -0.2499  0.9116  0.1696
  250MPD2     H 3794   2.540   3.356  13.175  0.4527 -0.0472  0.9775
  250MPD2    H1 3795   2.241   3.136  13.375  0.8315 -0.4127  1.8762
  250MPD2    H2 3796   2.406   3.478  13.557  0.4657 -1.1001  1.0438
  250MPD2    H3 3797   2.276   3.278  13.573 -0.4058 -1.0166 -0.4454
  250MPD2     N 3798   2.360   3.165  13.147 -0.0706 -0.2700  0.0814
  250MPD2    H5 3799   2.283   3.098  13.156 -0.0529 -0.1681  1.0481
  250MPD2    N1 3800   2.561   3.553  13.359  0.1100 -0.2286 -0.9146
  250MPD2    H7 3801   2.549   3.618  13.436 -0.9485  1.7619 -2.7598
  251TMC3    C1 3802   2.717   3.717  13.280  0.2512  0.2610 -0.0448
  251TMC3    C2 3803   2.635   3.827  13.300 -0.2351 -0.1051  0.4284
  251TMC3    C3 3804   2.679   3.951  13.261  0.0275 -0.5606 -0.4636
  251TMC3    C4 3805   2.832   3.735  13.212  0.7417 -0.2239  0.7194
  251TMC3    C5 3806   2.886   3.864  13.200 -0.3599  0.1383 -0.7012
  251TMC3    C6 3807   2.808   3.967  13.232 -0.5038 -0.4663 -0.2964
  251TMC3     C 3808   2.654   3.591  13.257 -0.3340 -0.1159  0.8276
  251TMC3     O 3809   2.657   3.540  13.144 -0.1745  0.3622 -0.1113
  251TMC3     H 3810   2.535   3.818  13.341 -1.2370  1.0952 -1.7318
  251TMC3    H1 3811   2.889   3.652  13.172 -0.4866  0.3437 -2.1582
  251TMC3    H2 3812   2.839   4.071  13.231 -0.7641 -0.3789  1.0624
  251TMC3    C7 3813   3.030   3.872  13.187 -0.0745  0.0882  0.7504
  251TMC3    C8 3814   2.608   4.060  13.310 -0.8509 -0.3390 -0.4442
  251TMC3    O1 3815   3.099   3.773  13.213  0.8282 -0.5687  0.4820
  251TMC3    O2 3816   2.555   4.056  13.419 -0.1194 -0.2340 -0.2111
  252TMC3    C1 3817   2.495   0.168   9.473  0.2277  0.0151  0.6646
  252TMC3    C2 3818   2.615   0.208   9.526 -0.9089 -0.0724  1.0320
  252TMC3    C3 3819   2.689   0.108   9.586  0.3332 -0.6418  0.2488
  252TMC3    C4 3820   2.444   0.036   9.488  0.2228 -0.1954  0.4034
  252TMC3    C5 3821   2.511   4.686   9.572  0.1808 -0.0674  1.0167
  252TMC3    C6 3822   2.635   4.708   9.612 -0.4780 -1.2796 -0.7378
  252TMC3     C 3823   2.399   0.267   9.424 -0.6496  0.0086 -0.2558
  252TMC3     O 3824   2.283   0.223   9.430 -0.1510 -0.2078  0.1692
  252TMC3     H 3825   2.652   0.309   9.510  1.6218 -1.1856 -0.1489
  252TMC3    H1 3826   2.338   0.014   9.476  1.0072 -3.0386 -0.9871
  252TMC3    H2 3827   2.686   4.645   9.684 -1.2435 -0.2253  0.7565
  252TMC3    C7 3828   2.439   4.569   9.623  0.1295  0.3001 -0.3373
  252TMC3    C8 3829   2.823   0.129   9.635  0.0146  0.8660  0.1669
  252TMC3    O1 3830   2.318   4.573   9.645  0.1358 -0.6164  0.5568
  252TMC3    O2 3831   2.850   0.249   9.644 -0.6647  0.1396 -0.0301
  253MPD2     C 3832   4.322   3.653  15.804 -1.0686  0.6923 -0.4048
  253MPD2    C1 3833   4.194   3.621  15.788  0.1503  0.5187  0.5222
  253MPD2    C2 3834   4.140   3.523  15.873 -0.0848  0.0856 -0.3307
  253MPD2    C3 3835   4.209   3.488  15.988 -0.0996  1.0524 -0.6231
  253MPD2    C4 3836   4.339   3.521  16.001 -0.1069 -0.6217 -0.3678
  253MPD2    C5 3837   4.394   3.605  15.909  0.3122 -0.6003  0.5152
  253MPD2     H 3838   4.038   3.491  15.852 -0.4304  0.3018  0.9966
  253MPD2    H1 3839   4.400   3.512  16.090 -0.0066 -1.6734 -0.5448
  253MPD2    H2 3840   4.373   3.725  15.740  1.8465  0.3842  1.5561
  253MPD2    H3 3841   4.501   3.621  15.913  0.3140 -1.7488  4.4970
  253MPD2     N 3842   4.159   3.413  16.102 -0.1437  0.7667  0.0065
  253MPD2    H5 3843   4.224   3.385  16.175  0.0694  0.3323 -0.3482
  253MPD2    N1 3844   4.116   3.671  15.685 -0.0404 -0.5000  0.1545
  253MPD2    H7 3845   4.017   3.652  15.687 -0.4130  1.4741  0.7381
  254TMC3    C1 3846   4.006   3.310  16.240 -0.1734  0.3712 -0.3565
  254TMC3    C2 3847   3.875   3.335  16.275  1.0243 -0.9405  0.3413
  254TMC3    C3 3848   3.836   3.345  16.407 -0.0063  0.0041  0.0034
  254TMC3    C4 3849   4.103   3.304  16.337 -0.1487  0.3039 -0.1616
  254TMC3    C5 3850   4.063   3.330  16.469 -0.3175  0.1252 -0.3374
  254TMC3    C6 3851   3.928   3.340  16.504  0.5994  0.2116  0.5756
  254TMC3     C 3852   4.040   3.360  16.107  0.2340  0.2236  0.2862
  254TMC3     O 3853   3.953   3.368  16.028  0.0114  0.1121 -0.0214
  254TMC3     H 3854   3.796   3.336  16.200  1.4449 -3.6173 -0.1497
  254TMC3    H1 3855   4.210   3.302  16.323  0.0824 -0.2715  1.6298
  254TMC3    H2 3856   3.899   3.348  16.608 -2.0296  0.5910 -0.1805
  254TMC3    C7 3857   4.140   3.274  16.573  0.3706  0.4667  0.2047
  254TMC3    C8 3858   3.694   3.338  16.439  0.0632  0.3039  0.2317
  254TMC3    O1 3859   4.112   3.302  16.690 -0.7526 -0.3183  0.1124
  254TMC3    O2 3860   3.658   3.386  16.543 -0.5636  0.0467 -0.3942
  255MPD2     C 3861   1.896   1.886  10.532  0.1408 -0.2297  0.1285
  255MPD2    C1 3862   1.996   1.945  10.461 -0.0332  0.4188  0.3316
  255MPD2    C2 3863   2.097   1.860  10.419 -0.9208  0.1861  0.2013
  255MPD2    C3 3864   2.096   1.724  10.454 -0.4900 -0.1433 -0.1379
  255MPD2    C4 3865   2.000   1.674  10.545  0.4528 -0.4510 -0.6327
  255MPD2    C5 3866   1.896   1.756  10.582 -0.1425 -0.5932  0.2317
  255MPD2     H 3867   2.182   1.893  10.360 -0.2963  2.6185  2.4720
  255MPD2    H1 3868   1.988   1.571  10.575  1.7075 -0.2067  0.7366
  255MPD2    H2 3869   1.820   1.951  10.575 -0.0924  1.1555 -2.3965
  255MPD2    H3 3870   1.810   1.728  10.642  0.2082  0.3963  1.1913
  255MPD2     N 3871   2.198   1.653  10.410 -0.3219  0.1930 -0.7238
  255MPD2    H5 3872   2.266   1.710  10.361  1.7020  1.5405  3.6017
  255MPD2    N1 3873   1.983   2.082  10.427 -0.4737  0.6221  0.5452
  255MPD2    H7 3874   1.905   2.137  10.460 -0.3597  1.1092  0.0082
  256TMC3    C1 3875   1.995   2.270  10.292  1.1531 -0.4716 -0.5036
  256TMC3    C2 3876   2.077   2.341  10.203 -0.1205  0.4976  0.0384
  256TMC3    C3 3877   2.019   2.460  10.162 -0.1710  0.2617 -0.5115
  256TMC3    C4 3878   1.862   2.296  10.320  0.1777 -0.5497  0.1827
  256TMC3    C5 3879   1.810   2.411  10.269  0.0890 -0.5690 -0.0290
  256TMC3    C6 3880   1.885   2.496  10.193  0.1279 -0.3186 -0.4737
  256TMC3     C 3881   2.060   2.146  10.335 -0.0699  0.7102 -0.4818
  256TMC3     O 3882   2.158   2.107  10.273 -0.3502  0.1151 -0.1779
  256TMC3     H 3883   2.180   2.313  10.186 -0.5446 -0.2677 -1.2476
  256TMC3    H1 3884   1.806   2.237  10.392  1.1611  0.8570  2.1016
  256TMC3    H2 3885   1.838   2.577  10.138  0.9070  0.3394 -0.1650
  256TMC3    C7 3886   1.659   2.422  10.256 -0.4258 -0.2367 -0.0408
  256TMC3    C8 3887   2.100   2.556  10.099 -0.4603  0.7410 -0.3201
  256TMC3    O1 3888   1.624   2.531  10.215  0.1571 -0.3496  0.3428
  256TMC3    O2 3889   2.083   2.672  10.143  0.1320 -0.9259 -0.4108
  257MPD2     C 3890   1.586   3.533  13.225 -0.2391  0.3394  0.0466
  257MPD2    C1 3891   1.516   3.441  13.143  0.5383 -0.2394 -0.1003
  257MPD2    C2 3892   1.503   3.312  13.182  0.3555 -0.0181  0.3197
  257MPD2    C3 3893   1.564   3.270  13.298 -0.7656  0.4690 -0.0342
  257MPD2    C4 3894   1.630   3.363  13.380  0.2451 -0.2688 -0.3876
  257MPD2    C5 3895   1.642   3.494  13.341 -0.5770  0.1242  0.5043
  257MPD2     H 3896   1.456   3.236  13.121  1.5039 -0.7926  0.3888
  257MPD2    H1 3897   1.680   3.342  13.474  0.2027  0.2070 -0.2580
  257MPD2    H2 3898   1.599   3.638  13.204  1.4476 -0.1764 -1.4382
  257MPD2    H3 3899   1.704   3.559  13.401  2.1723 -0.4198 -1.7376
  257MPD2     N 3900   1.576   3.129  13.322 -0.1816 -0.0316  0.4953
  257MPD2    H5 3901   1.551   3.064  13.248  0.3385 -0.4063  0.6437
  257MPD2    N1 3902   1.472   3.490  13.013 -0.2464 -0.2474  0.0993
  257MPD2    H7 3903   1.515   3.572  12.973  0.4124 -1.6418 -2.0817
  258TMC3    C1 3904   1.618   2.921  13.431 -0.1883 -0.1795  0.5176
  258TMC3    C2 3905   1.597   2.854  13.315 -0.3924  0.1102 -0.5608
  258TMC3    C3 3906   1.615   2.714  13.317 -0.2575 -0.2496  0.6453
  258TMC3    C4 3907   1.653   2.861  13.546  0.0827  0.1411  0.5502
  258TMC3    C5 3908   1.668   2.724  13.548 -0.1902  0.0823  0.8947
  258TMC3    C6 3909   1.645   2.646  13.438  0.5302 -0.0715  0.1986
  258TMC3     C 3910   1.603   3.069  13.441  1.2016  0.2391  0.2245
  258TMC3     O 3911   1.631   3.126  13.545  0.4153 -0.3091  0.3104
  258TMC3     H 3912   1.591   2.901  13.218  1.8095  0.6772 -0.4279
  258TMC3    H1 3913   1.657   2.922  13.635  0.1546  1.1921 -0.1762
  258TMC3    H2 3914   1.667   2.540  13.444  0.4250 -0.3139 -3.3893
  258TMC3    C7 3915   1.694   2.652  13.666  0.1794 -0.3792 -0.0652
  258TMC3    C8 3916   1.588   2.634  13.195 -0.3899 -0.3654  0.7307
  258TMC3    O1 3917   1.624   2.551  13.685  0.0133  0.1355  0.1970
  258TMC3    O2 3918   1.564   2.708  13.102  0.0131  0.1925 -0.2277
  259MPD2     C 3919   0.947   0.302   0.879 -0.3776  0.0356  0.4756
  259MPD2    C1 3920   1.024   0.204   0.944 -0.1066  0.0946 -0.0861
  259MPD2    C2 3921   1.106   0.123   0.868  0.0786  0.7302  0.0234
  259MPD2    C3 3922   1.113   0.141   0.732  0.6691 -0.2822  0.1576
  259MPD2    C4 3923   1.048   0.244   0.674  0.1591 -0.9883  0.3283
  259MPD2    C5 3924   0.967   0.321   0.744  0.0132 -0.2095  0.6181
  259MPD2     H 3925   1.156   0.040   0.917 -0.1591  0.8318  0.4387
  259MPD2    H1 3926   1.051   0.246   0.565 -0.5794  0.1482  0.3325
  259MPD2    H2 3927   0.869   0.359   0.929 -0.1397  1.1180 -0.3677
  259MPD2    H3 3928   0.918   0.403   0.691 -1.8954 -1.5727  0.2880
  259MPD2     N 3929   1.177   0.043   0.658  0.1392 -0.3242  0.6143
  259MPD2    H5 3930   1.208   4.686   0.712 -2.8303  0.2479  3.1760
  259MPD2    N1 3931   0.999   0.185   1.079 -0.4414  0.0868 -0.2971
  259MPD2    H7 3932   0.920   0.232   1.122 -0.0419  1.1696 -0.7539
  260TMC3    C1 3933   1.303   4.660   0.492 -0.9870 -0.7225 -0.4709
  260TMC3    C2 3934   1.418   4.675   0.423 -0.3398 -0.2809 -0.2469
  260TMC3    C3 3935   1.480   4.564   0.375  0.0245  0.1859  0.8257
  260TMC3    C4 3936   1.265   4.548   0.561  0.6519 -0.2118  0.3857
  260TMC3    C5 3937   1.342   4.437   0.524 -0.3524  0.8332 -0.1249
  260TMC3    C6 3938   1.440   4.443   0.419  0.0260 -0.4627  0.2536
  260TMC3     C 3939   1.226   0.048   0.529 -0.0476  0.5764  0.7436
  260TMC3     O 3940   1.239   0.141   0.453  0.5707 -0.5831 -0.7345
  260TMC3     H 3941   1.433   0.050   0.381  2.5976 -0.5635  0.1740
  260TMC3    H1 3942   1.165   4.540   0.604  0.7400  0.2910  0.6908
  260TMC3    H2 3943   1.499   4.353   0.407 -1.7988 -1.6309  0.1878
  260TMC3    C7 3944   1.271   4.309   0.519 -0.2545 -0.3992 -0.3905
  260TMC3    C8 3945   1.580   4.584   0.276 -0.1364  0.3081  0.6755
  260TMC3    O1 3946   1.288   4.224   0.430 -0.4867 -0.6769  0.0824
  260TMC3    O2 3947   1.625   4.693   0.271  0.1866  0.2946 -0.0549
  261MPD2     C 3948   1.897   3.032  12.499 -0.0286 -0.7464 -0.4487
  261MPD2    C1 3949   2.025   3.081  12.500  0.3592 -0.3897  0.6458
  261MPD2    C2 3950   2.070   3.163  12.393 -0.1467  0.2714 -0.0289
  261MPD2    C3 3951   1.991   3.196  12.289 -0.1694  0.1507  0.2730
  261MPD2    C4 3952   1.863   3.138  12.291  0.6921  0.3723 -0.6628
  261MPD2    C5 3953   1.816   3.060  12.394  0.5180  0.2910  0.1371
  261MPD2     H 3954   2.174   3.190  12.394 -0.0367 -0.0835 -1.2690
  261MPD2    H1 3955   1.797   3.149  12.206  0.0185  0.2326 -0.1672
  261MPD2    H2 3956   1.846   2.984  12.582  0.8897 -0.6418  0.1773
  261MPD2    H3 3957   1.714   3.023  12.396  0.3556  0.8014  0.8828
  261MPD2     N 3958   2.037   3.280  12.188  0.1028 -0.4057  0.0089
  261MPD2    H5 3959   1.961   3.324  12.136  0.6576  0.5761  0.0149
  261MPD2    N1 3960   2.126   3.058  12.601 -0.6504  0.2751  0.3051
  261MPD2    H7 3961   2.224   3.075  12.582 -0.8175  2.0012  0.9513
  262TMC3    C1 3962   2.175   3.406  12.045  0.1240  0.1142  0.4096
  262TMC3    C2 3963   2.078   3.498  12.025  0.5788  0.3420  0.1608
  262TMC3    C3 3964   2.079   3.553  11.894 -0.3298  0.1371 -0.8389
  262TMC3    C4 3965   2.246   3.343  11.949  0.3953 -0.1735  0.0136
  262TMC3    C5 3966   2.245   3.401  11.826  0.9153 -0.3353 -0.2112
  262TMC3    C6 3967   2.163   3.509  11.794  0.0505 -0.3773 -0.4329
  262TMC3     C 3968   2.168   3.318  12.162 -0.7045 -0.3228 -0.4396
  262TMC3     O 3969   2.271   3.287  12.221  0.1270  0.3251  0.0391
  262TMC3     H 3970   2.019   3.541  12.105  0.3438 -1.7737  1.1217
  262TMC3    H1 3971   2.317   3.264  11.969 -0.9923 -1.6618 -0.9458
  262TMC3    H2 3972   2.159   3.540  11.690  0.4394 -1.2143 -0.6992
  262TMC3    C7 3973   2.283   3.308  11.724 -0.0853 -0.1755 -0.6254
  262TMC3    C8 3974   1.995   3.667  11.864 -0.1749 -0.3425 -0.5485
  262TMC3    O1 3975   2.261   3.191  11.749  0.0189  0.3811  0.0078
  262TMC3    O2 3976   2.005   3.715  11.752 -0.6298  0.4573  0.0072
  263MPD2     C 3977   2.994   2.412  11.319 -0.6235 -0.2239  0.3065
  263MPD2    C1 3978   3.058   2.481  11.423  0.4546 -0.3379  0.0278
  263MPD2    C2 3979   3.124   2.601  11.396 -0.3378  0.0067 -0.1310
  263MPD2    C3 3980   3.132   2.653  11.270  0.1363 -0.1135  0.5083
  263MPD2    C4 3981   3.082   2.585  11.160 -0.1410  0.1194 -0.4371
  263MPD2    C5 3982   3.011   2.465  11.193  0.1658 -1.1756  0.0034
  263MPD2     H 3983   3.184   2.647  11.473  0.5401  0.8239 -1.2943
  263MPD2    H1 3984   3.091   2.618  11.057  0.3932  0.8862 -0.1398
  263MPD2    H2 3985   2.939   2.320  11.334  0.3355 -0.9589 -0.6415
  263MPD2    H3 3986   2.953   2.420  11.112  1.3823 -1.4399 -0.7223
  263MPD2     N 3987   3.197   2.782  11.258 -0.1513  0.1520  0.4243
  263MPD2    H5 3988   3.221   2.823  11.348  4.0525  0.2571 -0.7490
  263MPD2    N1 3989   3.064   2.421  11.553  0.5744 -0.4112 -0.1487
  263MPD2    H7 3990   3.041   2.323  11.569 -2.2365  0.2302 -0.1418
  264TMC3    C1 3991   3.280   2.977  11.199  0.1711  0.3283  0.0272
  264TMC3    C2 3992   3.219   3.050  11.302  0.1678 -0.5447  0.3621
  264TMC3    C3 3993   3.273   3.173  11.326  0.2417 -0.1084 -0.2413
  264TMC3    C4 3994   3.377   3.031  11.121 -0.0706 -0.0933  0.3877
  264TMC3    C5 3995   3.416   3.159  11.142  0.0609 -0.3839  0.1341
  264TMC3    C6 3996   3.362   3.235  11.243  0.2777 -0.1452 -0.5178
  264TMC3     C 3997   3.203   2.868  11.155 -0.1297 -0.0386  0.2289
  264TMC3     O 3998   3.192   2.853  11.033 -0.2993  0.0721 -0.6145
  264TMC3     H 3999   3.136   3.008  11.358 -0.2441  1.9503  1.6324
  264TMC3    H1 4000   3.421   2.968  11.045  0.3149 -0.4725  0.9223
  264TMC3    H2 4001   3.400   3.336  11.254  0.5900 -0.2789 -0.3509
  264TMC3    C7 4002   3.515   3.209  11.048 -0.0453  0.0877 -0.0370
  264TMC3    C8 4003   3.250   3.233  11.452 -0.5968  0.2480  0.5361
  264TMC3    O1 4004   3.538   3.163  10.937  0.4085 -0.5438 -0.2243
  264TMC3    O2 4005   3.176   3.170  11.530  0.1835  0.0542 -0.0649
  265MPD2     C 4006   0.439   3.086  15.764  0.5395 -0.7210 -0.0348
  265MPD2    C1 4007   0.515   3.182  15.704  0.5456  0.1145 -0.4112
  265MPD2    C2 4008   0.595   3.148  15.598 -0.0130 -0.2448 -0.1313
  265MPD2    C3 4009   0.594   3.018  15.549 -0.2344 -0.1284  0.4431
  265MPD2    C4 4010   0.503   2.927  15.601 -0.1260 -0.6779 -0.0351
  265MPD2    C5 4011   0.429   2.959  15.711  0.5179 -0.5414  0.1206
  265MPD2     H 4012   0.659   3.223  15.555  0.3751 -1.1883 -1.1980
  265MPD2    H1 4013   0.487   2.829  15.556  0.6237  0.0349 -1.8780
  265MPD2    H2 4014   0.365   3.106  15.841  1.7291  0.8178  0.7227
  265MPD2    H3 4015   0.356   2.893  15.757  0.2964  0.4215  1.1261
  265MPD2     N 4016   0.681   2.969  15.447 -0.0447  0.1874  0.4349
  265MPD2    H5 4017   0.653   2.878  15.411 -0.3799  1.2454 -2.0030
  265MPD2    N1 4018   0.514   3.319  15.750  0.4799  0.4119  0.4834
  265MPD2    H7 4019   0.569   3.385  15.696 -0.8093  1.0096 -0.0905
  266TMC3    C1 4020   0.468   3.501  15.901 -0.2973  0.0097  0.8966
  266TMC3    C2 4021   0.478   3.545  16.034  0.1656  0.1622  0.4134
  266TMC3    C3 4022   0.522   3.674  16.061 -0.5395 -0.3798 -0.0685
  266TMC3    C4 4023   0.507   3.584  15.803 -0.3986  0.0204 -0.8057
  266TMC3    C5 4024   0.548   3.715  15.827 -0.0927 -0.5877  0.3033
  266TMC3    C6 4025   0.552   3.758  15.957  0.3161  0.6697 -0.0542
  266TMC3     C 4026   0.460   3.355  15.871  0.2522  0.6913  0.3836
  266TMC3     O 4027   0.418   3.289  15.966 -0.9161 -0.5165  0.1368
  266TMC3     H 4028   0.464   3.468  16.110 -1.3806  0.6932  0.6668
  266TMC3    H1 4029   0.503   3.555  15.699 -1.1634 -0.5748 -0.6103
  266TMC3    H2 4030   0.583   3.859  15.980 -2.6108  1.4572  0.4501
  266TMC3    C7 4031   0.545   3.811  15.712  0.2780 -0.2795  0.0972
  266TMC3    C8 4032   0.591   3.693  16.182 -0.0567 -0.2544 -0.2955
  266TMC3    O1 4033   0.564   3.759  15.605  0.2124 -0.1024 -0.1240
  266TMC3    O2 4034   0.659   3.596  16.209  0.4062 -0.3779  0.5721
  267MPD2     C 4035   2.521   0.395   0.196  0.5772  0.4602 -0.5206
  267MPD2    C1 4036   2.605   0.428   0.093 -0.1227 -0.1211  0.2250
  267MPD2    C2 4037   2.584   0.382  17.659  0.0812  0.7312  0.2784
  267MPD2    C3 4038   2.475   0.302  17.635 -0.4191 -0.0781  0.3881
  267MPD2    C4 4039   2.379   0.277   0.039 -0.5860  0.2850  0.2949
  267MPD2    C5 4040   2.409   0.323   0.166 -0.1939 -0.1132 -0.3044
  267MPD2     H 4041   2.656   0.407  17.582  0.3038  0.4642  0.4016
  267MPD2    H1 4042   2.296   0.208   0.026  1.5365 -1.7381 -2.7228
  267MPD2    H2 4043   2.521   0.451   0.289  0.0609  0.3666 -0.4629
  267MPD2    H3 4044   2.350   0.305   0.255 -1.7414  2.1039 -0.8795
  267MPD2     N 4045   2.454   0.230  17.514  0.1502  0.9434  0.3910
  267MPD2    H5 4046   2.361   0.196  17.494  0.2620  0.4492  0.7036
  267MPD2    N1 4047   2.719   0.513   0.128  0.3430 -0.2847  0.0936
  267MPD2    H7 4048   2.729   0.533   0.227 -2.5903 -0.9855  0.5367
  268TMC3    C1 4049   2.940   0.611   0.111 -0.5857  0.2703  0.3816
  268TMC3    C2 4050   3.056   0.623   0.030 -0.3232  0.5147 -0.0983
  268TMC3    C3 4051   3.179   0.635   0.088 -0.1874  0.1573  0.5625
  268TMC3    C4 4052   2.950   0.608   0.251  0.0473  0.0040  0.4496
  268TMC3    C5 4053   3.081   0.642   0.300  0.1433  0.1797  0.0472
  268TMC3    C6 4054   3.197   0.638   0.222 -0.8776  0.3297 -0.3020
  268TMC3     C 4055   2.830   0.540   0.043  0.7091 -1.0085  0.3530
  268TMC3     O 4056   2.841   0.521  17.620 -0.7363  1.1215  0.0892
  268TMC3     H 4057   3.035   0.610  17.621  2.3678  0.4430 -0.6344
  268TMC3    H1 4058   2.861   0.618   0.312 -1.8753 -1.6600 -2.0760
  268TMC3    H2 4059   3.291   0.635   0.277  0.0932 -0.4038 -2.0074
  268TMC3    C7 4060   3.103   0.660   0.439  0.5409  0.8409  0.1056
  268TMC3    C8 4061   3.299   0.583   0.018  0.2657 -0.6367  0.4441
  268TMC3    O1 4062   3.023   0.594   0.504 -0.3254  0.0978 -1.2477
  268TMC3    O2 4063   3.406   0.570   0.078 -0.7485 -0.2728 -0.1249
  269MPD2     C 4064   3.003   3.522  15.924  0.1347  0.0868 -0.0306
  269MPD2    C1 4065   2.870   3.549  15.882  0.2661  0.1114 -0.3968
  269MPD2    C2 4066   2.839   3.676  15.832 -0.0026  0.2346  0.6108
  269MPD2    C3 4067   2.939   3.761  15.798 -0.3944  0.3572 -0.5312
  269MPD2    C4 4068   3.072   3.725  15.817  0.6164  0.3912 -0.2147
  269MPD2    C5 4069   3.102   3.611  15.882 -0.3028 -0.0547 -0.7030
  269MPD2     H 4070   2.734   3.701  15.819  0.0206  0.6411  1.2428
  269MPD2    H1 4071   3.154   3.790  15.790  1.3925 -0.5606 -0.1654
  269MPD2    H2 4072   3.031   3.423  15.958  0.8047  0.7987  1.4887
  269MPD2    H3 4073   3.208   3.592  15.893  0.0151  1.0378 -1.9665
  269MPD2     N 4074   2.903   3.894  15.752 -0.4482 -1.1316 -0.2858
  269MPD2    H5 4075   2.804   3.914  15.755 -0.5506 -1.6906  0.0875
  269MPD2    N1 4076   2.773   3.443  15.906  0.2359 -0.4756  0.3810
  269MPD2    H7 4077   2.814   3.368  15.962  2.1020 -0.4720 -0.9814
  270TMC3    C1 4078   2.582   3.315  15.893  0.0930 -0.5277  0.1273
  270TMC3    C2 4079   2.477   3.288  15.807 -0.1489  0.3464  0.2309
  270TMC3    C3 4080   2.436   3.158  15.792 -1.0005 -0.6089  0.2226
  270TMC3    C4 4081   2.653   3.210  15.947 -0.2515  0.1810 -0.0392
  270TMC3    C5 4082   2.590   3.084  15.940 -0.1022  0.1487  0.0831
  270TMC3    C6 4083   2.481   3.055  15.863  0.2887 -0.3482  0.3579
  270TMC3     C 4084   2.641   3.446  15.862  0.7140 -0.4497 -0.2906
  270TMC3     O 4085   2.595   3.520  15.781  0.1374  0.4181 -0.1936
  270TMC3     H 4086   2.436   3.367  15.746 -0.5648 -0.6787 -0.8295
  270TMC3    H1 4087   2.743   3.221  16.006 -0.7341  1.1143  0.5252
  270TMC3    H2 4088   2.431   2.959  15.869 -0.3163  0.1086  2.4731
  270TMC3    C7 4089   2.680   2.971  15.962 -0.0547  0.9660  0.0764
  270TMC3    C8 4090   2.437   3.125  15.658  0.3582  0.5582 -0.1292
  270TMC3    O1 4091   2.797   2.993  15.993  0.4444 -0.4410  0.4210
  270TMC3    O2 4092   2.461   3.217  15.578 -0.3602 -0.4354 -0.2751
  271MPD2     C 4093   2.071   3.544  13.979 -0.2911 -0.0870  0.0906
  271MPD2    C1 4094   2.029   3.456  14.070  0.2975  0.1112 -0.2264
  271MPD2    C2 4095   1.896   3.442  14.105 -0.2391  0.0747  0.2446
  271MPD2    C3 4096   1.794   3.499  14.028 -0.5757 -0.0001  0.3545
  271MPD2    C4 4097   1.838   3.571  13.922  0.0863  0.1164 -0.0167
  271MPD2    C5 4098   1.973   3.597  13.902  0.2003  0.2346  0.1927
  271MPD2     H 4099   1.872   3.371  14.183 -2.6846 -0.9708 -1.4481
  271MPD2    H1 4100   1.764   3.612  13.854  1.8847  1.5972 -1.0702
  271MPD2    H2 4101   2.175   3.571  13.965 -0.7323  0.9122 -1.2486
  271MPD2    H3 4102   2.008   3.660  13.822  0.1634  1.4863  1.1610
  271MPD2     N 4103   1.661   3.490  14.049  1.0319  0.1615 -0.3338
  271MPD2    H5 4104   1.600   3.512  13.970 -0.1778 -4.5494 -0.7559
  271MPD2    N1 4105   2.119   3.401  14.163 -0.1060 -0.1457 -0.0808
  271MPD2    H7 4106   2.091   3.349  14.246  0.8299 -0.9851 -0.2887
  272TMC3    C1 4107   2.308   3.381  14.288  0.3146 -0.6232  0.3222
  272TMC3    C2 4108   2.429   3.310  14.291 -0.3214 -1.2042  0.3511
  272TMC3    C3 4109   2.485   3.263  14.415 -0.3424 -0.1191 -0.0147
  272TMC3    C4 4110   2.239   3.402  14.404  0.4798 -0.5645 -0.2324
  272TMC3    C5 4111   2.296   3.360  14.522  0.9002 -0.6760 -0.2374
  272TMC3    C6 4112   2.413   3.293  14.527  0.3333 -0.3412  0.1351
  272TMC3     C 4113   2.253   3.420  14.160 -0.2313 -0.8091 -0.2753
  272TMC3     O 4114   2.329   3.450  14.067  0.0368 -0.3362 -0.1427
  272TMC3     H 4115   2.478   3.292  14.196 -0.9585 -0.9603 -0.0190
  272TMC3    H1 4116   2.145   3.455  14.404 -0.0791 -1.5585  1.1566
  272TMC3    H2 4117   2.449   3.244  14.617  0.3394  0.7903  0.7581
  272TMC3    C7 4118   2.234   3.413  14.648  0.5997  0.3366 -0.0011
  272TMC3    C8 4119   2.619   3.212  14.415  0.4997 -0.7185  0.2172
  272TMC3    O1 4120   2.123   3.469  14.644  0.7188 -0.6491  0.2057
  272TMC3    O2 4121   2.691   3.265  14.332  0.1923 -0.7855 -0.1540
  273MPD2     C 4122   3.189   1.306  11.427 -0.4639 -0.0466  0.1638
  273MPD2    C1 4123   3.287   1.386  11.477 -0.0295 -0.3170  0.1889
  273MPD2    C2 4124   3.363   1.462  11.388 -0.7894 -0.1225 -0.0326
  273MPD2    C3 4125   3.348   1.450  11.254  0.1451 -0.5280 -0.1425
  273MPD2    C4 4126   3.251   1.363  11.207 -0.3305 -0.1138 -0.3953
  273MPD2    C5 4127   3.174   1.292  11.298  0.4474  0.4626 -0.1924
  273MPD2     H 4128   3.441   1.523  11.432 -0.8371  0.8037 -1.2257
  273MPD2    H1 4129   3.236   1.342  11.101 -0.8015  1.8393 -0.7152
  273MPD2    H2 4130   3.122   1.248  11.490 -0.9862 -1.5197 -1.7708
  273MPD2    H3 4131   3.089   1.235  11.262  0.6903 -0.9973  1.5513
  273MPD2     N 4132   3.426   1.521  11.156  0.7685  0.3662 -0.0769
  273MPD2    H5 4133   3.391   1.516  11.061  0.3081 -1.6437  0.2015
  273MPD2    N1 4134   3.314   1.376  11.618  0.2738 -0.0364  1.1577
  273MPD2    H7 4135   3.267   1.302  11.670 -0.5194 -0.2462  0.1454
  274TMC3    C1 4136   3.573   1.682  11.067  0.7744  0.0441 -0.8545
  274TMC3    C2 4137   3.506   1.693  10.947 -0.3674  0.6669  0.4492
  274TMC3    C3 4138   3.546   1.780  10.850 -0.5121  0.6699  0.8419
  274TMC3    C4 4139   3.677   1.766  11.099 -0.4998  0.2657  0.4183
  274TMC3    C5 4140   3.706   1.860  11.008  0.1797 -0.1796  0.0939
  274TMC3    C6 4141   3.656   1.867  10.879  1.1117  0.2881 -0.3556
  274TMC3     C 4142   3.530   1.599  11.183 -0.6037 -0.5316 -0.8379
  274TMC3     O 4143   3.580   1.626  11.292  0.2271 -0.0574  0.2306
  274TMC3     H 4144   3.416   1.639  10.921 -0.5046  1.1788 -0.1193
  274TMC3    H1 4145   3.732   1.756  11.192  0.1541 -0.2050 -0.0204
  274TMC3    H2 4146   3.645   1.965  10.833  1.9518  0.9220  0.7805
  274TMC3    C7 4147   3.753   1.991  11.062 -0.5321 -0.3042 -0.5264
  274TMC3    C8 4148   3.471   1.788  10.727  0.1325 -0.8697  0.0233
  274TMC3    O1 4149   3.824   2.066  10.994  0.3188  1.1051 -0.3509
  274TMC3    O2 4150   3.359   1.733  10.725  0.0366 -0.2076 -0.5535
  275MPD2     C 4151   3.735   4.517  14.374 -0.1861  0.4546 -0.3532
  275MPD2    C1 4152   3.683   4.513  14.504 -0.2118 -0.7785  0.3170
  275MPD2    C2 4153   3.563   4.451  14.524  0.5977  0.4542  0.5259
  275MPD2    C3 4154   3.486   4.396  14.419  0.0454  0.5391  0.0962
  275MPD2    C4 4155   3.542   4.402  14.298 -0.5071  0.7064  0.3482
  275MPD2    C5 4156   3.661   4.457  14.272  0.4998 -0.2008 -0.4836
  275MPD2     H 4157   3.529   4.443  14.627 -2.5750 -3.9659 -0.8778
  275MPD2    H1 4158   3.476   4.367  14.219 -0.1113 -0.9881  0.7820
  275MPD2    H2 4159   3.821   4.580  14.354 -0.3051  1.0672  1.0611
  275MPD2    H3 4160   3.693   4.481  14.171  3.1791 -0.7483  0.2419
  275MPD2     N 4161   3.354   4.337  14.430 -0.0435 -0.2555 -0.5463
  275MPD2    H5 4162   3.309   4.308  14.343  2.6712  0.6899 -2.2552
  275MPD2    N1 4163   3.752   4.568  14.619 -0.3735  0.0704  0.0303
  275MPD2    H7 4164   3.721   4.547  14.713  2.2901  0.2315  0.9227
  276TMC3    C1 4165   3.904   4.693  14.750  0.3005 -0.8484  0.4373
  276TMC3    C2 4166   3.805   4.696  14.841  0.0086 -0.5851  0.8898
  276TMC3    C3 4167   3.840   4.673  14.969 -0.4607  1.0476  0.1690
  276TMC3    C4 4168   4.035   4.692  14.782 -0.2710 -0.2344  0.4751
  276TMC3    C5 4169   4.069   4.686  14.915  0.3198  0.8060 -0.3430
  276TMC3    C6 4170   3.971   4.667  15.012 -0.1060 -0.4564 -0.3881
  276TMC3     C 4171   3.868   4.645  14.614  0.2360 -0.0371 -0.7045
  276TMC3     O 4172   3.941   4.671  14.520 -0.1438  0.1018  0.5749
  276TMC3     H 4173   3.700   4.705  14.814  0.5535  1.6293 -0.4628
  276TMC3    H1 4174   4.108   4.701  14.703  1.2372  0.9421  2.0111
  276TMC3    H2 4175   3.997   4.667  15.117  0.4029  0.7589 -0.5163
  276TMC3    C7 4176   4.206   4.704  14.965 -0.4340  0.3188  0.4637
  276TMC3    C8 4177   3.743   4.642  15.071 -0.4065 -0.8092 -0.0893
  276TMC3    O1 4178   4.232   4.678  15.077 -0.3685 -0.2185  0.1605
  276TMC3    O2 4179   3.630   4.680  15.059  0.2785 -0.2716  0.0844
  277MPD2     C 4180   0.887   3.349  13.432 -0.0967  0.3154  0.5997
  277MPD2    C1 4181   0.759   3.360  13.489  0.7021 -0.1141  0.2642
  277MPD2    C2 4182   0.739   3.299  13.609 -0.0270  0.5065 -0.1376
  277MPD2    C3 4183   0.835   3.219  13.664 -0.0968  0.7537  0.9444
  277MPD2    C4 4184   0.958   3.216  13.609 -0.0641 -0.0712 -0.1004
  277MPD2    C5 4185   0.985   3.282  13.495 -0.0021 -0.0405 -0.5849
  277MPD2     H 4186   0.647   3.310  13.665 -0.1322  0.0424 -0.2233
  277MPD2    H1 4187   1.039   3.151  13.637  0.5092  0.8645  0.4140
  277MPD2    H2 4188   0.902   3.386  13.331 -0.5988  1.3209  0.8933
  277MPD2    H3 4189   1.083   3.279  13.448  0.7468  1.4342  0.8697
  277MPD2     N 4190   0.798   3.146  13.775 -0.0367  0.4753 -0.3195
  277MPD2    H5 4191   0.706   3.174  13.808 -0.8425 -2.1852 -0.3666
  277MPD2    N1 4192   0.656   3.418  13.410  0.2059  0.3269 -0.5105
  277MPD2    H7 4193   0.673   3.459  13.319  1.1994  0.5430 -0.2377
  278TMC3    C1 4194   0.801   2.977  13.945  0.0398  0.6591  0.7610
  278TMC3    C2 4195   0.800   2.847  13.909  0.3588 -0.9296 -0.5511
  278TMC3    C3 4196   0.679   2.799  13.865  0.2245  0.6947  0.0869
  278TMC3    C4 4197   0.684   3.048  13.967  0.0417 -0.1990 -0.0780
  278TMC3    C5 4198   0.565   2.986  13.939  0.3464  0.6603  0.3527
  278TMC3    C6 4199   0.566   2.859  13.890  0.4103  0.3203  0.0915
  278TMC3     C 4200   0.868   3.040  13.834  0.7067  0.6730  0.2219
  278TMC3     O 4201   0.971   2.989  13.787  0.0306 -0.0746 -0.1832
  278TMC3     H 4202   0.892   2.793  13.894 -0.3499 -2.3730  0.3280
  278TMC3    H1 4203   0.687   3.153  13.991 -0.4477 -0.0178 -0.7887
  278TMC3    H2 4204   0.476   2.807  13.856 -0.2768  0.7373  1.2587
  278TMC3    C7 4205   0.466   3.073  13.887  0.6016 -0.1425  0.4129
  278TMC3    C8 4206   0.690   2.690  13.773 -0.3510 -0.1800 -0.1399
  278TMC3    O1 4207   0.512   3.174  13.833 -0.5816 -0.8031 -0.3810
  278TMC3    O2 4208   0.796   2.629  13.780  0.0381 -0.0542 -0.4977
  279MPD2     C 4209   0.223   2.449   0.209 -0.3564  0.3362  0.0130
  279MPD2    C1 4210   0.226   2.579   0.166  0.7773 -0.7618  0.3011
  279MPD2    C2 4211   0.336   2.618   0.102 -0.0690 -0.1439 -0.7898
  279MPD2    C3 4212   0.446   2.536   0.080 -0.3707  0.0828  0.3170
  279MPD2    C4 4213   0.441   2.398   0.118 -0.1210  0.0880  0.4198
  279MPD2    C5 4214   0.334   2.365   0.187  0.4848  0.1494 -0.8737
  279MPD2     H 4215   0.345   2.714   0.052  1.8724 -0.2510 -0.6717
  279MPD2    H1 4216   0.515   2.320   0.101  2.0344  2.0778  0.7300
  279MPD2    H2 4217   0.146   2.393   0.262  0.6575 -1.3255 -0.2766
  279MPD2    H3 4218   0.321   2.260   0.214 -2.3019  0.7984  0.2834
  279MPD2     N 4219   0.555   2.599   0.026 -0.5667  0.3879 -0.1381
  279MPD2    H5 4220   0.541   2.694  17.691  1.8717  0.6687 -0.3718
  279MPD2    N1 4221   0.109   2.664   0.172 -0.5706  0.4706 -0.1746
  279MPD2    H7 4222   0.027   2.630   0.223 -0.7602  2.7876  1.0686
  280TMC3    C1 4223   4.713   2.862   0.144 -0.2257  0.7274 -0.9531
  280TMC3    C2 4224   4.599   2.798   0.183  0.9139 -0.5759 -0.5133
  280TMC3    C3 4225   4.487   2.875   0.192  0.4536  0.3116 -0.8415
  280TMC3    C4 4226   4.714   2.992   0.115  0.5971  0.5741 -0.2387
  280TMC3    C5 4227   4.603   3.068   0.117 -0.1661  0.0534  0.0606
  280TMC3    C6 4228   4.486   3.011   0.167 -0.0054  0.0248 -0.2743
  280TMC3     C 4229   0.118   2.795   0.126  0.9844  0.6138 -0.3093
  280TMC3     O 4230   0.215   2.865   0.125 -0.1766  0.4218 -0.5037
  280TMC3     H 4231   4.582   2.692   0.196 -0.2253 -0.2622  0.5000
  280TMC3    H1 4232   0.076   3.037   0.065  1.1948  0.3305  0.5669
  280TMC3    H2 4233   4.402   3.076   0.185 -1.0045 -1.6343  1.0018
  280TMC3    C7 4234   4.608   3.206   0.074 -0.0310  0.1241  0.3412
  280TMC3    C8 4235   4.378   2.810   0.249 -0.5743  0.1075 -0.0819
  280TMC3    O1 4236   4.707   3.272   0.103 -0.3156  0.4823 -0.0650
  280TMC3    O2 4237   4.352   2.695   0.216  0.7069 -0.0407  0.4789
  281TMC3    C1 4238   3.413   3.731  13.463  0.0145  0.2879  0.1497
  281TMC3    C2 4239   3.442   3.796  13.346 -0.0208  0.2894  0.0015
  281TMC3    C3 4240   3.445   3.723  13.230  0.6276  0.4164 -0.1935
  281TMC3    C4 4241   3.381   3.598  13.463  0.1968 -0.0272 -0.5721
  281TMC3    C5 4242   3.400   3.524  13.350  0.5615 -0.4368  0.2792
  281TMC3    C6 4243   3.425   3.587  13.229 -0.1513  0.2749 -0.1926
  281TMC3     C 4244   3.369   3.817  13.575  0.7179  0.3730  0.0968
  281TMC3     O 4245   3.384   3.769  13.685  0.0416  0.0615 -0.7388
  281TMC3     H 4246   3.473   3.900  13.343  1.8138 -0.2727 -1.0160
  281TMC3    H1 4247   3.344   3.563  13.559  0.1977  0.1935 -0.4898
  281TMC3    H2 4248   3.432   3.526  13.139  0.2368  1.4800 -0.9772
  281TMC3    C7 4249   3.328   3.396  13.345 -0.2833 -0.0694  0.4385
  281TMC3    C8 4250   3.549   3.783  13.147 -0.4029 -0.1847  0.0651
  281TMC3    O1 4251   3.294   3.361  13.232  0.4314  0.8227  0.4538
  281TMC3    O2 4252   3.636   3.706  13.107 -0.0314 -0.0695 -0.8908
  282MPD2     C 4253   0.430   0.145  15.049 -0.0925  0.6706 -0.5563
  282MPD2    C1 4254   0.459   0.275  15.053 -0.0646  0.6769 -0.1560
  282MPD2    C2 4255   0.389   0.367  14.970 -0.7644  1.0185  0.1767
  282MPD2    C3 4256   0.304   0.322  14.873 -0.0115  0.3321 -0.6986
  282MPD2    C4 4257   0.293   0.184  14.854 -0.5235  0.6307 -0.2094
  282MPD2    C5 4258   0.350   0.101  14.945  0.2891 -0.4369 -0.5178
  282MPD2     H 4259   0.415   0.472  14.982  1.1079  0.6049 -0.2264
  282MPD2    H1 4260   0.217   0.136  14.794  2.6754 -0.0502 -3.7209
  282MPD2    H2 4261   0.457   0.077  15.129 -0.9565 -0.8608 -1.5677
  282MPD2    H3 4262   0.319   4.721  14.943 -3.8032  0.8145 -2.5347
  282MPD2     N 4263   0.243   0.424  14.791 -0.4491 -0.0624 -1.2639
  282MPD2    H5 4264   0.256   0.522  14.813 -0.2552  0.2961 -3.0145
  282MPD2    N1 4265   0.553   0.333  15.136 -0.0882  0.2088 -0.5214
  282MPD2    H7 4266   0.551   0.435  15.132 -2.2747  0.1291 -1.5186
  283TMC3    C1 4267   0.646   0.317  15.353 -0.4252 -0.3163  0.3577
  283TMC3    C2 4268   0.628   0.455  15.358  0.2574  0.2149 -0.2941
  283TMC3    C3 4269   0.611   0.515  15.485 -0.3440  0.6371 -0.0032
  283TMC3    C4 4270   0.628   0.234  15.466 -0.2125 -0.2209  0.1360
  283TMC3    C5 4271   0.595   0.300  15.581 -0.3456 -0.2251  0.7371
  283TMC3    C6 4272   0.582   0.434  15.591 -0.1421  0.2234  0.6146
  283TMC3     C 4273   0.613   0.252  15.231  0.3623  0.1669  0.0940
  283TMC3     O 4274   0.652   0.138  15.222  0.2545 -0.3131 -0.0940
  283TMC3     H 4275   0.652   0.514  15.271  0.6965 -1.7830 -1.5334
  283TMC3    H1 4276   0.625   0.126  15.453 -0.8997  0.2959 -3.7953
  283TMC3    H2 4277   0.565   0.475  15.690 -1.2555 -0.4290  0.6873
  283TMC3    C7 4278   0.541   0.224  15.694 -0.5730 -0.2913  0.3961
  283TMC3    C8 4279   0.680   0.644  15.498  0.7203 -0.0100  0.4130
  283TMC3    O1 4280   0.490   0.285  15.787  0.4437 -0.3626  0.6102
  283TMC3    O2 4281   0.700   0.675  15.616 -0.0307 -0.7365 -0.2431
  284MPD2     C 4282   3.004   4.585  11.652  0.1368  0.1428  0.1263
  284MPD2    C1 4283   3.093   4.571  11.758 -0.0830 -0.3332  0.4117
  284MPD2    C2 4284   3.083   4.467  11.845  0.1720  0.3815 -0.1120
  284MPD2    C3 4285   3.006   4.360  11.816 -0.1376  0.2623  0.6864
  284MPD2    C4 4286   2.923   4.369  11.708 -0.2809 -0.2931 -0.8377
  284MPD2    C5 4287   2.922   4.479  11.633 -0.1300 -0.6162 -0.0273
  284MPD2     H 4288   3.149   4.467  11.931 -0.4585 -2.1277  0.3585
  284MPD2    H1 4289   2.860   4.289  11.672  1.1274 -0.4226 -3.0201
  284MPD2    H2 4290   2.999   4.675  11.591  0.7653  1.9480  2.7626
  284MPD2    H3 4291   2.860   4.474  11.544  0.9134  2.0621 -0.9204
  284MPD2     N 4292   3.000   4.260  11.918  0.0676 -0.1333  0.6580
  284MPD2    H5 4293   3.046   4.272  12.007  1.8225 -0.7732 -0.1833
  284MPD2    N1 4294   3.205   4.660  11.776  0.1077  0.4568  0.1617
  284MPD2    H7 4295   3.267   4.642  11.854  0.7821  1.2454 -0.1914
  285TMC3    C1 4296   3.346   0.118  11.775 -0.3043 -0.1082 -0.2863
  285TMC3    C2 4297   3.418   0.038  11.860  0.3368 -0.4796 -0.0183
  285TMC3    C3 4298   3.551   0.064  11.875  0.6802 -0.7906  0.0672
  285TMC3    C4 4299   3.394   0.228  11.712 -0.3875 -0.1095 -0.0866
  285TMC3    C5 4300   3.531   0.245  11.722  0.6453 -0.0609  0.8448
  285TMC3    C6 4301   3.608   0.165  11.801 -0.8331 -0.3033 -0.3443
  285TMC3     C 4302   3.225   0.055  11.714  0.0701  0.4066 -0.0099
  285TMC3     O 4303   3.155   0.117  11.631 -0.1288  0.3401  0.3800
  285TMC3     H 4304   3.379   4.698  11.938  1.0993 -0.4617  0.3809
  285TMC3    H1 4305   3.329   0.294  11.657  0.7959  2.3536  1.4519
  285TMC3    H2 4306   3.715   0.171  11.787 -0.8139 -0.6625 -0.3474
  285TMC3    C7 4307   3.595   0.368  11.665  0.5893 -0.0735 -0.5800
  285TMC3    C8 4308   3.628   4.670  11.902  0.5053 -0.0608 -0.0717
  285TMC3    O1 4309   3.690   0.419  11.717 -0.2924 -0.2017  0.2535
  285TMC3    O2 4310   3.559   4.570  11.892 -0.0314 -0.0678  0.3922
  286MPD2     C 4311   3.298   2.972   1.333  1.0325 -0.6558  0.2918
  286MPD2    C1 4312   3.351   3.020   1.217 -0.1209 -0.0363  0.3032
  286MPD2    C2 4313   3.462   2.955   1.168  0.3488 -0.2134 -0.4598
  286MPD2    C3 4314   3.522   2.851   1.249  0.2501  0.1484  0.2286
  286MPD2    C4 4315   3.473   2.818   1.372 -0.0272  0.4139 -0.0579
  286MPD2    C5 4316   3.354   2.876   1.407 -0.5921  0.2601  0.6157
  286MPD2     H 4317   3.513   2.995   1.082 -0.3238  0.3553 -0.5940
  286MPD2    H1 4318   3.527   2.755   1.442 -1.4853 -0.8907 -0.1178
  286MPD2    H2 4319   3.214   3.032   1.367  0.5389  0.3974 -2.8322
  286MPD2    H3 4320   3.319   2.862   1.509  0.1898 -1.7139  0.6098
  286MPD2     N 4321   3.642   2.778   1.213 -0.5752 -0.0030 -0.4609
  286MPD2    H5 4322   3.682   2.720   1.286  1.7095  1.9014 -0.2028
  286MPD2    N1 4323   3.303   3.129   1.135 -0.5078  0.7785  0.4097
  286MPD2    H7 4324   3.353   3.142   1.047 -0.9450 -1.7857 -0.2043
  287TMC3    C1 4325   3.835   2.733   1.092 -0.4145  0.0367  0.2064
  287TMC3    C2 4326   3.879   2.672   0.979 -0.4527  0.6387  0.0329
  287TMC3    C3 4327   4.003   2.614   0.970 -0.0593 -0.3434 -1.1709
  287TMC3    C4 4328   3.912   2.740   1.205  0.0856  0.2781 -0.0353
  287TMC3    C5 4329   4.040   2.678   1.193  0.7253  0.2190 -0.6212
  287TMC3    C6 4330   4.088   2.620   1.073 -0.6705  0.2293 -0.1913
  287TMC3     C 4331   3.707   2.798   1.092 -0.0667  0.1852 -0.3599
  287TMC3     O 4332   3.670   2.830   0.983  0.1018 -0.3922  0.0771
  287TMC3     H 4333   3.818   2.671   0.889  0.5196 -2.3313 -0.6153
  287TMC3    H1 4334   3.896   2.795   1.297  2.3500  0.8519  0.0344
  287TMC3    H2 4335   4.184   2.571   1.062  0.1947  1.8824  0.0357
  287TMC3    C7 4336   4.138   2.706   1.295 -0.7413  0.1202 -0.0374
  287TMC3    C8 4337   4.019   2.515   0.859 -0.0318 -0.4840  0.8227
  287TMC3    O1 4338   4.088   2.750   1.395  0.1263  0.1403  0.0549
  287TMC3    O2 4339   3.924   2.484   0.788  0.6984  0.1304  0.6426
  288TMC3    C1 4340   1.074   3.054  14.396 -0.4167  0.2495  0.0789
  288TMC3    C2 4341   1.056   3.121  14.514 -0.2540  0.1363 -0.3314
  288TMC3    C3 4342   0.983   3.234  14.519  0.0485 -0.1448 -0.0696
  288TMC3    C4 4343   1.018   3.100  14.281  0.1547 -1.2309 -0.0803
  288TMC3    C5 4344   0.962   3.223  14.290  0.1835 -0.1507 -0.1723
  288TMC3    C6 4345   0.931   3.280  14.408  0.6679 -0.1307 -0.3415
  288TMC3     C 4346   1.196   2.979  14.389  0.1691  0.0439  0.1287
  288TMC3     O 4347   1.236   2.919  14.488  0.3597  0.9061 -0.1633
  288TMC3     H 4348   1.083   3.079  14.609 -0.2551 -0.7762 -0.7338
  288TMC3    H1 4349   1.011   3.042  14.189 -1.8915  0.6616 -1.1198
  288TMC3    H2 4350   0.874   3.373  14.413 -0.9072 -1.2421  2.2756
  288TMC3    C7 4351   0.914   3.275  14.163  0.4510 -0.2268  0.2254
  288TMC3    C8 4352   0.919   3.279  14.641 -0.0146  0.1212  0.2958
  288TMC3    O1 4353   0.922   3.205  14.063  0.2649 -0.6044  0.3109
  288TMC3    O2 4354   0.897   3.401  14.641  0.0213 -0.4359  0.5182
  289MPD2     C 4355   0.994   2.586  14.298  0.8523 -0.6051 -0.2616
  289MPD2    C1 4356   0.954   2.457  14.314  0.8796 -0.7282  0.5692
  289MPD2    C2 4357   0.948   2.360  14.209 -0.1271 -0.1009 -0.2791
  289MPD2    C3 4358   0.979   2.406  14.084  0.4136 -0.2254 -0.3230
  289MPD2    C4 4359   1.004   2.537  14.067  0.8152 -0.5388  0.0555
  289MPD2    C5 4360   1.009   2.623  14.169 -0.1377 -0.0207  0.0873
  289MPD2     H 4361   0.933   2.253  14.222  1.1955 -0.1690  0.6862
  289MPD2    H1 4362   1.024   2.576  13.968  1.9366 -1.5185 -0.1130
  289MPD2    H2 4363   1.013   2.659  14.376 -0.9774 -0.0259 -0.3689
  289MPD2    H3 4364   1.029   2.727  14.143 -2.2760  0.3733  0.0013
  289MPD2     N 4365   0.980   2.328  13.976 -0.0633 -0.2490 -0.0682
  289MPD2    H5 4366   0.981   2.377  13.887 -1.5589  2.2812  1.3180
  289MPD2    N1 4367   0.908   2.427  14.440  0.3279 -0.3879  0.6519
  289MPD2    H7 4368   0.902   2.503  14.507 -1.2004 -1.8698  2.1865
  290TMC3    C1 4369   0.922   2.153  13.839 -0.4998 -0.1071 -0.2335
  290TMC3    C2 4370   0.827   2.235  13.782 -0.5591 -0.2415 -0.7240
  290TMC3    C3 4371   0.720   2.181  13.717  0.1344 -0.8304 -0.3026
  290TMC3    C4 4372   0.916   2.020  13.824 -0.1368 -0.2106  0.5107
  290TMC3    C5 4373   0.815   1.967  13.747  0.4134  0.9451  0.0628
  290TMC3    C6 4374   0.714   2.048  13.697  0.2569  0.3214  0.1130
  290TMC3     C 4375   0.967   2.196  13.973 -0.2095 -0.0604 -0.2569
  290TMC3     O 4376   0.996   2.114  14.062  0.3159  0.3506 -0.0778
  290TMC3     H 4377   0.831   2.343  13.782 -0.3150 -0.2441  1.5507
  290TMC3    H1 4378   0.982   1.953  13.878  0.3513 -0.2781 -0.1631
  290TMC3    H2 4379   0.639   2.014  13.626  1.4423 -1.6212 -0.2026
  290TMC3    C7 4380   0.808   1.829  13.732 -0.2878 -0.5211  0.1747
  290TMC3    C8 4381   0.591   2.256  13.724 -0.1537 -0.3812 -0.6478
  290TMC3    O1 4382   0.918   1.775  13.742  0.4086 -0.1382 -0.0758
  290TMC3    O2 4383   0.493   2.210  13.663  0.0255  0.2334 -0.8680
  291MPD2     C 4384   4.717   1.969   0.487 -1.3189 -0.4695 -0.4147
  291MPD2    C1 4385   0.115   1.914   0.479  0.6000  0.4455 -0.2316
  291MPD2    C2 4386   0.223   2.000   0.475  0.4016  0.2147 -0.9250
  291MPD2    C3 4387   0.209   2.136   0.481 -0.4568 -0.4897 -0.0837
  291MPD2    C4 4388   0.078   2.189   0.478  0.9287 -0.1743  0.6105
  291MPD2    C5 4389   4.698   2.102   0.490 -0.4740  0.2404 -0.1521
  291MPD2     H 4390   0.321   1.954   0.465  0.2364 -0.2753 -0.3467
  291MPD2    H1 4391   0.061   2.296   0.482 -1.3601 -0.4752 -0.5084
  291MPD2    H2 4392   4.625   1.912   0.473 -1.3473  0.1089 -2.6449
  291MPD2    H3 4393   4.599   2.143   0.475 -0.2710  0.3284 -1.2305
  291MPD2     N 4394   0.318   2.222   0.485 -0.2580 -0.5708  0.9189
  291MPD2    H5 4395   0.294   2.317   0.512  0.6184 -0.0289 -0.2007
  291MPD2    N1 4396   0.134   1.771   0.475 -0.2196  0.1211  0.6902
  291MPD2    H7 4397   0.229   1.739   0.488 -0.8226 -1.8670  0.1869
  292TMC3    C1 4398   0.075   1.542   0.480 -0.2606  0.5950  0.5041
  292TMC3    C2 4399   0.179   1.519   0.569  0.1111  0.4089  0.5832
  292TMC3    C3 4400   0.188   1.389   0.617 -0.6030 -0.0083  0.1161
  292TMC3    C4 4401   4.710   1.446   0.423 -0.0867  0.2479  1.2343
  292TMC3    C5 4402   0.010   1.323   0.482  0.2355 -0.7944  0.1638
  292TMC3    C6 4403   0.104   1.293   0.576 -0.1177  0.5875  0.4586
  292TMC3     C 4404   0.034   1.676   0.470 -0.1779  0.0615  0.1232
  292TMC3     O 4405   4.638   1.691   0.439  0.5092 -0.8032  0.1196
  292TMC3     H 4406   0.237   1.600   0.611  1.1255  0.8350 -1.6628
  292TMC3    H1 4407   4.626   1.470   0.360  0.2550  3.1425  1.9071
  292TMC3    H2 4408   0.103   1.191   0.614  0.1186 -0.5716 -2.6334
  292TMC3    C7 4409   4.688   1.207   0.413 -0.3978  1.1917 -0.7134
  292TMC3    C8 4410   0.227   1.392   0.757  0.1599  0.5778  0.6799
  292TMC3    O1 4411   0.023   1.101   0.421  0.0538  0.1084 -0.0054
  292TMC3    O2 4412   0.325   1.456   0.790  0.6321 -0.1178 -0.5358
  293MPD2     C 4413   2.072   3.415  12.682 -0.5339 -0.2035  0.1133
  293MPD2    C1 4414   1.950   3.360  12.731  0.2286  0.2379  0.2859
  293MPD2    C2 4415   1.946   3.331  12.865 -0.6288 -0.5808  0.2485
  293MPD2    C3 4416   2.057   3.361  12.954  0.4485  0.0634  0.2981
  293MPD2    C4 4417   2.168   3.413  12.897  0.4244 -0.2588  0.3464
  293MPD2    C5 4418   2.177   3.443  12.760  0.1981 -1.0311  0.1742
  293MPD2     H 4419   1.852   3.302  12.910 -0.8074 -1.0093 -0.3968
  293MPD2    H1 4420   2.251   3.448  12.958  0.9534 -1.1902  0.1675
  293MPD2    H2 4421   2.083   3.428  12.575 -3.1261  2.7132  0.1748
  293MPD2    H3 4422   2.270   3.487  12.726  1.5364 -2.7419  1.7019
  293MPD2     N 4423   2.051   3.360  13.094 -0.1935  0.0864  0.7019
  293MPD2    H5 4424   2.127   3.401  13.147 -0.2067  0.3894  0.4818
  293MPD2    N1 4425   1.845   3.348  12.634  0.4026 -0.6733 -0.0309
  293MPD2    H7 4426   1.869   3.385  12.543  0.5208 -0.0111  0.2749
  294TMC3    C1 4427   1.631   3.325  12.538 -0.2088 -0.6864 -0.2330
  294TMC3    C2 4428   1.505   3.280  12.553  0.7602  0.4332  0.0065
  294TMC3    C3 4429   1.427   3.282  12.435  0.3244  0.2485 -0.0710
  294TMC3    C4 4430   1.685   3.361  12.417 -0.0087  0.1000  0.0438
  294TMC3    C5 4431   1.605   3.357  12.306 -0.4049 -0.8531  0.4091
  294TMC3    C6 4432   1.472   3.313  12.310  0.0575 -0.0833  0.2375
  294TMC3     C 4433   1.714   3.317  12.660 -0.6407 -0.3629  0.5745
  294TMC3     O 4434   1.663   3.293  12.768  0.0183  0.3354 -0.2233
  294TMC3     H 4435   1.469   3.246  12.649  1.8717 -2.5789 -0.6208
  294TMC3    H1 4436   1.789   3.393  12.410  0.0550 -0.6011 -2.2513
  294TMC3    H2 4437   1.397   3.300  12.233 -2.5568  1.6728  2.4930
  294TMC3    C7 4438   1.659   3.426  12.191 -0.1084 -0.0229  0.4138
  294TMC3    C8 4439   1.311   3.193  12.443 -0.2565 -0.2124 -0.2069
  294TMC3    O1 4440   1.776   3.443  12.168  0.1010 -0.3841  0.1640
  294TMC3    O2 4441   1.225   3.226  12.526 -0.5568  0.3636  0.0174
  295MPD2     C 4442   1.758   1.294   0.558  0.2290  0.0841 -0.4303
  295MPD2    C1 4443   1.876   1.343   0.493 -0.3292  0.2684  0.1913
  295MPD2    C2 4444   1.987   1.369   0.567 -0.5945 -0.0158 -0.4842
  295MPD2    C3 4445   1.985   1.360   0.707  0.1738 -0.1355 -0.6155
  295MPD2    C4 4446   1.868   1.321   0.763 -0.0418  0.6396 -0.1148
  295MPD2    C5 4447   1.754   1.291   0.694 -0.3424  0.3053 -0.7420
  295MPD2     H 4448   2.083   1.388   0.520 -0.5476  1.1403  0.0865
  295MPD2    H1 4449   1.849   1.317   0.870  0.3611 -1.3204 -0.1226
  295MPD2    H2 4450   1.667   1.262   0.508  0.0575  1.8689 -1.2497
  295MPD2    H3 4451   1.665   1.260   0.749  0.3586 -0.3913 -0.0065
  295MPD2     N 4452   2.097   1.393   0.790 -0.1980 -0.3055 -0.4205
  295MPD2    H5 4453   2.077   1.399   0.889 -1.7441  2.8733 -0.9040
  295MPD2    N1 4454   1.882   1.355   0.354  0.0365  0.0000 -0.1725
  295MPD2    H7 4455   1.970   1.399   0.330  0.5023 -1.4283 -1.0534
  296TMC3    C1 4456   2.308   1.453   0.857  0.4632  0.6601  0.0724
  296TMC3    C2 4457   2.373   1.574   0.850  0.3038 -0.0654 -0.0054
  296TMC3    C3 4458   2.438   1.609   0.960 -0.0969 -0.4432  0.8215
  296TMC3    C4 4459   2.311   1.369   0.974 -0.3419  0.0756  0.2134
  296TMC3    C5 4460   2.373   1.418   1.081 -0.7200 -0.1622  0.8442
  296TMC3    C6 4461   2.440   1.540   1.080  0.2135 -0.2917  0.3409
  296TMC3     C 4462   2.224   1.424   0.747  0.4872  0.0906  0.7119
  296TMC3     O 4463   2.281   1.422   0.638  0.2364 -0.0964  0.0256
  296TMC3     H 4464   2.362   1.629   0.757  2.8726 -1.2152 -0.9922
  296TMC3    H1 4465   2.275   1.267   0.971 -1.9397  0.6997 -1.8192
  296TMC3    H2 4466   2.515   1.566   1.154  0.8470  0.6278 -0.6166
  296TMC3    C7 4467   2.382   1.335   1.197 -0.0897  0.5044  0.0133
  296TMC3    C8 4468   2.467   1.750   0.966  0.2942 -0.2487 -0.0095
  296TMC3    O1 4469   2.481   1.344   1.267 -0.5366  0.1358 -0.3585
  296TMC3    O2 4470   2.479   1.804   0.857  0.1557 -0.4135 -0.5568
  297MPD2     C 4471   4.569   3.805  16.649 -0.5284 -0.0403 -0.5019
  297MPD2    C1 4472   4.558   3.859  16.524 -0.6912  0.1128 -0.6121
  297MPD2    C2 4473   4.657   3.946  16.478  0.0066  0.4216  0.4228
  297MPD2    C3 4474   0.039   3.985  16.557 -0.2633  0.3044 -0.6707
  297MPD2    C4 4475   0.044   3.923  16.676 -0.3563  0.0138  0.1967
  297MPD2    C5 4476   4.685   3.827  16.716  0.5455 -0.7385  0.2593
  297MPD2     H 4477   4.648   3.986  16.378 -0.8781 -1.6280 -0.3158
  297MPD2    H1 4478   0.134   3.936  16.735  0.0939 -0.5373 -0.3782
  297MPD2    H2 4479   4.495   3.744  16.700 -1.0221  0.5552 -0.5097
  297MPD2    H3 4480   4.710   3.764  16.801  0.6498  0.9646  1.4738
  297MPD2     N 4481   0.128   4.086  16.518 -0.5205 -0.0151  0.4283
  297MPD2    H5 4482   0.135   4.113  16.420 -3.2311  0.1054  0.2922
  297MPD2    N1 4483   4.442   3.856  16.447 -0.4567 -0.2361  0.3712
  297MPD2    H7 4484   4.444   3.897  16.354  0.6134  2.5474  1.6254
  298TMC3    C1 4485   4.243   3.775  16.358 -0.5518 -0.0570 -0.6445
  298TMC3    C2 4486   4.271   3.829  16.232  0.9146 -0.3241 -0.5311
  298TMC3    C3 4487   4.178   3.814  16.129  0.1526 -0.2212 -0.0846
  298TMC3    C4 4488   4.125   3.712  16.384  0.0122 -0.3208  0.2957
  298TMC3    C5 4489   4.037   3.700  16.278 -0.0541 -0.0875 -0.7189
  298TMC3    C6 4490   4.061   3.751  16.151 -0.4078  0.9021 -0.7644
  298TMC3     C 4491   4.332   3.781  16.473 -0.2012  0.4790  0.6092
  298TMC3     O 4492   4.316   3.700  16.565 -0.1791  0.3187  0.5694
  298TMC3     H 4493   4.364   3.869  16.194  1.6925 -0.7107  0.9672
  298TMC3    H1 4494   4.101   3.663  16.477  0.4129 -0.0826  0.5243
  298TMC3    H2 4495   3.988   3.729  16.074  0.2080  2.0585 -1.6659
  298TMC3    C7 4496   3.903   3.703  16.321  0.2245 -0.1617 -0.0528
  298TMC3    C8 4497   4.193   3.900  16.007  0.0067  1.2285  0.4564
  298TMC3    O1 4498   3.885   3.739  16.436  0.4736 -0.0491 -0.2704
  298TMC3    O2 4499   4.311   3.930  15.985  0.1823  0.1721 -0.8217
  299MPD2     C 4500   0.419   3.623  11.464  0.1443  0.4236 -0.0662
  299MPD2    C1 4501   0.395   3.671  11.339  0.3830 -0.2814 -0.1219
  299MPD2    C2 4502   0.281   3.629  11.271 -0.2355  0.7564 -0.0875
  299MPD2    C3 4503   0.208   3.522  11.319 -0.0764  0.3467 -0.3920
  299MPD2    C4 4504   0.237   3.465  11.441 -0.1138  0.5998 -0.1699
  299MPD2    C5 4505   0.344   3.520  11.515  0.3228 -0.1293 -0.3855
  299MPD2     H 4506   0.269   3.669  11.171 -1.2070  2.0815  0.5499
  299MPD2    H1 4507   0.186   3.372  11.465  3.1758 -1.2296 -0.3512
  299MPD2    H2 4508   0.510   3.649  11.517 -1.8232  2.2088  2.3610
  299MPD2    H3 4509   0.370   3.482  11.614  2.5635 -0.4687 -1.0868
  299MPD2     N 4510   0.103   3.466  11.248 -0.2749 -0.0950  0.3400
  299MPD2    H5 4511   0.071   3.379  11.289  0.1308 -0.7324 -0.7020
  299MPD2    N1 4512   0.479   3.774  11.289 -0.3565 -0.2114 -0.0568
  299MPD2    H7 4513   0.548   3.815  11.352 -1.2660 -0.6730  1.2434
  300TMC3    C1 4514   4.642   3.457  11.115  0.3140 -0.3983 -0.7650
  300TMC3    C2 4515   4.552   3.526  11.034 -0.0418  0.9980 -1.0848
  300TMC3    C3 4516   4.419   3.525  11.067  0.0700 -0.4326  0.5797
  300TMC3    C4 4517   4.586   3.373  11.209  0.1591 -0.6775 -0.0294
  300TMC3    C5 4518   4.452   3.377  11.238  0.3288  0.5866 -0.4546
  300TMC3    C6 4519   4.367   3.456  11.167 -0.2911  0.3597  0.1648
  300TMC3     C 4520   0.050   3.523  11.136 -0.0074  0.0748 -0.3350
  300TMC3     O 4521   0.062   3.635  11.086  0.0598  0.3364 -0.6229
  300TMC3     H 4522   4.594   3.575  10.947  0.3550  0.3850 -1.2415
  300TMC3    H1 4523   4.649   3.309  11.270  1.0607  1.4701  1.2627
  300TMC3    H2 4524   4.262   3.467  11.191 -0.8063 -4.3774  0.1862
  300TMC3    C7 4525   4.415   3.338  11.373  0.7850 -0.1555 -0.3970
  300TMC3    C8 4526   4.344   3.643  11.041 -0.2076 -0.5203  0.5104
  300TMC3    O1 4527   4.462   3.239  11.427  0.3839  0.0208 -0.5974
  300TMC3    O2 4528   4.267   3.675  11.131  0.0753 -0.1890 -0.2532
  301MPD2     C 4529   2.661   4.712   1.550 -0.7763 -0.5791  0.4573
  301MPD2    C1 4530   2.578   4.683   1.445  0.4436  0.1365 -0.3148
  301MPD2    C2 4531   2.522   4.558   1.425 -0.2239 -0.1305 -0.2398
  301MPD2    C3 4532   2.579   4.452   1.495 -0.5963 -0.1753 -0.0995
  301MPD2    C4 4533   2.672   4.475   1.592  0.8457 -0.7823 -0.5868
  301MPD2    C5 4534   2.717   4.605   1.618  0.3914  0.5184  0.3127
  301MPD2     H 4535   2.450   4.543   1.345 -0.0845  0.2366 -0.4379
  301MPD2    H1 4536   2.728   4.395   1.639  1.2754 -0.5174 -0.6423
  301MPD2    H2 4537   2.679   0.091   1.581  1.8269 -1.1654  0.9006
  301MPD2    H3 4538   2.781   4.623   1.703 -0.0042  0.8808  0.5337
  301MPD2     N 4539   2.553   4.314   1.464  0.5169  0.3932  0.3580
  301MPD2    H5 4540   2.598   4.250   1.528 -0.2505  1.3274  1.8315
  301MPD2    N1 4541   2.523   0.064   1.361  0.4981 -0.0612  0.9983
  301MPD2    H7 4542   2.472   0.043   1.276 -0.3510 -3.6902  2.3904
  302TMC3    C1 4543   2.421   4.129   1.389 -0.2049 -0.2023 -0.0638
  302TMC3    C2 4544   2.508   4.044   1.452 -0.5180 -0.0406  0.8560
  302TMC3    C3 4545   2.464   3.913   1.467 -0.5503 -0.1415  0.3142
  302TMC3    C4 4546   2.323   4.079   1.314 -0.3673 -0.0936 -0.6210
  302TMC3    C5 4547   2.299   3.949   1.315 -0.1778  0.7015  0.2228
  302TMC3    C6 4548   2.363   3.862   1.392 -0.2924 -0.0714 -0.3239
  302TMC3     C 4549   2.455   4.266   1.377 -0.0514 -0.3817 -0.3209
  302TMC3     O 4550   2.389   4.330   1.299 -0.0772 -0.0470  0.2531
  302TMC3     H 4551   2.595   4.075   1.510 -0.3790  0.1712  0.5352
  302TMC3    H1 4552   2.254   4.135   1.252 -0.5979  0.9474  0.5722
  302TMC3    H2 4553   2.354   3.754   1.382 -0.8880 -0.1390  0.8871
  302TMC3    C7 4554   2.213   3.897   1.211  0.6508  0.1358  0.6395
  302TMC3    C8 4555   2.562   3.810   1.501 -0.0767 -0.1816  0.2351
  302TMC3    O1 4556   2.155   3.791   1.243  0.2867 -0.3391  0.5863
  302TMC3    O2 4557   2.518   3.718   1.567 -0.4430  0.0108  0.3477
  303MPD2     C 4558   2.428   2.653  10.745  0.1874  0.0107 -0.2526
  303MPD2    C1 4559   2.323   2.736  10.773  0.6445  0.3217  0.2491
  303MPD2    C2 4560   2.296   2.847  10.700 -0.0222 -0.7095 -0.2420
  303MPD2    C3 4561   2.387   2.886  10.602 -0.0782  1.1062 -0.0659
  303MPD2    C4 4562   2.492   2.805  10.575 -0.5641  0.0537 -0.3157
  303MPD2    C5 4563   2.514   2.687  10.646 -0.1426 -0.5070  0.0283
  303MPD2     H 4564   2.206   2.906  10.713 -1.3150 -2.9802  1.1051
  303MPD2    H1 4565   2.567   2.827  10.499 -0.5295  0.1751 -0.2468
  303MPD2    H2 4566   2.440   2.564  10.805 -0.8005 -1.0063 -1.5798
  303MPD2    H3 4567   2.606   2.632  10.629  0.1168 -0.5481  1.5469
  303MPD2     N 4568   2.361   2.983  10.506 -1.2745 -0.1796  0.3808
  303MPD2    H5 4569   2.423   2.975  10.426 -0.6523 -2.8479  1.1402
  303MPD2    N1 4570   2.239   2.706  10.882  0.1138 -0.4486  0.5008
  303MPD2    H7 4571   2.235   2.615  10.928  0.7069 -0.3241  0.8026
  304TMC3    C1 4572   2.043   2.727  11.014 -0.3533  0.9321 -0.2117
  304TMC3    C2 4573   1.961   2.817  11.084  0.2565  0.3762  0.4665
  304TMC3    C3 4574   1.840   2.763  11.115  0.1865 -0.1533  0.7212
  304TMC3    C4 4575   1.994   2.611  10.960  0.2580  0.1757 -0.1601
  304TMC3    C5 4576   1.868   2.567  10.991 -0.6935 -0.3017 -0.1342
  304TMC3    C6 4577   1.783   2.647  11.068  0.3288 -0.2646  0.5301
  304TMC3     C 4578   2.147   2.792  10.940  0.0664 -0.6367  1.1136
  304TMC3     O 4579   2.144   2.916  10.932 -0.3052 -0.2287 -0.0225
  304TMC3     H 4580   1.997   2.902  11.141 -1.1756  2.1088 -1.2579
  304TMC3    H1 4581   2.049   2.562  10.880  0.9521  0.6740  0.0137
  304TMC3    H2 4582   1.680   2.619  11.082  0.0852  1.1467  1.5585
  304TMC3    C7 4583   1.794   2.523  10.874 -0.1113  0.1412  0.0769
  304TMC3    C8 4584   1.734   2.865  11.121 -1.1394 -0.2230 -0.1629
  304TMC3    O1 4585   1.811   2.410  10.827 -0.2321 -0.1494 -0.0129
  304TMC3    O2 4586   1.740   2.959  11.046  0.0383  0.0746  0.3423
  305MPD2     C 4587   0.215   0.684  13.898  1.1390  0.6895  0.2138
  305MPD2    C1 4588   0.299   0.597  13.955 -0.4412  0.1523 -0.3047
  305MPD2    C2 4589   0.298   0.459  13.920  0.2988  0.0569 -0.3119
  305MPD2    C3 4590   0.205   0.419  13.822 -0.0320 -0.4824 -0.0427
  305MPD2    C4 4591   0.108   0.511  13.773  0.3338  0.1523 -0.1530
  305MPD2    C5 4592   0.115   0.644  13.807  0.1737 -0.3216 -0.0329
  305MPD2     H 4593   0.382   0.401  13.957 -1.7449 -2.2935  0.5870
  305MPD2    H1 4594   0.037   0.486  13.695 -2.1120 -0.5346  2.2985
  305MPD2    H2 4595   0.218   0.788  13.928  0.7169  0.8265 -0.2051
  305MPD2    H3 4596   0.049   0.718  13.764 -1.2547 -2.6083 -1.7906
  305MPD2     N 4597   0.204   0.297  13.755 -0.0694  0.1824 -0.1711
  305MPD2    H5 4598   0.125   0.271  13.697  0.7252  0.4160 -1.3723
  305MPD2    N1 4599   0.397   0.663  14.044  0.0809  0.2891  0.2306
  305MPD2    H7 4600   0.409   0.763  14.037 -2.8364  0.4870 -1.8537
  306TMC3    C1 4601   0.561   0.655  14.216 -0.6213  0.0782 -0.3010
  306TMC3    C2 4602   0.624   0.568  14.302  1.4514  1.1677  0.7114
  306TMC3    C3 4603   0.738   0.610  14.362 -0.2229 -0.8833  0.5847
  306TMC3    C4 4604   0.614   0.779  14.185  1.0178  0.6813  0.4928
  306TMC3    C5 4605   0.725   0.825  14.260  0.5623  0.2626 -0.5315
  306TMC3    C6 4606   0.785   0.741  14.344  0.8864  0.8081 -0.7023
  306TMC3     C 4607   0.457   0.592  14.142  0.1902 -0.2162  0.4234
  306TMC3     O 4608   0.408   0.492  14.190  0.0987  0.3827  0.0322
  306TMC3     H 4609   0.587   0.467  14.307 -0.5480  1.9257  1.1511
  306TMC3    H1 4610   0.555   0.846  14.123  1.0647  0.6271  0.3887
  306TMC3    H2 4611   0.857   0.771  14.419 -0.9532  1.2639  0.8788
  306TMC3    C7 4612   0.728   0.969  14.296 -0.1787  0.3097 -0.4206
  306TMC3    C8 4613   0.804   0.534  14.469  0.2222 -0.5106 -0.1946
  306TMC3    O1 4614   0.681   1.041  14.211  0.4338  0.2197  0.1290
  306TMC3    O2 4615   0.923   0.544  14.488  0.1489 -0.0952  0.0771
  307MPD2     C 4616   3.481   2.290   0.447 -0.4958 -0.6213  0.1942
  307MPD2    C1 4617   3.366   2.354   0.398 -0.2501 -0.0297 -0.5036
  307MPD2    C2 4618   3.245   2.336   0.461 -0.3756  0.5768  0.6303
  307MPD2    C3 4619   3.245   2.272   0.580 -0.5358  0.4574 -0.9106
  307MPD2    C4 4620   3.363   2.222   0.646 -0.1499 -0.9655  0.6713
  307MPD2    C5 4621   3.476   2.233   0.571 -0.1429  0.4043 -0.4432
  307MPD2     H 4622   3.155   2.381   0.421 -1.1440  0.1083  1.8227
  307MPD2    H1 4623   3.356   2.164   0.737 -2.6027  0.5507  1.4560
  307MPD2    H2 4624   3.575   2.285   0.393 -0.7131 -2.0327 -0.0531
  307MPD2    H3 4625   3.574   2.211   0.613  0.2403  1.0060 -1.0181
  307MPD2     N 4626   3.125   2.282   0.657  0.1069  0.1002  0.1955
  307MPD2    H5 4627   3.043   2.325   0.617  0.6986  1.5677  0.5749
  307MPD2    N1 4628   3.372   2.447   0.290 -0.0185 -0.4802  0.6337
  307MPD2    H7 4629   3.290   2.505   0.275  0.6433  0.4270  0.5163
  308TMC3    C1 4630   2.745   2.320   0.812  0.4398 -0.9054 -0.6677
  308TMC3    C2 4631   2.723   2.388   0.922  0.2880 -0.1465 -0.4606
  308TMC3    C3 4632   2.838   2.404   0.990 -0.7701 -0.1013 -0.1681
  308TMC3    C4 4633   2.863   2.273   0.751 -1.3634 -0.6746  0.1509
  308TMC3    C5 4634   2.968   2.283   0.834  0.4150  0.6069 -0.0515
  308TMC3    C6 4635   2.957   2.341   0.959 -0.1887  0.4169  0.6938
  308TMC3     C 4636   2.628   2.276   0.739  0.1588 -0.6904  0.1697
  308TMC3     O 4637   2.626   2.161   0.691 -0.2150 -0.5660  0.1743
  308TMC3     H 4638   2.626   2.425   0.953  1.2564  0.7058  1.5797
  308TMC3    H1 4639   2.868   2.233   0.650  0.4005  1.6814 -0.7073
  308TMC3    H2 4640   3.042   2.352   1.024 -0.4617 -4.4591  1.8723
  308TMC3    C7 4641   3.110   2.260   0.793 -0.2187  0.2345 -0.9896
  308TMC3    C8 4642   2.859   2.533   1.055 -0.0951  0.8867 -0.0509
  308TMC3    O1 4643   3.194   2.229   0.877  0.3756  0.3890 -0.0270
  308TMC3    O2 4644   2.939   2.535   1.145 -0.4908 -0.4030 -0.2879
  309MPD2     C 4645   2.377   3.424  17.226 -0.1476 -0.4949  0.4399
  309MPD2    C1 4646   2.284   3.460  17.126 -0.8646  0.5352  0.8512
  309MPD2    C2 4647   2.159   3.494  17.163 -0.1305  0.2475  0.1538
  309MPD2    C3 4648   2.115   3.482  17.300 -0.0642  0.5924 -0.7292
  309MPD2    C4 4649   2.206   3.444  17.394 -0.6637 -0.5070  0.0111
  309MPD2    C5 4650   2.336   3.414  17.353 -0.0456  0.3990  0.0018
  309MPD2     H 4651   2.088   3.526  17.088  0.0069 -1.7729 -0.8415
  309MPD2    H1 4652   2.182   3.435  17.500  0.0138 -0.1159  0.1939
  309MPD2    H2 4653   2.473   3.379  17.201 -0.2163 -1.2441  1.5222
  309MPD2    H3 4654   2.411   3.376  17.421  1.9053  0.7271 -1.9532
  309MPD2     N 4655   1.987   3.513  17.347  0.1104 -0.7786  0.2172
  309MPD2    H5 4656   1.967   3.510  17.447  0.0116 -1.3685  0.1828
  309MPD2    N1 4657   2.326   3.460  16.988  0.7180 -0.3261 -0.4478
  309MPD2    H7 4658   2.255   3.493  16.923 -0.5265 -1.4432  0.3371
  310TMC3    C1 4659   2.459   3.408  16.792  0.0861 -0.4489  0.0953
  310TMC3    C2 4660   2.374   3.473  16.707 -1.6721  0.2518 -0.6587
  310TMC3    C3 4661   2.404   3.455  16.576  0.1982 -0.1738 -0.0461
  310TMC3    C4 4662   2.562   3.324  16.743  0.3156 -0.4221  0.3735
  310TMC3    C5 4663   2.575   3.301  16.609 -0.5879  0.1614  0.1604
  310TMC3    C6 4664   2.494   3.368  16.525  0.5693  0.7090 -0.8893
  310TMC3     C 4665   2.454   3.412  16.938 -0.2585 -0.5061  0.1716
  310TMC3     O 4666   2.557   3.376  16.997 -0.4571 -0.0198 -0.1053
  310TMC3     H 4667   2.305   3.548  16.744 -1.6993  0.2536 -0.7125
  310TMC3    H1 4668   2.629   3.277  16.814  0.2836  0.5201  1.0204
  310TMC3    H2 4669   2.515   3.379  16.419  3.1333 -0.7995 -0.5272
  310TMC3    C7 4670   2.684   3.236  16.542 -0.6510 -0.1104  0.3332
  310TMC3    C8 4671   2.357   3.546  16.476 -0.6595 -0.4435 -0.2042
  310TMC3    O1 4672   2.677   3.214  16.421 -0.2543 -0.0917  0.3550
  310TMC3    O2 4673   2.263   3.507  16.400  0.2985 -0.9886  0.2249
  311MPD2     C 4674   4.050   0.130  12.758  0.1748  0.0314 -0.3442
  311MPD2    C1 4675   4.025   0.187  12.884  0.1256  1.1129  0.8242
  311MPD2    C2 4676   3.898   0.173  12.938  0.5654 -0.0175 -0.0568
  311MPD2    C3 4677   3.801   0.099  12.878 -0.4405  0.4809  0.0559
  311MPD2    C4 4678   3.835   0.044  12.756 -0.6488  0.8124 -0.5314
  311MPD2    C5 4679   3.952   0.064  12.695 -0.1722  0.2197  0.2623
  311MPD2     H 4680   3.875   0.220  13.033 -0.5098 -1.1212  0.2169
  311MPD2    H1 4681   3.763   4.706  12.703 -0.7091  1.4949 -1.2298
  311MPD2    H2 4682   4.151   0.125  12.719  1.0163 -2.5504  2.1029
  311MPD2    H3 4683   3.973   0.018  12.599  0.9799  1.8676 -0.2744
  311MPD2     N 4684   3.685   0.069  12.951 -0.1342  0.4559  0.0773
  311MPD2    H5 4685   3.681   0.116  13.041 -2.0642  1.6318 -0.6067
  311MPD2    N1 4686   4.125   0.251  12.969  0.0590  0.8484  0.5138
  311MPD2    H7 4687   4.095   0.301  13.052 -1.2008  0.0156  0.5567
  312TMC3    C1 4688   3.472   4.712  13.002 -0.3561  0.3292  1.0166
  312TMC3    C2 4689   3.345   4.675  12.952  0.6527  0.4994  0.3522
  312TMC3    C3 4690   3.249   4.624  13.040  0.3564 -0.0264 -0.1385
  312TMC3    C4 4691   3.496   4.682  13.135 -0.0745 -0.4359  0.5218
  312TMC3    C5 4692   3.394   4.652  13.219  0.5505  0.6485 -0.4267
  312TMC3    C6 4693   3.270   4.612  13.172  0.0646 -0.2375 -0.7339
  312TMC3     C 4694   3.578   4.717  12.908 -0.1651 -0.0848 -0.4495
  312TMC3     O 4695   3.564   4.658  12.805  0.2765  0.1506  0.7524
  312TMC3     H 4696   3.322   4.709  12.852 -0.8482 -1.4666  0.0475
  312TMC3    H1 4697   3.597   4.689  13.174  0.3805  0.5591 -0.8302
  312TMC3    H2 4698   3.194   4.577  13.241  0.0653 -0.0850 -0.6534
  312TMC3    C7 4699   3.416   4.603  13.350 -0.2687  0.1243 -1.2879
  312TMC3    C8 4700   3.119   4.588  12.979 -0.0064 -0.9747 -0.1548
  312TMC3    O1 4701   3.379   4.490  13.371  0.0112 -0.1351 -0.3047
  312TMC3    O2 4702   3.087   4.471  12.998 -0.3565  0.0994 -0.3069
  313MPD2     C 4703   3.079   4.224  11.435  0.1139 -0.5260 -1.0091
  313MPD2    C1 4704   3.182   4.279  11.360 -0.9703 -0.1602  0.2806
  313MPD2    C2 4705   3.297   4.206  11.330  0.4254  0.0422  0.8544
  313MPD2    C3 4706   3.305   4.075  11.366  0.4742 -0.1583  0.2098
  313MPD2    C4 4707   3.202   4.027  11.446 -0.7555 -0.1008 -0.6112
  313MPD2    C5 4708   3.093   4.099  11.483 -0.6522  0.0340  0.5090
  313MPD2     H 4709   3.370   4.237  11.256 -1.5421  2.9775  0.1351
  313MPD2    H1 4710   3.224   3.930  11.491  1.4861  0.2886 -0.8976
  313MPD2    H2 4711   2.985   4.269  11.465 -0.0190 -0.8391 -0.9546
  313MPD2    H3 4712   3.019   4.057  11.550 -1.4172  0.2622 -0.2044
  313MPD2     N 4713   3.415   3.991  11.343 -0.2965  0.1906 -0.6888
  313MPD2    H5 4714   3.414   3.910  11.405  1.1960  0.3488 -0.4626
  313MPD2    N1 4715   3.179   4.405  11.304 -0.4224 -0.2141 -0.0293
  313MPD2    H7 4716   3.270   4.443  11.282  0.0287 -1.6178 -0.6032
  314TMC3    C1 4717   3.100   4.611  11.267  0.3454 -0.2476 -0.3791
  314TMC3    C2 4718   3.215   4.664  11.329 -0.1428 -1.0979 -0.5373
  314TMC3    C3 4719   3.258   0.066  11.289  0.8298 -0.3376 -0.6743
  314TMC3    C4 4720   3.038   4.670  11.163  0.9007 -0.6411 -0.0511
  314TMC3    C5 4721   3.088   0.069  11.120  0.0859  0.2322  0.7195
  314TMC3    C6 4722   3.193   0.133  11.187  0.5843 -0.3866 -0.7123
  314TMC3     C 4723   3.064   4.480  11.312 -0.0399  0.0523 -0.9525
  314TMC3     O 4724   2.946   4.446  11.310  0.2843  0.9899  0.0926
  314TMC3     H 4725   3.254   4.614  11.417 -0.9594 -3.0526 -1.3089
  314TMC3    H1 4726   2.946   4.632  11.122  0.9557  0.0302 -0.7840
  314TMC3    H2 4727   3.241   0.222  11.150  1.8065  0.6513  3.4126
  314TMC3    C7 4728   3.003   0.143  11.031 -0.0591  0.2597  0.1008
  314TMC3    C8 4729   3.395   0.114  11.316  0.3196  0.4519 -0.8013
  314TMC3    O1 4730   2.886   0.106  11.012 -0.0794  0.3881  0.4497
  314TMC3    O2 4731   3.434   0.195  11.237  0.0816  0.2952  0.0597
  315MPD2     C 4732   3.537   3.178   0.187 -0.2893 -0.7006  0.5609
  315MPD2    C1 4733   3.643   3.147   0.104  0.5748  0.4344 -0.1947
  315MPD2    C2 4734   3.686   3.246   0.020 -0.4927 -0.3776 -0.1850
  315MPD2    C3 4735   3.649   3.380   0.028  0.3346 -0.6069  0.1279
  315MPD2    C4 4736   3.540   3.406   0.106 -0.1727 -0.4937 -0.0506
  315MPD2    C5 4737   3.489   3.306   0.189 -0.4229 -0.1336 -0.1602
  315MPD2     H 4738   3.758   3.228  17.638 -0.8992 -0.8259 -0.4549
  315MPD2    H1 4739   3.487   3.500   0.115 -1.0865 -1.0059  0.0129
  315MPD2    H2 4740   3.471   3.112   0.242  0.0927 -1.8129 -0.2983
  315MPD2    H3 4741   3.404   3.323   0.255 -0.1472 -0.2911  0.2363
  315MPD2     N 4742   3.713   3.477  17.646 -0.4425 -0.6669 -0.7211
  315MPD2    H5 4743   3.794   3.438  17.597  1.0085 -0.6988  1.7257
  315MPD2    N1 4744   3.703   3.018   0.104  0.2207  0.2830  0.3706
  315MPD2    H7 4745   3.788   2.998   0.053 -0.4979 -1.2217 -0.2495
  316TMC3    C1 4746   3.776   3.662  17.546  0.1276 -0.4153  0.0482
  316TMC3    C2 4747   3.907   3.649  17.577 -0.0399  0.0136  0.0468
  316TMC3    C3 4748   3.996   3.728  17.506  0.2899 -0.0993 -0.4420
  316TMC3    C4 4749   3.731   3.764  17.463  0.0597  0.6658  0.5098
  316TMC3    C5 4750   3.820   3.844  17.389 -0.2538 -0.1461 -0.0647
  316TMC3    C6 4751   3.954   3.828  17.420  0.1457 -0.1869 -0.4882
  316TMC3     C 4752   3.688   3.607  17.636  0.0201 -0.2464 -0.7436
  316TMC3     O 4753   3.589   3.673  17.666 -0.2707 -0.0229  0.0936
  316TMC3     H 4754   3.938   3.575  17.650 -1.0430 -1.0353 -0.5931
  316TMC3    H1 4755   3.623   3.763  17.449  0.1460 -2.0200  0.0098
  316TMC3    H2 4756   4.022   3.897  17.371 -1.8940  1.0304 -1.6129
  316TMC3    C7 4757   3.766   3.976  17.364  0.5141 -0.4042 -0.3518
  316TMC3    C8 4758   4.136   3.704  17.511 -0.0557  0.2826 -0.0759
  316TMC3    O1 4759   3.822   4.077  17.409 -0.3523  0.2537 -0.1228
  316TMC3    O2 4760   4.201   3.800  17.468 -0.3703  0.0311  0.3686
  317MPD2     C 4761   0.803   2.118  12.228  0.5506 -0.2619  0.4997
  317MPD2    C1 4762   0.895   2.015  12.254 -1.0748 -0.0269 -0.3629
  317MPD2    C2 4763   0.909   1.965  12.385  0.5709  1.1389 -0.6916
  317MPD2    C3 4764   0.831   2.009  12.482 -0.0496  0.4395 -0.0766
  317MPD2    C4 4765   0.746   2.111  12.458  0.2772  0.2805  0.1429
  317MPD2    C5 4766   0.729   2.159  12.332  0.1488 -0.2003  0.2512
  317MPD2     H 4767   0.983   1.892  12.415  0.7455  2.2147  1.5048
  317MPD2    H1 4768   0.684   2.151  12.538  0.4802 -1.3960  1.1427
  317MPD2    H2 4769   0.795   2.164  12.130  3.4604  0.6809  0.6981
  317MPD2    H3 4770   0.653   2.232  12.309  0.8264  0.8531  1.3551
  317MPD2     N 4771   0.849   1.963  12.617 -0.1916 -0.5645 -0.8284
  317MPD2    H5 4772   0.938   1.916  12.632 -0.3752 -0.8206 -0.5633
  317MPD2    N1 4773   0.980   1.951  12.152  0.1482 -0.8001  0.4293
  317MPD2    H7 4774   1.053   1.888  12.183  2.0813  0.8944 -0.6801
  318TMC3    C1 4775   0.802   1.924  12.840 -0.8482 -0.3505  0.6213
  318TMC3    C2 4776   0.712   1.864  12.927  0.5369 -1.1888  0.3933
  318TMC3    C3 4777   0.770   1.794  13.032  0.1555  0.4142 -1.2496
  318TMC3    C4 4778   0.938   1.939  12.863 -0.0093  0.0979 -0.0393
  318TMC3    C5 4779   0.987   1.881  12.977  0.7490  0.0181  0.5258
  318TMC3    C6 4780   0.907   1.804  13.058 -0.5830  0.2118 -0.3705
  318TMC3     C 4781   0.747   1.965  12.714  0.3065  0.3581  0.6488
  318TMC3     O 4782   0.630   1.972  12.704 -0.0793 -0.1932  0.2958
  318TMC3     H 4783   0.604   1.868  12.920  0.8589  1.5196 -3.3462
  318TMC3    H1 4784   0.993   2.009  12.801  0.2076 -0.2462 -0.2333
  318TMC3    H2 4785   0.955   1.756  13.142 -1.2876  0.2520  0.0595
  318TMC3    C7 4786   1.113   1.829  12.934 -0.3867 -0.0243  0.8093
  318TMC3    C8 4787   0.688   1.727  13.135  0.1863 -0.4790 -0.7929
  318TMC3    O1 4788   1.114   1.821  12.811 -0.2362 -0.3292 -0.3091
  318TMC3    O2 4789   0.729   1.732  13.251  0.3407 -0.2966 -0.1315
  319MPD2     C 4790   1.504   3.254  16.502 -0.3433 -0.8464  0.0147
  319MPD2    C1 4791   1.466   3.200  16.623 -0.6849  0.3739 -0.6439
  319MPD2    C2 4792   1.337   3.179  16.644 -0.3646  0.1992  0.4236
  319MPD2    C3 4793   1.244   3.197  16.551 -0.7970  0.0761  0.3717
  319MPD2    C4 4794   1.282   3.256  16.434 -0.1087 -0.3007  0.8301
  319MPD2    C5 4795   1.409   3.289  16.415  0.5187  0.1015  0.5657
  319MPD2     H 4796   1.307   3.149  16.743  0.3772 -1.8354  0.0420
  319MPD2    H1 4797   1.216   3.272  16.350  1.2149  0.2330 -0.1025
  319MPD2    H2 4798   1.609   3.273  16.479 -0.2602 -0.1892  0.9362
  319MPD2    H3 4799   1.443   3.321  16.317 -0.6501 -0.7471 -0.1173
  319MPD2     N 4800   1.114   3.150  16.555  0.6607  0.3338 -0.8559
  319MPD2    H5 4801   1.060   3.175  16.473 -0.3613  0.9184 -0.0029
  319MPD2    N1 4802   1.549   3.178  16.733 -0.7232 -0.1476  0.6414
  319MPD2    H7 4803   1.506   3.151  16.821 -0.2606 -0.1520  0.8661
  320TMC3    C1 4804   0.928   3.044  16.628 -0.2148 -0.1479  0.5387
  320TMC3    C2 4805   0.862   3.129  16.544 -0.3960  0.3965  0.8806
  320TMC3    C3 4806   0.822   3.080  16.422 -0.2346 -1.2351 -0.3155
  320TMC3    C4 4807   0.930   2.909  16.600  0.4823  0.2505  0.2001
  320TMC3    C5 4808   0.864   2.857  16.495  0.6713  0.3011  0.5741
  320TMC3    C6 4809   0.830   2.944  16.391  0.3432  0.5228  0.3898
  320TMC3     C 4810   1.061   3.083  16.660  0.0431 -0.4146  0.3376
  320TMC3     O 4811   1.112   3.037  16.761 -1.1155  0.3175 -0.0432
  320TMC3     H 4812   0.857   3.237  16.554 -0.4183  0.1264  3.8388
  320TMC3    H1 4813   0.992   2.854  16.670 -1.6091  0.4794  2.1928
  320TMC3    H2 4814   0.776   2.899  16.309  1.5847 -1.9063  0.8985
  320TMC3    C7 4815   0.876   2.716  16.472 -0.6122 -0.1105 -0.7259
  320TMC3    C8 4816   0.871   3.165  16.318  0.0726 -0.3833 -0.0388
  320TMC3    O1 4817   0.872   2.677  16.357  0.0206 -0.1304  0.2445
  320TMC3    O2 4818   0.950   3.251  16.347  0.2843 -0.5307  0.3634
  321TMC3    C1 4819   1.745   3.172  16.877  0.1765  0.0192  0.6658
  321TMC3    C2 4820   1.666   3.140  16.988  0.0058  0.5069 -0.5201
  321TMC3    C3 4821   1.713   3.165  17.112 -0.5684 -0.4251 -0.0694
  321TMC3    C4 4822   1.866   3.234  16.898 -0.5833 -1.3224  0.2176
  321TMC3    C5 4823   1.906   3.263  17.026 -1.2053  0.6867  0.7198
  321TMC3    C6 4824   1.829   3.234  17.134  0.5292 -0.2739  0.0695
  321TMC3     C 4825   1.683   3.200  16.741 -0.6163  0.4262  0.0098
  321TMC3     O 4826   1.758   3.230  16.650 -0.3419  0.0691 -0.0210
  321TMC3     H 4827   1.577   3.078  16.983  0.3532 -0.1174  0.8142
  321TMC3    H1 4828   1.937   3.254  16.818  1.1781  1.9230  2.6049
  321TMC3    H2 4829   1.857   3.259  17.236 -2.9052 -0.2046  1.0110
  321TMC3    C7 4830   2.041   3.224  17.043 -0.1191  0.4626  0.1973
  321TMC3    C8 4831   1.707   3.051  17.205  0.4328  0.5265  0.2225
  321TMC3    O1 4832   2.123   3.226  16.950  0.4703  0.1112 -0.1077
  321TMC3    O2 4833   1.813   3.041  17.262  0.3041  0.2359 -0.0231
  322MPD2     C 4834   0.876   4.601  13.664 -0.2198 -0.3150  0.4457
  322MPD2    C1 4835   0.751   4.546  13.686 -0.3347  0.3587  0.3763
  322MPD2    C2 4836   0.703   4.448  13.605  0.0780  0.2307 -0.7665
  322MPD2    C3 4837   0.792   4.401  13.506  0.1549  0.4664  0.2084
  322MPD2    C4 4838   0.915   4.459  13.485  0.4157 -0.2970  0.3460
  322MPD2    C5 4839   0.954   4.565  13.562  0.3984  0.2787 -0.0698
  322MPD2     H 4840   0.610   4.393  13.621 -0.0543  0.2241 -1.5519
  322MPD2    H1 4841   0.982   4.430  13.405  0.1657  0.0734 -0.0028
  322MPD2    H2 4842   0.912   4.678  13.732 -0.9040  1.1539 -0.8423
  322MPD2    H3 4843   1.055   4.602  13.549  0.6964 -0.5710 -0.1816
  322MPD2     N 4844   0.750   4.278  13.447  0.0356 -0.1656 -0.0456
  322MPD2    H5 4845   0.669   4.231  13.486 -1.8224  0.4398 -3.1538
  322MPD2    N1 4846   0.682   4.602  13.801 -0.2882 -0.3741  0.2012
  322MPD2    H7 4847   0.727   4.674  13.857 -1.7561 -0.2775  1.2651
  323TMC3    C1 4848   0.522   4.602  13.979 -0.6217  0.9431  0.0963
  323TMC3    C2 4849   0.560   0.008  13.999 -0.3487  0.7610 -0.4644
  323TMC3    C3 4850   0.541   0.070  14.125  1.0807  0.3050 -0.1201
  323TMC3    C4 4851   0.464   4.527  14.074 -0.6306  0.2288 -0.6430
  323TMC3    C5 4852   0.457   4.585  14.199  0.0392 -0.2854 -0.6810
  323TMC3    C6 4853   0.479   4.718  14.223 -0.2577  0.3348  0.8899
  323TMC3     C 4854   0.568   4.542  13.854  0.3008 -0.0748  0.3592
  323TMC3     O 4855   0.513   4.439  13.818  0.4051  0.4224  0.1079
  323TMC3     H 4856   0.607   0.069  13.923 -0.7983  2.5102  0.6644
  323TMC3    H1 4857   0.440   4.425  14.048 -0.4483  0.0816 -0.2280
  323TMC3    H2 4858   0.472   0.044  14.319  0.8763  0.5970  0.8345
  323TMC3    C7 4859   0.511   4.500  14.313  0.0424  0.3003  0.6332
  323TMC3    C8 4860   0.620   0.181  14.164  0.7381 -0.3650  0.6603
  323TMC3    O1 4861   0.508   4.380  14.308  0.5487  0.4125  0.2050
  323TMC3    O2 4862   0.668   0.178  14.279 -0.6663 -0.2234 -0.4066
  324MPD2     C 4863   2.555   1.075  14.360 -0.7177  0.0662  0.1098
  324MPD2    C1 4864   2.606   1.204  14.369 -0.7390 -0.0852 -0.1807
  324MPD2    C2 4865   2.537   1.306  14.299  0.3285 -0.3010 -0.2568
  324MPD2    C3 4866   2.422   1.279  14.220 -0.7715  0.1620  0.2919
  324MPD2    C4 4867   2.378   1.148  14.206 -0.2351 -0.5765 -0.2095
  324MPD2    C5 4868   2.439   1.051  14.283  0.0393 -0.6692 -0.1967
  324MPD2     H 4869   2.574   1.406  14.314 -1.0050  0.1049  0.3581
  324MPD2    H1 4870   2.309   1.115  14.130 -1.3180 -3.1963  1.9365
  324MPD2    H2 4871   2.594   0.993  14.420 -0.0796 -0.3308 -0.8348
  324MPD2    H3 4872   2.408   0.948  14.273  0.0253 -0.6881  0.0434
  324MPD2     N 4873   2.354   1.383  14.142 -0.7327  0.1012 -0.1686
  324MPD2    H5 4874   2.270   1.359  14.089  0.0441 -1.1683 -0.8055
  324MPD2    N1 4875   2.723   1.228  14.438 -0.9242  0.6522  0.1128
  324MPD2    H7 4876   2.751   1.323  14.460 -0.8207  1.0031 -1.5556
  325TMC3    C1 4877   2.298   1.592  14.081  0.7579  0.2077  0.4877
  325TMC3    C2 4878   2.196   1.543  14.008  0.1881  0.0323  0.3918
  325TMC3    C3 4879   2.085   1.626  13.988 -0.0285  0.3738 -0.4948
  325TMC3    C4 4880   2.298   1.721  14.130 -0.3314 -0.4909 -0.0305
  325TMC3    C5 4881   2.195   1.800  14.084  0.1409 -0.3690  0.3859
  325TMC3    C6 4882   2.080   1.756  14.028  0.4979  0.2584 -0.5087
  325TMC3     C 4883   2.406   1.512  14.129  0.7688  0.1706  0.2181
  325TMC3     O 4884   2.514   1.566  14.155  0.3109  0.0279 -0.0238
  325TMC3     H 4885   2.206   1.453  13.948 -0.1142  1.7462 -2.2557
  325TMC3    H1 4886   2.385   1.769  14.172  0.4050 -1.1056 -0.8461
  325TMC3    H2 4887   1.994   1.821  14.013  1.0348  1.1872  0.4254
  325TMC3    C7 4888   2.179   1.921  14.158 -0.0563 -0.1909  0.2805
  325TMC3    C8 4889   1.981   1.550  14.061 -0.1206 -0.7932  0.6530
  325TMC3    O1 4890   2.276   1.965  14.216  0.0099  0.2730 -0.0515
  325TMC3    O2 4891   2.014   1.449  14.123  0.5733 -0.2383  0.4747
  326MPD2     C 4892   3.068   1.953  10.803 -0.8833  1.0999 -0.3406
  326MPD2    C1 4893   3.071   2.042  10.701 -0.1248  0.1816 -0.2125
  326MPD2    C2 4894   3.187   2.121  10.690  0.0319 -0.0953 -0.3176
  326MPD2    C3 4895   3.290   2.113  10.783  0.2116  0.0343  0.4275
  326MPD2    C4 4896   3.275   2.035  10.892  0.0254  0.5553 -0.2101
  326MPD2    C5 4897   3.167   1.961  10.898 -0.3465 -0.1694 -0.3064
  326MPD2     H 4898   3.197   2.188  10.605  0.3250  1.2000  0.7443
  326MPD2    H1 4899   3.345   2.026  10.975 -2.4478  0.6514  1.8973
  326MPD2    H2 4900   2.984   1.886  10.817  0.6151 -1.0915 -1.8085
  326MPD2    H3 4901   3.159   1.908  10.992  0.8911 -0.2238 -0.2376
  326MPD2     N 4902   3.417   2.181  10.758 -0.1201  0.1126  0.4303
  326MPD2    H5 4903   3.485   2.177  10.833  0.3057 -0.1587  0.0303
  326MPD2    N1 4904   2.972   2.044  10.596  0.0781  0.3683  0.2446
  326MPD2    H7 4905   2.982   2.123  10.534  0.3740  0.4379  0.3799
  327TMC3    C1 4906   2.827   1.952  10.436 -0.5290 -0.0957 -0.6427
  327TMC3    C2 4907   2.772   2.071  10.391 -0.0363  0.1971  0.5110
  327TMC3    C3 4908   2.801   2.107  10.266 -0.2280  0.5154  0.8554
  327TMC3    C4 4909   2.910   1.877  10.356 -0.2263  0.1239  0.7932
  327TMC3    C5 4910   2.943   1.926  10.229 -0.3128  0.6091  0.5148
  327TMC3    C6 4911   2.874   2.034  10.176 -0.2834  0.7207 -0.6985
  327TMC3     C 4912   2.877   1.945  10.575  0.1837 -0.0534  0.1927
  327TMC3     O 4913   2.842   1.845  10.632  0.3096  0.2668 -0.1969
  327TMC3     H 4914   2.739   2.143  10.465  2.1930  2.4062 -0.6322
  327TMC3    H1 4915   2.949   1.788  10.404 -0.0327  0.5226  1.3834
  327TMC3    H2 4916   2.889   2.065  10.073 -0.5946  0.7143 -0.7463
  327TMC3    C7 4917   3.085   1.949  10.216  0.3020 -0.2526 -0.0189
  327TMC3    C8 4918   2.760   2.240  10.223 -0.2137 -0.7974 -0.0027
  327TMC3    O1 4919   3.119   2.022  10.123  0.2103 -0.5050 -0.0601
  327TMC3    O2 4920   2.827   2.301  10.137  0.6100 -0.0517 -0.3730
  328MPD2     C 4921   0.905   1.981  17.107 -0.3747 -0.3576 -0.2077
  328MPD2    C1 4922   0.808   1.904  17.161  0.8164  0.0809  0.2162
  328MPD2    C2 4923   0.690   1.885  17.091  0.4078  0.0139 -0.1517
  328MPD2    C3 4924   0.661   1.962  16.976  0.1090 -0.1781  0.9145
  328MPD2    C4 4925   0.754   2.051  16.928  0.0454 -0.0664  0.0824
  328MPD2    C5 4926   0.872   2.067  17.000  0.4051  0.2568 -0.8252
  328MPD2     H 4927   0.618   1.815  17.131  0.6046  0.2854  0.6726
  328MPD2    H1 4928   0.715   2.114  16.849  0.5210  1.4169  1.0194
  328MPD2    H2 4929   1.004   2.002  17.144 -0.3092  0.2028 -0.6976
  328MPD2    H3 4930   0.941   2.145  16.970  2.6003 -1.7572 -0.9791
  328MPD2     N 4931   0.541   1.958  16.908 -0.6982  0.2505 -0.7190
  328MPD2    H5 4932   0.530   2.038  16.846 -1.2969 -0.5190 -1.5932
  328MPD2    N1 4933   0.843   1.828  17.278 -0.3062 -0.0434  0.7363
  328MPD2    H7 4934   0.932   1.852  17.321 -0.4470 -0.5792  1.3225
  329TMC3    C1 4935   0.863   1.656  17.427 -0.0652  0.4146  0.2085
  329TMC3    C2 4936   0.937   1.744  17.504 -0.3732  0.1203  0.0791
  329TMC3    C3 4937   1.041   1.682  17.575  0.2367 -0.9883  0.1188
  329TMC3    C4 4938   0.897   1.523  17.408  0.6089 -0.2632 -0.8055
  329TMC3    C5 4939   1.010   1.470  17.468  0.2418  0.4383  0.3058
  329TMC3    C6 4940   1.083   1.550  17.556  0.3248  0.0805 -0.1781
  329TMC3     C 4941   0.789   1.710  17.316  0.1266 -0.2030  0.1550
  329TMC3     O 4942   0.712   1.640  17.253  0.4662  0.2427  0.3723
  329TMC3     H 4943   0.906   1.847  17.517  2.5430  1.1152 -0.9554
  329TMC3    H1 4944   0.836   1.461  17.343  2.0611  0.5723 -2.9834
  329TMC3    H2 4945   1.166   1.501  17.606  1.2096  0.3372 -1.3767
  329TMC3    C7 4946   0.998   1.335  17.497 -0.1376  0.1722 -0.1267
  329TMC3    C8 4947   1.110   1.747  17.676 -0.2955 -0.4518  0.3321
  329TMC3    O1 4948   1.036   1.303  17.610 -1.2417  0.9730  0.0178
  329TMC3    O2 4949   1.229   1.730  17.691 -0.6582 -0.2288  0.6195
  330TMC3    C1 4950   2.942   1.495   9.215 -0.7136  0.4866 -0.0987
  330TMC3    C2 4951   2.959   1.365   9.173  0.2712 -0.5035  0.1021
  330TMC3    C3 4952   2.976   1.336   9.038 -0.6828  0.2331 -1.0408
  330TMC3    C4 4953   2.942   1.595   9.130  0.2537  0.1416 -0.2420
  330TMC3    C5 4954   2.952   1.566   8.996  0.7750 -0.0374  0.7713
  330TMC3    C6 4955   2.966   1.437   8.952 -0.1777  0.4942 -0.2101
  330TMC3     C 4956   2.883   1.507   9.352  0.1436 -0.5832  0.1251
  330TMC3     O 4957   2.928   1.440   9.443 -0.3823 -0.0752 -0.2984
  330TMC3     H 4958   2.952   1.287   9.248 -3.7577 -0.2831 -0.0171
  330TMC3    H1 4959   2.936   1.696   9.168 -1.8280 -0.4192  0.9116
  330TMC3    H2 4960   2.969   1.415   8.846  0.7069  2.2275 -0.5469
  330TMC3    C7 4961   2.971   1.676   8.906 -0.2406 -0.4399  0.1539
  330TMC3    C8 4962   2.950   1.206   8.985 -0.2760 -0.2282  0.4154
  330TMC3    O1 4963   2.936   1.788   8.938  0.4371  0.3127 -0.2178
  330TMC3    O2 4964   2.917   1.189   8.866  0.3315  0.1143 -0.5195
  331MPD2     C 4965   1.085   0.142  13.263  0.5695  0.0321 -0.1482
  331MPD2    C1 4966   1.187   0.200  13.185 -0.2941 -0.0605  0.3470
  331MPD2    C2 4967   1.246   0.128  13.078  0.0033 -0.0620 -0.4999
  331MPD2    C3 4968   1.200   4.723  13.049  0.1513  0.7671 -0.5655
  331MPD2    C4 4969   1.103   4.667  13.137  0.3912  0.2313  0.0695
  331MPD2    C5 4970   1.049   0.015  13.239  0.1318 -0.0656 -0.0599
  331MPD2     H 4971   1.322   0.168  13.013 -0.6235  3.0604  0.6746
  331MPD2    H1 4972   1.060   4.569  13.122 -1.1117  0.9638 -0.4888
  331MPD2    H2 4973   1.042   0.197  13.346 -0.8083 -0.3759 -0.5944
  331MPD2    H3 4974   0.967   4.687  13.289 -0.6498  0.6481 -0.5996
  331MPD2     N 4975   1.255   4.648  12.943 -0.4839 -0.7524  0.5333
  331MPD2    H5 4976   1.328   4.691  12.888  1.1188 -0.5871  2.7945
  331MPD2    N1 4977   1.251   0.311  13.244  0.0099 -0.4205 -0.1581
  331MPD2    H7 4978   1.210   0.355  13.326  0.2926 -0.8035  0.1897
  332TMC3    C1 4979   1.263   4.490  12.771  0.4737 -0.0305 -0.1885
  332TMC3    C2 4980   1.311   4.589  12.697 -0.3492 -0.6491  0.1951
  332TMC3    C3 4981   1.429   4.563  12.626 -0.4405 -0.5934 -0.1197
  332TMC3    C4 4982   1.325   4.367  12.782 -0.9121 -0.1864  0.0010
  332TMC3    C5 4983   1.455   4.359  12.726 -0.3807  0.1514  0.2075
  332TMC3    C6 4984   1.502   4.455  12.638 -0.4870 -0.4380  0.1420
  332TMC3     C 4985   1.200   4.531  12.894  0.6208 -0.5533 -0.3007
  332TMC3     O 4986   1.103   4.468  12.935 -0.1122  0.4540 -0.2135
  332TMC3     H 4987   1.271   4.689  12.686 -3.1380 -1.6669  1.1778
  332TMC3    H1 4988   1.300   4.291  12.855 -0.3798 -0.9528 -0.6148
  332TMC3    H2 4989   1.595   4.440  12.584  0.0150 -0.4906  1.0269
  332TMC3    C7 4990   1.530   4.234  12.729  0.1412  0.4799  0.1672
  332TMC3    C8 4991   1.492   4.669  12.553 -0.0960  0.4348 -0.2297
  332TMC3    O1 4992   1.462   4.138  12.763  0.2139 -0.0835 -0.2945
  332TMC3    O2 4993   1.613   4.655  12.546 -0.0019  0.2826 -0.1158
  333MPD2     C 4994   1.847   0.182  11.945 -0.4140 -0.0254 -0.0360
  333MPD2    C1 4995   1.809   0.129  11.827  0.2250  0.3085  0.2399
  333MPD2    C2 4996   1.700   0.037  11.830  0.2482  0.2451 -0.1714
  333MPD2    C3 4997   1.635   0.002  11.950 -0.8547  0.2772  0.2758
  333MPD2    C4 4998   1.675   0.065  12.067 -0.4400  0.3556  0.1356
  333MPD2    C5 4999   1.772   0.154  12.062 -0.7877  0.2409 -0.1493
  333MPD2     H 5000   1.676   4.710  11.736  0.8911 -1.2259  0.4522
  333MPD2    H1 5001   1.644   0.040  12.168 -0.5280 -0.3302 -0.0643
  333MPD2    H2 5002   1.933   0.247  11.953  1.6838 -2.3170 -3.7113
  333MPD2    H3 5003   1.820   0.191  12.152 -2.2540  0.9401  0.3474
  333MPD2     N 5004   1.541   4.618  11.950  0.4419  0.2749  0.0658
  333MPD2    H5 5005   1.528   4.583  11.855 -0.0044 -0.0176  0.2368
  333MPD2    N1 5006   1.887   0.165  11.710 -0.2483  0.5815 -0.2702
  333MPD2    H7 5007   1.961   0.233  11.724 -0.2620  0.2390  1.5174
  334TMC3    C1 5008   1.963   0.168  11.485  0.1827 -0.5652 -0.6781
  334TMC3    C2 5009   2.091   0.190  11.522 -0.7094  0.5578  0.3932
  334TMC3    C3 5010   2.189   0.226  11.425 -0.9740 -0.3761  0.0145
  334TMC3    C4 5011   1.934   0.173  11.355  0.0068  0.3481 -0.5164
  334TMC3    C5 5012   2.032   0.197  11.258 -0.2576  0.3011 -1.0091
  334TMC3    C6 5013   2.157   0.237  11.294  0.0816 -0.1744 -0.4018
  334TMC3     C 5014   1.860   0.129  11.582 -0.1525 -0.1089  0.1991
  334TMC3     O 5015   1.761   0.072  11.544  0.7988 -0.6843 -0.2584
  334TMC3     H 5016   2.118   0.178  11.626 -0.9596  0.5343  0.4558
  334TMC3    H1 5017   1.830   0.156  11.329  0.2600  1.6294 -2.3958
  334TMC3    H2 5018   2.229   0.265  11.217  0.6702 -1.2835 -0.2669
  334TMC3    C7 5019   1.987   0.208  11.122  0.5305 -0.0837  0.4713
  334TMC3    C8 5020   2.323   0.254  11.477 -0.0552  0.6337 -0.2790
  334TMC3    O1 5021   2.061   0.275  11.057 -0.0625 -0.3459  0.7074
  334TMC3    O2 5022   2.342   0.209  11.590  0.1954  0.0669  0.6417
  335TMC3    C1 5023   1.586   1.729  17.636 -0.6544 -0.1709  0.9086
  335TMC3    C2 5024   1.531   1.607  17.604  0.1952 -0.0315 -0.2035
  335TMC3    C3 5025   1.565   1.550  17.487  0.4585 -0.3193 -0.5625
  335TMC3    C4 5026   1.688   1.789  17.565 -0.6117 -0.7370  0.2886
  335TMC3    C5 5027   1.734   1.718  17.458  0.1786  0.4478  0.3317
  335TMC3    C6 5028   1.675   1.599  17.416  0.2201  0.2990 -0.1593
  335TMC3     C 5029   1.560   1.781   0.075 -0.5750  0.2517  0.5491
  335TMC3     O 5030   1.559   1.903   0.094 -0.1866 -0.2971 -1.1404
  335TMC3     H 5031   1.437   1.580  17.650 -0.7910  1.1581 -1.5147
  335TMC3    H1 5032   1.737   1.878  17.604  0.9842 -0.7513 -1.6825
  335TMC3    H2 5033   1.723   1.550  17.332  1.9848  0.1978  0.9121
  335TMC3    C7 5034   1.851   1.768  17.382  0.7573  0.5768 -0.1269
  335TMC3    C8 5035   1.504   1.425  17.451  0.4242 -0.2131  0.2586
  335TMC3    O1 5036   1.926   1.682  17.337  0.2953 -0.1848  0.2117
  335TMC3    O2 5037   1.456   1.348  17.536 -0.0264  0.3980  0.0559
  336MPD2     C 5038   1.607   4.485  16.395 -0.9406  0.5677 -0.6194
  336MPD2    C1 5039   1.581   4.402  16.289  0.3774  0.1228 -0.4485
  336MPD2    C2 5040   1.607   4.270  16.301 -0.6561  0.3072 -0.6189
  336MPD2    C3 5041   1.648   4.216  16.420  0.5190  0.3412 -0.4082
  336MPD2    C4 5042   1.667   4.300  16.531  0.3208  0.1804  0.5452
  336MPD2    C5 5043   1.642   4.437  16.522  0.0921  0.3287 -0.0767
  336MPD2     H 5044   1.567   4.207  16.223  0.4297  0.4186 -1.2589
  336MPD2    H1 5045   1.706   4.263  16.625  2.7731 -1.2593 -1.0302
  336MPD2    H2 5046   1.602   4.593  16.390  2.2457  0.8103  1.3592
  336MPD2    H3 5047   1.662   4.499  16.609  0.2343 -0.3649  0.3862
  336MPD2     N 5048   1.671   4.080  16.440  0.0317  0.4541 -0.3062
  336MPD2    H5 5049   1.691   4.047  16.534 -0.5636  0.9376 -0.0194
  336MPD2    N1 5050   1.520   4.451  16.171 -0.6535 -0.7000  0.2369
  336MPD2    H7 5051   1.500   4.385  16.097 -2.3747 -1.1495  1.1173
  337TMC3    C1 5052   1.374   4.580  16.039 -0.2376 -0.3723  0.6516
  337TMC3    C2 5053   1.309   4.471  15.988 -0.1509  0.1442  0.2801
  337TMC3    C3 5054   1.219   4.497  15.886  0.5207  0.0425  0.8036
  337TMC3    C4 5055   1.354   4.705  15.994 -0.6955 -0.3485 -0.3306
  337TMC3    C5 5056   1.276   4.717  15.880  0.1726  0.0414  0.4814
  337TMC3    C6 5057   1.204   4.618  15.822  0.2227  0.9432  0.4120
  337TMC3     C 5058   1.454   4.568  16.165 -0.4561  0.2820  0.1344
  337TMC3     O 5059   1.446   4.667  16.238 -0.0343  0.4130 -0.6887
  337TMC3     H 5060   1.323   4.369  16.021 -0.1839  0.1463  0.3003
  337TMC3    H1 5061   1.401   0.066  16.042 -1.4448 -0.2226  0.1941
  337TMC3    H2 5062   1.119   4.646  15.761  1.5446  1.9641 -0.9698
  337TMC3    C7 5063   1.227   0.125  15.837 -0.2731  1.2931  0.7008
  337TMC3    C8 5064   1.155   4.387  15.820  0.9278 -0.1188  0.5076
  337TMC3    O1 5065   1.206   0.206  15.928  0.3603  0.0265 -0.1160
  337TMC3    O2 5066   1.124   4.294  15.891  0.3765 -0.4827 -0.4071
  338MPD2     C 5067   2.134   3.287   0.941  0.6753  0.3656 -0.4007
  338MPD2    C1 5068   2.015   3.280   0.871  0.0957  0.4193  0.5512
  338MPD2    C2 5069   1.904   3.352   0.911  0.9290  0.0348 -0.1392
  338MPD2    C3 5070   1.907   3.428   1.025 -0.4702 -0.0220 -0.2975
  338MPD2    C4 5071   2.029   3.432   1.094 -0.0124 -0.5759  0.3615
  338MPD2    C5 5072   2.139   3.374   1.047 -0.4207 -0.4230  0.1616
  338MPD2     H 5073   1.824   3.359   0.839  2.4367  1.0876 -1.7183
  338MPD2    H1 5074   2.038   3.485   1.189 -0.4082 -0.6843  0.4579
  338MPD2    H2 5075   2.226   3.241   0.907  0.9684  0.6978 -0.0654
  338MPD2    H3 5076   2.235   3.359   1.097  1.0637  2.2049 -1.9059
  338MPD2     N 5077   1.789   3.502   1.065 -0.0854 -0.3017 -0.1105
  338MPD2    H5 5078   1.700   3.482   1.021 -1.0420 -0.2312  1.7956
  338MPD2    N1 5079   1.995   3.189   0.763  0.1061  0.4239 -0.5660
  338MPD2    H7 5080   1.899   3.176   0.733 -0.2903  0.9181  0.4909
  339TMC3    C1 5081   1.675   3.684   1.143  0.0280  0.3370  0.1665
  339TMC3    C2 5082   1.563   3.605   1.130 -0.0730 -0.2731  0.5738
  339TMC3    C3 5083   1.457   3.652   1.069  0.1714 -0.2931 -0.3982
  339TMC3    C4 5084   1.687   3.792   1.059  0.1978 -0.1476  0.5653
  339TMC3    C5 5085   1.588   3.822   0.968  0.5026 -0.3995 -0.1281
  339TMC3    C6 5086   1.467   3.758   0.981  0.2313  0.2255 -0.5885
  339TMC3     C 5087   1.798   3.607   1.156  0.5592 -0.9723  0.5018
  339TMC3     O 5088   1.894   3.671   1.199  0.4408  0.2249 -0.8109
  339TMC3     H 5089   1.554   3.509   1.179 -0.7296 -0.5189 -0.0532
  339TMC3    H1 5090   1.781   3.845   1.050  1.8075 -3.2678 -0.8527
  339TMC3    H2 5091   1.391   3.762   0.904  0.2320 -0.1756 -0.6100
  339TMC3    C7 5092   1.641   3.814   0.837 -0.0219 -0.6359 -0.2314
  339TMC3    C8 5093   1.381   3.544   1.015 -0.5243 -0.5103 -0.4835
  339TMC3    O1 5094   1.725   3.894   0.803  0.5449 -0.3687 -0.0296
  339TMC3    O2 5095   1.441   3.484   0.926 -0.4874  0.6811  0.0405
  340MPD2     C 5096   1.187   2.227  10.245  0.3049 -0.1521 -0.3393
  340MPD2    C1 5097   1.271   2.121  10.256  0.1947 -0.1540  0.2553
  340MPD2    C2 5098   1.410   2.145  10.270  0.4265 -0.3813  0.4287
  340MPD2    C3 5099   1.454   2.278  10.280  0.7577 -0.5646  0.2060
  340MPD2    C4 5100   1.365   2.384  10.274  0.4300  0.0232 -0.3059
  340MPD2    C5 5101   1.236   2.355  10.248 -0.0507  0.6072  0.1969
  340MPD2     H 5102   1.480   2.063  10.264  1.1726  0.2736  0.1886
  340MPD2    H1 5103   1.391   2.489  10.276 -0.7242  0.2638  2.8586
  340MPD2    H2 5104   1.082   2.210  10.223  0.2068 -0.1924  0.1579
  340MPD2    H3 5105   1.158   2.429  10.257  1.0929  1.8295 -0.0599
  340MPD2     N 5106   1.594   2.305  10.290 -0.1628 -0.0211 -0.0047
  340MPD2    H5 5107   1.646   2.218  10.300  2.7765  1.7339 -0.2714
  340MPD2    N1 5108   1.215   1.997  10.241 -0.6793  0.0800  0.1212
  340MPD2    H7 5109   1.131   1.993  10.183 -0.7449  0.5009  0.1924
  341TMC3    C1 5110   1.219   1.759  10.226 -0.1381  0.3180 -0.2221
  341TMC3    C2 5111   1.207   1.642  10.294 -0.9142  0.2979 -0.8561
  341TMC3    C3 5112   1.204   1.523  10.221  0.3479  0.0054 -0.1485
  341TMC3    C4 5113   1.218   1.758  10.089  0.1430  0.3302  0.2251
  341TMC3    C5 5114   1.204   1.638  10.021  0.1347 -0.2497  0.4717
  341TMC3    C6 5115   1.204   1.514  10.082 -0.5218 -0.7343  0.8095
  341TMC3     C 5116   1.275   1.880  10.290 -0.7177 -0.2180  0.0828
  341TMC3     O 5117   1.356   1.867  10.377 -0.1976 -0.3832 -0.2050
  341TMC3     H 5118   1.198   1.651  10.402 -1.2729  0.1250 -0.8710
  341TMC3    H1 5119   1.219   1.853  10.038 -2.8279 -0.0094 -0.4838
  341TMC3    H2 5120   1.194   1.426  10.020  1.6119 -0.5119  0.1399
  341TMC3    C7 5121   1.264   1.638   9.891  0.6301 -0.0716 -0.2153
  341TMC3    C8 5122   1.175   1.399  10.283 -0.5536  0.2083 -0.3013
  341TMC3    O1 5123   1.338   1.544   9.859 -0.5384  1.1216 -0.3007
  341TMC3    O2 5124   1.112   1.391  10.388  0.4016 -0.5420 -0.5412
  342MPD2     C 5125   4.445   0.174  17.064  0.1650 -0.0853 -0.0841
  342MPD2    C1 5126   4.558   0.121  17.115 -0.0127 -0.5279 -1.1670
  342MPD2    C2 5127   4.631   0.212  17.186  0.3105  0.6149  0.7877
  342MPD2    C3 5128   4.598   0.341  17.204 -0.3838  0.2061  0.1125
  342MPD2    C4 5129   4.487   0.391  17.139 -0.1142  0.1027 -0.3979
  342MPD2    C5 5130   4.412   0.306  17.065 -0.0949  0.7081  0.7477
  342MPD2     H 5131   4.720   0.177  17.237 -0.2808 -1.3271  0.4812
  342MPD2    H1 5132   4.465   0.495  17.157 -1.2754 -0.6928  2.6343
  342MPD2    H2 5133   4.374   0.115  17.006  0.1100  0.6259 -0.7373
  342MPD2    H3 5134   4.314   0.338  17.032 -0.7415 -1.6645  0.3712
  342MPD2     N 5135   4.662   0.432  17.304  0.5316 -0.2724 -0.3065
  342MPD2    H5 5136   4.618   0.519  17.330  1.6870  0.5501 -1.0950
  342MPD2    N1 5137   4.608   4.714  17.100  0.0538 -0.2115 -0.5115
  342MPD2    H7 5138   4.699   4.698  17.144  0.6003 -1.5902 -2.1703
  343TMC3    C1 5139   4.617   4.481  17.059 -0.2436  0.1328  0.6834
  343TMC3    C2 5140   0.030   4.491  17.042  0.2873 -0.1205  0.3211
  343TMC3    C3 5141   0.089   4.371  17.040 -1.2277  0.1583 -0.4760
  343TMC3    C4 5142   4.550   4.363  17.064  0.1175 -0.2669  0.7234
  343TMC3    C5 5143   4.617   4.254  17.050 -0.1060  0.2541 -0.0090
  343TMC3    C6 5144   0.026   4.251  17.044  0.8776 -0.2128  0.2647
  343TMC3     C 5145   4.539   4.610  17.063  0.0677 -0.5989  0.2765
  343TMC3     O 5146   4.423   4.606  17.026  0.1810 -0.8947 -0.0564
  343TMC3     H 5147   0.082   4.584  17.060  0.2390  0.0644 -0.5003
  343TMC3    H1 5148   4.442   4.360  17.071  0.1853 -2.5231  0.5933
  343TMC3    H2 5149   0.085   4.160  17.045 -0.6475 -1.2009  0.4636
  343TMC3    C7 5150   4.553   4.122  17.067  0.7465  0.0023 -0.1033
  343TMC3    C8 5151   0.232   4.375  17.041 -0.4389 -0.4116  0.2905
  343TMC3    O1 5152   4.440   4.126  17.099 -0.5228 -0.3458 -0.3905
  343TMC3    O2 5153   0.284   4.460  17.111  0.1327  0.2752 -0.7702
  344MPD2     C 5154   0.032   4.323  11.053  0.1012  0.3565  0.4171
  344MPD2    C1 5155   0.153   4.372  11.106 -0.0171 -0.6855  0.5704
  344MPD2    C2 5156   0.190   4.505  11.089  0.1892 -0.6724 -0.7481
  344MPD2    C3 5157   0.111   4.583  11.012  0.0197  0.6218 -0.4260
  344MPD2    C4 5158   4.713   4.542  10.965  0.1038 -0.2654  0.0667
  344MPD2    C5 5159   4.672   4.410  10.982 -0.5233 -0.2849  0.5482
  344MPD2     H 5160   0.279   4.548  11.133 -0.1137 -1.1687  0.3261
  344MPD2    H1 5161   4.649   4.618  10.921  1.0035 -0.1550 -1.0378
  344MPD2    H2 5162   0.007   4.218  11.060 -0.5703  0.5105  0.3374
  344MPD2    H3 5163   4.572   4.387  10.947 -0.0318  0.1196 -1.1109
  344MPD2     N 5164   0.149   4.713  10.970 -0.3820 -0.1487 -0.4776
  344MPD2    H5 5165   0.095   0.037  10.898  0.5330 -0.5247 -1.4175
  344MPD2    N1 5166   0.239   4.269  11.156  1.0477  0.6730  0.2791
  344MPD2    H7 5167   0.209   4.172  11.146 -0.7546  1.1811  0.7239
  345TMC3    C1 5168   0.303   0.166  10.928 -0.8972 -0.2940  0.2206
  345TMC3    C2 5169   0.362   0.269  10.993  0.3025  0.0509 -0.5659
  345TMC3    C3 5170   0.386   0.385  10.910 -0.0422 -0.8998  0.3335
  345TMC3    C4 5171   0.285   0.155  10.797  0.3412 -0.2323  0.9065
  345TMC3    C5 5172   0.317   0.264  10.721  0.3942  0.0888  0.7169
  345TMC3    C6 5173   0.369   0.383  10.776  0.1367  0.1265  0.5936
  345TMC3     C 5174   0.269   0.051  11.014  0.4027 -0.3549  0.1834
  345TMC3     O 5175   0.339   0.022  11.112 -0.1752  0.1481 -0.1914
  345TMC3     H 5176   0.367   0.270  11.101  1.4709  1.8970 -0.6239
  345TMC3    H1 5177   0.244   0.067  10.749  1.3415 -0.0610 -0.2724
  345TMC3    H2 5178   0.387   0.472  10.716 -0.8025  0.0642  0.2205
  345TMC3    C7 5179   0.269   0.261  10.582 -0.0154 -0.1694  0.2833
  345TMC3    C8 5180   0.429   0.512  10.963 -0.0401 -0.1201 -0.0608
  345TMC3    O1 5181   0.211   0.163  10.539 -0.2527 -0.2133 -1.0167
  345TMC3    O2 5182   0.420   0.609  10.889  0.2662  0.0365 -0.7701
  346MPD2     C 5183   1.108   1.411  14.128  0.2518 -0.0131 -0.2075
  346MPD2    C1 5184   1.152   1.513  14.048 -0.2820 -0.2171 -0.6753
  346MPD2    C2 5185   1.181   1.633  14.114 -0.2871  0.0368  0.2828
  346MPD2    C3 5186   1.186   1.641  14.252 -0.7637  0.3107 -0.1464
  346MPD2    C4 5187   1.155   1.529  14.327 -0.5908  0.5796 -0.8872
  346MPD2    C5 5188   1.117   1.418  14.269 -1.2191  0.2960 -0.5391
  346MPD2     H 5189   1.208   1.721  14.057  0.8774  1.1159  2.5096
  346MPD2    H1 5190   1.154   1.537  14.435 -1.9247  1.8170 -0.9766
  346MPD2    H2 5191   1.092   1.311  14.088  2.5212 -1.3128  2.1527
  346MPD2    H3 5192   1.079   1.328  14.316 -1.2294  0.0869 -0.9537
  346MPD2     N 5193   1.235   1.763  14.310 -0.6152  0.4556  0.6570
  346MPD2    H5 5194   1.242   1.840  14.244 -2.2495 -1.7392 -2.0796
  346MPD2    N1 5195   1.176   1.512  13.910 -0.2756  0.1369 -0.2843
  346MPD2    H7 5196   1.209   1.595  13.863  0.4166 -0.4723 -0.8666
  347TMC3    C1 5197   1.306   1.920  14.473 -0.0431 -0.3431  1.1257
  347TMC3    C2 5198   1.379   1.989  14.378 -0.3265  0.3921  0.2421
  347TMC3    C3 5199   1.457   2.096  14.409  0.2163  0.4761 -0.1943
  347TMC3    C4 5200   1.311   1.959  14.605 -0.1912  0.1368 -0.2172
  347TMC3    C5 5201   1.390   2.063  14.643  0.0732  0.1021 -0.4322
  347TMC3    C6 5202   1.466   2.128  14.546 -0.4630  0.3768  0.1134
  347TMC3     C 5203   1.258   1.785  14.443  0.1522 -0.2178  0.3947
  347TMC3     O 5204   1.248   1.706  14.535  0.4213 -0.3685  0.1337
  347TMC3     H 5205   1.394   1.952  14.278 -2.1651 -0.0142  0.1183
  347TMC3    H1 5206   1.259   1.893  14.674 -3.9652  1.2656 -1.9773
  347TMC3    H2 5207   1.523   2.216  14.574  0.7403 -0.3732  0.0256
  347TMC3    C7 5208   1.462   2.065  14.769  0.1392 -0.2757  0.4298
  347TMC3    C8 5209   1.567   2.125  14.317 -0.7634  0.7192 -0.1192
  347TMC3    O1 5210   1.549   2.147  14.779 -0.0783 -0.3525  0.2213
  347TMC3    O2 5211   1.564   2.062  14.213 -0.1734  0.3137 -0.1850
  348MPD2     C 5212   3.741   0.667  12.085 -0.6236 -0.2564  0.1072
  348MPD2    C1 5213   3.770   0.791  12.140 -0.7322 -0.4832  0.1607
  348MPD2    C2 5214   3.740   0.905  12.066 -1.2135  0.0071 -0.0700
  348MPD2    C3 5215   3.681   0.895  11.942 -0.5478 -0.1925  0.3775
  348MPD2    C4 5216   3.644   0.774  11.897  0.2291  0.3990  0.0498
  348MPD2    C5 5217   3.679   0.661  11.966  0.0427 -0.2622  0.8727
  348MPD2     H 5218   3.766   1.001  12.110 -0.5875 -1.5121  2.8779
  348MPD2    H1 5219   3.590   0.748  11.807  0.9978  0.5182 -0.4511
  348MPD2    H2 5220   3.761   0.576  12.140  1.1766 -0.0260 -0.1397
  348MPD2    H3 5221   3.646   0.563  11.931 -1.7040  0.2254  1.1465
  348MPD2     N 5222   3.655   1.013  11.863 -0.0262  1.0221 -0.6327
  348MPD2    H5 5223   3.684   1.104  11.897  1.1910 -0.1977  1.6312
  348MPD2    N1 5224   3.826   0.800  12.264  0.3303  0.5405 -0.1223
  348MPD2    H7 5225   3.815   0.888  12.315 -2.5131 -0.2882  0.7257
  349TMC3    C1 5226   3.984   0.758  12.432  0.1496  0.0198  0.3535
  349TMC3    C2 5227   4.063   0.668  12.500  0.4297 -0.0290 -0.9598
  349TMC3    C3 5228   4.184   0.714  12.547 -0.0854  0.2641 -0.2610
  349TMC3    C4 5229   4.031   0.888  12.413  0.1986 -0.5198  0.2638
  349TMC3    C5 5230   4.149   0.922  12.469  0.1891  0.1666 -0.3389
  349TMC3    C6 5231   4.233   0.840  12.536  0.1993 -0.6848  0.9559
  349TMC3     C 5232   3.898   0.701  12.326  0.5936  0.3303 -0.5822
  349TMC3     O 5233   3.906   0.583  12.295  0.0899 -0.7104  0.5803
  349TMC3     H 5234   4.044   0.562  12.500  0.5647 -0.0537  0.7581
  349TMC3    H1 5235   3.971   0.963  12.364  1.8493  0.6448  0.0321
  349TMC3    H2 5236   4.324   0.875  12.583  0.4878 -1.5140  1.0108
  349TMC3    C7 5237   4.211   1.035  12.398  0.0530 -0.3238  0.0329
  349TMC3    C8 5238   4.262   0.613  12.610 -0.0151 -0.1560 -0.1433
  349TMC3    O1 5239   4.309   1.082  12.454  0.7179  0.1422 -0.6446
  349TMC3    O2 5240   4.208   0.544  12.690  0.9259  0.4153 -0.1920
  350MPD2     C 5241   3.956   3.622  10.466 -0.3969 -0.3801  0.3254
  350MPD2    C1 5242   3.829   3.554  10.478  0.1510 -0.8049 -0.1399
  350MPD2    C2 5243   3.749   3.602  10.583  0.0046 -0.1170  0.3680
  350MPD2    C3 5244   3.794   3.689  10.681 -0.0037  0.3242 -0.2150
  350MPD2    C4 5245   3.921   3.739  10.662 -0.1319 -0.3693  0.2260
  350MPD2    C5 5246   4.003   3.715  10.553 -0.4917 -0.0201 -0.4602
  350MPD2     H 5247   3.646   3.568  10.591 -0.1692  0.0484 -1.2306
  350MPD2    H1 5248   3.957   3.810  10.736  0.1743  2.4249 -2.6037
  350MPD2    H2 5249   4.024   3.599  10.385 -0.9341  1.2193 -0.5900
  350MPD2    H3 5250   4.108   3.739  10.554 -0.2713 -1.0975  0.9834
  350MPD2     N 5251   3.712   3.727  10.785  0.1145  0.1211 -0.4348
  350MPD2    H5 5252   3.617   3.691  10.784  0.5364 -1.0676  2.7004
  350MPD2    N1 5253   3.782   3.457  10.382  0.6645 -0.0826 -0.4655
  350MPD2    H7 5254   3.684   3.434  10.394  0.5276 -0.6697 -2.8016
  351TMC3    C1 5255   3.767   3.322  10.186 -0.6013  0.6849 -0.3607
  351TMC3    C2 5256   3.807   3.197  10.148  0.5030  0.6539  0.0722
  351TMC3    C3 5257   3.757   3.142  10.038  0.0032  0.2592 -0.6547
  351TMC3    C4 5258   3.684   3.399  10.115  0.0488  0.4413 -0.6555
  351TMC3    C5 5259   3.631   3.343  10.004 -0.0556  0.3182  0.3277
  351TMC3    C6 5260   3.672   3.217   9.965  0.2171  0.6628 -1.0367
  351TMC3     C 5261   3.849   3.379  10.290  0.0395  0.4880  0.0680
  351TMC3     O 5262   3.969   3.374  10.267  0.3913 -0.1826 -0.2550
  351TMC3     H 5263   3.882   3.143  10.204 -0.6675 -1.4638 -0.3941
  351TMC3    H1 5264   3.653   3.491  10.163 -1.1950 -0.7123  0.7590
  351TMC3    H2 5265   3.620   3.175   9.880 -1.5411  0.6008  0.0588
  351TMC3    C7 5266   3.534   3.415   9.922 -0.1991  0.0815 -0.1780
  351TMC3    C8 5267   3.777   3.003   9.999  0.3164  0.0965  0.6928
  351TMC3    O1 5268   3.446   3.485   9.972 -0.5367  0.0914  0.1158
  351TMC3    O2 5269   3.802   2.983   9.880 -0.0507  0.4397  0.7883
  352MPD2     C 5270   2.151   1.010   0.951  0.7594 -0.1086  0.3240
  352MPD2    C1 5271   2.094   0.924   1.033  0.1568 -0.3613 -0.0363
  352MPD2    C2 5272   2.158   0.811   1.076 -0.2109  0.6816 -0.1194
  352MPD2    C3 5273   2.288   0.791   1.030  0.2325 -0.3725 -0.7812
  352MPD2    C4 5274   2.345   0.880   0.942  0.2053  0.1461  0.2437
  352MPD2    C5 5275   2.273   0.986   0.907 -0.0169 -0.7617 -0.2639
  352MPD2     H 5276   2.118   0.744   1.151  0.9809 -1.1916 -1.1499
  352MPD2    H1 5277   2.442   0.861   0.898  0.2067  1.7311 -0.4422
  352MPD2    H2 5278   2.097   1.096   0.914 -1.0454 -1.1299  0.5539
  352MPD2    H3 5279   2.315   1.061   0.840 -2.3990  0.5231 -0.2928
  352MPD2     N 5280   2.352   0.669   1.066  0.1262  0.5290 -0.6726
  352MPD2    H5 5281   2.436   0.645   1.015  0.3134  1.7721 -0.9377
  352MPD2    N1 5282   1.956   0.948   1.058  0.1279  0.5336  1.0757
  352MPD2    H7 5283   1.918   1.038   1.031  1.2006  1.4436  2.6071
  353TMC3    C1 5284   2.412   0.465   1.155 -0.4118  0.0377 -0.2046
  353TMC3    C2 5285   2.437   0.400   1.273  0.4655  0.3402 -0.2874
  353TMC3    C3 5286   2.472   0.269   1.264  0.1135 -0.0421 -0.2169
  353TMC3    C4 5287   2.406   0.406   1.032 -0.5704 -0.9444  0.1082
  353TMC3    C5 5288   2.438   0.275   1.028 -0.2638  0.2040 -0.5548
  353TMC3    C6 5289   2.476   0.210   1.141  0.0876 -0.1603  0.0240
  353TMC3     C 5290   2.318   0.574   1.161 -0.2061  0.6994  0.0232
  353TMC3     O 5291   2.244   0.579   1.260  0.7220 -0.5369 -0.0640
  353TMC3     H 5292   2.438   0.458   1.364  0.3178  1.4856 -1.0221
  353TMC3    H1 5293   2.375   0.444   0.935 -0.6912 -0.0712  0.4956
  353TMC3    H2 5294   2.529   0.117   1.122  0.6439  0.5441 -1.8524
  353TMC3    C7 5295   2.377   0.196   0.925 -0.0228 -0.9392  0.0502
  353TMC3    C8 5296   2.526   0.203   1.385  0.7713 -0.5063  0.4807
  353TMC3    O1 5297   2.307   0.105   0.958 -0.0773  0.3246  0.5886
  353TMC3    O2 5298   2.565   0.273   1.475  0.7410  0.2670  0.5317
  354TMC3    C1 5299   3.705   2.037  13.316  0.6158  0.3803  0.2873
  354TMC3    C2 5300   3.710   2.176  13.336  0.0725  0.0961  0.6803
  354TMC3    C3 5301   3.734   2.250  13.220 -0.0853 -0.4360 -1.0866
  354TMC3    C4 5302   3.728   1.988  13.188  0.6445  0.4351 -0.5537
  354TMC3    C5 5303   3.737   2.062  13.077 -0.2001  0.2181 -0.2236
  354TMC3    C6 5304   3.740   2.198  13.092  0.5025 -0.4149  0.7033
  354TMC3     C 5305   3.698   1.946  13.426 -0.6518  0.1254  0.1341
  354TMC3     O 5306   3.664   1.839  13.388 -0.2570 -0.4619 -0.4302
  354TMC3     H 5307   3.703   2.215  13.437  1.7365  1.0752  0.4066
  354TMC3    H1 5308   3.718   1.881  13.172  1.9981  0.3814 -1.0380
  354TMC3    H2 5309   3.758   2.265  13.009 -0.8673 -0.3689  0.4469
  354TMC3    C7 5310   3.761   1.995  12.950  0.4705 -0.0798  0.7721
  354TMC3    C8 5311   3.743   2.394  13.227  0.0134  0.7610 -0.4527
  354TMC3    O1 5312   3.783   1.874  12.950  0.0080 -0.0136 -0.0447
  354TMC3    O2 5313   3.781   2.448  13.129 -0.1763  0.1575  0.5193
  355MPD2     C 5314   3.197   2.942  11.931 -0.1729  0.4804  0.2243
  355MPD2    C1 5315   3.314   2.922  11.862 -0.4225 -0.1526  0.3951
  355MPD2    C2 5316   3.439   2.900  11.917 -0.2935  0.0858 -0.2041
  355MPD2    C3 5317   3.451   2.914  12.057 -0.3533 -0.5254  0.0144
  355MPD2    C4 5318   3.336   2.952  12.128  0.3990  0.5392  0.8070
  355MPD2    C5 5319   3.212   2.956  12.068  0.8260  0.1196  0.0817
  355MPD2     H 5320   3.522   2.873  11.851  0.4722  1.4714  0.1906
  355MPD2    H1 5321   3.344   2.957  12.236  0.7960 -1.2116  0.8637
  355MPD2    H2 5322   3.093   2.952  11.905 -0.2425 -2.5841 -0.7496
  355MPD2    H3 5323   3.124   2.971  12.130  0.7799  1.0836 -0.2163
  355MPD2     N 5324   3.572   2.909  12.127 -0.3093 -0.0075  0.0220
  355MPD2    H5 5325   3.562   2.900  12.228 -0.0823 -2.3907 -0.1682
  355MPD2    N1 5326   3.283   2.930  11.721 -0.2637  0.2906  0.6998
  355MPD2    H7 5327   3.186   2.913  11.697  0.0720 -0.2653 -0.2905
  356TMC3    C1 5328   3.806   2.942  12.170 -0.4722 -0.6475  0.2376
  356TMC3    C2 5329   3.916   2.985  12.102 -0.0361  1.5665 -0.2250
  356TMC3    C3 5330   4.004   3.062  12.179 -0.3563  0.7163 -0.4045
  356TMC3    C4 5331   3.781   2.982  12.299 -0.2941 -0.2407  0.0931
  356TMC3    C5 5332   3.860   3.075  12.366  0.3639 -0.1384  0.2061
  356TMC3    C6 5333   3.975   3.113  12.302 -0.5559 -0.5540 -0.2314
  356TMC3     C 5334   3.698   2.909  12.075 -0.1352 -0.6737 -0.1510
  356TMC3     O 5335   3.725   2.901  11.955  0.4803 -0.1775 -1.0094
  356TMC3     H 5336   3.951   2.946  12.007  1.3851 -0.2967  1.0555
  356TMC3    H1 5337   3.685   2.955  12.340  0.1041 -0.0699  1.1326
  356TMC3    H2 5338   4.050   3.169  12.356  1.0647 -1.7516 -1.2424
  356TMC3    C7 5339   3.792   3.149  12.471  0.0100 -0.8196  0.1960
  356TMC3    C8 5340   4.139   3.081  12.122  0.1103  0.0037  0.0862
  356TMC3    O1 5341   3.686   3.108  12.518 -0.1291  0.0707 -0.4242
  356TMC3    O2 5342   4.185   2.993  12.052  0.1977 -0.2872 -0.2409
  357MPD2     C 5343   3.405   2.545   0.918 -0.1887 -0.7299 -0.3005
  357MPD2    C1 5344   3.460   2.490   1.029 -0.2558 -0.1896  0.2517
  357MPD2    C2 5345   3.412   2.518   1.158  0.0010  0.3102 -0.2511
  357MPD2    C3 5346   3.283   2.572   1.170 -0.0906 -0.5897  0.0482
  357MPD2    C4 5347   3.221   2.618   1.054  0.1958  0.3553 -0.6816
  357MPD2    C5 5348   3.291   2.615   0.937  0.0588 -0.1889  0.0727
  357MPD2     H 5349   3.461   2.478   1.246 -1.3268  0.5717  0.5994
  357MPD2    H1 5350   3.124   2.667   1.062 -0.5718 -1.1731 -0.5278
  357MPD2    H2 5351   3.446   2.528   0.819  1.6144  0.1026  0.2938
  357MPD2    H3 5352   3.242   2.661   0.851  0.5308 -1.6790 -0.9804
  357MPD2     N 5353   3.199   2.579   1.284  0.0883  0.1767 -0.3639
  357MPD2    H5 5354   3.103   2.606   1.268  0.4341  1.8658  0.3433
  357MPD2    N1 5355   3.561   2.400   1.009 -0.9077  0.1671 -1.5482
  357MPD2    H7 5356   3.592   2.395   0.913  3.1062 -2.0655 -0.1505
  358TMC3    C1 5357   3.745   2.244   1.035 -0.2972 -0.1641 -0.8932
  358TMC3    C2 5358   3.713   2.186   0.919  0.7735  0.0094 -0.6413
  358TMC3    C3 5359   3.803   2.101   0.866 -0.0041 -0.2122 -0.3070
  358TMC3    C4 5360   3.863   2.233   1.101  0.0645 -0.5918  0.9619
  358TMC3    C5 5361   3.964   2.167   1.030  0.1870  0.8268 -0.6285
  358TMC3    C6 5362   3.929   2.097   0.918  0.0732 -0.6111 -0.3621
  358TMC3     C 5363   3.636   2.324   1.097  0.1990 -0.0154 -0.3813
  358TMC3     O 5364   3.639   2.332   1.220 -0.2166 -0.5900  0.1024
  358TMC3     H 5365   3.612   2.189   0.882  0.5279 -2.0321 -0.1341
  358TMC3    H1 5366   3.877   2.297   1.188  2.6201  1.8442 -1.2485
  358TMC3    H2 5367   4.002   2.054   0.851 -0.7543 -0.7600 -1.1728
  358TMC3    C7 5368   4.107   2.206   1.045 -0.5787  0.0722  0.3778
  358TMC3    C8 5369   3.782   2.064   0.727  0.0377 -1.1849  0.3642
  358TMC3    O1 5370   4.180   2.159   0.958 -0.1880  0.3425 -0.0304
  358TMC3    O2 5371   3.866   2.073   0.643 -0.4044  0.2319 -0.5576
  359MPD2     C 5372   2.843   1.559  11.949  0.0712  0.2623  0.8104
  359MPD2    C1 5373   2.891   1.429  11.974 -0.1075 -0.2744  0.1282
  359MPD2    C2 5374   2.812   1.321  11.972  0.2703 -0.5939 -0.7258
  359MPD2    C3 5375   2.678   1.344  11.949  0.3985  0.4688 -0.5021
  359MPD2    C4 5376   2.635   1.469  11.919 -0.1990  0.1315  0.2324
  359MPD2    C5 5377   2.711   1.579  11.923 -0.2871 -0.3790 -0.4148
  359MPD2     H 5378   2.855   1.221  11.976 -0.2197 -0.7041  1.7597
  359MPD2    H1 5379   2.531   1.490  11.894 -0.0161 -0.5959 -1.1460
  359MPD2    H2 5380   2.902   1.650  11.939 -0.7639  0.7828  0.6704
  359MPD2    H3 5381   2.663   1.674  11.898  1.0141  0.3823  0.0001
  359MPD2     N 5382   2.579   1.245  11.949 -0.1102 -0.4679 -0.6370
  359MPD2    H5 5383   2.481   1.267  11.946 -0.7321 -3.1286 -0.0721
  359MPD2    N1 5384   3.027   1.413  11.992 -0.2212 -0.1786  0.0599
  359MPD2    H7 5385   3.059   1.317  11.999  0.9081  0.3484  2.1753
  360TMC3    C1 5386   3.252   1.469  11.999  0.2747  0.1526 -0.3203
  360TMC3    C2 5387   3.348   1.535  12.072  0.1694 -0.9225  0.4237
  360TMC3    C3 5388   3.467   1.563  12.015 -0.9008  0.2529 -0.8468
  360TMC3    C4 5389   3.279   1.421  11.879 -0.1973  0.0708  0.1702
  360TMC3    C5 5390   3.405   1.426  11.830 -0.0085 -0.4336 -0.0868
  360TMC3    C6 5391   3.501   1.503  11.895  0.7660 -0.2546  0.1991
  360TMC3     C 5392   3.116   1.514  12.018  0.0899 -0.4988 -0.0042
  360TMC3     O 5393   3.097   1.629  12.040  0.5693  0.5728  0.0448
  360TMC3     H 5394   3.310   1.587  12.160 -1.2935 -0.9190 -0.2111
  360TMC3    H1 5395   3.198   1.391  11.814 -0.3937  0.3664  0.2751
  360TMC3    H2 5396   3.594   1.519  11.843  0.2123 -1.1460 -1.0653
  360TMC3    C7 5397   3.396   1.456  11.691 -0.3418 -0.4770  0.1282
  360TMC3    C8 5398   3.531   1.687  12.038 -0.1382 -0.4540 -0.2740
  360TMC3    O1 5399   3.479   1.543  11.656  0.0127 -0.1948  0.1177
  360TMC3    O2 5400   3.461   1.776  12.083  0.4203 -0.1142 -0.0146
  361MPD2     C 5401   0.823   0.147  16.584  0.0005  0.2229 -0.1589
  361MPD2    C1 5402   0.802   0.180  16.713  0.2618  0.6399 -0.3807
  361MPD2    C2 5403   0.905   0.156  16.810  0.4158  0.3384 -0.6954
  361MPD2    C3 5404   1.017   0.090  16.780  0.0438 -0.7348 -0.2196
  361MPD2    C4 5405   1.036   0.056  16.643  0.1887 -0.0547  0.3542
  361MPD2    C5 5406   0.939   0.081  16.544  0.4894 -0.0800 -0.1799
  361MPD2     H 5407   0.880   0.174  16.913 -0.5528  1.4589 -1.1279
  361MPD2    H1 5408   1.130   0.014  16.608 -0.5298 -0.9435 -0.5345
  361MPD2    H2 5409   0.751   0.162  16.505 -0.2616 -2.1005 -0.3498
  361MPD2    H3 5410   0.945   0.050  16.440 -0.6232 -1.9888  0.3343
  361MPD2     N 5411   1.116   0.041  16.866  0.8720 -0.7081  0.6024
  361MPD2    H5 5412   1.192   4.709  16.828 -0.2856 -3.0095  1.7122
  361MPD2    N1 5413   0.678   0.244  16.744 -0.1927  0.0068 -0.3535
  361MPD2    H7 5414   0.677   0.288  16.836  0.2398  0.0794 -0.3817
  362TMC3    C1 5415   0.459   0.327  16.716 -0.3091 -0.1144  0.3362
  362TMC3    C2 5416   0.471   0.375  16.845  0.1711  0.1917 -0.0831
  362TMC3    C3 5417   0.387   0.474  16.883 -0.5439  0.4730 -0.5450
  362TMC3    C4 5418   0.386   0.396  16.623 -0.0305  0.7450 -0.0933
  362TMC3    C5 5419   0.314   0.501  16.660 -0.2251  0.4013  0.6741
  362TMC3    C6 5420   0.305   0.533  16.792 -0.0928  1.3163 -0.1198
  362TMC3     C 5421   0.567   0.257  16.659  0.0442 -0.2557 -0.2363
  362TMC3     O 5422   0.531   0.190  16.558  0.1526  0.0893  0.6719
  362TMC3     H 5423   0.533   0.336  16.925 -1.3783  0.0202  1.0268
  362TMC3    H1 5424   0.394   0.366  16.519  1.3395  1.5309 -0.2220
  362TMC3    H2 5425   0.240   0.616  16.817 -0.6980  1.3996 -1.9829
  362TMC3    C7 5426   0.220   0.563  16.573 -0.2616 -0.2405  0.2464
  362TMC3    C8 5427   0.386   0.523  17.021  0.5982  0.0892 -0.3645
  362TMC3    O1 5428   0.203   0.678  16.613 -0.6569 -0.6692 -0.0761
  362TMC3    O2 5429   0.472   0.488  17.094  0.1352 -0.6989  0.3767
  363TMC3    C1 5430   3.916   3.643   9.961 -0.2071 -0.3538  0.0051
  363TMC3    C2 5431   4.046   3.640   9.998  0.7887 -0.7807  0.0424
  363TMC3    C3 5432   4.138   3.602   9.905 -0.2538  1.0234  0.1551
  363TMC3    C4 5433   3.874   3.577   9.847  0.0221 -0.9124 -0.3270
  363TMC3    C5 5434   3.965   3.529   9.763  0.2621 -0.1774  0.1089
  363TMC3    C6 5435   4.099   3.550   9.781  0.2063 -0.2043  0.1983
  363TMC3     C 5436   3.822   3.727  10.024 -0.3183  0.3724 -0.0146
  363TMC3     O 5437   3.707   3.720   9.971  0.9652 -0.8013  0.8242
  363TMC3     H 5438   4.084   3.697  10.082  2.2915 -1.2157 -0.3453
  363TMC3    H1 5439   3.770   3.565   9.819  0.0453 -1.3295 -0.2329
  363TMC3    H2 5440   4.167   3.489   9.722  0.8173  0.1368  0.5516
  363TMC3    C7 5441   3.918   3.409   9.701  0.3078  0.3517 -0.2804
  363TMC3    C8 5442   4.274   3.569   9.949  0.1576  0.8370  0.5457
  363TMC3    O1 5443   3.841   3.337   9.757 -0.0994 -0.2389  0.0689
  363TMC3    O2 5444   4.347   3.651   9.994  0.3178 -0.6456  0.1704
  364MPD2     C 5445   2.472   2.658  10.274  1.0064  0.0053  0.3698
  364MPD2    C1 5446   2.600   2.643  10.230 -0.0053  0.4608  0.2966
  364MPD2    C2 5447   2.653   2.517  10.222 -0.2506 -0.8576 -0.7518
  364MPD2    C3 5448   2.579   2.409  10.270  0.0157 -0.7155  0.2412
  364MPD2    C4 5449   2.454   2.426  10.320  0.2157 -0.5798  0.2729
  364MPD2    C5 5450   2.398   2.551  10.313  0.5133  0.1570  0.0494
  364MPD2     H 5451   2.754   2.513  10.182  0.0019 -1.4689 -0.0659
  364MPD2    H1 5452   2.401   2.350  10.377 -0.1883 -2.1300 -2.1492
  364MPD2    H2 5453   2.422   2.753  10.282 -0.0446 -0.3511 -1.8725
  364MPD2    H3 5454   2.296   2.563  10.347 -0.1402 -2.5485 -0.9761
  364MPD2     N 5455   2.638   2.279  10.275  0.1413 -0.3066  0.2064
  364MPD2    H5 5456   2.593   2.212  10.336  0.5138 -1.9749 -1.3656
  364MPD2    N1 5457   2.684   2.751  10.190 -0.3839  0.1389  0.5436
  364MPD2    H7 5458   2.763   2.721  10.135  1.0892  3.0205  1.1015
  365TMC3    C1 5459   2.751   2.968  10.141  0.1021  0.1092  0.6195
  365TMC3    C2 5460   2.827   2.919  10.036  0.0132 -0.2015 -0.3857
  365TMC3    C3 5461   2.943   2.980  10.000  0.5096 -0.9108  0.6008
  365TMC3    C4 5462   2.800   3.065  10.224  0.2479 -0.1057 -0.1392
  365TMC3    C5 5463   2.922   3.114  10.187 -0.6449  0.5572 -0.7669
  365TMC3    C6 5464   2.999   3.076  10.079  0.7853 -0.1253 -0.1066
  365TMC3     C 5465   2.657   2.876  10.215  0.0678 -1.0120 -0.7041
  365TMC3     O 5466   2.576   2.924  10.294 -0.0116  0.6673 -0.6242
  365TMC3     H 5467   2.781   2.854   9.963  0.2679 -0.3198 -0.4439
  365TMC3    H1 5468   2.742   3.116  10.299  0.8092 -0.1360  0.3130
  365TMC3    H2 5469   3.100   3.113  10.068  1.6987 -2.0637  1.9116
  365TMC3    C7 5470   3.011   3.151  10.292  0.6696 -0.4603  0.4543
  365TMC3    C8 5471   3.021   2.938   9.888  0.2229 -0.1420 -0.1017
  365TMC3    O1 5472   3.103   3.237  10.284 -0.1961 -0.6367 -0.3864
  365TMC3    O2 5473   3.084   3.027   9.845  0.8155  0.1782 -0.7250
  366MPD2     C 5474   1.256   3.040  15.499  0.1496  0.4825  0.4317
  366MPD2    C1 5475   1.225   3.139  15.413 -0.2595 -0.1476 -0.2836
  366MPD2    C2 5476   1.327   3.190  15.341 -0.4013 -0.2850  0.6481
  366MPD2    C3 5477   1.455   3.137  15.348 -0.2574  0.5071 -0.4153
  366MPD2    C4 5478   1.481   3.017  15.413  0.0721  0.5658 -0.2362
  366MPD2    C5 5479   1.378   2.975  15.497  0.5368 -0.4899 -0.3303
  366MPD2     H 5480   1.314   3.281  15.283 -0.1897  0.2834  1.4990
  366MPD2    H1 5481   1.580   2.974  15.415 -1.2347 -2.3849  2.0035
  366MPD2    H2 5482   1.183   3.000  15.568 -0.5040 -0.3403 -0.7301
  366MPD2    H3 5483   1.404   2.895  15.565  1.3292  1.1459  1.3031
  366MPD2     N 5484   1.556   3.205  15.270  0.2080 -0.4984 -0.1382
  366MPD2    H5 5485   1.520   3.275  15.206 -0.1400  0.8553  1.5330
  366MPD2    N1 5486   1.114   3.212  15.433  0.4951 -0.2943 -0.1669
  366MPD2    H7 5487   1.072   3.194  15.524  1.1701  0.5670  0.3103
  367TMC3    C1 5488   1.023   3.425  15.427  0.2940 -0.1813  0.7403
  367TMC3    C2 5489   1.085   3.465  15.545  0.2289 -0.0725 -0.3571
  367TMC3    C3 5490   1.062   3.586  15.596 -0.0650 -0.3419 -0.4505
  367TMC3    C4 5491   0.942   3.508  15.366  0.6412  0.0909 -0.3440
  367TMC3    C5 5492   0.921   3.634  15.421 -0.5880 -0.1661  0.3414
  367TMC3    C6 5493   0.979   3.680  15.537  0.3406  0.1776 -0.2763
  367TMC3     C 5494   1.082   3.318  15.351 -0.5109  0.1036  0.1683
  367TMC3     O 5495   1.103   3.334  15.233 -0.3063  0.0161 -0.0362
  367TMC3     H 5496   1.173   3.408  15.573  0.6457  1.5731  1.7608
  367TMC3    H1 5497   0.898   3.481  15.271 -0.1640 -0.9671  0.3258
  367TMC3    H2 5498   0.960   3.782  15.568  0.9278  0.3316 -0.4309
  367TMC3    C7 5499   0.845   3.738  15.344 -0.0038  0.1875 -0.3795
  367TMC3    C8 5500   1.171   3.650  15.671  0.0718  0.1087  0.3829
  367TMC3    O1 5501   0.852   3.854  15.386 -0.0917  0.0179 -0.3099
  367TMC3    O2 5502   1.264   3.580  15.706  0.3701 -0.3384 -0.1921
  368MPD2     C 5503   2.544   0.841  13.450 -0.4255 -0.6214 -0.5362
  368MPD2    C1 5504   2.522   0.900  13.325 -0.0224  0.0789  0.5909
  368MPD2    C2 5505   2.636   0.941  13.251 -1.1431 -0.5820 -0.2149
  368MPD2    C3 5506   2.763   0.916  13.299  0.5622 -0.1408  0.2833
  368MPD2    C4 5507   2.774   0.852  13.421 -0.0000 -0.2720  0.0348
  368MPD2    C5 5508   2.669   0.822  13.494  0.5881 -0.7641 -0.2512
  368MPD2     H 5509   2.629   0.971  13.148 -1.1872 -1.8259 -0.5756
  368MPD2    H1 5510   2.870   0.819  13.461 -0.2965 -0.7697  0.3356
  368MPD2    H2 5511   2.459   0.800  13.503  0.4041  0.7776  1.8878
  368MPD2    H3 5512   2.688   0.764  13.584  0.1986  1.3831  1.2200
  368MPD2     N 5513   2.879   0.932  13.218  0.0207 -0.8625  0.8113
  368MPD2    H5 5514   2.961   0.889  13.259  1.4588  0.3204 -0.8436
  368MPD2    N1 5515   2.386   0.907  13.281 -0.2943 -0.1208 -0.3837
  368MPD2    H7 5516   2.314   0.856  13.331 -0.2231  0.0089 -0.1445
  369TMC3    C1 5517   2.215   0.980  13.141 -0.0988  0.2464 -0.1183
  369TMC3    C2 5518   2.176   1.012  13.014 -0.0619  0.2209 -0.1598
  369TMC3    C3 5519   2.044   1.018  12.983 -0.3264 -0.1870  0.4895
  369TMC3    C4 5520   2.120   0.972  13.238  0.7459 -1.0426 -0.1127
  369TMC3    C5 5521   1.985   0.996  13.210  0.2868  0.7969  0.6914
  369TMC3    C6 5522   1.944   1.026  13.077  0.2920 -0.1720 -0.2328
  369TMC3     C 5523   2.355   0.988  13.178 -0.2376  0.3914 -0.3590
  369TMC3     O 5524   2.425   1.055  13.110  0.3106 -0.2864  0.1860
  369TMC3     H 5525   2.257   1.014  12.942  0.7416  2.3380  0.8238
  369TMC3    H1 5526   2.147   0.958  13.342  1.7232 -1.6497 -0.4420
  369TMC3    H2 5527   1.841   1.039  13.046  0.1373  0.5205  0.5863
  369TMC3    C7 5528   1.891   0.989  13.321  0.7642  0.2083  0.2902
  369TMC3    C8 5529   2.009   1.084  12.854  0.0133 -0.1317 -0.9926
  369TMC3    O1 5530   1.942   0.970  13.432 -0.8018  0.2127 -0.7582
  369TMC3    O2 5531   1.901   1.063  12.804 -0.3920  0.4969 -0.4063
  370TMC3    C1 5532   1.805   1.215  16.336 -0.1631  0.7608 -0.2136
  370TMC3    C2 5533   1.746   1.137  16.435  0.4146  0.3103  0.4645
  370TMC3    C3 5534   1.648   1.052  16.394  0.4347 -0.3043  0.4024
  370TMC3    C4 5535   1.772   1.213  16.209  0.2903 -0.4591 -0.3313
  370TMC3    C5 5536   1.673   1.125  16.172  0.0299  0.4933  0.1344
  370TMC3    C6 5537   1.613   1.040  16.266  0.0092  0.2040 -0.1269
  370TMC3     C 5538   1.896   1.310  16.387 -0.1206  0.3547  1.1088
  370TMC3     O 5539   1.931   1.283  16.501 -0.1292  0.0231  0.2203
  370TMC3     H 5540   1.784   1.126  16.536  0.5922 -0.0824  0.3585
  370TMC3    H1 5541   1.820   1.258  16.123 -2.7175  0.5691 -1.4415
  370TMC3    H2 5542   1.536   0.970  16.236 -0.5965  0.9056 -0.2173
  370TMC3    C7 5543   1.683   1.082  16.031 -0.0171 -0.3090  0.8192
  370TMC3    C8 5544   1.572   0.973  16.494  0.1149  0.2387  0.0467
  370TMC3    O1 5545   1.694   1.173  15.951  0.2777  0.1266 -0.7480
  370TMC3    O2 5546   1.506   0.876  16.458  0.3470  0.2545 -0.5479
  371TMC3    C1 5547   2.917   4.125  15.708  0.2267 -0.7200  0.2868
  371TMC3    C2 5548   2.782   4.137  15.718 -0.0400  0.0041 -0.5840
  371TMC3    C3 5549   2.727   4.263  15.698 -0.6795  0.2963  0.0476
  371TMC3    C4 5550   2.994   4.235  15.679  0.5388  0.8507 -0.2030
  371TMC3    C5 5551   2.939   4.360  15.670  0.0113 -0.7410 -0.4845
  371TMC3    C6 5552   2.802   4.377  15.677 -0.2908  0.4991  0.5883
  371TMC3     C 5553   2.988   4.003  15.731 -0.8162 -0.4504 -0.1110
  371TMC3     O 5554   3.108   3.998  15.720  0.3052 -0.7726 -0.2629
  371TMC3     H 5555   2.714   4.059  15.749 -0.2881  0.8598  1.0700
  371TMC3    H1 5556   3.101   4.221  15.675 -0.0184 -3.4254 -0.6588
  371TMC3    H2 5557   2.759   4.465  15.631 -0.3437 -0.6012 -1.4836
  371TMC3    C7 5558   3.011   4.468  15.594 -0.1872  0.1596  0.0394
  371TMC3    C8 5559   2.589   4.267  15.671  0.0315 -0.3924  0.1081
  371TMC3    O1 5560   2.985   4.584  15.627  0.3275  0.1962 -0.2473
  371TMC3    O2 5561   2.534   4.163  15.634 -1.0979 -0.8394 -0.2903
  372MPD2     C 5562   2.508   1.121  13.576 -0.3733  0.0307 -0.2589
  372MPD2    C1 5563   2.587   1.081  13.682  0.0370  0.2594 -0.2967
  372MPD2    C2 5564   2.545   0.996  13.779 -0.1121  0.0440 -0.0553
  372MPD2    C3 5565   2.422   0.942  13.764  0.2969  0.0140 -0.4782
  372MPD2    C4 5566   2.331   0.994  13.672 -0.0799 -0.1447  0.8368
  372MPD2    C5 5567   2.376   1.085  13.580 -0.2206  0.4979  0.4092
  372MPD2     H 5568   2.619   0.974  13.855 -0.2338 -0.2280 -0.0158
  372MPD2    H1 5569   2.226   0.972  13.662 -0.3218  1.4272 -0.0439
  372MPD2    H2 5570   2.548   1.184  13.497  0.6604 -2.6277 -1.8818
  372MPD2    H3 5571   2.309   1.141  13.516  0.1129  0.3009 -0.1058
  372MPD2     N 5572   2.380   0.835  13.851  0.3827  0.3021 -0.0022
  372MPD2    H5 5573   2.434   0.814  13.934  1.1670 -2.1810 -1.1340
  372MPD2    N1 5574   2.719   1.103  13.701 -0.1025 -0.4286 -1.2064
  372MPD2    H7 5575   2.760   1.064  13.785  0.0386  3.0189  0.3308
  373TMC3    C1 5576   2.256   0.643  13.914 -0.0137 -0.4123  0.6143
  373TMC3    C2 5577   2.308   0.665  14.037 -0.3290  0.1559 -0.4536
  373TMC3    C3 5578   2.348   0.552  14.100  0.0421  0.1119 -0.4387
  373TMC3    C4 5579   2.259   0.521  13.847 -0.0130 -0.1876 -0.3226
  373TMC3    C5 5580   2.303   0.410  13.916  0.0316  0.5042  0.2289
  373TMC3    C6 5581   2.350   0.430  14.048 -0.2760  0.2273  0.2586
  373TMC3     C 5582   2.265   0.759  13.825 -0.3776  0.1403  0.2828
  373TMC3     O 5583   2.201   0.749  13.719  0.3175  0.0612 -0.5476
  373TMC3     H 5584   2.314   0.766  14.074  3.8895 -0.5589  0.8221
  373TMC3    H1 5585   2.226   0.508  13.744 -0.1880 -0.5834 -0.2151
  373TMC3    H2 5586   2.386   0.350  14.111  0.9329  0.9318  0.4518
  373TMC3    C7 5587   2.395   0.335  13.833  0.3810 -1.3191  0.4155
  373TMC3    C8 5588   2.416   0.567  14.224 -0.3033 -0.4624 -0.4129
  373TMC3    O1 5589   2.344   0.279  13.737 -0.1943 -0.6312  0.6962
  373TMC3    O2 5590   2.516   0.500  14.248  0.1161 -0.0780 -0.0363
  374TMC3    C1 5591   2.879   0.954   9.820  0.7167 -0.2850  0.4879
  374TMC3    C2 5592   2.987   1.030   9.834  0.2160 -0.0887 -0.1541
  374TMC3    C3 5593   3.001   1.121   9.732  0.2602 -0.3197 -0.0304
  374TMC3    C4 5594   2.787   0.964   9.715 -0.5890 -0.3754 -0.5999
  374TMC3    C5 5595   2.804   1.061   9.621  0.2954 -0.0295  0.2480
  374TMC3    C6 5596   2.911   1.140   9.630 -0.2289  0.0875 -0.6301
  374TMC3     C 5597   2.861   0.838   9.907  0.2385  0.6692  0.1596
  374TMC3     O 5598   2.963   0.789   9.949 -0.5451  0.2239 -0.4194
  374TMC3     H 5599   3.049   1.033   9.923  0.7416  2.1027 -0.6079
  374TMC3    H1 5600   2.703   0.895   9.711  0.3139 -1.4621 -1.2113
  374TMC3    H2 5601   2.937   1.216   9.558 -1.8247  1.6711  0.4691
  374TMC3    C7 5602   2.725   1.050   9.495 -0.2419 -0.0016 -0.1908
  374TMC3    C8 5603   3.112   1.215   9.740 -0.2562 -0.4924 -0.6096
  374TMC3    O1 5604   2.698   0.934   9.458 -0.7198  0.1490 -0.4333
  374TMC3    O2 5605   3.107   1.312   9.667  0.2479  0.3423  0.2778
  375MPD2     C 5606   3.112   2.062  16.779 -0.5189  0.2811 -0.4199
  375MPD2    C1 5607   3.031   1.965  16.728 -0.5353 -0.2207 -0.0779
  375MPD2    C2 5608   3.087   1.867  16.638  0.2678 -0.1110  0.0240
  375MPD2    C3 5609   3.209   1.888  16.580  0.4841 -0.1905  0.1124
  375MPD2    C4 5610   3.280   2.000  16.621  0.0405 -0.2268  0.8272
  375MPD2    C5 5611   3.233   2.081  16.718 -0.3870 -0.0041 -0.4772
  375MPD2     H 5612   3.033   1.776  16.616  1.3926 -0.8687  0.3663
  375MPD2    H1 5613   3.377   2.020  16.578  0.4567  0.4581  2.0553
  375MPD2    H2 5614   3.074   2.130  16.854  1.6904 -0.1315  1.0828
  375MPD2    H3 5615   3.286   2.172  16.744 -3.3023  1.5388  0.1096
  375MPD2     N 5616   3.265   1.800  16.482  0.0494 -0.3785  0.5810
  375MPD2    H5 5617   3.343   1.844  16.435 -0.9303  1.3122  0.5186
  375MPD2    N1 5618   2.902   1.930  16.780  1.4396  0.1551  0.2434
  375MPD2    H7 5619   2.867   1.840  16.748  1.1038 -0.2504  1.7632
  376TMC3    C1 5620   3.292   1.628  16.328 -0.3012  0.3542  0.0751
  376TMC3    C2 5621   3.424   1.638  16.317 -0.1102 -0.2517 -0.0194
  376TMC3    C3 5622   3.488   1.538  16.250 -0.4072 -0.3150  0.4251
  376TMC3    C4 5623   3.219   1.526  16.270  0.4541  0.2893 -0.1594
  376TMC3    C5 5624   3.286   1.434  16.195  0.4137  1.1187  0.2779
  376TMC3    C6 5625   3.423   1.430  16.204  0.2551 -0.2356 -0.2383
  376TMC3     C 5626   3.217   1.682  16.437  0.5293 -0.1880 -0.3373
  376TMC3     O 5627   3.131   1.608  16.491  0.0703 -0.5405  0.0821
  376TMC3     H 5628   3.478   1.718  16.366  0.8309  0.0158 -1.5159
  376TMC3    H1 5629   3.111   1.530  16.262  0.3513 -1.0714  0.4930
  376TMC3    H2 5630   3.478   1.362  16.140  0.5318 -0.2784  0.0415
  376TMC3    C7 5631   3.237   1.426  16.057 -0.9999 -0.1761  0.0061
  376TMC3    C8 5632   3.632   1.540  16.242 -0.1422  0.2802 -0.1853
  376TMC3    O1 5633   3.196   1.530  16.014  0.3269 -0.1766 -0.7487
  376TMC3    O2 5634   3.672   1.649  16.207 -0.4724 -0.6386  0.1930
  377MPD2     C 5635   1.172   1.441  13.007  0.8885 -0.5527 -0.3702
  377MPD2    C1 5636   1.217   1.318  12.969 -0.8729 -0.0955  0.2012
  377MPD2    C2 5637   1.175   1.209  13.042 -0.4312 -0.2725 -0.6277
  377MPD2    C3 5638   1.105   1.220  13.161 -0.2526 -0.3462 -0.1562
  377MPD2    C4 5639   1.080   1.347  13.206 -0.3048  0.1430 -0.1677
  377MPD2    C5 5640   1.103   1.456  13.123 -0.2319 -0.4358  1.0219
  377MPD2     H 5641   1.201   1.109  13.011 -0.1386  0.1176 -1.6443
  377MPD2    H1 5642   1.037   1.362  13.305  0.7874  0.8419  0.2042
  377MPD2    H2 5643   1.189   1.529  12.946  0.7037  0.3063  0.8210
  377MPD2    H3 5644   1.082   1.555  13.161  3.9235  0.6877  0.4065
  377MPD2     N 5645   1.067   1.110  13.239  0.0058 -0.4343  0.1976
  377MPD2    H5 5646   1.037   1.144  13.330  0.6081  0.0380  0.2232
  377MPD2    N1 5647   1.277   1.307  12.841 -0.0708  0.2246  0.6308
  377MPD2    H7 5648   1.268   1.384  12.776 -0.2506 -0.6909 -0.4504
  378TMC3    C1 5649   1.346   1.162  12.455 -0.0121  0.3009  0.2005
  378TMC3    C2 5650   1.316   1.214  12.575 -0.0157  0.2241 -0.1981
  378TMC3    C3 5651   1.409   1.203  12.674  0.7581  0.0576 -0.3086
  378TMC3    C4 5652   1.464   1.098  12.426  0.3602 -0.2702  0.2610
  378TMC3    C5 5653   1.560   1.094  12.526  0.2134 -0.1153 -0.9089
  378TMC3    C6 5654   1.535   1.152  12.648 -0.3973 -0.1071 -0.3487
  378TMC3     C 5655   1.251   1.160  12.348 -0.6689 -0.4005  0.1193
  378TMC3     O 5656   1.285   1.137  12.231  0.2255  0.0352  0.2363
  378TMC3     H 5657   1.221   1.260  12.596 -1.0710 -0.7964 -2.8323
  378TMC3    H1 5658   1.479   1.064  12.325  0.5778  1.3000 -0.2299
  378TMC3    H2 5659   1.602   1.132  12.730 -1.8583 -1.9548  0.3708
  378TMC3    C7 5660   1.698   1.067  12.488 -0.6456 -0.4011  0.4276
  378TMC3    C8 5661   1.366   1.204  12.814  0.6831  0.9689  0.1666
  378TMC3    O1 5662   1.779   1.162  12.500  0.0380  0.1704  0.0687
  378TMC3    O2 5663   1.404   1.109  12.881 -0.1188  0.4559  0.0186
  379MPD2     C 5664   2.505   3.836  16.096 -0.6935  0.6480 -0.5786
  379MPD2    C1 5665   2.372   3.797  16.136 -0.7836  0.0820  0.8691
  379MPD2    C2 5666   2.355   3.741  16.260 -0.2099 -0.0240  0.2189
  379MPD2    C3 5667   2.459   3.714  16.337  0.4752  0.0652  0.6546
  379MPD2    C4 5668   2.586   3.767  16.306  0.3056 -0.0609  0.0018
  379MPD2    C5 5669   2.609   3.819  16.183 -0.3435 -0.0022 -0.5248
  379MPD2     H 5670   2.256   3.712  16.291  0.9545 -2.8290  1.2943
  379MPD2    H1 5671   2.674   3.762  16.369  0.2889  2.8196  0.2110
  379MPD2    H2 5672   2.512   3.864  15.991  0.2424  3.2915  0.1909
  379MPD2    H3 5673   2.713   3.836  16.159 -0.4761  0.3450 -0.8563
  379MPD2     N 5674   2.456   3.635  16.455  0.7142 -0.4910 -0.0863
  379MPD2    H5 5675   2.536   3.627  16.517 -0.5089  0.3282  1.5852
  379MPD2    N1 5676   2.261   3.817  16.047 -0.1794  0.7456 -0.7173
  379MPD2    H7 5677   2.291   3.838  15.952 -0.7100  0.9000 -0.8517
  380TMC3    C1 5678   2.047   3.817  15.950 -0.5855  1.1104  0.7473
  380TMC3    C2 5679   2.102   3.785  15.831  0.1505 -0.2493  0.3010
  380TMC3    C3 5680   2.023   3.791  15.723 -0.3849 -0.2569 -1.2661
  380TMC3    C4 5681   1.930   3.876  15.963 -0.3335 -0.4004  0.3331
  380TMC3    C5 5682   1.859   3.885  15.847 -0.2069 -0.5206 -0.1142
  380TMC3    C6 5683   1.894   3.839  15.721 -0.0197  1.1354  0.1324
  380TMC3     C 5684   2.127   3.823  16.074  0.0574 -0.3617  0.6243
  380TMC3     O 5685   2.072   3.830  16.184 -0.1142  0.6274 -0.7871
  380TMC3     H 5686   2.200   3.738  15.821  0.1506 -0.2888  0.4851
  380TMC3    H1 5687   1.885   3.907  16.056 -1.6401 -0.3346 -0.3213
  380TMC3    H2 5688   1.835   3.867  15.635 -0.2411  2.3801  0.6945
  380TMC3    C7 5689   1.737   3.964  15.845 -0.1917 -0.0043  0.5130
  380TMC3    C8 5690   2.100   3.800  15.599  0.2268  0.2690 -0.3994
  380TMC3    O1 5691   1.720   4.059  15.924  0.0628  0.6006  0.1149
  380TMC3    O2 5692   2.219   3.818  15.597 -0.4068 -0.3621 -0.3453
  381TMC3    C1 5693   1.384   0.589  16.257  0.1186 -0.4264 -0.5758
  381TMC3    C2 5694   1.504   0.650  16.234 -0.1982  0.2173 -0.3491
  381TMC3    C3 5695   1.617   0.595  16.303 -0.1197 -0.1108  0.2997
  381TMC3    C4 5696   1.382   0.484  16.342  0.9722  0.1479  0.6832
  381TMC3    C5 5697   1.496   0.427  16.396  0.6387 -0.0447 -0.4452
  381TMC3    C6 5698   1.614   0.483  16.372  0.2561 -0.3564 -0.6923
  381TMC3     C 5699   1.267   0.637  16.182 -0.5852  0.2643 -0.3222
  381TMC3     O 5700   1.280   0.748  16.135  0.3967  0.0578  0.6378
  381TMC3     H 5701   1.503   0.732  16.164  4.0303 -0.6430 -1.4684
  381TMC3    H1 5702   1.284   0.440  16.354  0.9638 -0.2314 -0.6988
  381TMC3    H2 5703   1.704   0.454  16.427  1.0718 -2.0777 -2.9314
  381TMC3    C7 5704   1.470   0.335  16.508  0.1197  0.1284  0.5159
  381TMC3    C8 5705   1.731   0.684  16.311  0.0082 -0.0224  0.3351
  381TMC3    O1 5706   1.558   0.250  16.516 -0.2575  0.2167 -0.1618
  381TMC3    O2 5707   1.725   0.767  16.221  0.1325  0.1716  0.3336
  382MPD2     C 5708   0.542   2.934  16.602  0.3232 -0.1137  0.7806
  382MPD2    C1 5709   0.597   2.948  16.731  0.2781  0.0560 -0.4705
  382MPD2    C2 5710   0.638   2.835  16.788 -0.0338  0.0458 -0.1464
  382MPD2    C3 5711   0.615   2.705  16.742 -0.5727 -0.2606  0.1297
  382MPD2    C4 5712   0.558   2.688  16.617  0.2053 -0.3474  0.0400
  382MPD2    C5 5713   0.522   2.806  16.549 -0.2435  0.1878 -0.1220
  382MPD2     H 5714   0.687   2.845  16.884 -2.8161  0.8317  1.2011
  382MPD2    H1 5715   0.543   2.591  16.572 -2.0706  0.2781 -0.5577
  382MPD2    H2 5716   0.511   3.021  16.546  1.4857  0.3252  0.8023
  382MPD2    H3 5717   0.479   2.801  16.450  0.3771 -2.7170 -0.2648
  382MPD2     N 5718   0.643   2.589  16.820  0.1067  0.4867  0.5146
  382MPD2    H5 5719   0.620   2.500  16.778 -1.1567 -0.4101  3.0890
  382MPD2    N1 5720   0.607   3.065  16.804  0.8015 -0.5781  0.7357
  382MPD2    H7 5721   0.655   3.063  16.893 -0.8682 -0.5301  1.6331
  383TMC3    C1 5722   0.725   2.458  17.006  0.4640 -0.0776  0.1949
  383TMC3    C2 5723   0.626   2.370  17.006  0.1939 -0.1936 -0.0864
  383TMC3    C3 5724   0.612   2.271  17.096 -0.7395  0.1730  0.1517
  383TMC3    C4 5725   0.817   2.453  17.103 -0.1789  0.2284 -0.1378
  383TMC3    C5 5726   0.808   2.349  17.195  0.2614  0.1809  0.1139
  383TMC3    C6 5727   0.707   2.256  17.192 -0.5278  0.8539 -0.1569
  383TMC3     C 5728   0.720   2.591  16.933 -0.6238  0.3749  0.6779
  383TMC3     O 5729   0.803   2.677  16.968  0.0699 -0.1230  0.5372
  383TMC3     H 5730   0.554   2.376  16.925 -1.4173  0.5314  1.3805
  383TMC3    H1 5731   0.901   2.523  17.100 -2.1487  2.5681 -0.8557
  383TMC3    H2 5732   0.701   2.177  17.266  0.8575  0.6148 -0.3029
  383TMC3    C7 5733   0.869   2.369  17.324  0.3170 -0.3923  0.7872
  383TMC3    C8 5734   0.489   2.208  17.100  0.2493  0.1755 -0.1390
  383TMC3    O1 5735   0.808   2.326  17.421  0.1165 -0.0697 -0.1021
  383TMC3    O2 5736   0.417   2.238  17.007  0.8940 -1.0864  0.2067
  384MPD2     C 5737   2.219   4.003  11.704  0.0513  0.3630  0.0352
  384MPD2    C1 5738   2.299   3.986  11.820 -1.3852  0.1834 -0.2680
  384MPD2    C2 5739   2.401   3.890  11.818  0.5393 -0.6033  0.1673
  384MPD2    C3 5740   2.414   3.803  11.710  0.4220 -0.8950  0.1075
  384MPD2    C4 5741   2.319   3.806  11.610  0.2739  0.2528 -0.5492
  384MPD2    C5 5742   2.232   3.909  11.602  0.9844 -0.9455  0.7917
  384MPD2     H 5743   2.461   3.881  11.908 -1.7963  0.5306  1.8673
  384MPD2    H1 5744   2.328   3.739  11.526  1.3440  0.4776 -0.6065
  384MPD2    H2 5745   2.145   4.082  11.695 -0.9650 -0.7826 -1.7393
  384MPD2    H3 5746   2.172   3.914  11.512  1.1100 -3.4632  0.5672
  384MPD2     N 5747   2.530   3.720  11.710  0.2601  0.7333 -0.8655
  384MPD2    H5 5748   2.585   3.728  11.794  0.2281  1.8074 -0.9415
  384MPD2    N1 5749   2.284   4.064  11.935 -0.3827  0.0908  0.2785
  384MPD2    H7 5750   2.345   4.026  12.007  1.9450  1.9616 -0.6980
  385TMC3    C1 5751   2.700   3.583  11.646 -0.6016  0.1771  0.1223
  385TMC3    C2 5752   2.673   3.452  11.653  0.6755 -0.6281 -0.4367
  385TMC3    C3 5753   2.710   3.380  11.769 -0.9198  0.7101  0.4868
  385TMC3    C4 5754   2.759   3.640  11.754  0.3217 -0.1294 -0.1743
  385TMC3    C5 5755   2.778   3.577  11.875  0.6389  0.0121  0.4294
  385TMC3    C6 5756   2.764   3.441  11.876 -0.4346 -0.1080  0.1433
  385TMC3     C 5757   2.582   3.659  11.603  0.3842 -0.8625 -0.0654
  385TMC3     O 5758   2.516   3.611  11.508 -0.9707  0.0033  0.2791
  385TMC3     H 5759   2.615   3.412  11.571  1.3408  0.4745 -1.4397
  385TMC3    H1 5760   2.786   3.745  11.747  0.3610 -0.0538  1.0793
  385TMC3    H2 5761   2.781   3.379  11.964  0.2420 -1.5836 -1.0216
  385TMC3    C7 5762   2.754   3.660  11.990  0.1742  0.1062 -0.7820
  385TMC3    C8 5763   2.650   3.249  11.788 -0.9080  0.2128 -0.7233
  385TMC3    O1 5764   2.704   3.768  11.962 -0.1004  0.3474  0.4535
  385TMC3    O2 5765   2.613   3.221  11.900 -0.0969 -0.0772 -0.6032
  386TMC3    C1 5766   2.586   0.942  11.195 -0.0791 -0.0607 -0.5323
  386TMC3    C2 5767   2.549   0.909  11.074 -0.0987 -0.6521  0.2654
  386TMC3    C3 5768   2.417   0.935  11.042  0.3683  0.0117  0.9090
  386TMC3    C4 5769   2.506   0.969  11.298  0.1379 -0.1836 -0.2600
  386TMC3    C5 5770   2.375   0.988  11.264  0.0783  0.3684 -0.2030
  386TMC3    C6 5771   2.325   0.978  11.137 -0.1060 -0.3209 -0.4555
  386TMC3     C 5772   2.723   0.916  11.218  0.7055  0.1542  0.0307
  386TMC3     O 5773   2.804   0.945  11.128 -0.2223 -0.4181 -0.4222
  386TMC3     H 5774   2.615   0.859  11.005  2.4428  1.3672  1.2417
  386TMC3    H1 5775   2.547   0.988  11.397 -0.6735  2.5287 -0.4701
  386TMC3    H2 5776   2.230   1.027  11.119  0.3242  1.3270  1.6567
  386TMC3    C7 5777   2.277   0.995  11.370  0.1450  0.0183 -0.1860
  386TMC3    C8 5778   2.364   0.907  10.911  0.3587  0.6035 -0.1798
  386TMC3    O1 5779   2.319   1.027  11.481  0.0252  0.4837 -0.1916
  386TMC3    O2 5780   2.243   0.911  10.903  0.0781 -0.3322 -0.0831
  387MPD2     C 5781   0.004   1.757   9.829 -0.0647 -0.4127 -0.4386
  387MPD2    C1 5782   0.138   1.735   9.852  0.9360  0.1787  0.4277
  387MPD2    C2 5783   0.174   1.631   9.939  0.1481 -0.4408 -0.3016
  387MPD2    C3 5784   0.076   1.559  10.015 -0.6202 -0.4249 -0.5003
  387MPD2    C4 5785   4.658   1.588   9.985  0.2789  0.4849 -0.4171
  387MPD2    C5 5786   4.627   1.687   9.895 -0.5062 -0.0736  0.0490
  387MPD2     H 5787   0.278   1.606   9.959  0.0828 -0.7939 -0.4088
  387MPD2    H1 5788   4.581   1.530  10.035  0.5201 -0.3909 -1.0572
  387MPD2    H2 5789   4.691   1.834   9.762 -0.4160 -0.1330  0.0830
  387MPD2    H3 5790   4.524   1.702   9.865 -1.0526 -0.5336  1.7118
  387MPD2     N 5791   0.120   1.450  10.097 -0.2680  0.1437 -0.4783
  387MPD2    H5 5792   0.218   1.444  10.122 -0.5146 -0.1880  0.4159
  387MPD2    N1 5793   0.247   1.794   9.793 -0.1225 -0.2935 -0.4406
  387MPD2    H7 5794   0.334   1.758   9.828 -0.9083 -1.9060 -0.1535
  388TMC3    C1 5795   0.380   1.869   9.613  0.0160  0.8935 -0.5739
  388TMC3    C2 5796   0.449   1.974   9.563  0.2301  0.2961  0.1973
  388TMC3    C3 5797   0.567   1.966   9.498  0.2016  0.2818 -0.5122
  388TMC3    C4 5798   0.432   1.742   9.597  0.3097  0.1522 -0.3263
  388TMC3    C5 5799   0.550   1.732   9.522  0.2234 -0.5464 -0.1925
  388TMC3    C6 5800   0.614   1.838   9.470  0.6107  0.2998  0.4630
  388TMC3     C 5801   0.260   1.887   9.694 -0.1125 -0.4055 -0.3149
  388TMC3     O 5802   0.191   1.982   9.664 -0.0725 -0.2039  0.6741
  388TMC3     H 5803   0.419   2.071   9.600 -0.5031 -0.3843  1.3975
  388TMC3    H1 5804   0.368   1.655   9.608 -0.9208  1.4316  2.6294
  388TMC3    H2 5805   0.702   1.813   9.412  0.1752 -1.0048  0.3489
  388TMC3    C7 5806   0.619   1.608   9.533 -0.2326  0.2229  0.4074
  388TMC3    C8 5807   0.616   2.082   9.435  0.3924  0.1276 -0.2583
  388TMC3    O1 5808   0.707   1.571   9.457 -0.5072 -0.6909  0.1560
  388TMC3    O2 5809   0.541   2.183   9.425  0.0212 -0.0944 -0.1062
  389MPD2     C 5810   4.505   4.350  11.753  0.1534 -0.1749 -0.1112
  389MPD2    C1 5811   4.407   4.277  11.687 -0.4733 -0.4295  1.2874
  389MPD2    C2 5812   4.325   4.200  11.763 -0.0296 -0.8365  0.4005
  389MPD2    C3 5813   4.345   4.190  11.900 -0.2161  0.3717  0.0835
  389MPD2    C4 5814   4.445   4.264  11.960 -0.2626  0.4000  0.1015
  389MPD2    C5 5815   4.537   4.335  11.882 -0.1248  0.2820 -0.1495
  389MPD2     H 5816   4.242   4.145  11.720  0.7713 -0.8633 -1.1017
  389MPD2    H1 5817   4.470   4.266  12.065  0.3838 -0.0862 -0.0416
  389MPD2    H2 5818   4.578   4.398  11.688 -0.1788 -1.8399 -1.7341
  389MPD2    H3 5819   4.619   4.386  11.932 -1.4407  0.9703  1.3196
  389MPD2     N 5820   4.268   4.113  11.992  0.2700 -0.3982  0.1770
  389MPD2    H5 5821   4.296   4.127  12.088  0.3832 -2.6492  0.4749
  389MPD2    N1 5822   4.393   4.302  11.548 -0.0321  0.1974  0.1989
  389MPD2    H7 5823   4.463   4.365  11.508 -0.7861 -0.1901 -1.7295
  390TMC3    C1 5824   4.107   3.961  12.067  0.4135  0.7806 -0.2042
  390TMC3    C2 5825   4.052   3.839  12.038  0.1790  0.3848 -0.2279
  390TMC3    C3 5826   3.939   3.812  12.105  0.0874  0.6490  0.0702
  390TMC3    C4 5827   4.050   4.065  12.139 -0.5475  0.1695 -0.2578
  390TMC3    C5 5828   3.933   4.030  12.202  0.4240 -0.7134  0.3849
  390TMC3    C6 5829   3.872   3.900  12.189 -0.9297 -0.0901  0.1164
  390TMC3     C 5830   4.188   4.008  11.956 -0.8626 -0.2577  0.2422
  390TMC3     O 5831   4.193   3.940  11.855  0.3630  0.0606 -0.0090
  390TMC3     H 5832   4.105   3.756  11.992 -1.2574  0.2212 -1.6109
  390TMC3    H1 5833   4.095   4.163  12.151  0.8898 -0.4008 -0.9658
  390TMC3    H2 5834   3.773   3.877  12.228 -0.7724  0.9367  1.1264
  390TMC3    C7 5835   3.851   4.139  12.242 -0.6028 -0.2161 -0.0453
  390TMC3    C8 5836   3.869   3.697  12.058 -0.0841 -0.3688 -0.1771
  390TMC3    O1 5837   3.910   4.240  12.274  0.0999 -0.7179  0.0659
  390TMC3    O2 5838   3.894   3.656  11.945 -0.3819  0.1309  0.5093
  391MPD2     C 5839   3.305   0.962  11.150 -0.3966 -0.3496  0.2402
  391MPD2    C1 5840   3.419   1.040  11.153 -0.3705  0.0042 -0.1459
  391MPD2    C2 5841   3.474   1.072  11.031  0.5961  0.6295 -0.5573
  391MPD2    C3 5842   3.427   1.024  10.915  0.1690  0.4668  0.4192
  391MPD2    C4 5843   3.316   0.942  10.911  0.2613  0.3123 -0.2588
  391MPD2    C5 5844   3.257   0.908  11.027 -0.8902 -0.1220 -0.4374
  391MPD2     H 5845   3.557   1.140  11.013 -0.0508  1.4168 -0.5554
  391MPD2    H1 5846   3.280   0.903  10.816  0.6271  0.7756 -0.5870
  391MPD2    H2 5847   3.248   0.943  11.240 -1.1191 -1.3124 -0.4328
  391MPD2    H3 5848   3.168   0.847  11.040 -1.1310 -0.0289 -1.6253
  391MPD2     N 5849   3.494   1.063  10.794 -0.2884  0.1431  0.0119
  391MPD2    H5 5850   3.574   1.125  10.805 -0.2409  0.1144 -0.1682
  391MPD2    N1 5851   3.460   1.092  11.276  0.0658  0.3353 -0.0439
  391MPD2    H7 5852   3.400   1.082  11.357 -0.3880 -0.1041 -0.4355
  392TMC3    C1 5853   3.553   1.094  10.573  0.5149 -0.0914  0.3131
  392TMC3    C2 5854   3.508   1.082  10.449 -0.1063 -0.0014  0.4260
  392TMC3    C3 5855   3.595   1.133  10.352  0.7106 -0.7782  0.7751
  392TMC3    C4 5856   3.678   1.127  10.614  0.6798  0.8585  0.1616
  392TMC3    C5 5857   3.760   1.170  10.509 -0.0662  0.6173  0.3103
  392TMC3    C6 5858   3.722   1.172  10.379  0.0044  0.2673  0.2517
  392TMC3     C 5859   3.454   1.044  10.664  0.5574  0.3577 -0.1063
  392TMC3     O 5860   3.348   0.995  10.622 -0.1189 -0.4422 -0.1642
  392TMC3     H 5861   3.412   1.039  10.420  0.2484 -0.5529  0.0774
  392TMC3    H1 5862   3.712   1.117  10.716 -0.8655 -3.7029  0.2384
  392TMC3    H2 5863   3.793   1.202  10.302 -0.0511 -0.8395 -0.2338
  392TMC3    C7 5864   3.849   1.272  10.544 -0.5523  0.3078 -0.0370
  392TMC3    C8 5865   3.547   1.119  10.216 -0.3302 -0.0110 -0.5245
  392TMC3    O1 5866   3.840   1.322  10.656  0.5310  0.5401 -0.2240
  392TMC3    O2 5867   3.482   1.019  10.193  1.2143  0.0390  0.1301
  393TMC3    C1 5868   2.907   3.605  10.242  0.7193  0.3759 -0.3850
  393TMC3    C2 5869   2.797   3.526  10.232 -0.2867  0.0786 -0.0098
  393TMC3    C3 5870   2.763   3.448  10.342 -0.6640  0.8397  0.1738
  393TMC3    C4 5871   2.991   3.598  10.345 -0.8016 -0.1876 -0.2137
  393TMC3    C5 5872   2.967   3.505  10.443  0.4274 -0.0126 -0.2734
  393TMC3    C6 5873   2.856   3.431  10.449  0.1293  0.2605 -0.1104
  393TMC3     C 5874   2.890   3.723  10.168  0.2993 -0.1823 -0.6926
  393TMC3     O 5875   2.785   3.749  10.110 -0.1028 -0.0936 -0.4752
  393TMC3     H 5876   2.728   3.526  10.148  0.7580 -0.5025 -0.8579
  393TMC3    H1 5877   3.084   3.654  10.343 -0.5994 -0.4753  1.8756
  393TMC3    H2 5878   2.827   3.359  10.524 -0.1026 -1.1701 -1.5816
  393TMC3    C7 5879   3.062   3.497  10.549  0.7327  0.5232  0.1878
  393TMC3    C8 5880   2.635   3.462  10.375  0.8710 -0.7203  0.1475
  393TMC3    O1 5881   3.163   3.562  10.548 -0.0367  0.1418  0.0224
  393TMC3    O2 5882   2.576   3.552  10.315  0.9230 -0.0273 -0.2410
  394TMC3    C1 5883   4.277   4.336  11.344  0.3368 -0.5633 -0.0347
  394TMC3    C2 5884   4.194   4.277  11.251  0.3439 -1.1181  0.1109
  394TMC3    C3 5885   4.175   4.335  11.130 -0.4409 -0.4711 -0.3945
  394TMC3    C4 5886   4.347   4.451  11.319  0.2220  0.1577 -0.7280
  394TMC3    C5 5887   4.339   4.500  11.196 -0.0868  0.7462 -0.2845
  394TMC3    C6 5888   4.242   4.455  11.108  0.1635  0.1892 -0.2457
  394TMC3     C 5889   4.281   4.282  11.478 -0.4650  0.8096  0.2580
  394TMC3     O 5890   4.195   4.204  11.516  0.3098  0.4466  0.3742
  394TMC3     H 5891   4.135   4.193  11.284 -0.4726  0.4223  2.5976
  394TMC3    H1 5892   4.408   4.498  11.395  1.1493  0.0279 -1.3882
  394TMC3    H2 5893   4.219   4.503  11.013 -0.0103  0.5107 -0.0405
  394TMC3    C7 5894   4.404   4.618  11.158 -0.1091  0.1417  0.0907
  394TMC3    C8 5895   4.151   4.258  11.013 -0.0443  0.0682 -0.4526
  394TMC3    O1 5896   4.380   4.666  11.049 -0.0071 -0.4088 -0.4933
  394TMC3    O2 5897   4.110   4.318  10.916  0.1790  0.7127 -0.2715
  395TMC3    C1 5898   4.633   1.680  14.771  0.0227 -0.0250 -0.6746
  395TMC3    C2 5899   4.616   1.668  14.635  0.3009  0.1360  0.3231
  395TMC3    C3 5900   4.615   1.783  14.567 -0.4989  0.8397 -0.4449
  395TMC3    C4 5901   4.661   1.798  14.839  0.1398  0.0024  0.2306
  395TMC3    C5 5902   4.671   1.908  14.760  1.0426  0.5089  0.0091
  395TMC3    C6 5903   4.637   1.904  14.631  0.2294 -0.7982  0.3279
  395TMC3     C 5904   4.621   1.559  14.850 -0.0857  0.5944 -0.8956
  395TMC3     O 5905   4.674   1.463  14.793 -0.0756 -0.2417 -0.0650
  395TMC3     H 5906   4.587   1.572  14.593  2.2230 -0.6212  0.7261
  395TMC3    H1 5907   4.684   1.803  14.945  0.4502  0.3476  0.1498
  395TMC3    H2 5908   4.620   1.999  14.582  0.4215 -0.2649  1.2904
  395TMC3    C7 5909   4.683   2.032  14.829 -0.1258 -0.1139 -0.0851
  395TMC3    C8 5910   4.599   1.789  14.421 -0.2214  0.9559 -0.2491
  395TMC3    O1 5911   0.046   2.052  14.913  0.2457  0.1467  0.2630
  395TMC3    O2 5912   4.636   1.890  14.369  0.0045  0.4099 -0.4560
  396MPD2     C 5913   4.118   2.421  17.523 -1.0843  0.0425 -0.8088
  396MPD2    C1 5914   4.135   2.423  17.391  0.6615 -0.5594 -0.1377
  396MPD2    C2 5915   4.216   2.525  17.336  0.2994 -0.3406  0.0940
  396MPD2    C3 5916   4.260   2.627  17.417 -0.1759  0.5683 -0.1878
  396MPD2    C4 5917   4.238   2.618  17.552 -0.4443 -0.7265  0.1784
  396MPD2    C5 5918   4.162   2.516  17.604 -0.6225 -0.4229 -0.7847
  396MPD2     H 5919   4.238   2.537  17.231  1.9455  1.3841  0.6338
  396MPD2    H1 5920   4.262   2.701  17.617  1.2529  0.9589 -2.6399
  396MPD2    H2 5921   4.050   2.348  17.565  0.4812  0.7777  2.9931
  396MPD2    H3 5922   4.121   2.513   0.008  1.4119  0.0682  0.0559
  396MPD2     N 5923   4.325   2.738  17.360 -0.1046  0.1138 -0.3900
  396MPD2    H5 5924   4.336   2.745  17.259 -0.3107  0.8748 -0.3637
  396MPD2    N1 5925   4.081   2.314  17.319 -0.2329  0.5764 -0.1260
  396MPD2    H7 5926   4.044   2.240  17.378  2.0807 -0.2824  0.2697
  397TMC3    C1 5927   4.039   2.178  17.127 -0.4718  1.2888 -0.0559
  397TMC3    C2 5928   4.031   2.173  16.991 -0.1130  0.2672  0.9140
  397TMC3    C3 5929   3.955   2.072  16.936  0.1716  0.1643  0.5777
  397TMC3    C4 5930   3.945   2.110  17.205  0.9924 -0.3726  0.4662
  397TMC3    C5 5931   3.854   2.023  17.145 -0.0446 -0.4530 -0.2607
  397TMC3    C6 5932   3.869   1.996  17.006 -0.8706  0.8618  0.2198
  397TMC3     C 5933   4.104   2.290  17.185  0.0829  0.2727  0.0885
  397TMC3     O 5934   4.151   2.371  17.104 -0.1267  0.6525  0.1631
  397TMC3     H 5935   4.104   2.223  16.929 -0.5214  1.0414  1.0567
  397TMC3    H1 5936   3.908   2.148  17.299 -1.5170 -0.4640 -0.4839
  397TMC3    H2 5937   3.821   1.910  16.960 -0.0097  1.2109 -1.3215
  397TMC3    C7 5938   3.787   1.922  17.227 -0.0197  0.1713 -0.1946
  397TMC3    C8 5939   3.978   2.044  16.794 -0.3454 -0.1473  0.1335
  397TMC3    O1 5940   3.710   1.842  17.171 -0.5804  0.0189 -0.1198
  397TMC3    O2 5941   4.006   2.142  16.732 -0.2566  0.3880  0.0255
  398MPD2     C 5942   2.167   2.829   0.141  0.7627  0.0606 -0.3297
  398MPD2    C1 5943   2.273   2.773   0.214  0.3392 -0.2964  0.3099
  398MPD2    C2 5944   2.355   2.870   0.281  0.3650 -0.5767  0.2957
  398MPD2    C3 5945   2.338   3.009   0.271  0.0860  0.2281  0.4909
  398MPD2    C4 5946   2.222   3.053   0.211 -1.0331  0.3850  0.3879
  398MPD2    C5 5947   2.140   2.962   0.142 -0.1704  0.3209 -0.0826
  398MPD2     H 5948   2.438   2.823   0.334  1.4960 -2.2766 -2.9920
  398MPD2    H1 5949   2.201   3.159   0.204 -3.1102 -0.1212 -0.7584
  398MPD2    H2 5950   2.106   2.767   0.075  1.9302 -0.5752 -0.8193
  398MPD2    H3 5951   2.066   3.007   0.077  1.8717  3.9039  0.0578
  398MPD2     N 5952   2.432   3.092   0.334  0.1880 -0.0160  0.0824
  398MPD2    H5 5953   2.511   3.046   0.379  1.3973  2.6285  0.6794
  398MPD2    N1 5954   2.303   2.638   0.236  0.0512 -0.2439 -0.0330
  398MPD2    H7 5955   2.397   2.620   0.270  0.5457 -0.6574 -1.6111
  399TMC3    C1 5956   2.285   2.398   0.211 -0.0710 -1.1049  0.1653
  399TMC3    C2 5957   2.408   2.384   0.278 -0.0697  0.9289 -0.3774
  399TMC3    C3 5958   2.455   2.260   0.322 -0.0159 -0.4431  0.1102
  399TMC3    C4 5959   2.206   2.285   0.195  0.7945 -0.1149  0.6486
  399TMC3    C5 5960   2.255   2.164   0.233  0.7670  0.4419  0.2494
  399TMC3    C6 5961   2.377   2.146   0.293 -0.0980  0.2022  0.4928
  399TMC3     C 5962   2.231   2.529   0.193 -0.1505 -0.5735 -0.3779
  399TMC3     O 5963   2.121   2.527   0.143 -0.1408  0.0165  0.0891
  399TMC3     H 5964   2.468   2.471   0.303 -0.3291  1.1000 -0.3463
  399TMC3    H1 5965   2.106   2.291   0.154  0.4662  0.7786  1.5688
  399TMC3    H2 5966   2.421   2.048   0.305 -0.5148  0.4703  4.2602
  399TMC3    C7 5967   2.165   2.054   0.254 -0.0171  0.2694  0.1663
  399TMC3    C8 5968   2.602   2.252   0.331  0.2146 -0.2192  0.1166
  399TMC3    O1 5969   2.060   2.081   0.205  0.7128  0.4021 -0.0787
  399TMC3    O2 5970   2.669   2.350   0.301 -0.1492 -0.1653 -0.3981
  400TMC3    C1 5971   0.306   1.910  16.861  0.0682 -0.1563  0.3024
  400TMC3    C2 5972   0.199   1.824  16.860  0.4883  0.7744 -0.8141
  400TMC3    C3 5973   0.086   1.868  16.806 -0.3719 -0.2818  0.1260
  400TMC3    C4 5974   0.301   2.036  16.807 -0.4393 -0.0656  0.1014
  400TMC3    C5 5975   0.184   2.071  16.754  0.3363 -0.4077  0.0298
  400TMC3    C6 5976   0.076   1.988  16.754  0.3779  0.0476 -0.2216
  400TMC3     C 5977   0.434   1.867  16.920  0.6637  0.5315 -0.3935
  400TMC3     O 5978   0.437   1.757  16.972  0.6403  0.6298 -0.1532
  400TMC3     H 5979   0.217   1.722  16.892 -0.4032  1.0145  0.4197
  400TMC3    H1 5980   0.391   2.090  16.781 -0.5975  0.4608  0.6349
  400TMC3    H2 5981   4.705   2.022  16.714  0.4475  0.9577  0.3670
  400TMC3    C7 5982   0.150   2.214  16.723  0.3606 -0.3907 -0.3260
  400TMC3    C8 5983   4.697   1.778  16.785 -0.1151  0.0490  0.3681
  400TMC3    O1 5984   0.035   2.230  16.686  0.1333 -0.0364 -0.0134
  400TMC3    O2 5985   4.601   1.804  16.713  0.5400  0.0651  0.1230
  401MPD2     C 5986   3.802   0.841   0.885 -0.0805  0.6223  0.9317
  401MPD2    C1 5987   3.862   0.798   1.006  0.0826  0.0353 -0.1646
  401MPD2    C2 5988   3.818   0.678   1.055 -0.0245  0.1390 -0.1108
  401MPD2    C3 5989   3.727   0.597   0.984  0.1373  0.4309  0.0735
  401MPD2    C4 5990   3.672   0.642   0.864  0.3613  0.4500  0.2568
  401MPD2    C5 5991   3.709   0.764   0.817 -0.1371 -0.0926 -0.2992
  401MPD2     H 5992   3.866   0.647   1.147  1.4774  0.0239 -0.9250
  401MPD2    H1 5993   3.591   0.593   0.810  1.8606 -1.0775 -0.6245
  401MPD2    H2 5994   3.816   0.942   0.848 -0.7137  0.0325 -0.8866
  401MPD2    H3 5995   3.661   0.804   0.728 -0.2028 -2.8545 -1.5295
  401MPD2     N 5996   3.701   0.468   1.039 -0.2338  0.0579 -0.4909
  401MPD2    H5 5997   3.761   0.443   1.117  1.7448  0.7272 -1.8101
  401MPD2    N1 5998   3.960   0.862   1.078  0.6164 -0.2049  0.1369
  401MPD2    H7 5999   3.995   0.821   1.164  1.1594  1.4021  0.6844
  402TMC3    C1 6000   3.647   0.241   1.070  0.3395  0.0295  0.2658
  402TMC3    C2 6001   3.722   0.245   1.185  0.0038  0.0538  0.9995
  402TMC3    C3 6002   3.773   0.136   1.241  0.2701  0.4434  0.6863
  402TMC3    C4 6003   3.629   0.118   1.007  0.3271  0.4723 -0.7788
  402TMC3    C5 6004   3.685   0.011   1.069 -0.8249  0.9252  0.1190
  402TMC3    C6 6005   3.761   0.012   1.181  0.2995  0.3799 -0.8360
  402TMC3     C 6006   3.633   0.362   0.983 -0.0138  0.5282  0.2364
  402TMC3     O 6007   3.574   0.354   0.877  0.0264  0.5560 -0.1454
  402TMC3     H 6008   3.726   0.335   1.245 -1.1498  0.0983  1.0082
  402TMC3    H1 6009   3.584   0.120   0.908 -2.0033  1.4314  0.2954
  402TMC3    H2 6010   3.807   4.645   1.219 -0.5666 -0.0323 -0.7785
  402TMC3    C7 6011   3.703   4.628   0.975  0.4896  0.7187  0.3193
  402TMC3    C8 6012   3.889   0.137   1.340  0.2591  0.3594  0.2819
  402TMC3    O1 6013   3.611   4.611   0.899  0.6466  0.1169  0.0035
  402TMC3    O2 6014   3.945   0.030   1.364  0.0641 -0.6830  0.4045
  403MPD2     C 6015   2.155   3.898  13.385  0.2179 -0.1483 -0.2932
  403MPD2    C1 6016   2.177   3.800  13.477  0.7595  0.5610 -0.4046
  403MPD2    C2 6017   2.257   3.822  13.588  0.5372  0.1065 -0.2572
  403MPD2    C3 6018   2.294   3.951  13.617 -0.3931  0.1973 -0.3835
  403MPD2    C4 6019   2.271   4.048  13.519  0.9193 -0.4070 -0.1757
  403MPD2    C5 6020   2.213   4.021  13.402 -0.5789  0.4247 -0.1843
  403MPD2     H 6021   2.290   3.745  13.657  1.1397  0.8478  0.2727
  403MPD2    H1 6022   2.311   4.149  13.519 -1.0284  0.3818  2.5539
  403MPD2    H2 6023   2.113   3.874  13.288  0.1530  0.5796 -0.4488
  403MPD2    H3 6024   2.207   4.100  13.328  1.1622  0.1118 -0.6626
  403MPD2     N 6025   2.358   3.973  13.737  0.3700  0.2098 -0.7254
  403MPD2    H5 6026   2.381   3.890  13.790  0.2065  1.2577  0.9873
  403MPD2    N1 6027   2.108   3.677  13.451 -0.4789  0.7318  0.5126
  403MPD2    H7 6028   2.044   3.676  13.372 -1.4325  1.8030  1.2699
  404TMC3    C1 6029   2.006   3.475  13.479  0.6771  0.4310  0.3757
  404TMC3    C2 6030   1.962   3.385  13.565 -0.3865  0.3626  0.2894
  404TMC3    C3 6031   1.929   3.261  13.523  0.1000  0.0955 -0.3131
  404TMC3    C4 6032   2.009   3.452  13.346  0.1272  0.1289 -0.4235
  404TMC3    C5 6033   1.971   3.326  13.302  0.1028  0.2969 -0.0699
  404TMC3    C6 6034   1.934   3.224  13.393 -0.4313 -0.5784  0.6369
  404TMC3     C 6035   2.110   3.565  13.532  0.6151  0.7730  0.7024
  404TMC3     O 6036   2.172   3.541  13.636 -0.0432  0.3295 -0.5761
  404TMC3     H 6037   1.964   3.408  13.671  0.8647  0.3390  0.2669
  404TMC3    H1 6038   2.038   3.526  13.273  2.5324  0.4118  0.8429
  404TMC3    H2 6039   1.918   3.122  13.360 -0.3817  0.1895 -1.7575
  404TMC3    C7 6040   1.947   3.311  13.165 -0.3047 -0.0677 -0.0690
  404TMC3    C8 6041   1.966   3.150  13.619 -0.5669 -0.3724  0.8441
  404TMC3    O1 6042   1.876   3.217  13.135  0.6128 -0.3896  0.2473
  404TMC3    O2 6043   2.054   3.078  13.586  0.1207 -0.4027 -0.3795
  405MPD2     C 6044   2.564   4.298  14.825  0.0236  0.4082 -0.1360
  405MPD2    C1 6045   2.507   4.251  14.710  0.2130  0.5110 -0.1347
  405MPD2    C2 6046   2.455   4.336  14.609  0.9816  0.0623  0.0069
  405MPD2    C3 6047   2.457   4.471  14.627 -0.5543 -0.2403 -0.0138
  405MPD2    C4 6048   2.530   4.525  14.730 -0.2479 -0.3641 -0.4149
  405MPD2    C5 6049   2.573   4.440  14.829  0.6915 -0.1707  0.0513
  405MPD2     H 6050   2.403   4.300  14.521  0.7923  1.7417 -0.5814
  405MPD2    H1 6051   2.542   4.632  14.742 -2.4805 -0.4820  2.8764
  405MPD2    H2 6052   2.593   4.232  14.906 -1.7395  1.7217  1.5875
  405MPD2    H3 6053   2.622   4.489  14.913  0.7739  0.9705 -0.6677
  405MPD2     N 6054   2.388   4.541  14.531  0.3180 -0.2616  0.9863
  405MPD2    H5 6055   2.337   4.486  14.463  0.2241  0.6246  0.3510
  405MPD2    N1 6056   2.520   4.108  14.690 -0.6750  0.4546  0.2985
  405MPD2    H7 6057   2.558   4.053  14.766 -2.2196 -2.1562 -0.8138
  406TMC3    C1 6058   2.112   0.068  14.340 -0.2370  0.5488 -0.0588
  406TMC3    C2 6059   2.079   4.688  14.253  1.2404 -0.2520 -0.1085
  406TMC3    C3 6060   2.185   4.609  14.225 -0.1492  0.3288  0.1709
  406TMC3    C4 6061   2.229   0.079  14.407  0.4527  0.6452  0.2528
  406TMC3    C5 6062   2.323   4.708  14.391  0.4465  0.1904 -0.4473
  406TMC3    C6 6063   2.295   4.609  14.302  0.3394 -0.3301 -0.0023
  406TMC3     C 6064   2.011   0.165  14.377 -0.8157  0.1314 -0.2525
  406TMC3     O 6065   2.057   0.263  14.435 -0.3752 -0.6818  0.3993
  406TMC3     H 6066   1.991   4.685  14.191 -0.3761  0.3674  2.1533
  406TMC3    H1 6067   2.242   0.152  14.486  1.7750  0.0700  0.5744
  406TMC3    H2 6068   2.381   4.546  14.282  1.0168 -0.0194  1.9560
  406TMC3    C7 6069   2.395   4.678  14.516 -0.2990  0.5937  0.5408
  406TMC3    C8 6070   2.155   4.496  14.142  0.4194  0.3801 -0.1586
  406TMC3    O1 6071   2.458   0.044  14.571  0.2269 -0.5391 -0.2538
  406TMC3    O2 6072   2.042   4.493  14.091  0.0044 -0.2222  0.0134
  407MPD2     C 6073   4.324   1.175  10.469  1.1339  0.1851 -0.2407
  407MPD2    C1 6074   4.400   1.231  10.368  0.8189  0.7581 -0.2730
  407MPD2    C2 6075   4.469   1.347  10.398 -0.4656  0.2217 -0.4667
  407MPD2    C3 6076   4.469   1.398  10.529 -0.2861 -0.1485  0.5476
  407MPD2    C4 6077   4.382   1.336  10.619  0.9751 -0.8530  0.9253
  407MPD2    C5 6078   4.312   1.223  10.597  0.0767  0.1197  0.5983
  407MPD2     H 6079   4.535   1.386  10.322  1.1554 -0.0147  0.8335
  407MPD2    H1 6080   4.370   1.371  10.721  0.8429 -0.9353  0.9378
  407MPD2    H2 6081   4.265   1.087  10.445  0.0686  0.8708 -0.1311
  407MPD2    H3 6082   4.241   1.170  10.658  0.7965  1.3137  2.4824
  407MPD2     N 6083   4.543   1.512  10.574 -0.3942  0.1801 -0.1035
  407MPD2    H5 6084   4.551   1.521  10.675 -1.2983 -0.3563  0.0164
  407MPD2    N1 6085   4.431   1.175  10.238  0.6120 -0.5134 -0.4199
  407MPD2    H7 6086   4.510   1.219  10.190  1.1807  1.3069  2.1908
  408TMC3    C1 6087   4.438   1.030  10.063  0.6804  0.1292 -0.6966
  408TMC3    C2 6088   4.476   0.904  10.031 -0.0429 -0.2207  0.0192
  408TMC3    C3 6089   4.566   0.882   9.931  0.3457  0.2178 -0.3392
  408TMC3    C4 6090   4.476   1.135   9.984  0.9273 -0.2591  0.6581
  408TMC3    C5 6091   4.560   1.115   9.878 -0.5680 -0.7051 -0.1504
  408TMC3    C6 6092   4.619   0.986   9.855  0.2652 -0.4098  0.1009
  408TMC3     C 6093   4.372   1.065  10.187  0.1496  0.1100  0.1688
  408TMC3     O 6094   4.305   0.979  10.245  0.1222 -0.0627  0.1059
  408TMC3     H 6095   4.448   0.817  10.089  1.0854  0.6304  1.8666
  408TMC3    H1 6096   4.446   1.234  10.014  0.9312 -0.6258  1.8505
  408TMC3    H2 6097   4.689   0.976   9.774 -0.6238  1.3723 -0.9086
  408TMC3    C7 6098   4.602   1.220   9.785  0.0048 -0.4297  0.6223
  408TMC3    C8 6099   4.645   0.759   9.944  0.3588 -0.0174 -0.2466
  408TMC3    O1 6100   4.693   1.192   9.705  0.2850  0.2347  0.3460
  408TMC3    O2 6101   4.578   0.659   9.969  0.2062  0.3268  0.3044
  409MPD2     C 6102   4.194   1.371  16.852 -0.0668 -0.0909  0.4072
  409MPD2    C1 6103   4.263   1.416  16.962 -0.1911  0.4563 -0.3020
  409MPD2    C2 6104   4.305   1.549  16.979  0.0536 -0.2673  0.6846
  409MPD2    C3 6105   4.283   1.637  16.879 -0.2743  0.0671  0.2741
  409MPD2    C4 6106   4.218   1.595  16.766 -0.5877  0.2791 -0.5356
  409MPD2    C5 6107   4.177   1.467  16.752  0.2666  0.2065 -0.0240
  409MPD2     H 6108   4.373   1.575  17.060  0.1290  1.2247  0.1480
  409MPD2    H1 6109   4.208   1.665  16.684  3.3332  0.7792 -0.5895
  409MPD2    H2 6110   4.164   1.269  16.833 -0.3575  0.0614  0.0297
  409MPD2    H3 6111   4.124   1.432  16.664  1.1504  1.1443 -0.9213
  409MPD2     N 6112   4.308   1.778  16.893 -0.1606  0.2911 -0.0815
  409MPD2    H5 6113   4.266   1.832  16.818 -1.4977  0.0930  0.5271
  409MPD2    N1 6114   4.303   1.334  17.071  0.7602 -0.4375 -0.2788
  409MPD2    H7 6115   4.361   1.384  17.137  0.0958 -0.7929  0.5809
  410TMC3    C1 6116   4.403   1.982  16.972 -0.7688 -0.8969  0.1358
  410TMC3    C2 6117   4.487   2.041  17.062 -0.3543 -0.0226  0.2193
  410TMC3    C3 6118   4.547   2.157  17.019  0.9172 -0.2606 -0.0939
  410TMC3    C4 6119   4.372   2.026  16.845 -0.2268  0.6664 -0.0432
  410TMC3    C5 6120   4.426   2.151  16.809 -0.5784  0.3067  0.5112
  410TMC3    C6 6121   4.526   2.202  16.891  1.4271 -0.4834 -0.1031
  410TMC3     C 6122   4.381   1.842  16.993  0.0983  0.3929  0.5809
  410TMC3     O 6123   4.444   1.793  17.088 -0.2082 -0.4751 -0.2216
  410TMC3     H 6124   4.494   2.004  17.164  0.8576  0.3975  0.2984
  410TMC3    H1 6125   4.300   1.981  16.778 -0.5952 -1.2677  1.6292
  410TMC3    H2 6126   4.583   2.286  16.853 -0.3074  0.4469 -0.6455
  410TMC3    C7 6127   4.434   2.178  16.669  0.0996 -0.9936 -0.8975
  410TMC3    C8 6128   4.687   2.150  17.057  0.1163  0.4293  0.7043
  410TMC3    O1 6129   4.401   2.082  16.604 -0.1219 -0.0262 -0.4110
  410TMC3    O2 6130   0.034   2.241  17.017  0.1264  0.3754 -0.3879
  411MPD2     C 6131   0.393   2.948  14.682 -0.3641 -0.1009  0.4806
  411MPD2    C1 6132   0.267   2.946  14.631  0.2511  0.4080  0.8634
  411MPD2    C2 6133   0.219   2.822  14.590  0.0717  0.3466  0.4151
  411MPD2    C3 6134   0.294   2.710  14.572 -0.6538  0.0271  0.4149
  411MPD2    C4 6135   0.423   2.721  14.621 -0.2867  0.0028  0.3281
  411MPD2    C5 6136   0.469   2.837  14.673  0.4693 -0.2298 -0.8073
  411MPD2     H 6137   0.114   2.808  14.567  0.1014 -1.5381  1.4869
  411MPD2    H1 6138   0.499   2.648  14.596  2.0058  1.5238  2.8592
  411MPD2    H2 6139   0.436   3.044  14.709 -1.8975  0.5486  0.6012
  411MPD2    H3 6140   0.576   2.841  14.693  0.4580 -0.3187 -0.7265
  411MPD2     N 6141   0.246   2.586  14.519 -0.1151 -0.3244  0.5246
  411MPD2    H5 6142   0.316   2.512  14.521 -0.4844 -0.6005  3.5148
  411MPD2    N1 6143   0.183   3.059  14.658  0.1584 -0.5792 -0.5270
  411MPD2    H7 6144   0.224   3.137  14.707 -1.4438 -0.1961  0.2046
  412TMC3    C1 6145   0.111   2.413  14.443 -0.1445  0.5873  0.0385
  412TMC3    C2 6146   4.709   2.364  14.477 -0.5356 -0.0518  0.2561
  412TMC3    C3 6147   4.651   2.267  14.395  0.3058  0.0165  0.0674
  412TMC3    C4 6148   0.173   2.373  14.328 -0.8350  0.5820 -0.1235
  412TMC3    C5 6149   0.107   2.285  14.248  0.3010 -0.3759  0.0311
  412TMC3    C6 6150   4.714   2.223  14.284 -0.5777  0.7710  0.1802
  412TMC3     C 6151   0.122   2.553  14.474 -0.2736 -0.1493 -0.2607
  412TMC3     O 6152   0.016   2.615  14.471  0.4198  0.4475 -0.1964
  412TMC3     H 6153   4.652   2.409  14.557 -0.4699  0.6232 -0.0809
  412TMC3    H1 6154   0.259   2.421  14.282  0.4085 -0.1708  1.3978
  412TMC3    H2 6155   4.667   2.152  14.215  0.2712  1.6491 -1.3072
  412TMC3    C7 6156   0.138   2.283  14.113 -0.1587 -0.4385  0.1911
  412TMC3    C8 6157   4.503   2.243  14.400 -0.1144  0.5999  0.1635
  412TMC3    O1 6158   0.251   2.265  14.075  0.1617 -0.6757  0.6676
  412TMC3    O2 6159   4.442   2.345  14.409 -0.2228 -0.0943  0.5275
  413MPD2     C 6160   1.378   0.943  15.513  0.7103  1.3491 -0.5575
  413MPD2    C1 6161   1.423   0.962  15.385 -0.1098 -0.8796 -0.4829
  413MPD2    C2 6162   1.509   0.868  15.329 -0.0880 -0.4112  0.6832
  413MPD2    C3 6163   1.557   0.755  15.393 -0.5780  0.0131  0.8250
  413MPD2    C4 6164   1.524   0.750  15.525 -0.3847  0.2900  0.0241
  413MPD2    C5 6165   1.436   0.840  15.578  0.0932 -0.0021  1.0819
  413MPD2     H 6166   1.539   0.876  15.225 -0.9339  1.2067  0.5515
  413MPD2    H1 6167   1.556   0.672  15.593  3.6185  0.3980 -1.7689
  413MPD2    H2 6168   1.313   1.018  15.557 -1.7407 -0.8582 -0.3967
  413MPD2    H3 6169   1.404   0.838  15.682 -2.0567  1.8519  0.4656
  413MPD2     N 6170   1.637   0.657  15.323 -1.0005 -0.2001  0.2021
  413MPD2    H5 6171   1.682   0.690  15.238 -2.4315 -0.9556 -0.8509
  413MPD2    N1 6172   1.351   1.060  15.311  0.3091 -0.2375 -0.0357
  413MPD2    H7 6173   1.270   1.099  15.360  0.4272  1.4974 -1.2348
  414TMC3    C1 6174   1.782   0.470  15.300 -0.0034 -0.2669 -0.5414
  414TMC3    C2 6175   1.835   0.361  15.363  0.1945 -0.3336 -0.1990
  414TMC3    C3 6176   1.867   0.256  15.291 -1.0616 -0.1329 -0.2606
  414TMC3    C4 6177   1.764   0.473  15.161  0.2931 -0.6254  0.3107
  414TMC3    C5 6178   1.809   0.366  15.089 -0.8462 -0.1955  0.6043
  414TMC3    C6 6179   1.855   0.254  15.154  0.4906  0.5492 -0.1555
  414TMC3     C 6180   1.690   0.541  15.382 -0.1341  0.0413 -0.5004
  414TMC3     O 6181   1.667   0.493  15.493  0.7780  0.0056  0.0720
  414TMC3     H 6182   1.836   0.349  15.471  3.0427 -1.2292 -0.3213
  414TMC3    H1 6183   1.716   0.559  15.115  0.6868  0.5119  2.0141
  414TMC3    H2 6184   1.877   0.156  15.113 -0.8031 -0.1784  0.8961
  414TMC3    C7 6185   1.762   0.360  14.957  0.2201 -0.0333 -0.5421
  414TMC3    C8 6186   1.946   0.155  15.348 -0.0151  0.2367 -0.0021
  414TMC3    O1 6187   1.654   0.416  14.949 -0.2344 -0.3262 -0.0860
  414TMC3    O2 6188   1.936   0.044  15.299  0.1974 -0.0775 -0.1125
  415TMC3    C1 6189   2.247   3.162  10.394 -0.6630  0.5052 -0.6132
  415TMC3    C2 6190   2.325   3.136  10.284 -0.3180  0.0114  0.0162
  415TMC3    C3 6191   2.330   3.242  10.195  0.8557 -0.0456  0.8584
  415TMC3    C4 6192   2.175   3.271  10.410  0.2267 -0.5530 -0.3569
  415TMC3    C5 6193   2.178   3.370  10.311  0.9672  0.5141 -0.1418
  415TMC3    C6 6194   2.256   3.361  10.200 -0.1630  0.4550  0.5529
  415TMC3     C 6195   2.251   3.068  10.512  0.2382  0.1981 -0.2123
  415TMC3     O 6196   2.175   3.090  10.606 -0.3290 -0.5958 -0.4892
  415TMC3     H 6197   2.379   3.047  10.253  1.8407  1.2657  0.1155
  415TMC3    H1 6198   2.135   3.285  10.509 -0.3566 -1.9022 -0.4024
  415TMC3    H2 6199   2.274   3.442  10.130  0.9278  2.1845  2.8391
  415TMC3    C7 6200   2.056   3.439  10.287  0.5943 -0.5521 -0.0679
  415TMC3    C8 6201   2.407   3.217  10.076 -0.2542  0.5546  0.7871
  415TMC3    O1 6202   2.054   3.527  10.201  0.3714 -0.2820  0.1148
  415TMC3    O2 6203   2.414   3.103  10.032  0.4452  0.4615  0.4686
  416MPD2     C 6204   3.789   2.326  11.458 -0.4470  0.2284  0.0420
  416MPD2    C1 6205   3.686   2.231  11.485 -0.2621 -0.2673 -0.6163
  416MPD2    C2 6206   3.661   2.135  11.384 -0.2478  0.0500 -0.2463
  416MPD2    C3 6207   3.731   2.131  11.269 -0.5844  0.2892 -0.3830
  416MPD2    C4 6208   3.834   2.221  11.245  0.3941  0.1403  0.3450
  416MPD2    C5 6209   3.863   2.317  11.344 -0.3962 -0.6686  0.1014
  416MPD2     H 6210   3.578   2.067  11.402  1.2900 -1.4695  1.0766
  416MPD2    H1 6211   3.882   2.216  11.148  1.9344  0.8208  1.0645
  416MPD2    H2 6212   3.814   2.394  11.539  0.1579  1.4525 -1.1798
  416MPD2    H3 6213   3.941   2.391  11.327 -1.3466 -0.0729 -1.6194
  416MPD2     N 6214   3.707   2.017  11.191  0.0199  0.3521  0.4880
  416MPD2    H5 6215   3.641   1.953  11.235 -1.4609  1.0644 -0.6768
  416MPD2    N1 6216   3.608   2.259  11.602 -0.1127 -0.4253  0.4058
  416MPD2    H7 6217   3.640   2.341  11.653 -0.3620  0.2735 -0.5542
  417TMC3    C1 6218   3.405   2.280  11.715  0.2856  0.6209  0.6672
  417TMC3    C2 6219   3.466   2.346  11.817 -0.0288 -0.3428 -0.8488
  417TMC3    C3 6220   3.392   2.450  11.883  0.8317 -0.1712 -0.4544
  417TMC3    C4 6221   3.276   2.304  11.676 -0.3350  0.1862 -0.5409
  417TMC3    C5 6222   3.212   2.409  11.735 -0.8000  0.4982 -0.3925
  417TMC3    C6 6223   3.268   2.479  11.842  0.8610 -0.7518 -0.5711
  417TMC3     C 6224   3.484   2.203  11.620 -0.0089  0.1281  0.4400
  417TMC3     O 6225   3.419   2.120  11.557  0.1679 -0.0957  0.3326
  417TMC3     H 6226   3.565   2.318  11.852 -0.2274  0.4926  0.3757
  417TMC3    H1 6227   3.233   2.258  11.588  2.6823 -3.4426 -0.1401
  417TMC3    H2 6228   3.203   2.549  11.892  1.0482 -1.1666  0.2524
  417TMC3    C7 6229   3.116   2.487  11.663  0.2605  0.1493  0.1553
  417TMC3    C8 6230   3.423   2.488  12.019  0.5929  0.0712  0.9155
  417TMC3    O1 6231   3.097   2.600  11.692  0.4110 -0.7300 -0.0479
  417TMC3    O2 6232   3.329   2.521  12.090  0.9848 -0.0114 -0.2605
  418TMC3    C1 6233   2.749   3.222   0.441  0.1085  0.1032  0.2276
  418TMC3    C2 6234   2.636   3.264   0.379 -0.9444  0.4353  1.0302
  418TMC3    C3 6235   2.521   3.261   0.452  0.8749 -0.3972 -0.4060
  418TMC3    C4 6236   2.752   3.179   0.569  0.4654  0.5467 -0.0025
  418TMC3    C5 6237   2.638   3.170   0.640  0.2972  0.0790  0.1268
  418TMC3    C6 6238   2.523   3.203   0.582  0.4166 -0.1539 -0.2114
  418TMC3     C 6239   2.853   3.166   0.350 -0.4494  0.4661 -0.4862
  418TMC3     O 6240   2.920   3.070   0.399  0.4907 -0.2499 -0.1385
  418TMC3     H 6241   2.641   3.285   0.273  0.6227  0.7154  1.1540
  418TMC3    H1 6242   2.848   3.157   0.613  1.5444  1.4495 -1.8916
  418TMC3    H2 6243   2.437   3.193   0.647 -0.5527  2.0462 -1.1787
  418TMC3    C7 6244   2.638   3.066   0.743 -0.3046 -0.1853 -1.0047
  418TMC3    C8 6245   2.409   3.221   0.378 -0.7266 -0.2336 -0.1775
  418TMC3    O1 6246   2.546   2.984   0.745  0.1767  0.4798 -0.2141
  418TMC3    O2 6247   2.313   3.296   0.372  0.3921  0.0403 -0.6311
  419MPD2     C 6248   1.222   2.115  12.488  0.1894 -0.7478 -1.0275
  419MPD2    C1 6249   1.160   2.230  12.449  1.0896 -0.1353  0.1023
  419MPD2    C2 6250   1.127   2.325  12.544  0.1768  0.0130 -0.4811
  419MPD2    C3 6251   1.165   2.310  12.677  0.2588 -0.1003  0.0083
  419MPD2    C4 6252   1.231   2.196  12.716  0.8664  0.3000 -0.9990
  419MPD2    C5 6253   1.258   2.093  12.621 -0.3992 -0.4125 -0.8069
  419MPD2     H 6254   1.073   2.415  12.516 -0.9878  0.1097  2.0542
  419MPD2    H1 6255   1.245   2.174  12.821 -1.6765  0.2943 -0.6483
  419MPD2    H2 6256   1.250   2.039  12.416  2.3471  0.5244 -1.5312
  419MPD2    H3 6257   1.311   2.001  12.643 -0.8267 -0.7790 -1.3067
  419MPD2     N 6258   1.164   2.433  12.747 -0.1072  0.3003 -0.5451
  419MPD2    H5 6259   1.113   2.508  12.701 -1.7117 -1.7352 -2.0921
  419MPD2    N1 6260   1.131   2.254  12.317  0.1629 -0.1295  0.4153
  419MPD2    H7 6261   1.051   2.316  12.309 -0.1733 -0.5090  0.8283
  420TMC3    C1 6262   1.180   2.583  12.922 -0.2873  1.0083 -0.3066
  420TMC3    C2 6263   1.095   2.669  12.861 -0.1348  0.1677  0.0534
  420TMC3    C3 6264   1.067   2.785  12.934  0.2003 -0.0256  0.3341
  420TMC3    C4 6265   1.247   2.607  13.044 -0.0879 -0.0974  0.2531
  420TMC3    C5 6266   1.220   2.728  13.106  0.8171  0.1954  0.1130
  420TMC3    C6 6267   1.131   2.814  13.052  0.2000  0.0962 -0.4334
  420TMC3     C 6268   1.198   2.448  12.879  0.5702 -0.7264 -0.3206
  420TMC3     O 6269   1.241   2.367  12.959 -0.0905 -0.1551  0.1190
  420TMC3     H 6270   1.043   2.647  12.768  0.7531 -0.4629 -0.2909
  420TMC3    H1 6271   1.320   2.535  13.080  0.0888  0.8110  1.7466
  420TMC3    H2 6272   1.106   2.906  13.102 -1.9151  0.0009 -1.3050
  420TMC3    C7 6273   1.257   2.722  13.245  0.5055  0.8424  0.1962
  420TMC3    C8 6274   0.943   2.840  12.906 -0.3888 -1.1274 -1.0105
  420TMC3    O1 6275   1.297   2.616  13.289 -0.1031  0.0204  0.7088
  420TMC3    O2 6276   0.915   2.842  12.788  0.3459 -0.3425  0.4282
  421TMC3    C1 6277   2.479   4.083  13.904 -0.0570 -0.1525 -0.3960
  421TMC3    C2 6278   2.498   4.199  13.974  0.3876 -0.5855  0.0469
  421TMC3    C3 6279   2.597   4.198  14.071 -0.0785 -0.3990 -0.0315
  421TMC3    C4 6280   2.565   3.976  13.922 -0.1234 -0.1177  0.0761
  421TMC3    C5 6281   2.668   3.991  14.002  0.3831 -0.2660 -0.5500
  421TMC3    C6 6282   2.689   4.099  14.080  0.3574  0.1714 -0.1990
  421TMC3     C 6283   2.389   4.096  13.788  0.4589  0.0514 -0.6032
  421TMC3     O 6284   2.374   4.211  13.743 -0.2721 -0.3040  0.0827
  421TMC3     H 6285   2.429   4.281  13.958  0.1566  0.0025  4.0472
  421TMC3    H1 6286   2.553   3.884  13.866 -0.4186 -0.1761  0.2363
  421TMC3    H2 6287   2.761   4.088  14.161  0.5327  1.8297 -0.1405
  421TMC3    C7 6288   2.790   3.915  14.000  0.5630  0.1558 -0.2352
  421TMC3    C8 6289   2.623   4.326  14.144  0.0958 -0.5261 -0.7572
  421TMC3    O1 6290   2.883   3.984  13.974  0.1777  0.0665 -0.5304
  421TMC3    O2 6291   2.527   4.380  14.186 -0.0811 -0.3167  0.1753
  422TMC3    C1 6292   4.549   0.435  13.058 -0.3711 -0.1300  0.1732
  422TMC3    C2 6293   4.492   0.539  13.120 -0.0610  0.1090  0.1283
  422TMC3    C3 6294   4.363   0.561  13.099  0.1729  0.0444 -0.5701
  422TMC3    C4 6295   4.473   0.339  12.995  0.3296  0.9229  0.4132
  422TMC3    C5 6296   4.337   0.350  13.005 -0.4601  0.2790 -0.1200
  422TMC3    C6 6297   4.285   0.463  13.053  0.0167  0.1966  0.4146
  422TMC3     C 6298   4.671   0.469  12.987  0.1450 -0.0186 -0.2630
  422TMC3     O 6299   4.691   0.587  12.965  0.1601 -0.0656  0.0399
  422TMC3     H 6300   4.555   0.625  13.142  0.0238 -0.0802  0.6182
  422TMC3    H1 6301   4.526   0.256  12.950 -1.0957  0.4781 -0.4172
  422TMC3    H2 6302   4.177   0.476  13.056 -0.0483 -0.3694  0.6368
  422TMC3    C7 6303   4.258   0.252  12.937  0.1416 -0.5470 -0.2848
  422TMC3    C8 6304   4.333   0.704  13.075 -0.5791 -0.1973  0.2481
  422TMC3    O1 6305   4.321   0.186  12.858 -0.1418 -0.0861 -0.1390
  422TMC3    O2 6306   4.398   0.782  13.148 -0.3868 -0.9106 -0.0776
  423MPD2     C 6307   1.388   1.220   0.692  0.5263 -0.1620  0.0488
  423MPD2    C1 6308   1.459   1.102   0.699 -0.2397  0.4564  0.2598
  423MPD2    C2 6309   1.485   1.032   0.584  0.0224 -0.2559 -0.3305
  423MPD2    C3 6310   1.440   1.071   0.465  0.0366 -0.5668 -0.1864
  423MPD2    C4 6311   1.357   1.183   0.462  1.2966 -0.4175 -0.3272
  423MPD2    C5 6312   1.332   1.258   0.577 -0.2223 -0.0773  0.0693
  423MPD2     H 6313   1.540   0.939   0.589  0.5094  0.0700  0.6421
  423MPD2    H1 6314   1.317   1.206   0.364  0.9829  0.3398 -0.0196
  423MPD2    H2 6315   1.363   1.283   0.776  1.0913 -1.0553  0.8810
  423MPD2    H3 6316   1.267   1.344   0.576 -1.6683 -1.1768  1.3981
  423MPD2     N 6317   1.455   0.997   0.343 -0.2172 -0.0567  0.0355
  423MPD2    H5 6318   1.419   1.045   0.261  1.1662  2.2457  0.7633
  423MPD2    N1 6319   1.516   1.048   0.818  0.3058 -0.1343  0.1855
  423MPD2    H7 6320   1.554   0.954   0.815 -0.1775 -0.2940 -0.8489
  424TMC3    C1 6321   1.542   1.002   1.047 -0.0177  0.4611  0.7408
  424TMC3    C2 6322   1.677   0.975   1.035  0.1716  0.4075 -0.5010
  424TMC3    C3 6323   1.739   0.918   1.146 -1.2309  0.3605 -0.0936
  424TMC3    C4 6324   1.473   0.982   1.162 -0.2374  0.5151  0.3508
  424TMC3    C5 6325   1.541   0.928   1.265  0.4171 -0.7310 -1.0789
  424TMC3    C6 6326   1.677   0.889   1.263 -0.2187 -0.0662 -0.5897
  424TMC3     C 6327   1.488   1.089   0.943  0.1597  0.2810  0.9925
  424TMC3     O 6328   1.404   1.167   0.981  0.3695 -0.6163  0.3257
  424TMC3     H 6329   1.726   0.995   0.940 -1.1353 -0.8004 -1.4506
  424TMC3    H1 6330   1.368   0.997   1.138 -0.0767  2.0160  0.5670
  424TMC3    H2 6331   1.740   0.880   1.351  0.6908  1.3713 -1.0943
  424TMC3    C7 6332   1.457   0.857   1.362  0.0993  0.8480  0.2626
  424TMC3    C8 6333   1.871   0.860   1.125 -0.6583  0.4361 -0.9328
  424TMC3    O1 6334   1.520   0.786   1.437 -0.3562  0.3447  0.1685
  424TMC3    O2 6335   1.903   0.774   1.205  0.0137  0.4623 -0.4622
  425MPD2     C 6336   0.823   0.609   0.067  0.4489 -0.4992 -0.0043
  425MPD2    C1 6337   0.781   0.519  17.666 -0.5582 -0.6297  0.9904
  425MPD2    C2 6338   0.658   0.515  17.608 -0.1707  0.5286 -0.3727
  425MPD2    C3 6339   0.570   0.612  17.652  0.0520 -0.0784 -0.2088
  425MPD2    C4 6340   0.606   0.699   0.056 -0.4125 -0.3712  0.5767
  425MPD2    C5 6341   0.732   0.703   0.108  0.7759  0.5433  0.3842
  425MPD2     H 6342   0.617   0.436  17.547  2.8773 -3.0514  2.2481
  425MPD2    H1 6343   0.536   0.768   0.102 -0.0929  0.6516 -0.4709
  425MPD2    H2 6344   0.925   0.616   0.103  0.5257  0.5093 -0.4124
  425MPD2    H3 6345   0.746   0.773   0.189  0.7340 -1.7056  2.3473
  425MPD2     N 6346   0.437   0.592  17.613  0.1675 -0.7323  0.3131
  425MPD2    H5 6347   0.419   0.531  17.534  1.3459 -0.5461 -0.0980
  425MPD2    N1 6348   0.884   0.433  17.631 -0.8944 -0.2937  0.1472
  425MPD2    H7 6349   0.969   0.440  17.687 -0.6348  2.5989 -0.6059
  426TMC3    C1 6350   0.995   0.241  17.547  0.4368  1.0342  0.1637
  426TMC3    C2 6351   1.011   0.165  17.431  0.7827  0.2563  0.0347
  426TMC3    C3 6352   1.030   0.035  17.434 -0.5271  0.2103  0.6623
  426TMC3    C4 6353   1.010   0.182  17.673  0.1777 -0.6820  0.0087
  426TMC3    C5 6354   1.032   0.049  17.673  0.1899 -0.5410 -0.0918
  426TMC3    C6 6355   1.039   4.700  17.553 -0.1553 -0.4190  0.0015
  426TMC3     C 6356   0.880   0.336  17.532  0.2232 -0.7599 -0.4144
  426TMC3     O 6357   0.806   0.324  17.430 -0.7246 -0.2286 -0.2262
  426TMC3     H 6358   0.995   0.221  17.339  0.3197  0.5283  0.2809
  426TMC3    H1 6359   1.003   0.236   0.070 -0.9025  2.1612 -1.7310
  426TMC3    H2 6360   1.030   4.594  17.574  0.5814 -0.6136 -0.6713
  426TMC3    C7 6361   1.042   4.692   0.100  0.4630 -0.2726 -0.0173
  426TMC3    C8 6362   0.943   4.690  17.342  0.8906 -0.3887 -0.3418
  426TMC3    O1 6363   1.070   4.573   0.089  0.5385 -0.0153 -0.3076
  426TMC3    O2 6364   0.963   4.572  17.308 -0.3280 -0.0944 -0.0970
  427MPD2     C 6365   3.661   2.935  15.187  0.2907  0.3636 -0.0203
  427MPD2    C1 6366   3.631   2.802  15.202 -0.6649  0.2775  0.1359
  427MPD2    C2 6367   3.495   2.775  15.201  0.6757  0.1134  1.1392
  427MPD2    C3 6368   3.397   2.869  15.179 -0.4201  0.1987 -0.2678
  427MPD2    C4 6369   3.427   2.992  15.143  0.8372 -0.0065  0.6046
  427MPD2    C5 6370   3.560   3.027  15.141 -0.1964  0.4043 -0.1235
  427MPD2     H 6371   3.467   2.672  15.218  1.9580 -0.4694 -0.2480
  427MPD2    H1 6372   3.351   3.066  15.123  1.7141  0.6973 -0.1057
  427MPD2    H2 6373   3.763   2.972  15.193  0.7569 -0.9856  0.3017
  427MPD2    H3 6374   3.576   3.134  15.137 -1.5937  0.6057 -0.2871
  427MPD2     N 6375   3.255   2.842  15.184  1.0103  0.4924 -0.7322
  427MPD2    H5 6376   3.200   2.918  15.146  0.5638 -0.4382 -1.9743
  427MPD2    N1 6377   3.724   2.703  15.236 -0.0620  0.2823  0.2074
  427MPD2    H7 6378   3.689   2.608  15.231  1.2606 -0.3863  4.4047
  428TMC3    C1 6379   3.948   2.609  15.290 -0.1878 -0.7195 -0.1491
  428TMC3    C2 6380   3.897   2.490  15.317  0.3435  0.0135 -0.8906
  428TMC3    C3 6381   3.994   2.398  15.352  0.8911  0.5671  0.3091
  428TMC3    C4 6382   4.081   2.644  15.313  0.7017  0.0462 -0.4656
  428TMC3    C5 6383   4.171   2.547  15.360 -0.2494 -0.6091 -0.0262
  428TMC3    C6 6384   4.132   2.420  15.375  0.2324 -0.5402 -0.1851
  428TMC3     C 6385   3.855   2.727  15.271  0.2664  0.1940 -0.2930
  428TMC3     O 6386   3.905   2.833  15.297 -0.2659  0.1138  0.5654
  428TMC3     H 6387   3.793   2.460  15.307  0.3724 -0.4600  0.2772
  428TMC3    H1 6388   4.119   2.746  15.316 -1.7601  0.9378  0.3532
  428TMC3    H2 6389   4.196   2.336  15.400 -0.6271 -0.9127  0.8026
  428TMC3    C7 6390   4.308   2.584  15.371  0.8297  0.1393  0.5474
  428TMC3    C8 6391   3.944   2.260  15.367 -0.7216  1.0507  0.6718
  428TMC3    O1 6392   4.368   2.520  15.460  0.2195  0.6004  0.1160
  428TMC3    O2 6393   4.022   2.167  15.332 -0.3274  0.1131 -0.2459
  429MPD2     C 6394   4.611   2.394  17.665 -0.3311  0.1090  0.3481
  429MPD2    C1 6395   0.021   2.360  17.639 -0.6514 -0.4652  0.1938
  429MPD2    C2 6396   0.096   2.443  17.561 -0.1120 -0.9480 -0.2803
  429MPD2    C3 6397   0.050   2.563  17.511  0.3096  0.5126  0.6746
  429MPD2    C4 6398   4.650   2.611  17.555 -0.3796  0.0885 -1.1716
  429MPD2    C5 6399   4.572   2.526  17.639  0.4099  0.1152  0.0155
  429MPD2     H 6400   0.200   2.424  17.539  0.3158  0.7015  0.2923
  429MPD2    H1 6401   4.611   2.701  17.510 -1.1206 -0.5456 -1.7979
  429MPD2    H2 6402   4.539   2.324   0.008 -2.1754  2.3054  0.9256
  429MPD2    H3 6403   4.474   2.559  17.669  0.0104 -0.7434 -0.3495
  429MPD2     N 6404   0.139   2.626  17.421 -0.2771 -0.0462  0.6607
  429MPD2    H5 6405   0.224   2.579  17.392 -0.9129 -0.0246 -1.2961
  429MPD2    N1 6406   0.082   2.240  17.686 -0.1135  0.2363  0.3696
  429MPD2    H7 6407   0.175   2.217  17.652 -0.1970 -1.0205  1.0136
  430TMC3    C1 6408   0.230   2.812  17.295 -0.1831 -0.6513  0.2417
  430TMC3    C2 6409   0.204   2.935  17.241 -0.2825  0.3838  1.1513
  430TMC3    C3 6410   0.299   2.994  17.158  0.2690  0.1539  0.6816
  430TMC3    C4 6411   0.351   2.746  17.274  0.2829  0.7619  0.2123
  430TMC3    C5 6412   0.428   2.803  17.176  0.2357  0.3614  0.1062
  430TMC3    C6 6413   0.403   2.922  17.119 -0.3160 -1.2693  0.4554
  430TMC3     C 6414   0.122   2.757  17.383  0.7315 -0.1632 -0.0139
  430TMC3     O 6415   0.055   2.852  17.425  0.2397  0.2606  0.6991
  430TMC3     H 6416   0.105   2.980  17.245 -1.8322 -3.0612  0.9856
  430TMC3    H1 6417   0.375   2.653  17.325 -0.7858  0.0539 -0.5899
  430TMC3    H2 6418   0.475   2.971  17.054 -1.0536 -0.5650  0.1620
  430TMC3    C7 6419   0.437   2.697  17.076 -0.2953  0.0462  0.2742
  430TMC3    C8 6420   0.250   3.054  17.041 -0.2321  0.7701  0.4226
  430TMC3    O1 6421   0.464   2.585  17.112  0.0173 -0.0597 -0.5416
  430TMC3    O2 6422   0.265   2.986  16.937 -0.2364  0.1985  0.6985
  431MPD2     C 6423   1.105   2.993  12.414  0.4280 -0.1482 -0.3007
  431MPD2    C1 6424   1.221   2.999  12.343 -0.5500  0.3376  0.3602
  431MPD2    C2 6425   1.240   2.907  12.244 -0.2814 -0.3304  0.2120
  431MPD2    C3 6426   1.148   2.805  12.228  0.1064 -0.6464  0.8992
  431MPD2    C4 6427   1.031   2.807  12.300 -0.1448 -0.5277 -0.6215
  431MPD2    C5 6428   1.008   2.899  12.400  0.3887 -0.6936  0.0585
  431MPD2     H 6429   1.334   2.907  12.190 -0.3335 -1.2955  0.1243
  431MPD2    H1 6430   0.961   2.726  12.285 -0.5022 -0.2019 -0.6979
  431MPD2    H2 6431   1.074   3.069  12.484  0.0033  0.2138 -0.8778
  431MPD2    H3 6432   0.911   2.910  12.446  1.8171  1.9123  2.4190
  431MPD2     N 6433   1.154   2.686  12.148 -0.2733 -0.4169 -0.2384
  431MPD2    H5 6434   1.079   2.619  12.164 -0.0702 -0.9113 -1.3452
  431MPD2    N1 6435   1.319   3.096  12.350  0.8183  0.4884 -0.5225
  431MPD2    H7 6436   1.391   3.089  12.279 -0.7842  0.1629 -2.0888
  432TMC3    C1 6437   1.245   2.503  12.034  0.5237  0.0943  0.1195
  432TMC3    C2 6438   1.314   2.463  11.923 -0.2451  0.7549 -0.0554
  432TMC3    C3 6439   1.308   2.332  11.893 -0.0238  0.3674  0.2090
  432TMC3    C4 6440   1.173   2.418  12.121  0.0961 -0.5853 -0.0762
  432TMC3    C5 6441   1.171   2.284  12.087  0.2008  0.3635 -0.1175
  432TMC3    C6 6442   1.234   2.243  11.967  0.7706 -0.1667  0.1033
  432TMC3     C 6443   1.260   2.641  12.081 -0.3858  0.5200  0.2930
  432TMC3     O 6444   1.352   2.707  12.031 -0.3039 -0.0126 -0.4354
  432TMC3     H 6445   1.366   2.532  11.859  1.6064  0.6587  1.3437
  432TMC3    H1 6446   1.109   2.462  12.197  0.3774  1.8504 -1.2547
  432TMC3    H2 6447   1.229   2.137  11.944  4.5832 -0.6834  1.7496
  432TMC3    C7 6448   1.186   2.201  12.204  0.1017 -0.3357  0.4988
  432TMC3    C8 6449   1.395   2.290  11.782  0.3133  0.3407 -0.3908
  432TMC3    O1 6450   1.278   2.122  12.199 -0.2476 -0.1615 -0.1342
  432TMC3    O2 6451   1.360   2.188  11.721  0.1181  0.3428 -0.4439
  433MPD2     C 6452   4.493   1.668  11.061  0.0849 -0.2459  0.1307
  433MPD2    C1 6453   4.527   1.566  11.146  0.0281  0.4697  0.3839
  433MPD2    C2 6454   4.528   1.586  11.282 -0.6168  0.4198 -0.0022
  433MPD2    C3 6455   4.504   1.709  11.336  0.0768  0.2725 -0.1155
  433MPD2    C4 6456   4.473   1.815  11.256 -0.1025 -0.4024  0.6087
  433MPD2    C5 6457   4.476   1.794  11.120 -0.1105 -0.2867  0.1762
  433MPD2     H 6458   4.551   1.509  11.354 -2.6180 -0.2627 -0.0762
  433MPD2    H1 6459   4.461   1.915  11.297  2.4987  0.1955 -0.1062
  433MPD2    H2 6460   4.491   1.666  10.953 -0.7828 -0.8015  0.1613
  433MPD2    H3 6461   4.457   1.876  11.051 -0.0784 -0.1254  0.3581
  433MPD2     N 6462   4.501   1.716  11.476 -0.4879  0.0562  0.3948
  433MPD2    H5 6463   4.529   1.628  11.520  0.4606  1.1189  1.9306
  433MPD2    N1 6464   4.575   1.437  11.108 -0.3258  0.4190  0.6422
  433MPD2    H7 6465   4.614   1.381  11.183 -2.3124 -1.2005  0.4367
  434TMC3    C1 6466   4.649   1.249  10.981  0.2052  0.6600  0.1010
  434TMC3    C2 6467   4.700   1.191  11.089 -0.2688 -0.9714  0.9106
  434TMC3    C3 6468   4.692   1.054  11.106 -0.3915 -0.6101  0.4185
  434TMC3    C4 6469   4.597   1.173  10.884 -0.0340 -0.1111  0.2886
  434TMC3    C5 6470   4.589   1.034  10.904  0.2834 -0.0825 -0.7531
  434TMC3    C6 6471   4.645   0.968  11.009  0.6374 -0.8925  0.0011
  434TMC3     C 6472   4.601   1.393  10.981  0.2822 -0.4610 -0.7479
  434TMC3     O 6473   4.562   1.448  10.882 -0.3985  1.0672 -0.3153
  434TMC3     H 6474   0.022   1.259  11.160  1.5995 -0.0137 -1.2199
  434TMC3    H1 6475   4.550   1.216  10.796  0.5204  2.2843  1.1773
  434TMC3    H2 6476   4.641   0.862  11.026 -2.9081 -0.6590  0.5801
  434TMC3    C7 6477   4.496   0.963  10.817  0.4098 -0.4906 -0.0123
  434TMC3    C8 6478   0.032   0.989  11.214 -0.0900  0.1171 -0.2520
  434TMC3    O1 6479   4.490   0.999  10.702 -0.0380 -0.2714  0.4029
  434TMC3    O2 6480   4.701   0.897  11.271 -0.4056 -0.7179  0.3568
  435MPD2     C 6481   1.719   1.209  15.389 -0.0017  0.1512 -0.0162
  435MPD2    C1 6482   1.678   1.248  15.516  0.0282  0.0397 -0.9485
  435MPD2    C2 6483   1.764   1.229  15.619  0.2473 -0.2268 -0.0808
  435MPD2    C3 6484   1.889   1.170  15.607  0.2841 -0.6424  0.1429
  435MPD2    C4 6485   1.924   1.133  15.478 -0.1047 -0.5878  0.1157
  435MPD2    C5 6486   1.842   1.154  15.372  0.3035 -0.2164 -0.7258
  435MPD2     H 6487   1.734   1.266  15.717  1.2009  0.4704 -0.0489
  435MPD2    H1 6488   2.021   1.092  15.452 -0.0124  0.2784 -0.8868
  435MPD2    H2 6489   1.648   1.212  15.308 -0.3586  1.0773  0.3331
  435MPD2    H3 6490   1.879   1.132  15.272 -0.0645 -1.9817 -0.4760
  435MPD2     N 6491   1.974   1.155  15.721  0.1315 -0.0478  0.5724
  435MPD2    H5 6492   1.961   1.216  15.802 -0.4914 -1.1659  1.3034
  435MPD2    N1 6493   1.549   1.297  15.547 -0.1001  0.1285  0.7351
  435MPD2    H7 6494   1.526   1.314  15.645 -0.0965  0.8598  0.6052
  436TMC3    C1 6495   1.225   1.432  15.714  0.0733  0.2159  0.4587
  436TMC3    C2 6496   1.290   1.361  15.619 -0.1756  0.5546 -0.5913
  436TMC3    C3 6497   1.357   1.424  15.519 -0.7858 -0.4098 -0.5806
  436TMC3    C4 6498   1.228   1.569  15.706 -0.1401  0.6159  0.0151
  436TMC3    C5 6499   1.302   1.629  15.611  0.4120  0.4919  0.5915
  436TMC3    C6 6500   1.364   1.558  15.513  0.5651 -0.0152 -0.7871
  436TMC3     C 6501   1.127   1.349  15.776 -0.2203  0.3632 -0.2275
  436TMC3     O 6502   1.116   1.235  15.738  0.1068  0.5643  0.1161
  436TMC3     H 6503   1.286   1.253  15.611  3.0997  0.4321 -0.5312
  436TMC3    H1 6504   1.158   1.636  15.755  0.7125  1.2450  0.3764
  436TMC3    H2 6505   1.431   1.606  15.443  1.0829  0.9700  0.3882
  436TMC3    C7 6506   1.304   1.773  15.611  0.0606 -0.1891 -0.3220
  436TMC3    C8 6507   1.472   1.367  15.457  0.4547  0.2058 -0.5742
  436TMC3    O1 6508   1.264   1.832  15.512 -0.0260 -0.4143  0.2210
  436TMC3    O2 6509   1.493   1.398  15.340  0.8069  0.4053  0.4680
  437TMC3    C1 6510   0.216   3.609  12.798  0.5338 -0.1823  0.8213
  437TMC3    C2 6511   0.120   3.679  12.856 -0.0721 -0.0799 -0.1205
  437TMC3    C3 6512   0.123   3.814  12.841 -0.6545 -0.8848 -0.1740
  437TMC3    C4 6513   0.321   3.662  12.728 -0.3315 -0.1688  0.3545
  437TMC3    C5 6514   0.321   3.798  12.726 -0.1209 -0.2081  0.3001
  437TMC3    C6 6515   0.215   3.885  12.771 -0.0082  0.0930 -0.1291
  437TMC3     C 6516   0.245   3.477  12.851  0.1175 -0.4326 -0.7593
  437TMC3     O 6517   0.366   3.449  12.851 -0.6615 -0.0574  0.3060
  437TMC3     H 6518   0.039   3.639  12.917  0.4880 -1.2163 -0.1317
  437TMC3    H1 6519   0.406   3.608  12.689  1.2122  1.5596  1.3401
  437TMC3    H2 6520   0.226   3.993  12.769 -1.7473  0.2945  0.8591
  437TMC3    C7 6521   0.428   3.858  12.653 -0.5314 -0.2470 -0.1272
  437TMC3    C8 6522   0.033   3.897  12.916 -0.8949  0.0801  0.6343
  437TMC3    O1 6523   0.391   3.965  12.606  0.0718  0.7870  0.8035
  437TMC3    O2 6524   4.640   3.859  12.920  0.1285  0.8995 -0.1043
  438MPD2     C 6525   2.529   3.820  16.717  0.1472  0.0381 -0.3618
  438MPD2    C1 6526   2.578   3.748  16.816 -0.6349  0.1968  0.6442
  438MPD2    C2 6527   2.524   3.753  16.939  0.5261 -0.0882  0.3091
  438MPD2    C3 6528   2.415   3.833  16.966 -0.3709  0.4258 -0.1029
  438MPD2    C4 6529   2.349   3.893  16.861 -0.4322  0.4702 -0.0345
  438MPD2    C5 6530   2.412   3.887  16.736  0.3446 -0.0080 -0.0021
  438MPD2     H 6531   2.576   3.702  17.019  0.9376  1.5084  1.0523
  438MPD2    H1 6532   2.251   3.936  16.875 -1.0181 -0.8697 -0.0645
  438MPD2    H2 6533   2.571   3.835  16.618  1.9408 -0.4116  0.3179
  438MPD2    H3 6534   2.370   3.946  16.656 -1.9274 -0.3864  0.9199
  438MPD2     N 6535   2.381   3.852  17.102 -0.3901  0.7547 -0.2159
  438MPD2    H5 6536   2.453   3.818  17.165 -0.8319 -1.2463 -0.8013
  438MPD2    N1 6537   2.703   3.688  16.802 -0.6372  0.1608  0.2820
  438MPD2    H7 6538   2.753   3.656  16.884  0.5169 -0.2562 -0.5781
  439TMC3    C1 6539   2.925   3.685  16.719  0.2576 -0.4763 -0.9861
  439TMC3    C2 6540   3.010   3.628  16.629 -0.4823 -0.6364  0.3529
  439TMC3    C3 6541   3.135   3.596  16.672 -0.0591  0.2530  0.1663
  439TMC3    C4 6542   2.956   3.717  16.846  0.4419  0.3529  0.0433
  439TMC3    C5 6543   3.082   3.692  16.889 -0.4992  0.1635  0.0112
  439TMC3    C6 6544   3.171   3.627  16.804  0.0771 -0.7075  0.3345
  439TMC3     C 6545   2.783   3.678  16.686  0.3250  0.0607 -0.2341
  439TMC3     O 6546   2.760   3.679  16.567 -0.4498  0.0335  0.6727
  439TMC3     H 6547   2.989   3.613  16.524 -1.6857  0.5576  0.4174
  439TMC3    H1 6548   2.894   3.788  16.900 -2.9914 -2.1488 -0.5883
  439TMC3    H2 6549   3.273   3.603  16.834 -0.0951 -1.1239  0.5774
  439TMC3    C7 6550   3.115   3.692  17.031  0.3128  0.1012  0.0881
  439TMC3    C8 6551   3.232   3.525  16.592 -0.6029  0.0373  0.7113
  439TMC3    O1 6552   3.023   3.660  17.101 -0.1492 -0.0611  0.1352
  439TMC3    O2 6553   3.338   3.517  16.652 -0.1171 -0.8755  0.3443
  440MPD2     C 6554   1.739   4.564  14.857 -0.7768  0.3942  0.8249
  440MPD2    C1 6555   1.792   4.625  14.967 -0.6291  0.8081  0.3049
  440MPD2    C2 6556   1.926   4.602  15.008 -0.4757 -0.5320  0.1092
  440MPD2    C3 6557   1.995   4.497  14.938  0.1720 -0.5792 -0.8940
  440MPD2    C4 6558   1.937   4.435  14.827  0.3685 -0.5285  0.0239
  440MPD2    C5 6559   1.812   4.475  14.784  0.2816  0.2596 -0.1109
  440MPD2     H 6560   1.972   4.659  15.088 -1.8084  0.5416  0.1074
  440MPD2    H1 6561   1.994   4.367  14.765 -0.9641 -0.3571 -1.3975
  440MPD2    H2 6562   1.637   4.581  14.826  0.1136  1.7988 -1.3120
  440MPD2    H3 6563   1.758   4.425  14.705 -1.3456  0.9564  0.5417
  440MPD2     N 6564   2.124   4.459  14.968 -0.0322  0.3376 -0.5342
  440MPD2    H5 6565   2.153   4.385  14.906  1.9590 -0.1732  1.0181
  440MPD2    N1 6566   1.713   4.715  15.048  0.2091 -0.8170  0.9650
  440MPD2    H7 6567   1.745   0.012  15.142 -1.4560  2.2035  0.8585
  441TMC3    C1 6568   2.336   4.440  15.073 -0.6386 -0.9745  0.2545
  441TMC3    C2 6569   2.431   4.521  15.130 -0.1807 -0.5903  0.7535
  441TMC3    C3 6570   2.507   4.458  15.229 -0.2587 -0.0182 -0.6573
  441TMC3    C4 6571   2.309   4.310  15.093  0.2861 -0.4024 -0.1374
  441TMC3    C5 6572   2.381   4.255  15.197 -0.4862  0.1593  0.1872
  441TMC3    C6 6573   2.478   4.325  15.270  0.2205 -0.0202  0.6448
  441TMC3     C 6574   2.215   4.523  15.047 -0.5735 -0.2921  0.4411
  441TMC3     O 6575   2.220   4.630  15.099  0.7931  0.0357  0.1610
  441TMC3     H 6576   2.437   4.626  15.104  1.4921 -0.9200 -0.1518
  441TMC3    H1 6577   2.210   4.276  15.066 -0.5295  1.4088  0.5858
  441TMC3    H2 6578   2.528   4.280  15.355  0.8427  1.7030  1.1793
  441TMC3    C7 6579   2.348   4.123  15.241  0.3141 -0.1740  0.4769
  441TMC3    C8 6580   2.508   4.546  15.342 -0.3259  0.7682 -0.8837
  441TMC3    O1 6581   2.408   4.077  15.338  0.1215  0.2508 -0.6487
  441TMC3    O2 6582   2.592   4.538  15.434  0.5248  0.1735 -0.3296
  442MPD2     C 6583   0.110   0.251  16.946 -0.2253  0.2881  0.4199
  442MPD2    C1 6584   0.064   0.253  16.811 -0.2003 -0.2338 -1.0107
  442MPD2    C2 6585   0.091   0.142  16.731 -0.2510 -0.3311  0.2936
  442MPD2    C3 6586   0.167   0.038  16.786  0.0524  0.2752 -0.4565
  442MPD2    C4 6587   0.202   0.026  16.922  0.8451  0.1842 -0.2065
  442MPD2    C5 6588   0.168   0.131  16.998 -0.1941  0.4269 -0.1868
  442MPD2     H 6589   0.063   0.148  16.626  0.7171  0.8453  0.0982
  442MPD2    H1 6590   0.262   4.664  16.951  0.7332  0.1236 -0.1541
  442MPD2    H2 6591   0.087   0.333  17.014 -0.9432  1.5091 -1.2756
  442MPD2    H3 6592   0.188   0.130  17.104  0.9026  1.8883 -0.3840
  442MPD2     N 6593   0.213   4.646  16.712  0.8729  0.7641  0.3564
  442MPD2    H5 6594   0.269   4.578  16.762  2.4223  2.2321  0.6112
  442MPD2    N1 6595   4.715   0.365  16.765 -0.0942  0.1147 -0.1867
  442MPD2    H7 6596   4.673   0.348  16.674  0.6791  0.0080 -0.5231
  443TMC3    C1 6597   4.595   0.562  16.761 -0.5917 -0.1008  0.2614
  443TMC3    C2 6598   4.592   0.532  16.627 -0.7520  0.1071  0.0511
  443TMC3    C3 6599   4.472   0.556  16.563  0.1678  0.3944  0.0188
  443TMC3    C4 6600   4.485   0.596  16.833  0.7899  0.7555  0.2072
  443TMC3    C5 6601   4.370   0.623  16.765 -0.7309  0.5225  0.6366
  443TMC3    C6 6602   4.359   0.599  16.629 -0.4219 -0.0894 -1.3551
  443TMC3     C 6603   4.695   0.486  16.827  0.1782  0.0807 -0.3489
  443TMC3     O 6604   0.016   0.533  16.932  0.3377  0.5645 -0.0300
  443TMC3     H 6605   4.686   0.513  16.577  0.5061  2.4908  1.5226
  443TMC3    H1 6606   4.489   0.602  16.941  3.6596  0.9769  0.0858
  443TMC3    H2 6607   4.266   0.590  16.574 -1.0208  1.8665 -0.6618
  443TMC3    C7 6608   4.247   0.599  16.842 -0.0007  0.1875 -0.1619
  443TMC3    C8 6609   4.452   0.476  16.448  0.0887  0.1240 -0.1491
  443TMC3    O1 6610   4.268   0.561  16.958  0.3666 -0.1219  0.3662
  443TMC3    O2 6611   4.518   0.373  16.442 -0.6791  0.1501  0.2811
  444MPD2     C 6612   0.517   4.305  17.015 -0.2247  0.7794 -0.1415
  444MPD2    C1 6613   0.425   4.249  16.935  0.2125  0.2500  0.7634
  444MPD2    C2 6614   0.452   4.160  16.839 -0.0059  0.3257 -0.8173
  444MPD2    C3 6615   0.584   4.114  16.825 -0.0539 -0.3262  0.5030
  444MPD2    C4 6616   0.680   4.161  16.906  0.3803  0.4930 -0.0920
  444MPD2    C5 6617   0.645   4.252  17.002 -0.2107  0.0245 -0.7277
  444MPD2     H 6618   0.371   4.126  16.776 -1.5206  1.0111  0.7586
  444MPD2    H1 6619   0.784   4.131  16.899 -0.3785 -2.0368 -0.5062
  444MPD2    H2 6620   0.496   4.375  17.095  0.5418 -0.1480  0.8708
  444MPD2    H3 6621   0.718   4.291  17.072  1.0574 -0.8531 -1.5659
  444MPD2     N 6622   0.606   4.025  16.712  0.0618  0.4937 -0.5033
  444MPD2    H5 6623   0.522   3.988  16.668  0.8348 -0.9402 -0.7659
  444MPD2    N1 6624   0.285   4.275  16.962  0.9090  0.2690 -0.0890
  444MPD2    H7 6625   0.225   4.230  16.895  0.9258  1.4906 -0.9189
  445TMC3    C1 6626   0.697   3.846  16.608  0.2619  0.0962  0.0429
  445TMC3    C2 6627   0.578   3.812  16.556  0.0301 -0.0037  0.1832
  445TMC3    C3 6628   0.543   3.684  16.530 -0.1036  0.3308  0.0588
  445TMC3    C4 6629   0.788   3.748  16.629 -0.0376 -0.2795  0.2790
  445TMC3    C5 6630   0.749   3.619  16.614  0.4377  0.2967  0.1498
  445TMC3    C6 6631   0.628   3.578  16.575 -0.0571 -0.5819 -0.3488
  445TMC3     C 6632   0.722   3.973  16.674 -0.3126  0.0998 -0.4918
  445TMC3     O 6633   0.837   3.994  16.713 -0.1496 -0.5754 -0.0118
  445TMC3     H 6634   0.516   3.892  16.516 -0.0854  0.3174  0.9913
  445TMC3    H1 6635   0.886   3.761  16.674  0.4483 -0.1222 -0.8115
  445TMC3    H2 6636   0.605   3.473  16.587 -1.2986 -0.2573  0.1299
  445TMC3    C7 6637   0.830   3.521  16.667 -0.1271 -0.0023  0.3064
  445TMC3    C8 6638   0.405   3.655  16.503  0.0757  0.0211 -0.2645
  445TMC3    O1 6639   0.787   3.436  16.748 -0.3921  0.0662 -0.0164
  445TMC3    O2 6640   0.327   3.744  16.524 -0.3344  0.2590  0.2232
  446MPD2     C 6641   4.243   0.836  11.721 -0.3362  0.2651 -0.3576
  446MPD2    C1 6642   4.267   0.874  11.587 -0.4780 -0.2269  1.0041
  446MPD2    C2 6643   4.374   0.963  11.567 -0.9063 -0.1774  0.0703
  446MPD2    C3 6644   4.446   1.009  11.677 -0.2277  0.3349 -0.1693
  446MPD2    C4 6645   4.411   0.982  11.807  0.8714  0.1956 -0.4482
  446MPD2    C5 6646   4.311   0.887  11.829  0.2097 -0.6051  0.3857
  446MPD2     H 6647   4.395   0.997  11.467  1.3770  0.8820  0.9304
  446MPD2    H1 6648   4.468   1.019  11.891 -0.4739  0.6735  0.2483
  446MPD2    H2 6649   4.159   0.773  11.746  1.7511 -0.5256  4.7100
  446MPD2    H3 6650   4.285   0.852  11.928 -0.2531  1.2976  0.9300
  446MPD2     N 6651   4.561   1.077  11.645  0.1467 -0.5131  0.1778
  446MPD2    H5 6652   4.574   1.091  11.545 -1.5757  2.2241  0.3261
  446MPD2    N1 6653   4.201   0.815  11.478 -0.5406  0.5697 -0.0130
  446MPD2    H7 6654   4.240   0.828  11.385 -1.2983 -0.0001 -0.4157
  447TMC3    C1 6655   0.030   1.205  11.677  0.0876 -0.3561 -0.0613
  447TMC3    C2 6656   0.051   1.228  11.540 -0.1695 -0.1322 -0.1002
  447TMC3    C3 6657   0.158   1.301  11.498  0.2923  0.9674  0.7530
  447TMC3    C4 6658   0.119   1.257  11.769 -0.3437  0.4901 -0.0541
  447TMC3    C5 6659   0.220   1.341  11.723  0.2352 -0.2537  0.7648
  447TMC3    C6 6660   0.225   1.378  11.590 -0.1154 -1.0335 -0.0546
  447TMC3     C 6661   4.659   1.110  11.733  0.5424 -0.5195 -0.0156
  447TMC3     O 6662   4.670   1.076  11.854  1.1588  0.1951 -0.3525
  447TMC3     H 6663   4.711   1.183  11.464 -0.7164  1.3460 -0.5271
  447TMC3    H1 6664   0.107   1.233  11.874  0.2170  1.4113  0.2234
  447TMC3    H2 6665   0.296   1.458  11.571 -0.8129 -0.7287 -1.3037
  447TMC3    C7 6666   0.264   1.443  11.817  0.2314  0.3175  0.4298
  447TMC3    C8 6667   0.147   1.365  11.370  0.1562  0.7082  0.0270
  447TMC3    O1 6668   0.254   1.557  11.777 -0.1707 -0.4949 -0.0481
  447TMC3    O2 6669   0.033   1.403  11.341 -0.0726 -0.0117  0.6271
  448TMC3    C1 6670   3.141   0.434  16.780 -0.2042  0.2089 -0.1891
  448TMC3    C2 6671   3.116   0.320  16.706 -1.0898  0.5034  0.3408
  448TMC3    C3 6672   3.171   0.199  16.739  0.4558 -0.0145  0.3661
  448TMC3    C4 6673   3.228   0.431  16.884  0.6904  1.0832  0.3032
  448TMC3    C5 6674   3.282   0.310  16.920 -0.0751 -0.3829  0.0532
  448TMC3    C6 6675   3.254   0.195  16.847 -0.2802 -0.0608  0.0927
  448TMC3     C 6676   3.112   0.565  16.728  0.2385  0.8001  0.8678
  448TMC3     O 6677   3.139   0.662  16.798  0.2557  0.5844 -0.4363
  448TMC3     H 6678   3.042   0.329  16.627  1.0901 -1.2117 -1.8981
  448TMC3    H1 6679   3.269   0.522  16.927  0.2145  1.2630  0.3785
  448TMC3    H2 6680   3.293   0.100  16.882  0.5392  0.1730 -0.1792
  448TMC3    C7 6681   3.377   0.303  17.035 -0.1523 -0.0401 -0.1860
  448TMC3    C8 6682   3.137   0.073  16.683  0.3581 -0.0856 -0.3630
  448TMC3    O1 6683   3.469   0.222  17.037 -0.2018 -0.2418 -0.4683
  448TMC3    O2 6684   3.153   4.700  16.758 -0.1185  0.6044  0.0767
  449MPD2     C 6685   3.911   3.815  13.460 -0.2154 -0.4764 -0.1793
  449MPD2    C1 6686   3.854   3.694  13.437  0.0673  0.6239  0.4771
  449MPD2    C2 6687   3.770   3.640  13.530  0.9583  0.0865  0.0451
  449MPD2    C3 6688   3.741   3.706  13.652 -0.2504  0.1777 -0.1387
  449MPD2    C4 6689   3.815   3.817  13.677 -0.2846  0.2012 -0.2529
  449MPD2    C5 6690   3.893   3.873  13.583 -0.0339  0.6856  0.5002
  449MPD2     H 6691   3.728   3.541  13.517 -0.1178  0.3537  1.4231
  449MPD2    H1 6692   3.789   3.883  13.758  2.7941  0.4898  0.5217
  449MPD2    H2 6693   3.971   3.870  13.388 -0.3701 -0.1122 -0.0313
  449MPD2    H3 6694   3.941   3.967  13.606  1.2534  0.3347 -0.7046
  449MPD2     N 6695   3.654   3.648  13.755  0.2600  0.3247 -0.2316
  449MPD2    H5 6696   3.614   3.557  13.735 -1.5012  0.2530  3.3961
  449MPD2    N1 6697   3.866   3.610  13.325  0.4756  0.2835 -0.6445
  449MPD2    H7 6698   3.810   3.527  13.312  0.2063  0.1805  1.0545
  450TMC3    C1 6699   3.965   3.502  13.147 -0.1446  0.0855  0.1338
  450TMC3    C2 6700   4.088   3.434  13.152  0.7130  0.3685 -0.1419
  450TMC3    C3 6701   4.078   3.297  13.147 -0.1249 -0.8063  0.4327
  450TMC3    C4 6702   3.843   3.439  13.129 -0.2783 -0.3294  0.9961
  450TMC3    C5 6703   3.841   3.307  13.159  0.5810 -0.0453  1.0502
  450TMC3    C6 6704   3.954   3.229  13.156 -0.1586  0.5872 -0.3767
  450TMC3     C 6705   3.968   3.619  13.237 -0.1246  0.2912 -0.3138
  450TMC3     O 6706   4.073   3.675  13.254  0.0271  0.0884 -0.0165
  450TMC3     H 6707   4.177   3.492  13.174  0.5830  0.1953  0.8307
  450TMC3    H1 6708   3.747   3.490  13.123 -0.7977 -1.4898 -0.6798
  450TMC3    H2 6709   3.949   3.121  13.151 -2.8853  0.7359 -0.8352
  450TMC3    C7 6710   3.762   3.284  13.273  0.4230 -0.2834 -0.2089
  450TMC3    C8 6711   4.187   3.224  13.210  0.5037 -0.1636 -0.9978
  450TMC3    O1 6712   3.711   3.385  13.316 -0.5144 -0.2960 -0.0811
  450TMC3    O2 6713   4.155   3.115  13.258 -0.2814  0.4189  0.2250
  451MPD2     C 6714   1.843   3.089   1.176 -0.4181  0.3115  0.4379
  451MPD2    C1 6715   1.746   3.062   1.275  1.0238  0.2884 -0.3006
  451MPD2    C2 6716   1.763   2.991   1.388  0.1865 -0.3517  0.6789
  451MPD2    C3 6717   1.893   2.935   1.402 -0.5294  0.1034 -0.4663
  451MPD2    C4 6718   1.993   2.954   1.300 -0.6083  0.8136  0.1260
  451MPD2    C5 6719   1.965   3.027   1.189  0.1241  0.3350 -0.5292
  451MPD2     H 6720   1.692   2.973   1.467 -1.0108  3.2267  0.3912
  451MPD2    H1 6721   2.090   2.907   1.309 -0.7932  0.8448  2.1551
  451MPD2    H2 6722   1.828   3.154   1.090 -1.3662  1.0150  1.1362
  451MPD2    H3 6723   2.040   3.047   1.114  1.3892  0.1454  0.6915
  451MPD2     N 6724   1.933   2.854   1.516 -0.1053  0.5293  0.4706
  451MPD2    H5 6725   2.021   2.803   1.515 -0.4959 -0.1025 -1.1169
  451MPD2    N1 6726   1.613   3.098   1.239  0.1453  0.1140 -0.2549
  451MPD2    H7 6727   1.606   3.139   1.146 -0.0342 -2.9674 -1.6113
  452TMC3    C1 6728   1.893   2.714   1.697 -0.8619 -0.7421 -0.2550
  452TMC3    C2 6729   1.844   2.702   1.830  0.6386  0.1376  0.9679
  452TMC3    C3 6730   1.864   2.592   1.907 -0.3707 -0.3934 -0.3336
  452TMC3    C4 6731   1.965   2.610   1.646  0.6204  0.0655 -0.7330
  452TMC3    C5 6732   1.988   2.502   1.727  0.2574 -0.0318  0.4209
  452TMC3    C6 6733   1.933   2.487   1.854  0.4589  0.4320  0.1901
  452TMC3     C 6734   1.845   2.821   1.620 -0.0311  0.4736  0.5030
  452TMC3     O 6735   1.749   2.882   1.667 -0.2162  0.1281  0.3339
  452TMC3     H 6736   1.784   2.782   1.872 -0.1997 -0.9417  1.8436
  452TMC3    H1 6737   1.993   2.598   1.541  0.4151  0.3609 -0.8194
  452TMC3    H2 6738   1.939   2.399   1.917 -0.2083 -0.1241 -0.5038
  452TMC3    C7 6739   2.022   2.381   1.657  0.1135  0.9178 -0.3542
  452TMC3    C8 6740   1.747   2.537   1.981  0.1862  0.1916 -0.1438
  452TMC3    O1 6741   2.000   2.366   1.541 -0.3978  0.0170 -0.2730
  452TMC3    O2 6742   1.721   2.416   1.974  0.0754  0.3913 -0.3724
  453TMC3    C1 6743   1.981   4.596  11.903 -0.3027 -0.2357 -0.0995
  453TMC3    C2 6744   1.916   4.496  11.974 -0.1468  0.7842 -0.0627
  453TMC3    C3 6745   1.836   4.414  11.900  0.4509  0.7054 -0.4882
  453TMC3    C4 6746   1.989   4.603  11.767  0.2343 -0.0377  0.2735
  453TMC3    C5 6747   1.919   4.506  11.696  0.9700  0.5620 -0.3099
  453TMC3    C6 6748   1.846   4.413  11.762  0.2141  0.4346 -0.6578
  453TMC3     C 6749   2.079   4.683  11.977  0.3291 -0.4776 -0.5562
  453TMC3     O 6750   2.141   0.040  11.909 -0.3073  0.7685  0.1022
  453TMC3     H 6751   1.905   4.480  12.080  0.0221  1.5281  0.0633
  453TMC3    H1 6752   2.049   4.678  11.718 -2.8916  1.8296 -0.6628
  453TMC3    H2 6753   1.795   4.342  11.699  0.0351 -0.0194  0.0025
  453TMC3    C7 6754   1.944   4.484  11.557 -0.5115  0.7582  0.5107
  453TMC3    C8 6755   1.775   4.295  11.957  0.0850 -0.2981  0.2944
  453TMC3    O1 6756   1.851   4.453  11.483  0.4757  0.2943 -0.3672
  453TMC3    O2 6757   1.698   4.317  12.044  0.0703  0.0087  0.1562
  454MPD2     C 6758   1.339   3.976  16.387  0.1168 -1.4535  0.6085
  454MPD2    C1 6759   1.293   4.063  16.290  0.1423  0.3759  0.0923
  454MPD2    C2 6760   1.236   4.186  16.335 -0.1221  0.4643 -0.2885
  454MPD2    C3 6761   1.232   4.212  16.470  0.6116  1.0258 -0.0465
  454MPD2    C4 6762   1.280   4.124  16.558 -0.6251  0.2730 -0.4412
  454MPD2    C5 6763   1.335   4.006  16.518 -0.8896 -0.6518  0.0587
  454MPD2     H 6764   1.198   4.261  16.267 -2.1341 -1.2811 -1.0628
  454MPD2    H1 6765   1.277   4.150  16.664 -0.5408  0.1406 -0.4066
  454MPD2    H2 6766   1.368   3.873  16.369  0.2505 -1.6839  2.1140
  454MPD2    H3 6767   1.359   3.930  16.592 -0.9175 -0.8526 -0.1400
  454MPD2     N 6768   1.168   4.323  16.541  0.2399  0.1859  0.3271
  454MPD2    H5 6769   1.149   4.311  16.640  1.5349  0.6545  0.6376
  454MPD2    N1 6770   1.282   4.031  16.152 -0.1243  0.0721 -0.7337
  454MPD2    H7 6771   1.254   4.104  16.087  0.1630  0.6190 -0.2505
  455TMC3    C1 6772   0.992   4.479  16.531  0.6738  0.1539  0.7354
  455TMC3    C2 6773   0.981   4.467  16.667 -0.3609  0.2261 -0.5264
  455TMC3    C3 6774   0.856   4.442  16.727  0.0956 -0.7171  0.1086
  455TMC3    C4 6775   0.884   4.442  16.455 -0.5193 -0.0805  0.2759
  455TMC3    C5 6776   0.765   4.400  16.515  0.2786 -0.9011 -0.3490
  455TMC3    C6 6777   0.750   4.410  16.646 -0.0041 -0.5281 -0.5551
  455TMC3     C 6778   1.121   4.433  16.476 -0.6724 -0.4116  0.8632
  455TMC3     O 6779   1.128   4.466  16.358  0.2124  0.2625 -0.2087
  455TMC3     H 6780   1.065   4.494  16.729  0.3354 -0.2758 -1.2395
  455TMC3    H1 6781   0.900   4.435  16.348  2.3328 -0.4567  0.7244
  455TMC3    H2 6782   0.656   4.372  16.685 -2.1700  2.4292 -2.8567
  455TMC3    C7 6783   0.724   4.268  16.462 -0.1551 -0.3602  0.0681
  455TMC3    C8 6784   0.837   4.485  16.868 -0.0706 -0.5892 -0.1762
  455TMC3    O1 6785   0.613   4.224  16.484 -0.4016 -0.2795  0.1523
  455TMC3    O2 6786   0.938   4.486  16.937  0.0160 -0.3703 -0.4483
  456MPD2     C 6787   3.608   3.569  16.149  0.5098  0.0123 -0.0849
  456MPD2    C1 6788   3.676   3.640  16.243 -0.3553  0.0466  0.4987
  456MPD2    C2 6789   3.602   3.715  16.333 -0.0663 -0.7230  0.7547
  456MPD2    C3 6790   3.468   3.745  16.318  0.4596 -0.1193  0.3495
  456MPD2    C4 6791   3.404   3.672  16.219  0.4001 -0.9523 -0.2861
  456MPD2    C5 6792   3.474   3.585  16.138 -0.5063 -0.0721 -0.4380
  456MPD2     H 6793   3.655   3.771  16.409  0.2078  2.8961 -2.0737
  456MPD2    H1 6794   3.298   3.697  16.217  1.1847  2.3224 -0.1939
  456MPD2    H2 6795   3.657   3.502  16.079  0.9137 -1.0335  1.2190
  456MPD2    H3 6796   3.410   3.531  16.069 -0.0882 -0.0576 -0.8382
  456MPD2     N 6797   3.418   3.836  16.409  0.0678 -0.0000  0.3543
  456MPD2    H5 6798   3.485   3.862  16.481  0.1392  1.3162 -0.1925
  456MPD2    N1 6799   3.812   3.644  16.232 -0.0747  0.0239 -0.3464
  456MPD2    H7 6800   3.850   3.597  16.150  1.7105 -2.2018  1.7743
  457TMC3    C1 6801   3.263   3.985  16.512 -0.2755  0.2569  0.7140
  457TMC3    C2 6802   3.173   4.088  16.500 -0.5334 -0.4682 -0.5880
  457TMC3    C3 6803   3.130   4.154  16.610  0.0604  0.2908 -0.6185
  457TMC3    C4 6804   3.297   3.940  16.643 -0.3241  0.6855  0.0490
  457TMC3    C5 6805   3.259   4.019  16.752 -0.5922  0.3210 -0.0153
  457TMC3    C6 6806   3.173   4.123  16.737  0.4517 -0.6529 -0.3427
  457TMC3     C 6807   3.299   3.901  16.394 -0.5040 -0.7109 -0.1568
  457TMC3     O 6808   3.217   3.897  16.304 -0.1171  0.5966  0.6987
  457TMC3     H 6809   3.153   4.121  16.399  1.3159 -0.7349 -1.0402
  457TMC3    H1 6810   3.361   3.854  16.659  0.2908  0.9460 -1.0017
  457TMC3    H2 6811   3.145   4.185  16.821  0.3146 -0.7472 -0.3180
  457TMC3    C7 6812   3.339   4.008  16.870  0.0122  0.3797 -0.4719
  457TMC3    C8 6813   3.064   4.280  16.598  0.4311 -0.0768  0.4282
  457TMC3    O1 6814   3.396   3.898  16.882 -0.0590  0.1496 -0.0362
  457TMC3    O2 6815   3.023   4.332  16.705  0.1645 -0.4822  0.1714
  458MPD2     C 6816   0.907   3.918  12.469 -0.8171 -0.6204 -0.3271
  458MPD2    C1 6817   0.905   3.802  12.550  0.3464  0.3196  0.2219
  458MPD2    C2 6818   0.786   3.764  12.616 -0.2505 -0.8793  0.2384
  458MPD2    C3 6819   0.664   3.834  12.594 -0.0943  1.3247  0.0577
  458MPD2    C4 6820   0.666   3.937  12.503 -0.5473 -0.4438  0.5341
  458MPD2    C5 6821   0.783   3.978  12.444 -0.5930  0.1317 -0.5645
  458MPD2     H 6822   0.775   3.676  12.678 -1.3235 -0.8110  0.1542
  458MPD2    H1 6823   0.575   3.988  12.474 -0.2491  1.5243  3.0689
  458MPD2    H2 6824   1.000   3.960  12.435 -1.3880 -0.0082 -1.1283
  458MPD2    H3 6825   0.793   4.067  12.383  1.5445 -0.3716 -0.9550
  458MPD2     N 6826   0.546   3.791  12.659 -0.6083 -0.5415 -0.1948
  458MPD2    H5 6827   0.557   3.710  12.719  0.8761  0.0000  0.2629
  458MPD2    N1 6828   1.025   3.736  12.569 -0.6591  0.4781 -0.2985
  458MPD2    H7 6829   1.108   3.770  12.522 -0.0701 -0.0049  0.3931
  459TMC3    C1 6830   1.195   3.598  12.661 -0.0630 -0.0763 -0.5471
  459TMC3    C2 6831   1.290   3.676  12.593 -0.6719  0.2402  0.7406
  459TMC3    C3 6832   1.421   3.657  12.629 -0.0947  0.2525  0.4902
  459TMC3    C4 6833   1.233   3.513  12.765 -0.6730  0.0182 -0.4007
  459TMC3    C5 6834   1.361   3.503  12.803  0.2044 -0.7070 -0.1531
  459TMC3    C6 6835   1.457   3.568  12.728  0.1569 -0.6183  0.4772
  459TMC3     C 6836   1.047   3.626  12.643  0.2717 -0.2781 -0.4280
  459TMC3     O 6837   0.969   3.551  12.692 -0.2096  0.4050 -0.5923
  459TMC3     H 6838   1.257   3.724  12.503  2.0473 -0.7150 -0.7736
  459TMC3    H1 6839   1.156   3.450  12.808 -1.6465  1.1357 -0.4794
  459TMC3    H2 6840   1.562   3.544  12.741  0.2325 -0.5603 -0.0247
  459TMC3    C7 6841   1.390   3.424  12.925 -0.6952  0.9052 -0.1733
  459TMC3    C8 6842   1.515   3.730  12.545  0.1557 -0.1192  0.8189
  459TMC3    O1 6843   1.331   3.317  12.939  0.4316  0.0070 -0.2686
  459TMC3    O2 6844   1.631   3.689  12.530  0.0795  0.1299  0.3218
  460MPD2     C 6845   0.430   1.421  11.139 -0.6558 -0.3185  0.2674
  460MPD2    C1 6846   0.304   1.441  11.194  0.1956 -0.2903 -0.5244
  460MPD2    C2 6847   0.216   1.515  11.126 -1.1163  0.6697 -0.1432
  460MPD2    C3 6848   0.252   1.587  11.011 -0.1419 -0.7967 -0.4013
  460MPD2    C4 6849   0.380   1.579  10.965 -0.0171  0.4045 -0.6156
  460MPD2    C5 6850   0.467   1.490  11.019  0.1801  0.7131 -0.2724
  460MPD2     H 6851   0.112   1.529  11.155 -1.0710  2.5845 -0.8575
  460MPD2    H1 6852   0.412   1.626  10.873 -1.4123  1.8025 -0.3939
  460MPD2    H2 6853   0.503   1.358  11.190  1.1629  1.1443 -0.5057
  460MPD2    H3 6854   0.565   1.478  10.976  1.0139  2.5658  1.1071
  460MPD2     N 6855   0.147   1.652  10.934 -0.0165 -0.6029  0.2876
  460MPD2    H5 6856   0.050   1.635  10.961  0.4323 -3.0905  0.2716
  460MPD2    N1 6857   0.275   1.383  11.319 -0.2598  1.0334 -0.1553
  460MPD2    H7 6858   0.352   1.344  11.373 -2.8897 -2.0934  1.3163
  461TMC3    C1 6859   0.053   1.786  10.773  0.4489  0.1920 -0.3111
  461TMC3    C2 6860   0.008   1.678  10.698 -0.2111 -0.3265  0.3429
  461TMC3    C3 6861   4.663   1.706  10.581  0.6825 -0.1208  0.8276
  461TMC3    C4 6862   0.054   1.917  10.726 -0.3225  0.0940  0.1108
  461TMC3    C5 6863   0.008   1.939  10.598 -0.0732 -0.3115  0.9105
  461TMC3    C6 6864   4.662   1.839  10.531 -0.7653 -0.3559 -0.1179
  461TMC3     C 6865   0.168   1.763  10.859 -0.1380  0.5667 -0.1473
  461TMC3     O 6866   0.266   1.828  10.834  0.2733 -0.0154 -0.2861
  461TMC3     H 6867   0.015   1.577  10.736  2.1801 -0.8158 -1.3644
  461TMC3    H1 6868   0.103   1.988  10.793  0.7654 -1.2883  0.7908
  461TMC3    H2 6869   4.600   1.856  10.444 -0.7675  0.3558  0.0196
  461TMC3    C7 6870   4.712   2.077  10.556  0.6412 -0.4406  0.1020
  461TMC3    C8 6871   4.609   1.604  10.496  0.3873 -0.0772  0.3140
  461TMC3    O1 6872   4.657   2.096  10.445 -0.1134 -0.0381  0.0497
  461TMC3    O2 6873   4.603   1.621  10.375 -0.2419  0.4955 -0.8746
  462TMC3    C1 6874   0.591   2.521   0.412 -0.2043  0.5484 -0.3564
  462TMC3    C2 6875   0.725   2.492   0.406 -0.5353 -0.3413 -0.8735
  462TMC3    C3 6876   0.761   2.359   0.414  0.0887  0.2426 -0.5116
  462TMC3    C4 6877   0.501   2.417   0.444 -0.3322  0.1155  0.4460
  462TMC3    C5 6878   0.543   2.288   0.461 -0.1562 -0.3737 -0.0242
  462TMC3    C6 6879   0.677   2.252   0.439  0.1097 -0.0556  0.5000
  462TMC3     C 6880   0.558   2.662   0.405  0.1549  0.4762  0.1741
  462TMC3     O 6881   0.650   2.741   0.401  0.4438 -0.3798  0.1152
  462TMC3     H 6882   0.801   2.562   0.374 -0.1663  0.2704  1.3360
  462TMC3    H1 6883   0.396   2.442   0.448 -0.5759 -0.9108  0.6785
  462TMC3    H2 6884   0.702   2.149   0.460 -4.7546 -1.8512 -2.6241
  462TMC3    C7 6885   0.452   2.182   0.470  0.2347 -0.4501 -0.1409
  462TMC3    C8 6886   0.893   2.333   0.357  0.4107 -0.2808 -0.3450
  462TMC3    O1 6887   0.500   2.066   0.466  0.5940  0.1617  0.6428
  462TMC3    O2 6888   0.982   2.402   0.398 -0.1171  0.0417  0.3246
  463MPD2     C 6889   1.009   1.327   1.983  0.1261  0.0416 -0.1450
  463MPD2    C1 6890   1.045   1.192   1.980  0.0395  0.0319  0.4696
  463MPD2    C2 6891   1.144   1.165   1.891 -0.1711  0.4001  0.2137
  463MPD2    C3 6892   1.199   1.265   1.817  0.9327 -0.4819  0.3627
  463MPD2    C4 6893   1.160   1.391   1.817 -0.2141 -0.6502 -0.3506
  463MPD2    C5 6894   1.066   1.423   1.909 -0.2000 -0.1445 -0.1135
  463MPD2     H 6895   1.165   1.061   1.869 -0.9871  0.4577 -0.8851
  463MPD2    H1 6896   1.207   1.463   1.751  0.2908 -1.0458 -0.4174
  463MPD2    H2 6897   0.925   1.359   2.043  0.4619 -2.4798  1.6716
  463MPD2    H3 6898   1.042   1.527   1.926  1.8548  0.3761 -0.4325
  463MPD2     N 6899   1.298   1.232   1.731  0.6747 -0.0065 -0.4484
  463MPD2    H5 6900   1.332   1.310   1.675  1.2004 -0.4797 -0.7929
  463MPD2    N1 6901   0.974   1.090   2.050 -0.6214 -0.3287 -0.5731
  463MPD2    H7 6902   1.013   0.997   2.045  0.8462  0.3435 -1.3978
  464TMC3    C1 6903   0.790   0.969   2.143  0.2041  0.1884 -0.2563
  464TMC3    C2 6904   0.669   0.934   2.095  0.3405  0.7228 -0.4213
  464TMC3    C3 6905   0.669   0.798   2.069  0.5266  0.2198 -1.2304
  464TMC3    C4 6906   0.896   0.887   2.178  0.4784 -0.3070  0.1243
  464TMC3    C5 6907   0.882   0.751   2.155  0.1389  0.7912 -0.3542
  464TMC3    C6 6908   0.762   0.704   2.106  0.2047 -0.2298  0.5678
  464TMC3     C 6909   0.841   1.097   2.090 -0.1287 -0.0967  0.6631
  464TMC3     O 6910   0.765   1.186   2.064 -0.2867 -0.2685 -0.3640
  464TMC3     H 6911   0.597   1.004   2.054 -2.4403 -0.6293  2.1159
  464TMC3    H1 6912   0.977   0.934   2.232  0.1892 -0.2900  0.5393
  464TMC3    H2 6913   0.765   0.602   2.069  0.0479  0.4473 -1.3467
  464TMC3    C7 6914   1.012   0.700   2.115  0.8239 -0.0003  0.3434
  464TMC3    C8 6915   0.574   0.750   1.971  0.8442 -0.4272 -0.0003
  464TMC3    O1 6916   1.109   0.767   2.155 -0.1323 -0.5191 -0.9142
  464TMC3    O2 6917   0.604   0.648   1.910 -0.5256  0.1124  0.2525
  465MPD2     C 6918   2.819   4.041  16.614 -0.1234 -0.1660 -0.2130
  465MPD2    C1 6919   2.719   4.092  16.682 -0.5778 -0.6197 -0.3357
  465MPD2    C2 6920   2.603   4.132  16.621  0.2538  0.0275  0.5134
  465MPD2    C3 6921   2.588   4.125  16.485  0.2293  0.2999  0.2973
  465MPD2    C4 6922   2.694   4.077  16.416 -0.1515 -0.6475  0.4121
  465MPD2    C5 6923   2.809   4.033  16.477 -0.6279  0.4445  0.2558
  465MPD2     H 6924   2.525   4.171  16.685 -0.4981 -0.8144  0.1045
  465MPD2    H1 6925   2.693   4.062  16.309  0.0812  0.9369  0.1878
  465MPD2    H2 6926   2.904   3.989  16.657 -0.0552 -0.6707 -0.9378
  465MPD2    H3 6927   2.887   3.982  16.422 -0.6553 -0.0687  0.6986
  465MPD2     N 6928   2.463   4.160  16.436  0.4697 -0.4694  0.5756
  465MPD2    H5 6929   2.381   4.184  16.492  0.2524  0.6305 -0.2293
  465MPD2    N1 6930   2.730   4.117  16.816  0.4619 -0.2567  0.0952
  465MPD2    H7 6931   2.663   4.182  16.855  1.5900  1.2021 -0.3982
  466TMC3    C1 6932   2.113   4.111  16.407  0.3923 -0.4403  0.6401
  466TMC3    C2 6933   2.046   4.209  16.335 -0.3101 -0.2703 -0.3377
  466TMC3    C3 6934   2.118   4.286  16.242  0.1311 -0.2549  0.3866
  466TMC3    C4 6935   2.238   4.071  16.373  0.5036 -0.0220  0.3544
  466TMC3    C5 6936   2.304   4.143  16.281  0.3007  0.2568 -0.0920
  466TMC3    C6 6937   2.246   4.245  16.209 -0.2324  0.5783 -0.2031
  466TMC3     C 6938   2.055   4.043  16.516  0.1221  0.3812 -0.5933
  466TMC3     O 6939   1.981   4.110  16.589  0.2577 -0.5820 -0.3981
  466TMC3     H 6940   1.945   4.238  16.360 -0.0726 -0.7464  1.1257
  466TMC3    H1 6941   2.291   3.990  16.421 -0.8432 -1.8383 -1.2302
  466TMC3    H2 6942   2.306   4.297  16.135  2.1560 -1.4509  0.3100
  466TMC3    C7 6943   2.441   4.143  16.303  0.9733 -0.9485 -0.8178
  466TMC3    C8 6944   2.074   4.421  16.203 -0.7255 -1.0994 -0.1816
  466TMC3    O1 6945   2.510   4.175  16.206 -0.2942  0.0564 -0.3266
  466TMC3    O2 6946   2.106   4.468  16.092  0.1100  0.8246  0.0493
  467TMC3    C1 6947   3.423   2.735  14.084  0.6091  0.2083 -0.1935
  467TMC3    C2 6948   3.390   2.856  14.031  0.2313  0.1040 -0.1873
  467TMC3    C3 6949   3.280   2.862  13.950  0.6923 -0.1141 -0.3087
  467TMC3    C4 6950   3.336   2.628  14.087 -0.0081  0.2749 -0.0636
  467TMC3    C5 6951   3.222   2.642  14.016 -0.7765  0.5439 -0.4018
  467TMC3    C6 6952   3.188   2.756  13.948 -0.0031 -0.1112 -0.3304
  467TMC3     C 6953   3.545   2.730  14.167  0.0629  0.4571  0.9780
  467TMC3     O 6954   3.611   2.835  14.178 -0.0626 -0.5148  0.2538
  467TMC3     H 6955   3.462   2.937  14.035 -0.9085  1.2753 -2.9388
  467TMC3    H1 6956   3.347   2.537  14.145 -0.7685 -1.0922 -2.0423
  467TMC3    H2 6957   3.098   2.762  13.887  0.2859  0.8542 -0.6654
  467TMC3    C7 6958   3.112   2.546  14.037 -0.1559  0.3798 -0.9419
  467TMC3    C8 6959   3.294   2.961  13.846 -0.1456  0.1538  0.4584
  467TMC3    O1 6960   3.139   2.430  14.067  0.0958 -0.3015  0.4351
  467TMC3    O2 6961   3.330   3.071  13.880  0.0710  0.4248 -0.1013
  468MPD2     C 6962   1.670   0.097  10.718  0.3777 -0.1524  0.5830
  468MPD2    C1 6963   1.780   0.178  10.727 -0.1467 -0.4971 -0.4908
  468MPD2    C2 6964   1.849   0.188  10.849 -1.0484  0.4500  0.9531
  468MPD2    C3 6965   1.804   0.123  10.962 -0.8061  0.8015  0.5056
  468MPD2    C4 6966   1.689   0.049  10.954 -0.3190  0.7510 -0.0713
  468MPD2    C5 6967   1.620   0.034  10.835 -0.2678  0.3792 -0.0662
  468MPD2     H 6968   1.928   0.262  10.848 -0.5334 -0.1176 -1.4583
  468MPD2    H1 6969   1.666   4.703  11.033  0.9863 -0.9804 -1.2285
  468MPD2    H2 6970   1.620   0.080  10.624 -0.7457  0.2411  1.1045
  468MPD2    H3 6971   1.535   4.691  10.840  0.1019  0.2193  4.2090
  468MPD2     N 6972   1.876   0.127  11.089 -0.5393 -0.3035  0.3015
  468MPD2    H5 6973   1.832   0.081  11.168  0.1284  0.2799  1.0226
  468MPD2    N1 6974   1.817   0.270  10.624  0.0242 -0.1244  0.0037
  468MPD2    H7 6975   1.898   0.329  10.640 -0.6209  0.6097  0.5494
  469TMC3    C1 6976   1.794   0.407  10.434  0.2439  0.4717 -0.1941
  469TMC3    C2 6977   1.919   0.441  10.445  0.5136  0.1349 -0.6100
  469TMC3    C3 6978   1.959   0.564  10.459  0.4888  0.2368 -0.0525
  469TMC3    C4 6979   1.694   0.503  10.430 -0.8372  0.7694 -0.1957
  469TMC3    C5 6980   1.734   0.628  10.463  0.3021  1.0943  0.4676
  469TMC3    C6 6981   1.866   0.665  10.466  0.1124  0.3874 -0.5547
  469TMC3     C 6982   1.752   0.289  10.504 -0.9565  0.4164  0.5717
  469TMC3     O 6983   1.657   0.228  10.458 -0.5659 -0.4207 -0.0803
  469TMC3     H 6984   1.992   0.362  10.450 -1.7272 -1.9600 -1.2916
  469TMC3    H1 6985   1.587   0.485  10.427 -0.4876 -1.4895  0.8104
  469TMC3    H2 6986   1.890   0.769  10.449 -0.3561  0.2492 -2.0754
  469TMC3    C7 6987   1.634   0.734  10.503 -0.4387  0.0684 -0.8816
  469TMC3    C8 6988   2.093   0.598  10.413  0.8222 -1.4522 -0.1832
  469TMC3    O1 6989   1.515   0.717  10.470 -0.5334  0.3033 -0.2611
  469TMC3    O2 6990   2.161   0.512  10.357 -0.6211  0.0898 -0.5461
  470TMC3    C1 6991   0.099   1.797   0.876 -0.0773  0.6102 -0.5458
  470TMC3    C2 6992   0.135   1.926   0.842 -0.1950  0.5667 -0.2335
  470TMC3    C3 6993   0.260   1.973   0.871 -0.8405 -0.0535  0.6521
  470TMC3    C4 6994   0.184   1.723   0.955  0.1917  0.0509 -0.2554
  470TMC3    C5 6995   0.304   1.779   0.994  0.5567  0.4679 -0.5151
  470TMC3    C6 6996   0.352   1.903   0.942 -0.0320 -0.2530  0.2579
  470TMC3     C 6997   4.699   1.745   0.823  0.2641  0.8948 -0.1693
  470TMC3     O 6998   4.641   1.798   0.727  0.0263  1.1881 -0.3242
  470TMC3     H 6999   0.061   1.977   0.782 -3.5183 -1.9330  1.7380
  470TMC3    H1 7000   0.144   1.626   0.983  1.9245 -0.1860  1.3727
  470TMC3    H2 7001   0.447   1.944   0.975  0.0553 -0.7977  0.6864
  470TMC3    C7 7002   0.382   1.715   1.095  0.1210 -0.2769  0.1071
  470TMC3    C8 7003   0.268   2.114   0.852  0.2829  0.2751  0.1849
  470TMC3    O1 7004   0.500   1.731   1.082  0.2415 -0.7100 -0.7383
  470TMC3    O2 7005   0.166   2.182   0.847 -0.2441  0.3641 -0.3215
  471MPD2     C 7006   4.633   3.349  16.803  0.0684 -0.0065 -1.1555
  471MPD2    C1 7007   4.683   3.222  16.768 -0.0146  0.4784 -0.1245
  471MPD2    C2 7008   0.045   3.172  16.864  0.3871  0.2999 -0.5849
  471MPD2    C3 7009   0.079   3.223  16.985  0.4377  0.6421  0.1723
  471MPD2    C4 7010   0.022   3.345  17.018 -0.3496  0.5021 -0.2442
  471MPD2    C5 7011   4.662   3.400  16.929 -0.2605 -0.6105  0.2431
  471MPD2     H 7012   0.082   3.073  16.839 -3.6310 -1.0525 -1.1495
  471MPD2    H1 7013   0.048   3.400  17.108 -0.4764  0.3664 -0.1231
  471MPD2    H2 7014   4.567   3.409  16.742  0.4875  2.1095  0.4598
  471MPD2    H3 7015   4.613   3.492  16.959 -2.0332 -0.8586 -1.9199
  471MPD2     N 7016   0.164   3.159  17.073 -0.3823  0.4323  0.1282
  471MPD2    H5 7017   0.166   3.201  17.166  0.9668 -1.8441  1.1207
  471MPD2    N1 7018   4.666   3.157  16.644 -0.0160  0.3368 -0.1101
  471MPD2    H7 7019   4.720   3.071  16.642  0.2748  0.4714  2.0349
  472TMC3    C1 7020   4.604   3.125  16.426 -0.1537  0.6484  1.0415
  472TMC3    C2 7021   4.523   3.157  16.314 -0.1543 -0.6509  0.1120
  472TMC3    C3 7022   4.491   3.051  16.227 -0.6237  0.7317 -0.1126
  472TMC3    C4 7023   4.643   2.992  16.445 -0.1108  0.1430 -0.5180
  472TMC3    C5 7024   4.615   2.891  16.357  0.8933 -0.2436  0.1233
  472TMC3    C6 7025   4.540   2.923  16.242 -0.1398  0.2325 -0.5383
  472TMC3     C 7026   4.605   3.212  16.533 -0.3151  0.0149 -0.2667
  472TMC3     O 7027   4.548   3.318  16.530 -0.0517 -0.1024 -0.5623
  472TMC3     H 7028   4.482   3.256  16.302 -1.0637 -1.1326 -0.8334
  472TMC3    H1 7029   4.698   2.962  16.534 -1.7792  1.2564  0.8970
  472TMC3    H2 7030   4.533   2.847  16.165 -0.2850 -0.3746  0.0688
  472TMC3    C7 7031   4.597   2.762  16.421  0.4697 -0.3197 -0.8255
  472TMC3    C8 7032   4.375   3.071  16.148  0.9917 -0.5667  0.0633
  472TMC3    O1 7033   4.597   2.764  16.543 -0.0682 -0.6803 -0.1227
  472TMC3    O2 7034   4.308   3.172  16.148  0.1345  0.5416  0.1725
  473MPD2     C 7035   4.330   0.688  13.887  0.1661  1.0843  0.0368
  473MPD2    C1 7036   4.339   0.736  13.761 -0.2709 -0.5965  0.5225
  473MPD2    C2 7037   4.448   0.832  13.724  0.3510 -0.3276  0.5557
  473MPD2    C3 7038   4.535   0.868  13.826  0.0606 -0.3688 -0.1587
  473MPD2    C4 7039   4.536   0.803  13.950  0.3804  0.2070  0.7702
  473MPD2    C5 7040   4.425   0.713  13.978 -0.0588  0.4200  0.5817
  473MPD2     H 7041   4.455   0.877  13.626  0.1055 -1.7396 -0.1051
  473MPD2    H1 7042   4.611   0.810  14.028  0.4472  1.1431  0.6178
  473MPD2    H2 7043   4.247   0.638  13.935  0.1563  1.4139  0.3551
  473MPD2    H3 7044   4.421   0.663  14.074  1.9545 -2.4191 -0.7938
  473MPD2     N 7045   4.639   0.964  13.808 -0.3929 -0.0985 -0.4248
  473MPD2    H5 7046   4.688   0.995  13.891 -0.2775 -3.1108  0.6607
  473MPD2    N1 7047   4.242   0.706  13.666 -0.3622  0.1158  0.0849
  473MPD2    H7 7048   4.261   0.747  13.576  0.8771 -1.6437 -0.4663
  474TMC3    C1 7049   0.024   1.153  13.744  0.3716 -0.0170  0.1050
  474TMC3    C2 7050   0.136   1.167  13.673 -0.6227 -0.4188  0.0268
  474TMC3    C3 7051   0.253   1.203  13.740  0.8688  0.0788 -0.2261
  474TMC3    C4 7052   0.020   1.178  13.883  0.3294  0.9796 -0.0249
  474TMC3    C5 7053   0.128   1.209  13.951 -0.1561 -0.0170  0.6581
  474TMC3    C6 7054   0.241   1.223  13.875  0.7935 -0.2044  0.0426
  474TMC3     C 7055   4.681   1.031  13.700  0.1270 -0.4940 -1.0814
  474TMC3     O 7056   4.657   1.010  13.582 -1.3593 -0.3044 -0.2741
  474TMC3     H 7057   0.134   1.145  13.567 -0.5425 -1.0028  0.1488
  474TMC3    H1 7058   4.646   1.182  13.929  0.6323 -0.9021  0.7757
  474TMC3    H2 7059   0.336   1.234  13.926 -1.0929  1.3676  3.1589
  474TMC3    C7 7060   0.142   1.119  14.063 -0.2722  0.0357  0.2045
  474TMC3    C8 7061   0.360   1.268  13.664  0.8815 -0.1853  0.7406
  474TMC3    O1 7062   0.073   1.017  14.068  0.1859 -0.1857 -0.6589
  474TMC3    O2 7063   0.375   1.209  13.560 -0.1048  0.0826 -0.3729
  475MPD2     C 7064   3.131   3.413  11.045  0.4202  0.4372 -0.9682
  475MPD2    C1 7065   3.221   3.461  10.957  0.4330  0.0075 -0.2197
  475MPD2    C2 7066   3.190   3.459  10.827  0.1167 -0.3869 -0.2650
  475MPD2    C3 7067   3.071   3.411  10.780 -0.3159  0.4432 -0.0955
  475MPD2    C4 7068   2.996   3.339  10.868 -0.1309  0.4772  0.0409
  475MPD2    C5 7069   3.018   3.343  11.004  0.0033  0.0645  0.7460
  475MPD2     H 7070   3.254   3.511  10.758 -0.9759 -0.1411 -1.0825
  475MPD2    H1 7071   2.901   3.294  10.840  0.9787 -0.5480 -2.1541
  475MPD2    H2 7072   3.149   3.410  11.152  0.3552  1.2964 -0.9401
  475MPD2    H3 7073   2.943   3.325  11.080  0.5190 -0.7798  1.0535
  475MPD2     N 7074   3.016   3.419  10.644 -0.2408 -0.5111 -0.3465
  475MPD2    H5 7075   2.925   3.377  10.628 -0.8424  0.3314  0.8492
  475MPD2    N1 7076   3.331   3.543  10.990 -0.0944  0.2135  0.0927
  475MPD2    H7 7077   3.374   3.589  10.910 -1.5949 -0.3273 -1.0254
  476TMC3    C1 7078   3.466   3.689  11.100 -0.2010 -0.6916  0.7483
  476TMC3    C2 7079   3.555   3.687  10.998 -0.3301 -0.0197  0.3097
  476TMC3    C3 7080   3.634   3.804  10.991 -0.2899 -0.5489  0.2260
  476TMC3    C4 7081   3.471   3.777  11.204  0.4365 -0.0985 -0.1586
  476TMC3    C5 7082   3.560   3.879  11.205 -0.4033 -0.0603  0.3797
  476TMC3    C6 7083   3.640   3.892  11.091  1.0492 -0.8710  0.2938
  476TMC3     C 7084   3.366   3.586  11.115 -0.2085  0.4933  0.1245
  476TMC3     O 7085   3.321   3.562  11.227 -0.1638  0.1725 -0.7560
  476TMC3     H 7086   3.569   3.605  10.929  2.2500  2.6561 -2.3431
  476TMC3    H1 7087   3.392   3.754  11.275 -0.7587  0.6759 -1.2512
  476TMC3    H2 7088   3.716   3.970  11.092  1.3235 -1.1505  1.3513
  476TMC3    C7 7089   3.511   4.008  11.247  0.3352  0.1369  0.1984
  476TMC3    C8 7090   3.741   3.809  10.891 -0.2329 -0.2884 -0.1439
  476TMC3    O1 7091   3.530   4.093  11.169 -1.0971  0.3425 -0.0609
  476TMC3    O2 7092   3.824   3.894  10.923 -0.0216  0.7202 -0.2564
  477MPD2     C 7093   0.628   0.358  12.097  0.0621  0.2854  0.1258
  477MPD2    C1 7094   0.538   0.412  12.187 -0.8683  0.1826 -0.2427
  477MPD2    C2 7095   0.552   0.387  12.322  0.0947  0.7070  0.1789
  477MPD2    C3 7096   0.646   0.297  12.378 -0.8492 -0.3283  0.2111
  477MPD2    C4 7097   0.730   0.236  12.283  0.5452 -0.0513 -0.5168
  477MPD2    C5 7098   0.718   0.267  12.151  0.2345  0.5504 -0.5072
  477MPD2     H 7099   0.476   0.422  12.392  2.1538  0.4651  2.5395
  477MPD2    H1 7100   0.805   0.161  12.305  0.4429 -0.9365 -3.1632
  477MPD2    H2 7101   0.633   0.381  11.991 -0.4176  1.6285  0.3878
  477MPD2    H3 7102   0.796   0.234  12.083 -0.4758  1.1453 -1.6131
  477MPD2     N 7103   0.656   0.276  12.521  0.1725  0.5064 -1.0752
  477MPD2    H5 7104   0.621   0.351  12.579 -0.0683 -0.1607 -0.3690
  477MPD2    N1 7105   0.436   0.493  12.136 -0.8352  0.7555 -0.1361
  477MPD2    H7 7106   0.435   0.475  12.036 -1.6796  0.0658  0.0022
  478TMC3    C1 7107   0.263   0.658  12.107  0.3242  0.2558  0.8033
  478TMC3    C2 7108   0.187   0.752  12.164  0.6218 -0.8086 -0.3033
  478TMC3    C3 7109   0.154   0.865  12.102 -0.9050  0.5086  0.4003
  478TMC3    C4 7110   0.298   0.679  11.974  0.1996 -0.4975 -0.1925
  478TMC3    C5 7111   0.264   0.796  11.913  0.7033 -0.2655 -0.7365
  478TMC3    C6 7112   0.178   0.887  11.968  0.3356  0.1983  0.3473
  478TMC3     C 7113   0.340   0.567  12.197 -0.9959  0.8645 -0.0934
  478TMC3     O 7114   0.315   0.566  12.315 -0.1843 -0.9650  0.2016
  478TMC3     H 7115   0.163   0.744  12.270 -0.6279  0.7670 -0.4775
  478TMC3    H1 7116   0.358   0.611  11.914  1.0211  0.9595 -1.0186
  478TMC3    H2 7117   0.155   0.978  11.915  0.4315  0.6293  1.0393
  478TMC3    C7 7118   0.341   0.824  11.790  0.3625 -0.2002  0.4708
  478TMC3    C8 7119   0.096   0.967  12.187 -0.7582  0.4577 -0.3813
  478TMC3    O1 7120   0.452   0.771  11.770 -0.4177  0.0398  1.1073
  478TMC3    O2 7121   0.106   0.947  12.311 -0.2823 -0.0421  0.0849
  479MPD2     C 7122   4.520   2.775  15.144  0.2886 -0.1687  0.1969
  479MPD2    C1 7123   4.479   2.722  15.267  0.4671 -0.3993 -0.8123
  479MPD2    C2 7124   4.573   2.728  15.375  0.3090 -0.0538 -0.6244
  479MPD2    C3 7125   4.686   2.810  15.361 -1.1837 -0.2579  0.3972
  479MPD2    C4 7126   4.717   2.864  15.242  0.3922 -0.1590 -0.4697
  479MPD2    C5 7127   4.636   2.844  15.129 -0.2707 -0.8134 -0.0757
  479MPD2     H 7128   4.554   2.679  15.470  0.2548  1.8627  0.3537
  479MPD2    H1 7129   0.075   2.934  15.226  1.2409 -0.4270  2.5758
  479MPD2    H2 7130   4.454   2.754  15.060  0.5245  0.9305 -0.2666
  479MPD2    H3 7131   4.676   2.874  15.033  2.8207 -2.6228  0.6578
  479MPD2     N 7132   0.054   2.841  15.467 -0.1847  0.1372  0.7112
  479MPD2    H5 7133   0.134   2.897  15.439 -0.7010 -0.8671 -2.7282
  479MPD2    N1 7134   4.353   2.669  15.276  0.0861  0.5992  0.4414
  479MPD2    H7 7135   4.288   2.691  15.201  0.7039 -3.2088 -1.2116
  480TMC3    C1 7136   4.457   2.704  15.776 -0.6804  0.0776 -0.0169
  480TMC3    C2 7137   4.371   2.804  15.743  0.0748 -0.4701  0.1852
  480TMC3    C3 7138   4.416   2.911  15.668 -0.0941 -0.3778 -0.8166
  480TMC3    C4 7139   4.584   2.708  15.735 -0.1363 -0.0178  0.0708
  480TMC3    C5 7140   4.626   2.813  15.663 -0.1152 -0.5837 -0.2473
  480TMC3    C6 7141   4.548   2.920  15.630  0.0543 -0.3488 -0.5580
  480TMC3     C 7142   4.416   2.567  15.813 -0.6668  0.7035  0.3889
  480TMC3     O 7143   4.496   2.491  15.861  0.2694  0.1548  0.1453
  480TMC3     H 7144   4.272   2.805  15.788 -0.4258  0.0056 -0.9354
  480TMC3    H1 7145   4.648   2.623  15.757 -0.0386 -0.0660 -0.4018
  480TMC3    H2 7146   4.595   3.004  15.580 -0.6946  0.9865  1.0221
  480TMC3    C7 7147   0.034   2.811  15.603  0.1714 -0.7549 -0.2099
  480TMC3    C8 7148   4.317   2.977  15.583 -0.9555 -0.2138 -0.8194
  480TMC3    O1 7149   0.119   2.809  15.689  0.7997 -0.0920  0.1747
  480TMC3    O2 7150   4.198   2.948  15.600 -0.3737 -0.9112 -0.1581
  481MPD2     C 7151   1.686   2.559  14.521  0.4778  0.2470  0.2878
  481MPD2    C1 7152   1.561   2.522  14.486 -0.2940  0.2619 -0.0562
  481MPD2    C2 7153   1.474   2.478  14.587 -0.8061  1.0509 -0.5210
  481MPD2    C3 7154   1.516   2.477  14.723 -0.0980 -0.8316  0.3430
  481MPD2    C4 7155   1.644   2.523  14.754 -0.1875 -0.0508  0.1231
  481MPD2    C5 7156   1.728   2.570  14.654  0.2409  0.5347  0.0206
  481MPD2     H 7157   1.376   2.456  14.548 -0.2328  0.0286 -1.3920
  481MPD2    H1 7158   1.673   2.540  14.857 -3.3402  0.1010  0.9953
  481MPD2    H2 7159   1.754   2.582  14.440  2.3324  1.2974  2.1596
  481MPD2    H3 7160   1.825   2.606  14.684 -0.4873  1.6191  1.0441
  481MPD2     N 7161   1.423   2.436  14.822 -0.6906  0.0456 -0.4030
  481MPD2    H5 7162   1.462   2.428  14.915  0.1567 -2.3557 -0.9728
  481MPD2    N1 7163   1.522   2.522  14.350  0.3823 -0.2928 -0.7693
  481MPD2    H7 7164   1.584   2.553  14.276  1.3151  1.4629  0.7695
  482TMC3    C1 7165   1.407   2.457  14.146  0.0849  0.0280  0.1945
  482TMC3    C2 7166   1.364   2.344  14.081  0.1081 -0.9588  0.3304
  482TMC3    C3 7167   1.334   2.346  13.946  0.3422  0.9470  0.5376
  482TMC3    C4 7168   1.412   2.582  14.081  0.3637  0.5124  0.0828
  482TMC3    C5 7169   1.379   2.572  13.943 -0.3151 -0.3822  0.4167
  482TMC3    C6 7170   1.335   2.464  13.874  0.1440  0.2962  0.0651
  482TMC3     C 7171   1.426   2.444  14.292 -0.3252 -0.9570 -0.2648
  482TMC3     O 7172   1.341   2.367  14.342 -0.9135  0.4364 -0.3555
  482TMC3     H 7173   1.351   2.253  14.139 -1.9546 -0.1990  1.0599
  482TMC3    H1 7174   1.438   2.674  14.131 -2.4885  2.2020 -1.5737
  482TMC3    H2 7175   1.332   2.460  13.766 -0.8800 -0.7352  0.1452
  482TMC3    C7 7176   1.345   2.699  13.884 -1.1340  0.2818 -0.1122
  482TMC3    C8 7177   1.310   2.220  13.874  0.1870  0.1122 -0.0220
  482TMC3    O1 7178   1.299   2.787  13.956  0.4635  0.1465 -0.0243
  482TMC3    O2 7179   1.338   2.112  13.928 -0.2669 -0.1483 -0.2060
  483TMC3    C1 7180   4.107   1.044   1.117  0.5362 -0.2251  0.1338
  483TMC3    C2 7181   4.207   1.122   1.061 -0.1706 -0.1952 -0.3460
  483TMC3    C3 7182   4.313   1.165   1.144 -0.1107 -0.2709 -0.6524
  483TMC3    C4 7183   4.113   1.009   1.249  0.4147 -0.0335  0.4334
  483TMC3    C5 7184   4.214   1.066   1.331  0.0214 -0.3954 -0.6175
  483TMC3    C6 7185   4.315   1.134   1.279 -0.5952  0.0548 -0.8936
  483TMC3     C 7186   4.009   0.982   1.031  0.3453 -0.2326  0.3447
  483TMC3     O 7187   3.989   1.047   0.930  0.3611  0.4144 -0.1533
  483TMC3     H 7188   4.205   1.142   0.955 -0.5338  1.6911  0.0066
  483TMC3    H1 7189   4.024   0.967   1.293  0.8618 -1.4201  0.0116
  483TMC3    H2 7190   4.391   1.170   1.347 -1.5944 -1.0696  0.8074
  483TMC3    C7 7191   4.262   1.001   1.456  0.3706  0.2942 -0.3224
  483TMC3    C8 7192   4.439   1.188   1.079  0.4837  0.0363 -0.2697
  483TMC3    O1 7193   4.379   1.008   1.485  0.5975 -0.4348 -0.4322
  483TMC3    O2 7194   4.449   1.164   0.959 -0.3665  0.5199 -0.1906
  484MPD2     C 7195   1.440   4.074  12.416  0.6474  0.3954  0.8620
  484MPD2    C1 7196   1.523   3.969  12.445  0.0144 -0.3075  0.0596
  484MPD2    C2 7197   1.657   3.966  12.413  0.0546  0.2540 -0.3564
  484MPD2    C3 7198   1.708   4.079  12.351 -1.1070  0.3069 -0.6438
  484MPD2    C4 7199   1.622   4.184  12.325 -0.7550 -0.8597 -0.4100
  484MPD2    C5 7200   1.489   4.184  12.348  0.1725  0.1245  0.0524
  484MPD2     H 7201   1.726   3.888  12.440  0.4775  0.6358 -0.3291
  484MPD2    H1 7202   1.653   4.268  12.264  1.3044 -0.4890  1.1286
  484MPD2    H2 7203   1.333   4.068  12.435  0.5703 -1.2792 -0.2023
  484MPD2    H3 7204   1.422   4.263  12.315  0.0845 -0.6756 -1.6850
  484MPD2     N 7205   1.844   4.098  12.313 -0.3429  0.1339 -0.2705
  484MPD2    H5 7206   1.866   4.189  12.273  0.1929  0.8669  1.6708
  484MPD2    N1 7207   1.458   3.852  12.506  0.0252 -0.0832  0.1305
  484MPD2    H7 7208   1.364   3.872  12.539  0.3280 -0.1006  0.9946
  485TMC3    C1 7209   2.069   4.059  12.264  0.0637  0.1495 -0.6671
  485TMC3    C2 7210   2.188   4.023  12.316  0.0209 -0.7549 -0.3154
  485TMC3    C3 7211   2.305   4.067  12.263  0.1792  0.2515  0.3312
  485TMC3    C4 7212   2.068   4.146  12.160 -0.1339  0.0678  0.3119
  485TMC3    C5 7213   2.187   4.195  12.104 -0.6892 -0.1804  0.1947
  485TMC3    C6 7214   2.305   4.162  12.165  0.1133 -0.1646 -0.2913
  485TMC3     C 7215   1.943   4.003  12.316  0.0474  0.1801  0.3340
  485TMC3     O 7216   1.949   3.889  12.358 -0.6655 -0.1490  0.7506
  485TMC3     H 7217   2.187   3.951  12.397  2.2705  1.0525  1.2944
  485TMC3    H1 7218   1.972   4.162  12.111  1.7780  0.4139 -3.3184
  485TMC3    H2 7219   2.398   4.205  12.127 -0.0834  1.3327  0.9402
  485TMC3    C7 7220   2.190   4.165  11.964 -0.4108  0.0723 -0.3381
  485TMC3    C8 7221   2.419   3.973  12.259 -1.1026  0.2516 -0.4335
  485TMC3    O1 7222   2.107   4.215  11.891 -0.3177  0.6700 -0.2034
  485TMC3    O2 7223   2.490   4.000  12.165 -0.6183 -0.5335 -0.0735
  486MPD2     C 7224   3.936   2.853  13.010 -0.1595  0.0940 -0.4471
  486MPD2    C1 7225   3.945   2.887  12.876  0.0083  0.3071  0.0164
  486MPD2    C2 7226   3.856   2.973  12.812  0.0451 -0.1695  0.2538
  486MPD2    C3 7227   3.739   3.009  12.870 -0.3852 -0.5686 -0.1017
  486MPD2    C4 7228   3.732   2.974  13.009  0.0717 -0.2867 -0.0194
  486MPD2    C5 7229   3.821   2.896  13.075 -0.2892  0.5249 -0.0539
  486MPD2     H 7230   3.866   2.996  12.707  1.3509 -1.6426  0.0637
  486MPD2    H1 7231   3.642   2.990  13.067  2.1780  1.8866  2.6736
  486MPD2    H2 7232   3.994   2.774  13.056 -1.5433 -1.0458 -0.6468
  486MPD2    H3 7233   3.802   2.874  13.179 -1.8077  0.5045 -0.3298
  486MPD2     N 7234   3.632   3.078  12.801 -0.4287  0.6387 -0.1760
  486MPD2    H5 7235   3.640   3.098  12.701 -2.7344  1.8243 -0.1118
  486MPD2    N1 7236   4.043   2.809  12.806  0.2350  0.0744  0.1136
  486MPD2    H7 7237   4.087   2.734  12.858 -0.6188 -1.3127 -1.1718
  487TMC3    C1 7238   4.170   2.709  12.660  0.1533  0.0426 -0.3603
  487TMC3    C2 7239   4.142   2.625  12.555 -0.7483 -0.0304 -0.8723
  487TMC3    C3 7240   4.184   2.499  12.567  0.1334 -0.6682  0.4169
  487TMC3    C4 7241   4.246   2.672  12.763  0.2366  0.4880 -0.1593
  487TMC3    C5 7242   4.295   2.545  12.767 -0.5312  0.0452 -0.9801
  487TMC3    C6 7243   4.257   2.455  12.676  0.1074  0.0772  0.0012
  487TMC3     C 7244   4.076   2.811  12.675 -0.5636  0.2388 -0.3880
  487TMC3     O 7245   4.033   2.880  12.581  0.3075  0.6274  0.1084
  487TMC3     H 7246   4.068   2.653  12.481  1.6987  1.4646 -2.7340
  487TMC3    H1 7247   4.264   2.737  12.848 -0.8634  0.2667  0.2467
  487TMC3    H2 7248   4.311   2.361  12.666 -0.7142 -0.4293  0.3684
  487TMC3    C7 7249   4.290   2.493  12.901 -0.2042 -0.0562  0.2925
  487TMC3    C8 7250   4.071   2.408  12.555 -0.0730 -0.7111 -0.7110
  487TMC3    O1 7251   4.316   2.565  12.991 -0.3134  0.2663  0.1535
  487TMC3    O2 7252   3.966   2.457  12.585 -0.2214 -0.1321  0.2234
  488MPD2     C 7253   4.557   4.285  16.542 -0.2120  0.0932  0.0189
  488MPD2    C1 7254   4.526   4.418  16.517  0.8323 -1.0829 -0.8097
  488MPD2    C2 7255   4.451   4.479  16.612 -0.0325  0.7165 -0.8214
  488MPD2    C3 7256   4.402   4.414  16.722  0.2529  0.2049 -0.5732
  488MPD2    C4 7257   4.432   4.284  16.743  1.2864  0.3975  0.1605
  488MPD2    C5 7258   4.519   4.218  16.657  0.3154 -0.8862 -0.7623
  488MPD2     H 7259   4.418   4.579  16.583  0.1986  0.7728 -0.8864
  488MPD2    H1 7260   4.402   4.233  16.834 -0.4353 -0.2182 -0.7584
  488MPD2    H2 7261   4.608   4.224  16.468 -1.2384 -0.1993 -0.4404
  488MPD2    H3 7262   4.541   4.114  16.679 -2.5962 -1.3888 -0.2098
  488MPD2     N 7263   4.311   4.492  16.797 -0.1473 -0.4320 -0.3767
  488MPD2    H5 7264   4.303   4.592  16.779  1.5774  0.4995  3.9796
  488MPD2    N1 7265   4.567   4.487  16.399 -0.0134  0.0185  0.5431
  488MPD2    H7 7266   4.518   4.575  16.384 -1.0932 -0.5731  0.5706
  489TMC3    C1 7267   4.134   4.532  16.961  0.0124  0.5137 -0.1094
  489TMC3    C2 7268   4.119   4.646  16.897 -0.5627 -0.0863 -0.6238
  489TMC3    C3 7269   4.022   0.001  16.944 -0.8046 -0.2143 -0.1377
  489TMC3    C4 7270   4.054   4.489  17.067 -0.3487  0.7391  0.5910
  489TMC3    C5 7271   3.966   4.581  17.113 -0.4691 -0.5314  0.5649
  489TMC3    C6 7272   3.946   4.698  17.048 -0.5619 -0.1793  0.1724
  489TMC3     C 7273   4.230   4.441  16.901 -0.3027  0.1733 -0.0836
  489TMC3     O 7274   4.226   4.329  16.948 -0.4869  0.2808 -0.1017
  489TMC3     H 7275   4.180   4.676  16.813  1.1271  1.4829  1.1602
  489TMC3    H1 7276   4.067   4.394  17.117  0.9651  0.4065 -0.3926
  489TMC3    H2 7277   3.892   0.059  17.088 -1.0205  0.4985 -1.8402
  489TMC3    C7 7278   3.879   4.543  17.222 -0.1784  0.6849  0.2453
  489TMC3    C8 7279   4.046   0.134  16.915 -0.4729 -0.6558  0.4886
  489TMC3    O1 7280   3.922   4.457  17.302  0.6615  0.5596 -0.2753
  489TMC3    O2 7281   4.159   0.164  16.882 -0.7965  0.0147  0.4161
  490MPD2     C 7282   0.997   3.087   0.414 -0.7474 -0.2113  0.8215
  490MPD2    C1 7283   0.982   3.126   0.285 -0.2594 -0.5125 -0.0121
  490MPD2    C2 7284   0.992   3.259   0.250 -0.4856  0.2394  0.3405
  490MPD2    C3 7285   1.017   3.354   0.346 -0.0431  0.7469 -1.0597
  490MPD2    C4 7286   1.040   3.315   0.473 -0.6116  0.3113  0.4552
  490MPD2    C5 7287   1.029   3.183   0.504 -0.2903 -0.1163 -0.2552
  490MPD2     H 7288   0.975   3.298   0.150 -1.1348  2.2635  1.2462
  490MPD2    H1 7289   1.071   3.390   0.546 -0.0559 -0.0878  0.6236
  490MPD2    H2 7290   0.988   2.985   0.448  4.1462 -0.3079  1.8407
  490MPD2    H3 7291   1.029   3.151   0.608  0.5777  1.6620  0.3087
  490MPD2     N 7292   1.021   3.492   0.315  0.0828  0.6446 -0.1731
  490MPD2    H5 7293   1.005   3.553   0.395  1.9958  1.0980 -0.1355
  490MPD2    N1 7294   0.933   3.038   0.183  0.2669 -0.0411  0.7892
  490MPD2    H7 7295   0.914   3.086   0.096  2.0581  0.2804  0.5763
  491TMC3    C1 7296   0.835   2.857   0.084  0.3023 -0.3188  0.6724
  491TMC3    C2 7297   0.840   2.722   0.069 -0.4328 -0.3071  0.0139
  491TMC3    C3 7298   0.760   2.662  17.667  0.0051 -1.1014  0.4170
  491TMC3    C4 7299   0.740   2.935   0.021  0.6252 -0.0042 -0.0371
  491TMC3    C5 7300   0.681   2.885  17.605 -0.1745  0.5577  0.0381
  491TMC3    C6 7301   0.686   2.746  17.590  0.5312 -0.4096 -0.6039
  491TMC3     C 7302   0.907   2.904   0.199 -0.5263 -1.3098 -0.1808
  491TMC3     O 7303   0.949   2.826   0.278  0.5653  0.4694  0.0605
  491TMC3     H 7304   0.884   2.658   0.145 -0.0579 -2.4637 -2.0090
  491TMC3    H1 7305   0.725   3.034   0.063 -0.2057  0.6935 -2.0078
  491TMC3    H2 7306   0.628   2.700  17.510  1.6927  1.5746 -2.5753
  491TMC3    C7 7307   0.555   2.943  17.572 -0.1001 -0.6379 -0.0921
  491TMC3    C8 7308   0.684   2.550   0.012  0.0856 -0.0363 -0.5842
  491TMC3    O1 7309   0.470   2.862  17.533 -0.2402 -0.3745 -0.5888
  491TMC3    O2 7310   0.741   2.461   0.066 -0.4402 -0.6417  0.3667
  492MPD2     C 7311   0.501   4.191  11.819  0.6450 -0.4926  0.0087
  492MPD2    C1 7312   0.511   4.081  11.728  0.5236 -0.0057 -0.2833
  492MPD2    C2 7313   0.471   3.953  11.765  0.0063  0.7554  0.0716
  492MPD2    C3 7314   0.404   3.936  11.886 -0.0601  0.4199 -0.7475
  492MPD2    C4 7315   0.388   4.045  11.972 -0.0759  0.4058 -0.0677
  492MPD2    C5 7316   0.446   4.173  11.945 -0.8594  0.1222  1.0918
  492MPD2     H 7317   0.482   3.872  11.694 -0.0773  0.0082  0.8989
  492MPD2    H1 7318   0.327   4.034  12.061  0.2155 -0.2114  0.0611
  492MPD2    H2 7319   0.524   4.291  11.784  1.3677 -0.6357  0.0878
  492MPD2    H3 7320   0.445   4.249  12.023  0.5543 -0.4642  1.6926
  492MPD2     N 7321   0.357   3.811  11.927  0.2650  0.2877 -0.4771
  492MPD2    H5 7322   0.313   3.806  12.018 -0.3236  1.5681 -0.6913
  492MPD2    N1 7323   0.578   4.107  11.605  0.1564 -0.3725  0.5078
  492MPD2    H7 7324   0.595   4.205  11.585  2.8369 -0.7004  1.2377
  493TMC3    C1 7325   0.615   4.075  11.375  0.3613  0.0967 -0.7293
  493TMC3    C2 7326   0.526   4.175  11.354 -0.6723 -0.4901 -0.3074
  493TMC3    C3 7327   0.434   4.161  11.251 -0.9438  0.1411 -0.4615
  493TMC3    C4 7328   0.625   3.970  11.288  0.3225  0.5396 -0.6215
  493TMC3    C5 7329   0.544   3.963  11.177  0.3957  0.4792  0.0457
  493TMC3    C6 7330   0.455   4.066  11.156 -0.4982  1.3501 -0.4716
  493TMC3     C 7331   0.605   4.016  11.505  0.2983  0.1981 -0.8521
  493TMC3     O 7332   0.610   3.895  11.507  0.5315  0.3269  0.4025
  493TMC3     H 7333   0.511   4.256  11.425  1.3313 -0.4696  0.0979
  493TMC3    H1 7334   0.712   3.908  11.307  0.3044  0.9628  0.8188
  493TMC3    H2 7335   0.391   4.072  11.069  1.1434 -0.3445 -1.7625
  493TMC3    C7 7336   0.470   3.844  11.171 -0.5222  0.0191 -0.1053
  493TMC3    C8 7337   0.363   4.285  11.218  0.3167  0.1244 -0.7930
  493TMC3    O1 7338   0.386   3.834  11.084  0.6286 -0.2769  0.9287
  493TMC3    O2 7339   0.415   4.387  11.261 -0.4670 -0.3888  0.0959
  494TMC3    C1 7340   1.235   0.529   0.790 -0.1254 -0.7208  0.3426
  494TMC3    C2 7341   1.324   0.425   0.806 -0.0296  0.5238  0.1010
  494TMC3    C3 7342   1.377   0.376   0.698  0.3638 -0.5364 -0.3369
  494TMC3    C4 7343   1.198   0.575   0.663  0.0307 -0.2646  0.9480
  494TMC3    C5 7344   1.253   0.514   0.558 -0.7962 -0.2758 -0.1205
  494TMC3    C6 7345   1.335   0.407   0.574  0.9095 -0.5784 -0.0223
  494TMC3     C 7346   1.147   0.564   0.899 -0.1375  0.1983 -1.2298
  494TMC3     O 7347   1.048   0.632   0.864 -0.2662 -0.1345  0.0980
  494TMC3     H 7348   1.361   0.396   0.904  1.8820  1.2847 -0.3817
  494TMC3    H1 7349   1.123   0.652   0.648 -1.6884 -2.0934  0.1212
  494TMC3    H2 7350   1.379   0.362   0.486  1.6295  1.0254 -0.4909
  494TMC3    C7 7351   1.249   0.572   0.425 -0.4072 -0.0083  0.6689
  494TMC3    C8 7352   1.469   0.266   0.700  0.0328  0.3874  0.0952
  494TMC3    O1 7353   1.293   0.505   0.332 -0.2624 -0.4381 -0.0640
  494TMC3    O2 7354   1.537   0.258   0.599  0.4158  0.0933  0.8589
  495TMC3    C1 7355   4.716   3.195  14.653  0.1488  0.3038 -0.3924
  495TMC3    C2 7356   4.619   3.225  14.568 -0.6551  0.1347  0.3930
  495TMC3    C3 7357   4.492   3.243  14.617  0.6424 -0.2992 -0.8468
  495TMC3    C4 7358   4.687   3.194  14.791 -0.4085  0.7402 -0.4552
  495TMC3    C5 7359   4.562   3.230  14.834  0.1438 -0.4729  0.2697
  495TMC3    C6 7360   4.464   3.268  14.752  0.2281  0.1113 -0.3797
  495TMC3     C 7361   0.058   3.079  14.603 -0.2491 -0.0802 -0.0081
  495TMC3     O 7362   4.713   3.006  14.533 -0.1033  0.4797  0.5141
  495TMC3     H 7363   4.639   3.207  14.463 -1.4024  0.2245  0.2315
  495TMC3    H1 7364   0.037   3.168  14.865  0.7431  1.3051 -1.4006
  495TMC3    H2 7365   4.367   3.303  14.787  0.0631 -0.4712 -0.2594
  495TMC3    C7 7366   4.533   3.207  14.978  0.7991  0.7581  0.4135
  495TMC3    C8 7367   4.381   3.158  14.577  0.2159  0.1348 -0.3918
  495TMC3    O1 7368   4.625   3.207  15.056  0.0984 -0.2227 -0.0307
  495TMC3    O2 7369   4.271   3.173  14.630 -0.6381 -0.2132 -0.2486
  496MPD2     C 7370   1.651   3.192  15.697  0.8222 -0.0638 -0.9340
  496MPD2    C1 7371   1.680   3.070  15.753 -0.3178  0.1050 -0.4012
  496MPD2    C2 7372   1.624   3.025  15.874 -0.6284  0.1271  0.0321
  496MPD2    C3 7373   1.539   3.109  15.941  0.4026 -0.7224  0.5122
  496MPD2    C4 7374   1.527   3.238  15.895 -0.2476  0.5862 -0.3579
  496MPD2    C5 7375   1.571   3.273  15.770  0.1682 -0.3972  0.3998
  496MPD2     H 7376   1.656   2.928  15.911 -2.0061 -0.7201 -1.0050
  496MPD2    H1 7377   1.466   3.313  15.943 -2.0246 -0.4967 -0.9195
  496MPD2    H2 7378   1.680   3.217  15.595  0.9395 -0.6005 -1.0308
  496MPD2    H3 7379   1.547   3.372  15.731 -0.7505 -0.4345  0.8901
  496MPD2     N 7380   1.463   3.060  16.051  0.0026 -0.0902 -0.0333
  496MPD2    H5 7381   1.472   2.964  16.082 -1.4394 -0.7412 -1.6364
  496MPD2    N1 7382   1.760   2.980  15.675  0.2986  0.4525  0.3719
  496MPD2    H7 7383   1.793   3.009  15.583 -0.4199  1.5742  0.4592
  497TMC3    C1 7384   1.286   3.033  16.187 -0.3795 -0.7070  0.0972
  497TMC3    C2 7385   1.170   2.992  16.129 -0.4082  0.8318  0.0973
  497TMC3    C3 7386   1.125   2.869  16.169 -0.1379 -0.4478  0.4065
  497TMC3    C4 7387   1.350   2.958  16.278  0.4475  0.3088  0.5291
  497TMC3    C5 7388   1.296   2.841  16.328  0.2992  0.3096 -0.0260
  497TMC3    C6 7389   1.176   2.794  16.273 -0.3107 -0.1049  0.2188
  497TMC3     C 7390   1.361   3.127  16.109  0.2002 -0.5088  0.0445
  497TMC3     O 7391   1.297   3.224  16.065 -0.0428 -0.5336 -0.8453
  497TMC3     H 7392   1.118   3.048  16.052 -0.0900  0.3306 -0.4890
  497TMC3    H1 7393   1.447   2.993  16.312  1.0175 -0.3003 -0.4934
  497TMC3    H2 7394   1.147   2.692  16.296  0.1637  0.0451  1.4775
  497TMC3    C7 7395   1.315   2.798  16.470 -0.3576  0.2383 -0.3494
  497TMC3    C8 7396   1.039   2.813  16.064  0.7063  0.2200  0.2896
  497TMC3    O1 7397   1.227   2.745  16.536  0.6037 -0.2164 -0.1185
  497TMC3    O2 7398   1.037   2.860  15.947 -0.1410 -0.0573 -0.2887
  498MPD2     C 7399   2.806   3.336   9.800  0.0917  0.3529  0.2424
  498MPD2    C1 7400   2.766   3.452   9.855  0.6019 -0.9036  0.4768
  498MPD2    C2 7401   2.658   3.447   9.928 -0.5282  0.0815  0.1559
  498MPD2    C3 7402   2.587   3.331   9.960  0.2724  0.0755 -0.6888
  498MPD2    C4 7403   2.634   3.211   9.898 -0.4760  0.1714 -0.2368
  498MPD2    C5 7404   2.745   3.220   9.825  0.0125  0.1361  0.1973
  498MPD2     H 7405   2.615   3.544   9.955 -1.1877  0.2313 -1.4138
  498MPD2    H1 7406   2.575   3.119   9.897  0.7925 -0.6542  0.8819
  498MPD2    H2 7407   2.886   3.342   9.728 -0.4227  1.5514 -0.2303
  498MPD2    H3 7408   2.775   3.138   9.760 -0.5163 -1.0434  1.4586
  498MPD2     N 7409   2.464   3.338  10.032 -0.0722  0.8103 -0.9078
  498MPD2    H5 7410   2.430   3.423  10.076 -0.5452 -0.4592  1.1532
  498MPD2    N1 7411   2.833   3.582   9.835 -0.0968  0.1256  0.0780
  498MPD2    H7 7412   2.791   3.665   9.876 -1.2227 -1.1862  1.5734
  499TMC3    C1 7413   3.001   3.735   9.782 -0.3544  0.2572  0.2902
  499TMC3    C2 7414   3.127   3.764   9.816 -0.7649  0.0737 -0.3039
  499TMC3    C3 7415   3.160   3.894   9.811  0.5875  0.1806 -0.3793
  499TMC3    C4 7416   2.902   3.821   9.741 -0.9439  0.2563 -0.5280
  499TMC3    C5 7417   2.934   3.956   9.747  0.0342  0.3553 -0.2067
  499TMC3    C6 7418   3.064   3.989   9.785 -0.7053 -0.9783  0.1141
  499TMC3     C 7419   2.957   3.594   9.789 -1.0638  0.9597 -0.4022
  499TMC3     O 7420   3.055   3.522   9.809 -0.2999 -0.3184 -0.2006
  499TMC3     H 7421   3.206   3.696   9.847 -0.0737  1.2500  0.5556
  499TMC3    H1 7422   2.813   3.781   9.694 -0.1050 -2.6325  0.3950
  499TMC3    H2 7423   3.090   4.093   9.803 -0.3735 -0.9071 -0.7984
  499TMC3    C7 7424   2.842   4.067   9.729  0.1290  0.2241 -0.1290
  499TMC3    C8 7425   3.293   3.937   9.851  0.1265  0.5268 -0.4080
  499TMC3    O1 7426   2.888   4.176   9.696 -0.3179 -0.3906  0.0657
  499TMC3    O2 7427   3.354   3.861   9.924  0.3092 -0.4013 -0.1253
  500MPD2     C 7428   3.880   4.665  10.516  0.4327 -0.2764 -0.4694
  500MPD2    C1 7429   3.861   0.069  10.571  0.9597 -0.2633  0.8916
  500MPD2    C2 7430   3.787   0.156  10.505 -0.7470 -0.3592  0.1282
  500MPD2    C3 7431   3.734   0.131  10.383  0.0312 -0.6065 -0.1437
  500MPD2    C4 7432   3.762   0.002  10.324 -0.1532 -0.2270  0.0698
  500MPD2    C5 7433   3.827   4.628  10.398  0.3501 -0.4446  0.1670
  500MPD2     H 7434   3.780   0.254  10.552 -1.2433  0.8359 -2.4066
  500MPD2    H1 7435   3.733   4.692  10.225  2.6720  0.6927 -1.0533
  500MPD2    H2 7436   3.951   4.592  10.553 -1.0409 -0.9073  1.1266
  500MPD2    H3 7437   3.835   4.525  10.365  1.4859  0.0224 -1.0080
  500MPD2     N 7438   3.654   0.227  10.316  0.6993 -0.4460 -0.7883
  500MPD2    H5 7439   3.611   0.196  10.229 -1.2767 -1.4457  0.5437
  500MPD2    N1 7440   3.916   0.111  10.694  0.6634  0.4136  0.6397
  500MPD2    H7 7441   3.909   0.209  10.719  1.0334  0.9945 -1.5304
  501TMC3    C1 7442   4.022   0.094  10.903  0.0969 -0.4457 -0.4867
  501TMC3    C2 7443   4.107   0.200  10.879 -0.6822  0.3413  0.6920
  501TMC3    C3 7444   4.183   0.250  10.981 -0.3150  0.6622  0.1747
  501TMC3    C4 7445   4.007   0.045  11.034 -0.1214  0.2852 -0.3422
  501TMC3    C5 7446   4.074   0.109  11.137  0.5371  0.2719 -0.7538
  501TMC3    C6 7447   4.175   0.204  11.108  0.1488  0.2995  0.0427
  501TMC3     C 7448   3.968   0.020  10.787  0.1071  0.9192 -0.3398
  501TMC3     O 7449   3.959   4.625  10.798 -0.1619 -0.4903  0.0593
  501TMC3     H 7450   4.109   0.225  10.774 -0.9636  0.6036  0.7503
  501TMC3    H1 7451   3.965   4.670  11.051  0.0316 -0.1892 -2.7275
  501TMC3    H2 7452   4.238   0.244  11.187  0.5156 -0.5038  0.1656
  501TMC3    C7 7453   4.080   0.024  11.259  0.4789  0.0641  0.0162
  501TMC3    C8 7454   4.240   0.383  10.961  0.3102 -0.0553 -0.4151
  501TMC3    O1 7455   3.989   4.668  11.270  0.1510  0.1106  0.2637
  501TMC3    O2 7456   4.312   0.424  11.050 -0.1011  0.1136 -0.2662
  502TMC3    C1 7457   4.052   3.804  15.500 -0.0450  0.3243  0.4550
  502TMC3    C2 7458   4.033   3.936  15.477  0.3248  0.3732 -0.6558
  502TMC3    C3 7459   3.921   3.971  15.403  0.0050  0.6347 -0.1346
  502TMC3    C4 7460   3.962   3.705  15.465 -0.0651  0.2721 -0.0032
  502TMC3    C5 7461   3.851   3.746  15.403  0.0715  0.1352  0.8237
  502TMC3    C6 7462   3.833   3.876  15.359  0.3151  0.3405  0.5045
  502TMC3     C 7463   4.155   3.769  15.592  0.2518 -0.1586  0.2485
  502TMC3     O 7464   4.258   3.828  15.564 -0.1268  0.3513  0.4796
  502TMC3     H 7465   4.104   4.016  15.497  0.1703  0.0072  1.3077
  502TMC3    H1 7466   3.978   3.599  15.483 -0.6433  0.3619  1.0489
  502TMC3    H2 7467   3.759   3.894  15.282  0.8829  1.1932  0.1599
  502TMC3    C7 7468   3.769   3.644  15.338 -0.9157  0.2420  0.5276
  502TMC3    C8 7469   3.894   4.112  15.380 -0.1096  0.0882 -0.1810
  502TMC3    O1 7470   3.802   3.529  15.357 -0.6148  0.9769 -0.6103
  502TMC3    O2 7471   3.995   4.180  15.359  0.2660  0.1826 -0.2990
  503MPD2     C 7472   1.304   4.065  16.957  0.0523  0.3069 -0.1903
  503MPD2    C1 7473   1.332   4.114  17.085  0.3098 -0.6141  0.4549
  503MPD2    C2 7474   1.373   4.019  17.179 -0.2619  0.5380  0.5656
  503MPD2    C3 7475   1.395   3.886  17.137  0.0260 -0.1613  0.1142
  503MPD2    C4 7476   1.360   3.846  17.015 -0.8855  0.2445 -0.1301
  503MPD2    C5 7477   1.315   3.930  16.922  0.3441  0.0286  1.1036
  503MPD2     H 7478   1.412   4.047  17.276 -0.5909  1.2835  0.4774
  503MPD2    H1 7479   1.384   3.744  16.986 -0.9886  0.2624 -0.2826
  503MPD2    H2 7480   1.288   4.133  16.874  2.3734  1.7359  0.5286
  503MPD2    H3 7481   1.291   3.891  16.824 -0.0618  0.8051  0.8902
  503MPD2     N 7482   1.457   3.792  17.226 -0.1119  0.2547  0.2726
  503MPD2    H5 7483   1.486   3.820  17.319 -2.8660  1.8239  0.6720
  503MPD2    N1 7484   1.315   4.249  17.121  0.0348 -0.1939  0.3657
  503MPD2    H7 7485   1.312   4.263  17.221 -1.0640 -0.1448  0.3202
  504TMC3    C1 7486   1.543   3.594  17.289  0.1632  0.3846  0.4676
  504TMC3    C2 7487   1.508   3.488  17.355  0.3022  0.2404  0.2568
  504TMC3    C3 7488   1.600   3.429  17.429  0.5863 -0.0159  0.1720
  504TMC3    C4 7489   1.669   3.646  17.283  0.6546 -0.0083  0.2137
  504TMC3    C5 7490   1.765   3.571  17.346  0.0373  0.1174  0.8920
  504TMC3    C6 7491   1.732   3.461  17.421 -0.1485 -0.2146 -0.1929
  504TMC3     C 7492   1.446   3.654  17.207  0.1959  0.1936 -0.4589
  504TMC3     O 7493   1.372   3.582  17.141  0.3759 -0.1596  0.1144
  504TMC3     H 7494   1.407   3.450  17.351  0.6605 -0.6383 -0.4285
  504TMC3    H1 7495   1.693   3.727  17.216 -0.1742  0.4140  0.4287
  504TMC3    H2 7496   1.803   3.394  17.467  0.0015  0.5678  0.7136
  504TMC3    C7 7497   1.893   3.570  17.269  0.3564 -0.1594 -0.2460
  504TMC3    C8 7498   1.564   3.297  17.472  0.2149 -0.7962  0.7393
  504TMC3    O1 7499   1.884   3.593  17.150 -0.4308  0.5268 -0.3749
  504TMC3    O2 7500   1.453   3.250  17.446 -0.5607  0.4778 -0.2123
  505MPD2     C 7501   1.261   3.015  11.218 -0.3074 -0.1525 -0.7023
  505MPD2    C1 7502   1.343   3.035  11.105 -0.7829 -0.1623  0.3528
  505MPD2    C2 7503   1.460   2.970  11.098  0.4097  0.8882 -0.4788
  505MPD2    C3 7504   1.506   2.891  11.207  0.0365 -0.1958  0.4333
  505MPD2    C4 7505   1.428   2.873  11.320  0.6981  0.4405  0.8210
  505MPD2    C5 7506   1.309   2.936  11.316 -0.2628 -0.1664  0.4934
  505MPD2     H 7507   1.521   2.986  11.010  1.7322  0.6066  0.3898
  505MPD2    H1 7508   1.461   2.815  11.406 -1.7871 -2.1600  0.0101
  505MPD2    H2 7509   1.166   3.066  11.230  0.9520  2.6466 -2.5304
  505MPD2    H3 7510   1.250   2.920  11.406  1.2401 -1.7619  1.2012
  505MPD2     N 7511   1.633   2.826  11.204  0.3398 -0.8253  0.0589
  505MPD2    H5 7512   1.663   2.763  11.278  2.3901  1.6931  1.3743
  505MPD2    N1 7513   1.284   3.103  10.989  0.0668  0.2569  0.7734
  505MPD2    H7 7514   1.192   3.144  11.001 -0.8028 -2.4738  3.4251
  506TMC3    C1 7515   1.263   3.159  10.765 -0.3759 -0.8213  0.3119
  506TMC3    C2 7516   1.322   3.232  10.670  0.0247 -1.1079  0.3572
  506TMC3    C3 7517   1.302   3.200  10.539 -0.0448 -0.1189 -0.1207
  506TMC3    C4 7518   1.199   3.041  10.732 -0.8425 -0.5018 -0.1479
  506TMC3    C5 7519   1.185   3.005  10.604 -0.6359 -0.3195 -0.3355
  506TMC3    C6 7520   1.227   3.091  10.502  0.3076  0.4317  0.4810
  506TMC3     C 7521   1.352   3.135  10.873  0.0968  0.2495 -0.2314
  506TMC3     O 7522   1.462   3.110  10.828 -0.7781 -0.0499 -0.0921
  506TMC3     H 7523   1.390   3.311  10.700  1.9315 -2.0934 -1.3816
  506TMC3    H1 7524   1.173   2.965  10.805 -0.9415 -1.8632 -1.5916
  506TMC3    H2 7525   1.231   3.056  10.399  0.9394  0.2068  0.5787
  506TMC3    C7 7526   1.221   2.875  10.584 -0.5097 -0.9378 -0.5944
  506TMC3    C8 7527   1.365   3.282  10.436  0.6655  0.4267  1.0822
  506TMC3    O1 7528   1.156   2.796  10.526 -0.2246 -0.1984  0.4213
  506TMC3    O2 7529   1.290   3.335  10.362  0.2376  0.0984  0.0663
  507TMC3    C1 7530   2.255   3.790  14.618  0.3901 -0.5942 -0.0198
  507TMC3    C2 7531   2.262   3.737  14.498  0.4385  0.1443  0.3078
  507TMC3    C3 7532   2.363   3.764  14.414 -0.1360  0.1031  0.3569
  507TMC3    C4 7533   2.354   3.880  14.650 -0.1953 -0.3196  0.6022
  507TMC3    C5 7534   2.465   3.903  14.576  0.2416 -0.0969  0.0804
  507TMC3    C6 7535   2.464   3.849  14.450 -0.0955 -0.1097 -0.0061
  507TMC3     C 7536   2.128   3.837  14.666  0.1889  0.3983 -0.5913
  507TMC3     O 7537   2.115   3.950  14.631 -0.6501 -0.7625  0.0326
  507TMC3     H 7538   2.175   3.690  14.453 -0.1784  1.2379  0.3526
  507TMC3    H1 7539   2.340   3.923  14.749  0.9828  0.9962  0.1990
  507TMC3    H2 7540   2.549   3.867  14.386  0.2597  1.1971  0.8348
  507TMC3    C7 7541   2.500   4.041  14.571 -0.4799 -0.2781  0.1241
  507TMC3    C8 7542   2.311   3.812  14.287 -0.3396  1.2316 -0.0822
  507TMC3    O1 7543   2.509   4.085  14.456 -0.2444 -0.2783  0.7126
  507TMC3    O2 7544   2.227   3.746  14.229  1.1113 -0.3708  0.1398
  508MPD2     C 7545   3.297   1.159  15.813 -0.2772 -0.6310  0.2728
  508MPD2    C1 7546   3.257   1.284  15.858 -0.6421  0.0837 -0.4607
  508MPD2    C2 7547   3.230   1.379  15.760  1.1011 -0.6521  0.6131
  508MPD2    C3 7548   3.239   1.357  15.623  0.5882  0.1526 -0.1901
  508MPD2    C4 7549   3.286   1.229  15.580  0.4418  0.0200  0.2995
  508MPD2    C5 7550   3.315   1.134  15.675 -0.4191 -0.2256 -0.0961
  508MPD2     H 7551   3.183   1.473  15.789 -1.5470 -1.6783 -0.3252
  508MPD2    H1 7552   3.280   1.208  15.473  3.2631 -1.8627  0.5144
  508MPD2    H2 7553   3.326   1.084  15.886  0.1482  1.0250  1.7901
  508MPD2    H3 7554   3.344   1.036  15.638 -1.7746 -1.1901  1.3869
  508MPD2     N 7555   3.194   1.459  15.534 -0.6059 -0.7902 -0.3327
  508MPD2    H5 7556   3.145   1.539  15.573  1.4930  0.8693 -1.0759
  508MPD2    N1 7557   3.276   1.315  15.998  0.0569 -0.4415 -0.7297
  508MPD2    H7 7558   3.321   1.245  16.056  0.8356 -0.5047 -1.3917
  509TMC3    C1 7559   2.984   1.749  15.338 -0.3562  0.5913  0.0874
  509TMC3    C2 7560   3.048   1.801  15.223  0.8977 -0.1246 -0.2053
  509TMC3    C3 7561   3.147   1.730  15.169 -0.7052  1.7477 -0.7566
  509TMC3    C4 7562   3.023   1.623  15.387 -0.3942  0.5134  1.0682
  509TMC3    C5 7563   3.120   1.559  15.326 -0.8761  0.5859  0.4080
  509TMC3    C6 7564   3.177   1.607  15.219  0.7685 -0.0878  0.4967
  509TMC3     C 7565   2.913   1.837  15.429 -0.2766  0.4999  0.1972
  509TMC3     O 7566   2.924   1.802  15.544  0.0522  0.4186  0.0996
  509TMC3     H 7567   3.000   1.885  15.173 -2.8152 -0.6754  2.4580
  509TMC3    H1 7568   2.998   1.582  15.484 -0.9745 -0.1892  0.6209
  509TMC3    H2 7569   3.279   1.578  15.194 -0.0791 -2.0300 -0.7300
  509TMC3    C7 7570   3.201   1.452  15.398  0.4429 -0.6012 -0.4986
  509TMC3    C8 7571   3.261   1.820  15.124 -0.4273 -0.4039  0.1504
  509TMC3    O1 7572   3.265   1.373  15.334 -0.0752 -0.7191  0.3893
  509TMC3    O2 7573   3.349   1.772  15.056  0.1993  0.0182 -0.1191
  510MPD2     C 7574   1.135   3.345  14.900 -0.1427  0.1499  0.0885
  510MPD2    C1 7575   1.151   3.209  14.895  0.2198  0.4379  0.2346
  510MPD2    C2 7576   1.234   3.151  14.804 -0.6200 -0.7951  0.2641
  510MPD2    C3 7577   1.319   3.229  14.723 -0.1017  0.1489 -0.2395
  510MPD2    C4 7578   1.303   3.361  14.725 -0.2150 -0.5351 -0.5503
  510MPD2    C5 7579   1.203   3.420  14.805 -0.2818  0.2536  0.7167
  510MPD2     H 7580   1.255   3.045  14.807  1.2180 -0.4670 -1.0493
  510MPD2    H1 7581   1.357   3.435  14.667  0.6570 -1.2746 -0.6754
  510MPD2    H2 7582   1.065   3.403  14.960 -0.3600  0.7413 -0.7296
  510MPD2    H3 7583   1.180   3.525  14.790 -1.6572  0.0473  1.3995
  510MPD2     N 7584   1.420   3.158  14.649 -0.1471  0.1232 -0.4333
  510MPD2    H5 7585   1.422   3.057  14.660  0.9416  0.3693  1.7021
  510MPD2    N1 7586   1.072   3.130  14.985 -0.4994 -0.3138 -0.4920
  510MPD2    H7 7587   1.021   3.187  15.052 -4.4610 -1.4653 -2.5298
  511TMC3    C1 7588   0.952   2.947  15.083  0.3478  0.2926 -0.2048
  511TMC3    C2 7589   0.924   3.006  15.197  0.4044  0.6301 -0.7944
  511TMC3    C3 7590   0.823   2.956  15.266 -0.2376  0.2146  0.6696
  511TMC3    C4 7591   0.886   2.837  15.033  0.2660  0.0078 -0.2072
  511TMC3    C5 7592   0.783   2.792  15.108 -0.0976 -0.4566 -0.4466
  511TMC3    C6 7593   0.746   2.852  15.223  0.0692 -0.4812 -0.2249
  511TMC3     C 7594   1.052   2.996  14.991  0.3691 -0.1261  0.5865
  511TMC3     O 7595   1.079   2.914  14.905  0.0298 -0.6170  0.0549
  511TMC3     H 7596   0.983   3.091  15.229 -0.5740  0.6759  0.8901
  511TMC3    H1 7597   0.892   2.798  14.932 -1.4622  1.5899 -0.9211
  511TMC3    H2 7598   0.655   2.820  15.272 -1.3956  2.2045 -1.2364
  511TMC3    C7 7599   0.684   2.718  15.033  0.2719  0.2361  0.3221
  511TMC3    C8 7600   0.777   3.037  15.377 -0.1680 -0.5033 -0.0853
  511TMC3    O1 7601   0.680   2.743  14.911  0.1547 -0.3895  0.0952
  511TMC3    O2 7602   0.823   3.149  15.388 -0.5508 -0.4265  0.1333
  512TMC3    C1 7603   4.679   2.643  13.189 -0.1205 -0.2640  0.4011
  512TMC3    C2 7604   0.082   2.606  13.238 -0.1714 -0.1451 -0.4019
  512TMC3    C3 7605   0.149   2.511  13.165 -0.3771 -0.6782  0.3245
  512TMC3    C4 7606   4.629   2.587  13.076 -0.2131  0.3905  0.4970
  512TMC3    C5 7607   4.700   2.488  13.011 -0.0359 -0.1206  0.0618
  512TMC3    C6 7608   0.102   2.451  13.052  0.3964  0.0605  0.5397
  512TMC3     C 7609   4.584   2.707  13.278 -0.4902  0.1146  0.4155
  512TMC3     O 7610   4.638   2.769  13.367 -0.3872  0.2904 -0.3110
  512TMC3     H 7611   0.126   2.659  13.322 -2.4905  1.6427 -0.3391
  512TMC3    H1 7612   4.539   2.619  13.024  0.2158  0.4523 -0.2021
  512TMC3    H2 7613   0.158   2.375  12.998  0.3034  0.8386 -0.6367
  512TMC3    C7 7614   4.640   2.424  12.900 -0.5603 -0.7739  0.1648
  512TMC3    C8 7615   0.282   2.474  13.206  0.0341 -0.2641  0.4363
  512TMC3    O1 7616   4.568   2.489  12.824 -0.6960  0.0404  0.4025
  512TMC3    O2 7617   0.345   2.433  13.109 -0.5314  0.0283 -0.4851
  513MPD2     C 7618   1.844   2.349  13.392  0.0642  0.0584 -0.2188
  513MPD2    C1 7619   1.903   2.453  13.332 -0.0017  0.7230 -0.2113
  513MPD2    C2 7620   1.979   2.542  13.407 -0.3292  0.3366  0.2507
  513MPD2    C3 7621   1.998   2.521  13.540  0.2621 -0.5283 -0.0069
  513MPD2    C4 7622   1.929   2.417  13.607 -0.0319  0.6958 -0.7034
  513MPD2    C5 7623   1.847   2.342  13.529 -0.1741 -1.2463 -0.2879
  513MPD2     H 7624   2.035   2.623  13.361 -0.1559 -1.1008 -2.0501
  513MPD2    H1 7625   1.925   2.410  13.716 -1.4177 -0.8082 -0.8432
  513MPD2    H2 7626   1.789   2.280  13.329 -0.1946 -0.2749  0.3754
  513MPD2    H3 7627   1.787   2.269  13.582  0.2491 -1.2891  0.1364
  513MPD2     N 7628   2.085   2.600  13.616  0.3391  0.2230 -0.3157
  513MPD2    H5 7629   2.130   2.674  13.564  0.0780  1.4312  1.2002
  513MPD2    N1 7630   1.887   2.465  13.193 -0.4373  0.2172  1.2086
  513MPD2    H7 7631   1.828   2.394  13.151  2.3097  0.5539 -3.1959
  514TMC3    C1 7632   1.923   2.552  12.967 -0.5503  0.6051 -1.1085
  514TMC3    C2 7633   1.927   2.424  12.912  1.5081  0.1163 -0.0211
  514TMC3    C3 7634   2.003   2.400  12.801  0.1301  0.8925  0.0726
  514TMC3    C4 7635   1.995   2.652  12.910  0.4029 -0.1816  0.4641
  514TMC3    C5 7636   2.091   2.615  12.818 -0.4873 -0.0099  0.1778
  514TMC3    C6 7637   2.090   2.492  12.755  1.2609  0.3724 -0.2964
  514TMC3     C 7638   1.935   2.569  13.112  0.3996 -0.0928 -0.3721
  514TMC3     O 7639   1.992   2.671  13.142  0.0657 -0.5442  0.0367
  514TMC3     H 7640   1.854   2.357  12.957  1.7543  0.1294  0.4005
  514TMC3    H1 7641   1.985   2.756  12.936  1.9783  0.1972 -0.4281
  514TMC3    H2 7642   2.159   2.482  12.672  0.3962  0.9468 -1.0825
  514TMC3    C7 7643   2.223   2.652  12.854 -0.6386  0.2642 -0.3318
  514TMC3    C8 7644   1.963   2.289  12.721 -0.7148 -1.1429 -0.4885
  514TMC3    O1 7645   2.310   2.655  12.768 -0.2704 -0.6401 -0.1920
  514TMC3    O2 7646   1.885   2.208  12.770 -0.0171 -0.1656  0.4684
  515MPD2     C 7647   0.069   4.595  15.383  0.1434 -0.0541  0.1658
  515MPD2    C1 7648   0.073   4.550  15.251  0.2926 -0.0556 -0.3502
  515MPD2    C2 7649   0.196   4.544  15.186  0.1188  0.5774  0.4739
  515MPD2    C3 7650   0.314   4.564  15.258  0.1612  0.0260  0.0007
  515MPD2    C4 7651   0.309   4.608  15.391 -0.3561  0.1092  0.1694
  515MPD2    C5 7652   0.188   4.630  15.447  0.0391  0.6030 -0.0543
  515MPD2     H 7653   0.191   4.527  15.079  0.8451  1.2610  0.3288
  515MPD2    H1 7654   0.397   4.627  15.451 -1.0566  0.0424  1.2190
  515MPD2    H2 7655   4.700   4.605  15.439 -1.4195  2.5705 -2.8401
  515MPD2    H3 7656   0.189   4.664  15.550  0.3398  0.0857  0.1120
  515MPD2     N 7657   0.442   4.538  15.198  0.7227 -0.5183  0.6659
  515MPD2    H5 7658   0.524   4.534  15.258  2.2016 -0.4629 -1.3724
  515MPD2    N1 7659   4.681   4.520  15.178  0.9986  0.8745 -0.0373
  515MPD2    H7 7660   4.698   4.498  15.081 -1.1996 -0.4952 -0.1018
  516TMC3    C1 7661   4.479   4.413  15.144 -0.8200 -0.2125  0.9433
  516TMC3    C2 7662   4.463   4.468  15.026 -0.1759  0.2832  0.0683
  516TMC3    C3 7663   4.376   4.404  14.944  0.1463  0.1398  0.3471
  516TMC3    C4 7664   4.404   4.305  15.189 -0.2424  0.5017  0.2951
  516TMC3    C5 7665   4.305   4.256  15.111  0.5740 -0.3234 -0.2139
  516TMC3    C6 7666   4.289   4.303  14.986  0.1843 -0.4134 -0.3368
  516TMC3     C 7667   4.566   4.475  15.241  0.3635 -0.4819 -0.2152
  516TMC3     O 7668   4.539   4.454  15.356  0.0840  0.1269  0.1849
  516TMC3     H 7669   4.511   4.560  14.994 -1.2778 -0.0228 -2.5009
  516TMC3    H1 7670   4.438   4.245  15.273 -0.8302 -0.7467 -0.3570
  516TMC3    H2 7671   4.215   4.261  14.918 -1.8189  0.7032  1.1606
  516TMC3    C7 7672   4.257   4.120  15.145 -0.6160  0.1400 -0.5182
  516TMC3    C8 7673   4.365   4.444  14.803  0.0792 -0.0800 -0.1028
  516TMC3    O1 7674   4.300   4.061  15.238  0.2659  0.4997 -0.0762
  516TMC3    O2 7675   4.252   4.445  14.759  0.2152  0.5368  0.3674
  517MPD2     C 7676   4.411   0.993   0.043 -0.5046 -0.4493  0.0947
  517MPD2    C1 7677   4.537   0.950   0.087 -0.3484 -0.4573  0.3522
  517MPD2    C2 7678   4.598   1.038   0.188 -0.2069 -0.3807 -0.3937
  517MPD2    C3 7679   4.524   1.145   0.240 -0.4317  0.1856 -0.1803
  517MPD2    C4 7680   4.390   1.178   0.195  1.2952 -0.7202 -0.3543
  517MPD2    C5 7681   4.344   1.104   0.094 -0.6826 -0.5043  0.6874
  517MPD2     H 7682   4.696   1.014   0.229 -1.4844 -2.6738  1.3329
  517MPD2    H1 7683   4.336   1.258   0.244  0.3661 -1.7169  0.2509
  517MPD2    H2 7684   4.353   0.941  17.665 -1.8098  0.8477  0.2145
  517MPD2    H3 7685   4.257   1.148   0.047 -0.0174 -1.0664 -1.0585
  517MPD2     N 7686   4.581   1.236   0.333  0.7223 -0.2157  0.0032
  517MPD2    H5 7687   4.526   1.318   0.356 -0.9526 -0.6374 -2.5348
  517MPD2    N1 7688   4.618   0.840   0.050 -0.0564  0.4718 -0.3891
  517MPD2    H7 7689   4.708   0.829   0.095  0.7905  1.7534 -1.7651
  518TMC3    C1 7690   4.695   0.660  17.628  0.0122  0.4841 -0.1372
  518TMC3    C2 7691   4.675   0.560  17.533  0.2556 -0.1386  0.2566
  518TMC3    C3 7692   0.063   0.490  17.490  0.0995 -0.1255 -0.0050
  518TMC3    C4 7693   0.097   0.700  17.664  0.6247  0.6659  0.1823
  518TMC3    C5 7694   0.203   0.630  17.610  0.1098 -0.6367  0.1219
  518TMC3    C6 7695   0.189   0.530  17.520 -0.1023  0.0596 -0.1066
  518TMC3     C 7696   4.575   0.737  17.671 -0.5933  0.3851 -0.4174
  518TMC3     O 7697   4.462   0.722  17.628  0.2030 -0.1412  0.1050
  518TMC3     H 7698   4.572   0.532  17.519 -0.2937  0.3901  3.2091
  518TMC3    H1 7699   0.117   0.769   0.049 -1.8471 -0.9666  2.1537
  518TMC3    H2 7700   0.273   0.463  17.501  1.4944  1.2676  2.5629
  518TMC3    C7 7701   0.328   0.649  17.677  0.2231  0.8989  0.2438
  518TMC3    C8 7702   0.053   0.403  17.374 -0.1399  0.5592 -0.2205
  518TMC3    O1 7703   0.327   0.733   0.070  0.0259 -0.4301  0.0352
  518TMC3    O2 7704   0.146   0.330  17.340 -0.3758  0.3062  0.3542
  519MPD2     C 7705   1.202   4.035  14.577 -0.1976 -0.5417  0.1208
  519MPD2    C1 7706   1.129   4.023  14.465  0.5394 -0.2181 -0.1817
  519MPD2    C2 7707   1.136   3.906  14.387 -0.3657  0.7480  0.0916
  519MPD2    C3 7708   1.217   3.803  14.436 -0.3397  0.0764  0.8533
  519MPD2    C4 7709   1.282   3.816  14.557  0.1572  0.3433 -0.4278
  519MPD2    C5 7710   1.267   3.930  14.628  1.0901  0.6078  0.0082
  519MPD2     H 7711   1.089   3.895  14.289 -1.3521 -1.3792  0.8032
  519MPD2    H1 7712   1.344   3.736  14.597  0.1997  1.3081  1.4174
  519MPD2    H2 7713   1.207   4.126  14.635  2.0680  0.6626 -1.9702
  519MPD2    H3 7714   1.322   3.950  14.719 -0.0263  0.0997  0.8003
  519MPD2     N 7715   1.245   3.687  14.352  0.6903  0.2885 -0.4723
  519MPD2    H5 7716   1.313   3.626  14.395  1.2112  1.1533 -0.0769
  519MPD2    N1 7717   1.053   4.135  14.424 -0.0161 -0.1438  0.4292
  519MPD2    H7 7718   1.062   4.216  14.485 -2.4977  0.2979  0.2038
  520TMC3    C1 7719   1.259   3.532  14.177  0.5710  0.3137  0.1615
  520TMC3    C2 7720   1.206   3.489  14.059 -0.2181  0.3475  0.4003
  520TMC3    C3 7721   1.302   3.431  13.974 -0.4439 -0.4514  0.9468
  520TMC3    C4 7722   1.378   3.492  14.232  0.1684 -0.5117  0.0059
  520TMC3    C5 7723   1.460   3.420  14.147  0.3670  0.0940  0.4814
  520TMC3    C6 7724   1.422   3.391  14.025 -0.3906  0.2376  0.4179
  520TMC3     C 7725   1.192   3.648  14.234 -0.4430  0.7457  0.2912
  520TMC3     O 7726   1.104   3.702  14.173  0.0079 -0.1805 -0.2645
  520TMC3     H 7727   1.110   3.520  14.018 -0.7329  1.2431  2.2994
  520TMC3    H1 7728   1.420   3.528  14.326  1.4905 -2.4272  0.1556
  520TMC3    H2 7729   1.492   3.340  13.961  0.9673 -0.9649  2.8778
  520TMC3    C7 7730   1.600   3.437  14.162 -0.0242  0.3438  0.2167
  520TMC3    C8 7731   1.278   3.406  13.832  0.6080  0.3348  0.0954
  520TMC3    O1 7732   1.646   3.420  14.275  0.3331  0.8614  0.5480
  520TMC3    O2 7733   1.327   3.306  13.778  0.1869 -0.0453 -0.1356
  521MPD2     C 7734   1.920   2.107  17.266 -0.2686  0.0698  1.0035
  521MPD2    C1 7735   1.959   1.978  17.292  0.0989  0.3745 -0.0389
  521MPD2    C2 7736   2.085   1.933  17.250 -0.4966 -0.0100  0.5917
  521MPD2    C3 7737   2.165   2.014  17.169 -0.4169  0.4345  0.4266
  521MPD2    C4 7738   2.122   2.137  17.134  0.5205  0.1063  0.5241
  521MPD2    C5 7739   2.003   2.181  17.186  1.2056 -0.2182  0.4547
  521MPD2     H 7740   2.116   1.829  17.260  1.1620  0.5321  1.1216
  521MPD2    H1 7741   2.177   2.208  17.074  0.1454  0.3385  0.4558
  521MPD2    H2 7742   1.827   2.149  17.305  0.9857  0.9193  3.1036
  521MPD2    H3 7743   1.966   2.282  17.167 -0.1500 -1.3717 -3.1544
  521MPD2     N 7744   2.283   1.955  17.113  0.3684 -0.0004 -0.4237
  521MPD2    H5 7745   2.302   1.856  17.123 -0.4188 -0.1589 -0.5112
  521MPD2    N1 7746   1.859   1.903  17.362 -0.1178 -0.5426  0.8882
  521MPD2    H7 7747   1.779   1.951  17.402  0.7725  0.9828  0.8517
  522TMC3    C1 7748   2.484   1.946  16.994 -0.2243  0.0448 -0.1878
  522TMC3    C2 7749   2.608   2.010  16.981  0.4327 -0.0848  0.5508
  522TMC3    C3 7750   2.714   1.935  16.926 -0.1798  0.2776 -0.1529
  522TMC3    C4 7751   2.459   1.817  16.964 -0.5144  0.9768  0.0262
  522TMC3    C5 7752   2.570   1.746  16.916  0.2459 -0.1970  0.0125
  522TMC3    C6 7753   2.693   1.806  16.898  0.4757  0.2496  0.1789
  522TMC3     C 7754   2.380   2.027  17.051 -0.1385  0.4458 -0.0544
  522TMC3     O 7755   2.398   2.150  17.036 -0.5000  0.2603 -0.3710
  522TMC3     H 7756   2.624   2.115  17.004  2.9536 -0.6619  1.4286
  522TMC3    H1 7757   2.357   1.780  16.961  0.5744 -2.0638  0.0784
  522TMC3    H2 7758   2.767   1.740  16.855  0.8503  0.3935  0.5988
  522TMC3    C7 7759   2.570   1.600  16.903  0.5612 -0.6605 -0.9165
  522TMC3    C8 7760   2.836   1.995  16.884  0.0914 -0.5915  0.0746
  522TMC3    O1 7761   2.643   1.546  16.821  0.2819 -0.0051  0.8398
  522TMC3    O2 7762   2.864   2.107  16.916 -0.4822 -0.2386  0.0572
  523MPD2     C 7763   0.035   2.381  10.754 -0.5204 -0.3190  0.4314
  523MPD2    C1 7764   4.722   2.311  10.643 -0.2461 -0.3132 -0.3167
  523MPD2    C2 7765   4.655   2.373  10.539 -0.1644  0.3353 -0.4872
  523MPD2    C3 7766   4.617   2.508  10.541  0.1789  0.2025 -0.0828
  523MPD2    C4 7767   4.640   2.571  10.663 -0.8512  0.7088  0.0280
  523MPD2    C5 7768   4.710   2.511  10.761  0.5030 -0.1246  0.4920
  523MPD2     H 7769   4.640   2.322  10.445 -1.5095 -0.7672  0.3224
  523MPD2    H1 7770   4.621   2.678  10.664 -0.4175  0.7834  0.3627
  523MPD2    H2 7771   0.093   2.337  10.834  0.2070  0.5943  0.4025
  523MPD2    H3 7772   0.015   2.564  10.852  0.8120  1.1563 -0.3453
  523MPD2     N 7773   4.544   2.581  10.443 -0.1927  0.0576  0.3210
  523MPD2    H5 7774   4.515   2.674  10.472 -0.9202  0.2135 -0.9020
  523MPD2    N1 7775   0.023   2.172  10.656 -0.2318 -0.7607 -0.4303
  523MPD2    H7 7776   0.074   2.134  10.735 -0.9738 -0.6883  0.0803
  524TMC3    C1 7777   4.463   2.616  10.222  0.9364 -0.6508 -0.7209
  524TMC3    C2 7778   4.419   2.550  10.114 -0.8786 -0.0845 -0.3501
  524TMC3    C3 7779   4.413   2.615   9.999 -0.2467  0.0890  0.3590
  524TMC3    C4 7780   4.530   2.739  10.212 -0.1014  0.2544  0.0319
  524TMC3    C5 7781   4.520   2.806  10.097 -0.3633  0.8962  0.4098
  524TMC3    C6 7782   4.469   2.745   9.986 -0.1534 -0.2812  0.1409
  524TMC3     C 7783   4.525   2.523  10.320 -0.1855 -1.0126 -0.4068
  524TMC3     O 7784   4.506   2.407  10.287  0.6362 -0.6282 -0.0403
  524TMC3     H 7785   4.367   2.456  10.126 -2.9294  0.8564 -1.7999
  524TMC3    H1 7786   4.572   2.781  10.303  1.3390 -0.7506 -0.1603
  524TMC3    H2 7787   4.461   2.793   9.889  2.7135 -0.9113 -0.4001
  524TMC3    C7 7788   4.573   2.934  10.093  0.1566 -0.4410 -0.5497
  524TMC3    C8 7789   4.355   2.546   9.889 -0.0338 -0.3626 -0.2995
  524TMC3    O1 7790   4.665   2.950  10.174  0.2793  0.4095 -0.2163
  524TMC3    O2 7791   4.342   2.426   9.894 -0.5062  0.0446  0.3705
  525MPD2     C 7792   2.720   3.575  14.517 -0.5830  0.7514  0.2284
  525MPD2    C1 7793   2.794   3.619  14.620  0.3330  0.5297 -0.7275
  525MPD2    C2 7794   2.864   3.741  14.620  0.1358  0.4444  0.0873
  525MPD2    C3 7795   2.865   3.820  14.499 -0.5344 -0.1248 -0.1524
  525MPD2    C4 7796   2.794   3.769  14.389  0.1302 -0.0159  0.1727
  525MPD2    C5 7797   2.724   3.653  14.405 -0.9011 -0.1805  1.0683
  525MPD2     H 7798   2.912   3.777  14.710  0.0932 -1.6151  0.9413
  525MPD2    H1 7799   2.793   3.821  14.294  3.3175  0.6995  0.5226
  525MPD2    H2 7800   2.674   3.477  14.512  0.3365  0.1722  3.3008
  525MPD2    H3 7801   2.675   3.615  14.316 -0.3468  3.7026 -0.9076
  525MPD2     N 7802   2.923   3.951  14.503 -0.6317  0.1616  0.0260
  525MPD2    H5 7803   2.957   3.990  14.590  0.5622  1.7168 -1.1525
  525MPD2    N1 7804   2.805   3.532  14.733 -0.3374 -0.4905  0.0464
  525MPD2    H7 7805   2.884   3.550  14.794 -1.0656 -0.5418  1.0051
  526TMC3    C1 7806   2.782   3.346  14.867  0.1293 -0.3210  0.3363
  526TMC3    C2 7807   2.702   3.277  14.954 -0.1383 -0.9065 -0.2610
  526TMC3    C3 7808   2.759   3.197  15.052 -0.5238  0.1817  0.0423
  526TMC3    C4 7809   2.920   3.345  14.868  0.7459 -0.8448  0.0852
  526TMC3    C5 7810   2.967   3.258  14.967  0.1829  0.1078 -0.0882
  526TMC3    C6 7811   2.897   3.186  15.058 -1.2098 -0.3462 -0.1068
  526TMC3     C 7812   2.719   3.432  14.769 -0.1605  0.4215  0.8632
  526TMC3     O 7813   2.604   3.404  14.732 -0.1587 -0.2160  0.0281
  526TMC3     H 7814   2.595   3.284  14.938  0.0780  0.4631 -1.1292
  526TMC3    H1 7815   2.983   3.376  14.786 -1.3255 -1.0912 -1.5767
  526TMC3    H2 7816   2.942   3.120  15.132  0.5477  1.7860  0.7461
  526TMC3    C7 7817   3.100   3.203  14.942  0.3794 -0.4379  0.0272
  526TMC3    C8 7818   2.667   3.167  15.170  0.5009 -0.4606  0.0191
  526TMC3    O1 7819   3.132   3.093  14.993  0.2598  0.2132  0.1149
  526TMC3    O2 7820   2.630   3.257  15.249  0.6223 -0.1897  0.5050
  527MPD2     C 7821   1.051   0.786   1.659  0.1754  0.6394  0.1880
  527MPD2    C1 7822   1.040   0.910   1.598 -0.2005  0.4286  0.5619
  527MPD2    C2 7823   1.135   0.942   1.504 -0.4574 -0.4943  0.4062
  527MPD2    C3 7824   1.239   0.857   1.471 -0.3377 -0.2758  0.6003
  527MPD2    C4 7825   1.261   0.740   1.542  0.1036  0.1076  0.1341
  527MPD2    C5 7826   1.163   0.705   1.632  0.5721  0.0796 -0.1703
  527MPD2     H 7827   1.133   1.040   1.458  0.2159  0.6039  2.7227
  527MPD2    H1 7828   1.336   0.667   1.514 -0.4195 -0.7978  1.0802
  527MPD2    H2 7829   0.983   0.745   1.733 -2.0695  2.0092 -1.0965
  527MPD2    H3 7830   1.192   0.622   1.695  0.1834 -0.0648 -0.1747
  527MPD2     N 7831   1.330   0.903   1.375 -0.2318  0.0272  0.4263
  527MPD2    H5 7832   1.314   0.993   1.332  3.0337 -0.2113 -1.2675
  527MPD2    N1 7833   0.946   1.002   1.624  0.2374  0.2472 -0.1455
  527MPD2    H7 7834   0.950   1.087   1.569  0.4413  0.4944  0.2505
  528TMC3    C1 7835   0.734   1.086   1.690 -0.1990 -0.6515 -0.2033
  528TMC3    C2 7836   0.795   1.209   1.721  0.1362 -0.0302  0.0601
  528TMC3    C3 7837   0.710   1.299   1.775  0.5675  0.2078  0.1626
  528TMC3    C4 7838   0.603   1.054   1.712  0.1475 -0.1678 -0.4658
  528TMC3    C5 7839   0.531   1.147   1.782  0.2681  0.2596  0.1167
  528TMC3    C6 7840   0.582   1.272   1.814  0.2675  0.0304  0.8844
  528TMC3     C 7841   0.825   0.971   1.688 -0.2899  0.1406 -0.0636
  528TMC3     O 7842   0.780   0.869   1.736 -0.1436  0.5635  0.5206
  528TMC3     H 7843   0.901   1.235   1.718  0.1692 -0.0964  0.6792
  528TMC3    H1 7844   0.569   0.961   1.666  0.1533 -0.2929 -0.2176
  528TMC3    H2 7845   0.525   1.349   1.864 -0.9821 -1.5020  1.7953
  528TMC3    C7 7846   0.385   1.155   1.756  0.3303  0.3064 -0.2083
  528TMC3    C8 7847   0.744   1.443   1.772  0.0060  0.6753 -0.2261
  528TMC3    O1 7848   0.320   1.225   1.831  0.1602  1.0446 -0.2440
  528TMC3    O2 7849   0.689   1.520   1.849  0.5603  0.6534  0.3923
  529MPD2     C 7850   3.356   0.804   0.860 -0.3569 -0.0973 -0.0343
  529MPD2    C1 7851   3.266   0.701   0.837 -0.5145 -0.1080 -0.3883
  529MPD2    C2 7852   3.201   0.694   0.710 -0.2677 -0.4386  1.0629
  529MPD2    C3 7853   3.242   0.774   0.610  0.2797 -0.6320  0.6349
  529MPD2    C4 7854   3.321   0.881   0.636 -0.7721  0.0855  0.3706
  529MPD2    C5 7855   3.378   0.899   0.760 -0.3943 -0.3868 -0.3927
  529MPD2     H 7856   3.129   0.615   0.690  0.6964 -0.8328 -0.8704
  529MPD2    H1 7857   3.354   0.945   0.554  1.1146  0.0191  1.0734
  529MPD2    H2 7858   3.421   0.810   0.947  0.2588 -1.0653 -0.4212
  529MPD2    H3 7859   3.446   0.980   0.785  1.3206 -1.0891 -2.7926
  529MPD2     N 7860   3.193   0.757   0.481 -0.4829  0.2506 -0.1451
  529MPD2    H5 7861   3.233   0.809   0.404 -2.3601  1.0261 -0.6038
  529MPD2    N1 7862   3.245   0.603   0.926 -0.0186  0.5932  0.0115
  529MPD2    H7 7863   3.182   0.527   0.903  0.9349 -0.2090  0.0351
  530TMC3    C1 7864   3.302   0.459   1.104  0.3495  0.0580 -0.6333
  530TMC3    C2 7865   3.345   0.443   1.231 -0.1919 -0.4296 -0.2305
  530TMC3    C3 7866   3.368   0.318   1.269  0.4650 -0.3914 -0.2433
  530TMC3    C4 7867   3.263   0.352   1.023  0.0708 -0.0193 -0.1007
  530TMC3    C5 7868   3.263   0.226   1.088 -0.4091 -0.4889  0.4818
  530TMC3    C6 7869   3.326   0.206   1.205  0.4181 -0.6983 -0.4218
  530TMC3     C 7870   3.308   0.594   1.050 -0.2063 -0.1406 -0.2886
  530TMC3     O 7871   3.384   0.669   1.112  0.1476 -0.9788 -0.4304
  530TMC3     H 7872   3.373   0.531   1.287 -1.8334  1.2611 -2.0667
  530TMC3    H1 7873   3.242   0.363   0.918 -1.5284 -0.0372  0.2141
  530TMC3    H2 7874   3.308   0.112   1.256  0.2869 -1.1245 -1.2534
  530TMC3    C7 7875   3.206   0.121   1.008  0.4774 -0.5401  0.6979
  530TMC3    C8 7876   3.422   0.304   1.399  0.5511 -0.3551 -1.1186
  530TMC3    O1 7877   3.122   0.147   0.924 -0.1861  0.2090 -0.2267
  530TMC3    O2 7878   3.434   0.407   1.467 -0.2039  0.3844  0.3596
  531MPD2     C 7879   2.556   2.785  13.226 -0.1782 -0.0418  0.1768
  531MPD2    C1 7880   2.424   2.786  13.274  0.0323 -0.6467 -0.0506
  531MPD2    C2 7881   2.319   2.739  13.195 -0.1474  0.4730  0.0374
  531MPD2    C3 7882   2.340   2.706  13.066  0.8783  0.4428 -0.1384
  531MPD2    C4 7883   2.470   2.705  13.019 -0.0104 -0.1769  0.5950
  531MPD2    C5 7884   2.577   2.738  13.100 -0.1056  0.4847  0.1961
  531MPD2     H 7885   2.217   2.756  13.227  0.6017  1.1371  2.0967
  531MPD2    H1 7886   2.495   2.682  12.916  1.9556  2.3285  0.4880
  531MPD2    H2 7887   2.643   2.805  13.287 -0.0546 -1.6891  0.5401
  531MPD2    H3 7888   2.680   2.730  13.068 -0.1069 -1.1787  0.6408
  531MPD2     N 7889   2.223   2.675  12.989  0.5974  0.1272  0.3985
  531MPD2    H5 7890   2.138   2.685  13.044  0.0651 -1.8411 -0.0753
  531MPD2    N1 7891   2.409   2.838  13.407 -0.5669  0.4451 -0.3438
  531MPD2    H7 7892   2.497   2.857  13.454 -0.6168 -2.1054  0.8208
  532TMC3    C1 7893   2.321   2.873  13.625  0.0154  0.6476  0.2529
  532TMC3    C2 7894   2.215   2.807  13.681 -0.2346 -0.4031 -0.0692
  532TMC3    C3 7895   2.238   2.691  13.752 -0.3961 -0.4758 -0.2760
  532TMC3    C4 7896   2.449   2.835  13.664  0.1889 -0.1862 -0.0763
  532TMC3    C5 7897   2.470   2.726  13.742 -0.5136 -0.7783  0.3998
  532TMC3    C6 7898   2.365   2.640  13.767 -0.4304 -0.5991 -0.1546
  532TMC3     C 7899   2.294   2.852  13.481 -0.3677 -0.1797 -0.1321
  532TMC3     O 7900   2.182   2.819  13.444  0.0757 -0.3477  0.4333
  532TMC3     H 7901   2.114   2.833  13.651 -0.8966 -0.2192  2.3118
  532TMC3    H1 7902   2.531   2.903  13.646  0.8712  0.0446  3.7193
  532TMC3    H2 7903   2.385   2.541  13.809 -0.9569 -1.1166 -1.1334
  532TMC3    C7 7904   2.600   2.666  13.709 -0.0927  0.0474 -0.6590
  532TMC3    C8 7905   2.129   2.601  13.747  0.3431 -0.2274 -0.5991
  532TMC3    O1 7906   2.699   2.711  13.771  0.2660 -0.2482 -0.4367
  532TMC3    O2 7907   2.099   2.527  13.838  0.3110 -0.3441 -0.5289
  533TMC3    C1 7908   2.970   4.164  14.427 -0.5301  0.2460  0.2504
  533TMC3    C2 7909   3.103   4.198  14.432 -0.1785 -0.3798  0.0394
  533TMC3    C3 7910   3.143   4.292  14.527 -0.4757  0.1009 -0.4794
  533TMC3    C4 7911   2.881   4.212  14.524  0.6772  0.1324  0.2506
  533TMC3    C5 7912   2.937   4.285  14.629  0.2349 -0.2672 -0.3571
  533TMC3    C6 7913   3.064   4.340  14.628  0.2321  0.8151 -0.4259
  533TMC3     C 7914   2.952   4.023  14.393  0.2123 -0.1895 -0.1795
  533TMC3     O 7915   2.938   4.001  14.272 -0.0407  0.1011 -0.8897
  533TMC3     H 7916   3.172   4.158  14.358 -0.5032  0.7755 -0.8931
  533TMC3    H1 7917   2.784   4.164  14.529  1.0215 -0.4671  1.2382
  533TMC3    H2 7918   3.111   4.370  14.721 -0.6914  1.2931 -0.1197
  533TMC3    C7 7919   2.896   4.229  14.749 -0.3709 -0.0707  0.2347
  533TMC3    C8 7920   3.285   4.319  14.552 -0.3051 -0.4715 -0.7950
  533TMC3    O1 7921   2.871   4.105  14.739  0.3252 -0.0041 -0.4876
  533TMC3    O2 7922   3.314   4.351  14.666 -0.2980 -0.4353  0.3644
  534MPD2     C 7923   1.254   0.558   1.975 -0.4151  0.3396  0.1708
  534MPD2    C1 7924   1.117   0.527   1.964  0.3130  0.0850  0.1357
  534MPD2    C2 7925   1.081   0.426   1.878 -0.4583 -0.3297  0.3854
  534MPD2    C3 7926   1.170   0.358   1.801  0.1546 -0.3586  0.3282
  534MPD2    C4 7927   1.303   0.393   1.806  0.0579  0.0706 -0.5792
  534MPD2    C5 7928   1.346   0.487   1.900 -0.1571 -0.3886  0.1912
  534MPD2     H 7929   0.978   0.392   1.879  0.2053 -2.3885 -0.0822
  534MPD2    H1 7930   1.383   0.351   1.746 -0.5829 -1.3313 -0.4290
  534MPD2    H2 7931   1.281   0.654   2.018 -2.0237 -0.8380  3.7759
  534MPD2    H3 7932   1.446   0.527   1.905 -0.0002 -0.7410 -0.1999
  534MPD2     N 7933   1.128   0.260   1.704 -0.0033 -0.3017 -0.4469
  534MPD2    H5 7934   1.030   0.234   1.705 -0.3111  0.8289 -0.8927
  534MPD2    N1 7935   1.008   0.597   2.029  0.4555  0.8686  0.3845
  534MPD2    H7 7936   0.916   0.560   2.005  0.2684  1.2890  0.4591
  535TMC3    C1 7937   1.126   0.134   1.511 -0.4338 -0.0195  0.6911
  535TMC3    C2 7938   1.007   0.073   1.553  0.6511 -0.4781  0.8382
  535TMC3    C3 7939   0.916   0.027   1.460  0.1540  0.6423 -0.1254
  535TMC3    C4 7940   1.147   0.155   1.380 -0.3119  0.6748 -0.0064
  535TMC3    C5 7941   1.043   0.128   1.295 -0.6783  0.0188  0.2463
  535TMC3    C6 7942   0.932   0.062   1.333  0.3608 -0.8200  0.1378
  535TMC3     C 7943   1.211   0.207   1.604  0.3956 -0.8570  0.0520
  535TMC3     O 7944   1.318   0.253   1.557  0.4373  0.0987  0.0902
  535TMC3     H 7945   1.011   0.035   1.655 -1.2591  1.6039  1.6974
  535TMC3    H1 7946   1.227   0.220   1.346  0.0846  0.0323 -0.2945
  535TMC3    H2 7947   0.875   0.015   1.255  0.6955 -0.7739 -0.1331
  535TMC3    C7 7948   1.088   0.112   1.161  0.2742  0.5537  0.1067
  535TMC3    C8 7949   0.792   4.689   1.504  0.0984 -1.3699  0.1132
  535TMC3    O1 7950   1.208   0.092   1.144 -0.4557 -0.5708 -0.1592
  535TMC3    O2 7951   0.709   4.666   1.424  0.3408 -0.4135 -0.3005
  536MPD2     C 7952   4.341   2.852  16.752 -0.4288 -0.0211 -0.2109
  536MPD2    C1 7953   4.331   2.972  16.814  0.4098 -0.3193  0.6374
  536MPD2    C2 7954   4.284   3.080  16.746  0.1192  0.3102  0.5956
  536MPD2    C3 7955   4.240   3.060  16.612  0.1018 -0.0692 -0.5286
  536MPD2    C4 7956   4.252   2.939  16.557  0.0003  0.6082 -0.7202
  536MPD2    C5 7957   4.301   2.833  16.625 -0.3029 -0.8082  0.1539
  536MPD2     H 7958   4.274   3.176  16.797  2.4143  0.1141  1.3863
  536MPD2    H1 7959   4.217   2.925  16.456  0.1692  0.7102 -0.7926
  536MPD2    H2 7960   4.373   2.760  16.800 -1.0690 -0.6207 -0.9214
  536MPD2    H3 7961   4.305   2.732  16.586 -1.0990 -0.3212 -1.1757
  536MPD2     N 7962   4.192   3.163  16.529 -0.4196  0.1811 -0.5372
  536MPD2    H5 7963   4.160   3.147  16.434  2.0386 -0.1676 -1.3040
  536MPD2    N1 7964   4.365   2.980  16.955 -0.0812 -0.7120 -0.1075
  536MPD2    H7 7965   4.385   2.890  16.998 -0.3564  0.5032  2.5283
  537TMC3    C1 7966   4.450   3.064  17.158 -0.2421  0.3288 -0.4689
  537TMC3    C2 7967   4.528   3.165  17.214  0.3130  0.2380 -0.0779
  537TMC3    C3 7968   4.584   3.127  17.334 -0.8712 -0.5317 -0.5130
  537TMC3    C4 7969   4.405   2.956  17.220  0.3442 -0.1708  0.2851
  537TMC3    C5 7970   4.457   2.929  17.345 -0.6619  0.1303  1.5783
  537TMC3    C6 7971   4.547   3.014  17.404 -0.0553 -0.0552 -0.8679
  537TMC3     C 7972   4.405   3.096  17.022 -0.4025  0.7855  0.9845
  537TMC3     O 7973   4.413   3.212  16.984  0.4165  0.0677 -0.0732
  537TMC3     H 7974   4.551   3.255  17.158  0.6237  0.6764  0.7566
  537TMC3    H1 7975   4.317   2.902  17.188 -0.5041  0.6987  1.1505
  537TMC3    H2 7976   4.592   2.991  17.500 -0.4899 -1.6596 -1.0484
  537TMC3    C7 7977   4.387   2.836  17.433 -0.3008  0.3150 -0.0917
  537TMC3    C8 7978   4.693   3.217  17.379  0.2079  0.2812 -0.0070
  537TMC3    O1 7979   4.409   2.849  17.551 -0.1874 -0.2641 -0.4045
  537TMC3    O2 7980   4.693   3.329  17.334 -0.3189 -0.0733 -0.3037
  538TMC3    C1 7981   0.163   1.871  11.559  0.6966  0.2373  0.5284
  538TMC3    C2 7982   0.277   1.801  11.550  1.3727 -1.3601 -0.1790
  538TMC3    C3 7983   0.335   1.785  11.423 -0.4584  0.1864  0.9945
  538TMC3    C4 7984   0.106   1.945  11.456 -0.4139 -0.4830 -0.3047
  538TMC3    C5 7985   0.163   1.917  11.331  0.3085 -0.4164 -0.1488
  538TMC3    C6 7986   0.271   1.832  11.306  0.0292  0.2394  0.7359
  538TMC3     C 7987   0.099   1.899  11.690  0.1596  0.1085  0.1107
  538TMC3     O 7988   0.005   1.978  11.692 -0.5219 -0.0656  0.3814
  538TMC3     H 7989   0.322   1.752  11.636 -0.2539  0.3731  1.6302
  538TMC3    H1 7990   0.023   2.014  11.467  0.0567  0.0190  0.1318
  538TMC3    H2 7991   0.306   1.807  11.206 -3.3762 -0.3482 -0.3012
  538TMC3    C7 7992   0.100   1.975  11.219  0.2469 -0.4459 -0.7653
  538TMC3    C8 7993   0.468   1.730  11.414 -0.4698  0.0478 -0.6568
  538TMC3    O1 7994   0.099   1.927  11.107 -0.2435 -0.2068 -0.5285
  538TMC3    O2 7995   0.518   1.690  11.517 -0.7379  0.2701 -0.3030
  539MPD2     C 7996   0.063   1.240  12.293 -0.2688 -0.0652  0.1902
  539MPD2    C1 7997   0.020   1.201  12.168 -0.3777  0.3519 -0.0125
  539MPD2    C2 7998   4.686   1.300  12.094  0.0229  0.3139 -0.0308
  539MPD2    C3 7999   4.668   1.429  12.132 -0.6166  0.1923 -0.7463
  539MPD2    C4 8000   4.708   1.464  12.260  0.9097 -0.3504 -0.5026
  539MPD2    C5 8001   0.046   1.369  12.339 -0.5801  0.6961  0.0899
  539MPD2     H 8002   4.651   1.277  11.994  0.1239 -1.4506  0.3366
  539MPD2    H1 8003   4.698   1.564  12.299  0.5326 -0.6307  0.1238
  539MPD2    H2 8004   0.089   1.166  12.367  1.1495  1.0884  0.8446
  539MPD2    H3 8005   0.070   1.395  12.442  0.7015 -0.4904  0.1038
  539MPD2     N 8006   4.609   1.535  12.064 -0.0684  0.5331  0.1241
  539MPD2    H5 8007   4.593   1.615  12.122  0.1534 -2.5923  4.4758
  539MPD2    N1 8008   0.040   1.073  12.118 -0.1078 -0.1641  0.2312
  539MPD2    H7 8009   0.004   1.059  12.025  0.1183  0.9317 -0.0147
  540TMC3    C1 8010   4.523   1.660  11.877  0.1039  0.5936  0.3649
  540TMC3    C2 8011   4.537   1.689  11.743 -0.1991 -0.5553 -0.2316
  540TMC3    C3 8012   4.443   1.778  11.693  0.7823 -0.8418 -0.2381
  540TMC3    C4 8013   4.414   1.703  11.954 -0.1611 -0.5063  0.0142
  540TMC3    C5 8014   4.325   1.787  11.901  0.3137  0.1241  0.2433
  540TMC3    C6 8015   4.339   1.829  11.774 -0.2183 -0.3232 -1.0088
  540TMC3     C 8016   4.583   1.538  11.923 -0.8044  0.2351  0.1401
  540TMC3     O 8017   4.590   1.447  11.841 -0.0108  0.1382 -0.0301
  540TMC3     H 8018   4.614   1.638  11.685  0.9472  4.0966 -2.7897
  540TMC3    H1 8019   4.400   1.671  12.057  1.4453 -1.5232 -0.0821
  540TMC3    H2 8020   4.271   1.903  11.733 -0.5891  0.1951  0.5528
  540TMC3    C7 8021   4.190   1.766  11.953  0.6726  0.2368 -0.5530
  540TMC3    C8 8022   4.445   1.819  11.551  0.0636  0.4549 -0.8082
  540TMC3    O1 8023   4.175   1.664  12.014  0.3757 -0.0138  0.0441
  540TMC3    O2 8024   4.382   1.921  11.519  0.0786  0.2506  0.2232
  541MPD2     C 8025   3.528   2.611  13.440 -0.0181  0.0357 -0.1622
  541MPD2    C1 8026   3.589   2.563  13.322  0.5820  0.2192  0.2663
  541MPD2    C2 8027   3.567   2.617  13.200 -0.4639 -0.0652  0.3106
  541MPD2    C3 8028   3.496   2.736  13.189 -0.2113 -0.0897 -0.1649
  541MPD2    C4 8029   3.441   2.791  13.305  0.0052  0.2920  0.1685
  541MPD2    C5 8030   3.458   2.733  13.425 -1.1359  1.0645  0.4248
  541MPD2     H 8031   3.590   2.569  13.105 -1.2031  0.4164 -0.1163
  541MPD2    H1 8032   3.386   2.884  13.294  0.3244  0.6757  1.7754
  541MPD2    H2 8033   3.541   2.571  13.540 -0.5076  1.6101  0.5357
  541MPD2    H3 8034   3.422   2.792  13.509 -1.4912  1.3108  0.0961
  541MPD2     N 8035   3.456   2.789  13.066  0.5379 -0.6446  0.2015
  541MPD2    H5 8036   3.388   2.864  13.074 -0.2304 -1.1317 -1.9488
  541MPD2    N1 8037   3.675   2.446  13.337  0.1052 -0.1076 -0.3943
  541MPD2    H7 8038   3.688   2.404  13.429 -0.1431 -2.1863 -1.2980
  542TMC3    C1 8039   3.434   2.802  12.829 -0.7058 -0.0626 -0.0433
  542TMC3    C2 8040   3.479   2.771  12.706  0.4038  0.0069  0.2126
  542TMC3    C3 8041   3.413   2.818  12.599 -0.2952  0.5840  0.3420
  542TMC3    C4 8042   3.308   2.852  12.849 -0.1204  0.2165 -0.4654
  542TMC3    C5 8043   3.233   2.890  12.733 -0.0158  0.4225 -0.1532
  542TMC3    C6 8044   3.287   2.878  12.603 -0.3700  0.5574 -0.0266
  542TMC3     C 8045   3.503   2.743  12.943  0.0021  0.0363  0.1536
  542TMC3     O 8046   3.593   2.662  12.921  0.2380  0.4043 -0.0878
  542TMC3     H 8047   3.571   2.714  12.697  0.2354 -0.2355  0.0113
  542TMC3    H1 8048   3.265   2.850  12.948  0.3963  0.3369 -0.2355
  542TMC3    H2 8049   3.240   2.908  12.511 -2.2246 -1.5010  0.2531
  542TMC3    C7 8050   3.131   2.992  12.750 -0.1394  0.5471 -0.6789
  542TMC3    C8 8051   3.450   2.770  12.473  0.2694  0.5319  0.2591
  542TMC3    O1 8052   3.073   3.015  12.644 -0.1676 -0.1163 -0.3849
  542TMC3    O2 8053   3.361   2.759  12.393 -1.0412 -0.1090 -0.5785
  543TMC3    C1 8054   2.346   3.972  17.291  0.5580 -0.1347  0.5204
  543TMC3    C2 8055   2.398   3.866  17.353  0.1819 -0.7241  0.0944
  543TMC3    C3 8056   2.516   3.880  17.416  0.6483 -0.2142 -0.2397
  543TMC3    C4 8057   2.415   4.089  17.290 -0.1846 -0.1085 -0.4301
  543TMC3    C5 8058   2.530   4.109  17.357 -0.3308  0.0525  0.6057
  543TMC3    C6 8059   2.582   4.001  17.424 -0.7222 -0.0038  0.2579
  543TMC3     C 8060   2.286   3.937  17.161 -0.3044  0.1811  0.2865
  543TMC3     O 8061   2.197   4.003  17.116  0.1156 -0.0559 -0.9647
  543TMC3     H 8062   2.335   3.778  17.339  1.2347 -1.4080 -0.3762
  543TMC3    H1 8063   2.368   4.168  17.232  1.2188 -0.6753 -2.3243
  543TMC3    H2 8064   2.677   3.998  17.474 -0.2361  1.0692 -0.6031
  543TMC3    C7 8065   2.611   4.221  17.327 -0.1985 -0.0124 -0.1062
  543TMC3    C8 8066   2.571   3.765  17.484 -0.3786 -0.2271 -0.0492
  543TMC3    O1 8067   2.627   4.258  17.213 -0.1662  0.2215 -0.2801
  543TMC3    O2 8068   2.693   3.751  17.479  0.4310  0.4532  0.1466
  544MPD2     C 8069   2.543   3.302  17.691 -0.6673  0.1175  0.3318
  544MPD2    C1 8070   2.632   3.354  17.600  0.6860  0.3640 -0.2784
  544MPD2    C2 8071   2.614   3.480  17.551 -0.4007 -0.8334 -0.6829
  544MPD2    C3 8072   2.500   3.552  17.588  0.7354 -0.2748  0.7534
  544MPD2    C4 8073   2.403   3.497  17.670 -0.7691  0.1552  0.7078
  544MPD2    C5 8074   2.427   3.374   0.027  0.1460  0.4538  0.6739
  544MPD2     H 8075   2.679   3.522  17.476  0.8134  1.2551  1.5347
  544MPD2    H1 8076   2.310   3.544   0.003 -0.7907  0.4614  0.1350
  544MPD2    H2 8077   2.565   3.208   0.043  0.0792 -0.2628 -0.7503
  544MPD2    H3 8078   2.353   3.331   0.094 -2.2008  1.0867 -1.5188
  544MPD2     N 8079   2.472   3.677  17.532 -0.3121  0.2503 -0.7490
  544MPD2    H5 8080   2.377   3.712  17.533 -0.3111  0.1721  1.6796
  544MPD2    N1 8081   2.745   3.276  17.566 -0.4000 -0.2339  0.5994
  544MPD2    H7 8082   2.742   3.185  17.610 -0.5367  0.1438  1.3631
  545TMC3    C1 8083   2.932   3.189  17.457 -0.6870 -0.2291  0.3039
  545TMC3    C2 8084   3.018   3.186  17.355 -0.1573  0.4065  0.1923
  545TMC3    C3 8085   3.091   3.067  17.326 -0.2722 -0.8711  0.0710
  545TMC3    C4 8086   2.910   3.075  17.531  0.0752  0.1578 -0.2282
  545TMC3    C5 8087   2.969   2.956  17.489 -0.3008  0.3017 -0.4959
  545TMC3    C6 8088   3.064   2.948  17.387 -0.3720  0.5031  0.6154
  545TMC3     C 8089   2.836   3.300  17.469  0.3406 -0.0532  0.4168
  545TMC3     O 8090   2.839   3.397  17.391 -0.1193  0.4041 -0.1359
  545TMC3     H 8091   3.039   3.273  17.293  0.3872 -1.4084 -2.1830
  545TMC3    H1 8092   2.850   3.083  17.621  0.9708  1.4193  0.2550
  545TMC3    H2 8093   3.122   2.858  17.373 -0.2647  0.2536  2.6638
  545TMC3    C7 8094   2.946   2.851  17.584  0.5232  0.3338 -0.3006
  545TMC3    C8 8095   3.215   3.078  17.264 -0.1218 -0.2242 -0.3991
  545TMC3    O1 8096   2.868   2.874  17.677 -0.7420  0.2128  0.4930
  545TMC3    O2 8097   3.293   2.987  17.275  0.3471 -0.1645  0.2646
  546MPD2     C 8098   4.563   3.622  17.228  0.1482  0.3314  0.2301
  546MPD2    C1 8099   4.460   3.697  17.186  0.6720  0.0305  0.6021
  546MPD2    C2 8100   4.477   3.826  17.136  0.1092 -0.4438 -0.4258
  546MPD2    C3 8101   4.603   3.886  17.131  0.0673  0.7283  0.0865
  546MPD2    C4 8102   4.707   3.802  17.170  0.9520 -0.4545 -1.0574
  546MPD2    C5 8103   4.685   3.677  17.223  0.6140  0.4157 -0.3970
  546MPD2     H 8104   4.394   3.889  17.105  0.2368  0.2217  0.5781
  546MPD2    H1 8105   0.085   3.833  17.191  1.3849 -1.8448 -1.0548
  546MPD2    H2 8106   4.562   3.523  17.271  2.2703 -0.8128 -2.3945
  546MPD2    H3 8107   0.042   3.612  17.253 -0.8368 -2.3172 -2.3682
  546MPD2     N 8108   4.641   4.014  17.086  0.3362  0.1541  0.2259
  546MPD2    H5 8109   0.018   4.021  17.074  0.3095 -1.0414 -0.7083
  546MPD2    N1 8110   4.335   3.636  17.186  0.1789 -0.7725  0.2096
  546MPD2    H7 8111   4.335   3.542  17.226  1.2386 -0.9390 -0.1657
  547TMC3    C1 8112   4.106   3.599  17.166  0.5617 -0.1990  0.3547
  547TMC3    C2 8113   3.979   3.652  17.160 -0.0181 -0.4894 -0.3636
  547TMC3    C3 8114   3.876   3.563  17.182 -0.0663 -0.1457  0.2738
  547TMC3    C4 8115   4.132   3.466  17.186  0.6032 -0.3371  0.0966
  547TMC3    C5 8116   4.028   3.384  17.151  0.0031 -0.6916  0.6807
  547TMC3    C6 8117   3.897   3.435  17.157  0.9939  0.1850  0.0833
  547TMC3     C 8118   4.215   3.690  17.159 -0.3070  0.3299 -0.6801
  547TMC3     O 8119   4.185   3.806  17.124  0.1611 -0.4669 -0.0783
  547TMC3     H 8120   3.960   3.757  17.144  0.1407  0.1814  3.8150
  547TMC3    H1 8121   4.229   3.418  17.199  1.0301  0.2360 -0.9071
  547TMC3    H2 8122   3.814   3.366  17.158  0.2708  1.0652  0.3924
  547TMC3    C7 8123   4.038   3.258  17.221 -0.0222 -0.1932 -0.4280
  547TMC3    C8 8124   3.739   3.616  17.176  0.2934  0.6559 -0.2674
  547TMC3    O1 8125   4.062   3.275  17.339 -0.0193 -0.0898  0.3658
  547TMC3    O2 8126   3.732   3.729  17.132  0.2547  0.7574 -0.2616
  548MPD2     C 8127   3.832   4.437  12.859  1.0290 -0.3190  0.4051
  548MPD2    C1 8128   3.765   4.316  12.837  0.1941  0.5206 -0.6087
  548MPD2    C2 8129   3.836   4.198  12.858 -0.2762 -0.1110 -0.4433
  548MPD2    C3 8130   3.974   4.199  12.885 -0.5279 -0.1469 -0.3567
  548MPD2    C4 8131   4.038   4.317  12.880  0.3874 -0.2936  0.3026
  548MPD2    C5 8132   3.964   4.427  12.884 -0.7064  0.7407 -0.2208
  548MPD2     H 8133   3.788   4.103  12.839 -0.4700 -0.0931 -0.0364
  548MPD2    H1 8134   4.145   4.320  12.892  0.1075  2.3966  2.2482
  548MPD2    H2 8135   3.786   4.533  12.837  2.9561  0.5037  0.0085
  548MPD2    H3 8136   4.018   4.521  12.876 -1.6548  1.6037  3.5754
  548MPD2     N 8137   4.049   4.077  12.901  0.0993 -0.3375 -0.2691
  548MPD2    H5 8138   3.991   3.995  12.888  1.0917 -1.0453 -0.2390
  548MPD2    N1 8139   3.634   4.329  12.794  0.2533  0.1013 -0.1564
  548MPD2    H7 8140   3.607   4.424  12.769 -1.2306 -0.1470  0.4740
  549TMC3    C1 8141   3.418   4.275  12.735 -0.4561 -0.3309  0.4636
  549TMC3    C2 8142   3.404   4.383  12.652  0.0967 -0.0923  0.3647
  549TMC3    C3 8143   3.279   4.413  12.612  0.2492  0.2116 -0.0243
  549TMC3    C4 8144   3.316   4.189  12.760  0.5256  0.0072  0.3915
  549TMC3    C5 8145   3.189   4.226  12.715 -0.1697 -0.0415 -0.2277
  549TMC3    C6 8146   3.167   4.339  12.651  0.2467  0.3296  0.4138
  549TMC3     C 8147   3.547   4.227  12.769 -0.1434 -0.2602  0.4044
  549TMC3     O 8148   3.557   4.108  12.795  0.0004  0.4182 -0.2917
  549TMC3     H 8149   3.495   4.434  12.621 -0.8329  1.6418  0.5444
  549TMC3    H1 8150   3.336   4.110  12.831  0.9258 -1.3111 -1.2160
  549TMC3    H2 8151   3.072   4.363  12.605  0.9206  0.7945 -0.7280
  549TMC3    C7 8152   3.082   4.144  12.748  0.5107 -0.9682 -0.3591
  549TMC3    C8 8153   3.244   4.539  12.547  0.5396 -0.2036  0.5209
  549TMC3    O1 8154   2.973   4.199  12.763 -0.4149  0.5132 -0.3158
  549TMC3    O2 8155   3.136   4.536  12.491  0.3147 -0.2927 -0.1464
  550TMC3    C1 8156   3.109   2.200  12.516  0.1268  0.8061 -0.1499
  550TMC3    C2 8157   3.094   2.317  12.581  0.1283  0.4057 -0.7892
  550TMC3    C3 8158   3.132   2.437  12.521 -0.0022  0.2154 -0.0559
  550TMC3    C4 8159   3.157   2.200  12.384 -0.3801  0.3358 -0.0737
  550TMC3    C5 8160   3.174   2.318  12.322 -0.0683  0.4412 -0.1065
  550TMC3    C6 8161   3.173   2.437  12.389 -0.1986  1.0065  0.2111
  550TMC3     C 8162   3.024   2.093  12.548  0.0716  0.2311 -0.1824
  550TMC3     O 8163   2.980   2.088  12.662 -0.3668 -0.7360  0.0147
  550TMC3     H 8164   3.050   2.306  12.680  0.0698  2.4501 -0.5989
  550TMC3    H1 8165   3.189   2.107  12.338 -0.8395 -0.1782  0.6648
  550TMC3    H2 8166   3.212   2.526  12.341 -0.7666  0.9786 -0.3035
  550TMC3    C7 8167   3.081   2.311  12.211 -0.0827 -1.0988 -0.0827
  550TMC3    C8 8168   3.048   2.543  12.555  0.1786  0.2686 -0.2420
  550TMC3    O1 8169   3.011   2.206  12.203 -0.5236 -0.5375 -0.4288
  550TMC3    O2 8170   2.954   2.515  12.632  0.2752 -0.2824 -0.1960
  551TMC3    C1 8171   0.217   4.680  13.508  0.3203  0.3663 -0.2834
  551TMC3    C2 8172   0.338   4.654  13.445 -0.1346 -0.1172 -0.1088
  551TMC3    C3 8173   0.450   4.716  13.497  0.0620  0.1820 -0.6119
  551TMC3    C4 8174   0.202   0.048  13.607 -0.2529  0.7499 -0.2695
  551TMC3    C5 8175   0.317   0.101  13.657 -0.0827  0.2464 -0.4392
  551TMC3    C6 8176   0.442   0.071  13.606  0.6333 -0.3663 -0.0393
  551TMC3     C 8177   0.111   4.675  13.401  0.0538 -0.0589  0.1106
  551TMC3     O 8178   0.150   4.673  13.284  0.8217 -0.0997 -0.1742
  551TMC3     H 8179   0.357   4.588  13.361  3.1978  1.0336 -0.2445
  551TMC3    H1 8180   0.102   0.063  13.648 -0.4003  0.2275 -0.4369
  551TMC3    H2 8181   0.534   0.111  13.648  1.5576 -0.8584 -1.5837
  551TMC3    C7 8182   0.315   0.204  13.760 -0.5965  0.3799 -0.0470
  551TMC3    C8 8183   0.556   4.722  13.403  0.8748 -0.4022  0.1843
  551TMC3    O1 8184   0.418   0.221  13.826 -0.0853  0.3583 -0.5476
  551TMC3    O2 8185   0.588   4.621  13.338  0.2011 -0.5035  0.5143
  552MPD2     C 8186   2.361   2.329  14.224  0.7116 -1.1386 -0.4707
  552MPD2    C1 8187   2.431   2.215  14.185 -0.5160  0.1450  0.8136
  552MPD2    C2 8188   2.530   2.161  14.271  0.5954  0.1192 -0.1033
  552MPD2    C3 8189   2.552   2.222  14.394  0.5755  0.8082 -0.0043
  552MPD2    C4 8190   2.487   2.336  14.424  0.1775  0.5219 -0.5498
  552MPD2    C5 8191   2.391   2.387  14.340 -0.0975 -0.1014  0.2810
  552MPD2     H 8192   2.597   2.084  14.233 -1.2104 -2.3180  1.5977
  552MPD2    H1 8193   2.509   2.386  14.517  2.8849 -0.6146 -0.5749
  552MPD2    H2 8194   2.282   2.374  14.165  1.3188  1.5001  0.7523
  552MPD2    H3 8195   2.344   2.479  14.375  0.0247 -0.1112  0.4695
  552MPD2     N 8196   2.652   2.179  14.487  0.3631  0.0711  0.2259
  552MPD2    H5 8197   2.682   2.245  14.558 -1.3959  2.2946 -1.0869
  552MPD2    N1 8198   2.440   2.164  14.053  0.2435 -0.0435  0.4627
  552MPD2    H7 8199   2.501   2.084  14.040  0.8520  0.0219  2.8336
  553TMC3    C1 8200   2.378   2.147  13.822 -0.3502  0.0318 -0.3366
  553TMC3    C2 8201   2.304   2.204  13.719 -0.3859  0.3648  1.0472
  553TMC3    C3 8202   2.230   2.122  13.639 -0.5450  0.6473 -0.2564
  553TMC3    C4 8203   2.387   2.010  13.837  0.0670  0.3417  0.1248
  553TMC3    C5 8204   2.309   1.938  13.746  0.3489  0.7840  0.5764
  553TMC3    C6 8205   2.220   1.984  13.656 -0.4857 -0.5432  0.5389
  553TMC3     C 8206   2.374   2.223  13.947  0.1127 -0.2544 -0.0036
  553TMC3     O 8207   2.314   2.326  13.937  0.3156 -0.3916  0.6484
  553TMC3     H 8208   2.307   2.309  13.696  0.8627  0.2526  0.6549
  553TMC3    H1 8209   2.449   1.962  13.911 -1.4997 -0.0295  1.1904
  553TMC3    H2 8210   2.175   1.917  13.583 -1.3031  0.0857  0.4722
  553TMC3    C7 8211   2.330   1.798  13.748 -0.0135 -0.8884 -0.1940
  553TMC3    C8 8212   2.209   2.180  13.507 -0.1116  0.9531  0.5639
  553TMC3    O1 8213   2.237   1.730  13.716 -0.3825  0.2444 -0.1648
  553TMC3    O2 8214   2.295   2.264  13.472  0.8941 -0.7442  0.0167
  554TMC3    C1 8215   3.612   1.133  11.659 -0.0293 -0.7327  0.2545
  554TMC3    C2 8216   3.559   1.116  11.533  0.1717  0.5857  0.2369
  554TMC3    C3 8217   3.580   1.210  11.433  0.6265 -0.3646  0.0216
  554TMC3    C4 8218   3.675   1.248  11.696  0.1420 -0.1077 -0.6503
  554TMC3    C5 8219   3.686   1.347  11.597  0.4459  0.7951  0.4013
  554TMC3    C6 8220   3.651   1.324  11.467  0.2161 -0.2710  0.1557
  554TMC3     C 8221   3.613   1.006  11.730  0.3395  0.5278  0.0128
  554TMC3     O 8222   3.604   0.906  11.662 -0.7315 -0.0007  0.2633
  554TMC3     H 8223   3.518   1.019  11.507  0.8852 -0.0398  1.4048
  554TMC3    H1 8224   3.710   1.268  11.797  1.6803 -1.0601 -0.9828
  554TMC3    H2 8225   3.651   1.405  11.395 -0.8345 -0.6912 -0.3139
  554TMC3    C7 8226   3.784   1.457  11.624 -0.1642  0.2712 -0.4974
  554TMC3    C8 8227   3.569   1.177  11.294 -0.9564  0.2538 -0.0272
  554TMC3    O1 8228   3.817   1.485  11.737 -0.3164 -0.4126 -0.0663
  554TMC3    O2 8229   3.648   1.230  11.217 -0.3785  0.1693 -0.5521
  555TMC3    C1 8230   3.299   0.521  15.258  0.0910  0.5663 -0.3411
  555TMC3    C2 8231   3.299   0.609  15.363  0.0300  0.6266 -0.0481
  555TMC3    C3 8232   3.295   0.555  15.493 -0.3013 -0.7789 -0.1364
  555TMC3    C4 8233   3.300   0.382  15.280 -0.1185 -0.1840 -1.2763
  555TMC3    C5 8234   3.275   0.337  15.407  0.2476  0.1752  0.8297
  555TMC3    C6 8235   3.282   0.419  15.524 -0.0676 -0.0059  0.2857
  555TMC3     C 8236   3.369   0.571  15.142  0.2471  0.0138 -0.1617
  555TMC3     O 8237   3.440   0.486  15.085 -0.3253 -0.0278 -0.5063
  555TMC3     H 8238   3.314   0.716  15.352  2.7818  0.2355 -0.0880
  555TMC3    H1 8239   3.306   0.316  15.194 -0.5065 -1.5037 -0.2951
  555TMC3    H2 8240   3.255   0.386  15.624 -0.4041  2.5405  1.0414
  555TMC3    C7 8241   3.250   0.192  15.430 -0.0309 -0.1887  0.0508
  555TMC3    C8 8242   3.340   0.658  15.587  0.2782 -0.2299  0.1803
  555TMC3    O1 8243   3.195   0.163  15.536  0.3006 -0.4823  0.1229
  555TMC3    O2 8244   3.338   0.780  15.566 -0.4480 -0.4664  0.2309
  556MPD2     C 8245   1.208   2.473  10.821 -0.2724 -0.3805  0.2837
  556MPD2    C1 8246   1.181   2.375  10.913  0.3674 -0.2117 -0.0570
  556MPD2    C2 8247   1.112   2.261  10.874 -0.5102 -0.2208  0.1864
  556MPD2    C3 8248   1.080   2.242  10.745  0.6482 -0.3269  0.2520
  556MPD2    C4 8249   1.079   2.350  10.659 -0.2912  0.1104 -0.0848
  556MPD2    C5 8250   1.149   2.460  10.697  0.1192  0.5201  0.5083
  556MPD2     H 8251   1.106   2.180  10.946 -2.5125  0.2203  0.5031
  556MPD2    H1 8252   1.043   2.344  10.557  2.3192  0.7630 -1.0548
  556MPD2    H2 8253   1.251   2.568  10.851  1.0331 -0.4406 -1.4322
  556MPD2    H3 8254   1.155   2.543  10.627 -2.2847 -1.8469 -2.4844
  556MPD2     N 8255   1.021   2.124  10.715 -0.1201  0.2754  0.1536
  556MPD2    H5 8256   1.050   2.051  10.780 -2.9345 -0.1596  0.9280
  556MPD2    N1 8257   1.215   2.386  11.050 -0.5534  0.8173 -0.1141
  556MPD2    H7 8258   1.183   2.307  11.105 -0.4029 -0.4801 -1.9184
  557TMC3    C1 8259   0.927   1.949  10.588 -0.1145  0.4149 -0.0056
  557TMC3    C2 8260   0.905   1.897  10.464 -0.5077  0.4807  0.3456
  557TMC3    C3 8261   0.831   1.783  10.451 -0.4951 -0.6744 -0.6281
  557TMC3    C4 8262   0.876   1.899  10.704  0.2486  0.5888 -0.0331
  557TMC3    C5 8263   0.800   1.790  10.686 -1.1112  0.4059  0.1606
  557TMC3    C6 8264   0.777   1.721  10.566 -0.1646 -0.2241 -0.2445
  557TMC3     C 8265   0.971   2.082  10.593  0.0361 -0.1930 -0.3461
  557TMC3     O 8266   0.935   2.149  10.497  0.6048  0.2467  0.3182
  557TMC3     H 8267   0.946   1.954  10.382 -3.4944  0.8634 -0.8433
  557TMC3    H1 8268   0.858   1.956  10.794 -0.4412  0.8171 -0.3202
  557TMC3    H2 8269   0.720   1.631  10.550 -1.7711  0.9340 -1.0438
  557TMC3    C7 8270   0.732   1.738  10.807  0.9559  0.0993 -0.5102
  557TMC3    C8 8271   0.835   1.726  10.321  0.3306  0.0143  0.3710
  557TMC3    O1 8272   0.613   1.703  10.791  0.7500  0.3428 -0.1710
  557TMC3    O2 8273   0.845   1.812  10.236  0.2836  0.5966  0.3530
  558TMC3    C1 8274   3.518   0.407  10.267  0.7022  0.3239  0.4642
  558TMC3    C2 8275   3.410   0.457  10.336  0.1139 -0.1647  1.0233
  558TMC3    C3 8276   3.286   0.421  10.295 -0.3177  0.2952  0.0361
  558TMC3    C4 8277   3.499   0.330  10.154  0.0927 -0.1989  0.2400
  558TMC3    C5 8278   3.372   0.309  10.104  0.2876  0.1419  0.0155
  558TMC3    C6 8279   3.266   0.356  10.179  0.1984 -0.0463  0.2206
  558TMC3     C 8280   3.626   0.358  10.350  0.2250  0.8022 -0.2041
  558TMC3     O 8281   3.648   0.423  10.452  0.6534  0.1751 -0.4251
  558TMC3     H 8282   3.429   0.515  10.426 -1.1890  0.2760  1.0070
  558TMC3    H1 8283   3.582   0.302  10.090 -0.2584  2.4832 -1.3528
  558TMC3    H2 8284   3.164   0.336  10.149  0.8300 -1.3676 -1.0511
  558TMC3    C7 8285   3.358   0.212  10.001 -0.4866  0.6473  0.1236
  558TMC3    C8 8286   3.166   0.435  10.382  0.1752  0.4157 -0.4628
  558TMC3    O1 8287   3.466   0.159   9.961  0.2890  0.0788 -0.0537
  558TMC3    O2 8288   3.060   0.445  10.323  0.2539 -0.6864 -0.0943
  559MPD2     C 8289   3.604   0.717  10.690  0.9456  0.2446 -0.0531
  559MPD2    C1 8290   3.551   0.665  10.806  0.1426 -0.5712 -0.8041
  559MPD2    C2 8291   3.633   0.659  10.913  0.3281  0.6395  0.4933
  559MPD2    C3 8292   3.769   0.703  10.905 -0.2810  0.1647 -0.3514
  559MPD2    C4 8293   3.816   0.759  10.788  0.3575 -0.1440  0.8754
  559MPD2    C5 8294   3.731   0.762  10.679 -0.0119  0.3586  0.1506
  559MPD2     H 8295   3.606   0.622  11.012 -2.3534 -0.8366 -0.7839
  559MPD2    H1 8296   3.919   0.790  10.779 -0.1112  1.3836  0.6892
  559MPD2    H2 8297   3.547   0.723  10.598 -2.5501 -1.2762  2.0072
  559MPD2    H3 8298   3.768   0.811  10.589 -0.0115  0.0702 -0.0033
  559MPD2     N 8299   3.852   0.679  11.010 -0.0308  1.0726  0.2783
  559MPD2    H5 8300   3.818   0.613  11.079 -2.5629  0.2803 -1.7664
  559MPD2    N1 8301   3.414   0.636  10.811  0.4242 -0.2227 -0.2497
  559MPD2    H7 8302   3.354   0.653  10.731  0.7763 -0.0175 -0.4700
  560TMC3    C1 8303   4.042   0.657  11.145 -0.5290  0.3471 -0.2846
  560TMC3    C2 8304   3.970   0.541  11.163  0.6464 -0.0008 -0.1095
  560TMC3    C3 8305   3.932   0.497  11.291 -0.1326 -0.1137 -0.2726
  560TMC3    C4 8306   4.075   0.724  11.261  0.0684 -0.6972 -0.5081
  560TMC3    C5 8307   4.053   0.672  11.384  0.8749 -0.5300 -0.7256
  560TMC3    C6 8308   3.985   0.559  11.403 -0.1376  0.2782 -0.3730
  560TMC3     C 8309   3.969   0.738  11.048 -0.7041  0.3050 -0.3438
  560TMC3     O 8310   4.033   0.830  10.999  0.0561  0.4355 -0.5617
  560TMC3     H 8311   3.948   0.479  11.077  0.7882 -0.6685  0.3310
  560TMC3    H1 8312   4.115   0.822  11.238 -1.0400  0.1352  1.1070
  560TMC3    H2 8313   3.965   0.527  11.504  1.3958 -0.6530 -0.3611
  560TMC3    C7 8314   4.080   0.751  11.498 -0.3513  0.1814  0.5399
  560TMC3    C8 8315   3.854   0.372  11.307  0.3515 -0.2196 -0.1934
  560TMC3    O1 8316   4.007   0.744  11.597 -0.2327 -0.3867 -0.1799
  560TMC3    O2 8317   3.800   0.342  11.203 -0.2064 -0.4802 -0.5175
  561TMC3    C1 8318   1.323   4.241  11.935 -0.7741 -0.0895  0.7760
  561TMC3    C2 8319   1.227   4.212  12.021 -0.2140  0.3309 -0.7854
  561TMC3    C3 8320   1.211   4.307  12.122 -0.2785  0.5835  1.0393
  561TMC3    C4 8321   1.399   4.364  11.943  0.1190 -0.4127  0.4506
  561TMC3    C5 8322   1.383   4.451  12.045 -0.2738 -0.3166  0.5828
  561TMC3    C6 8323   1.283   4.426  12.136  0.3491  0.8155 -0.3452
  561TMC3     C 8324   1.335   4.153  11.816  0.0473 -0.5368  0.3703
  561TMC3     O 8325   1.250   4.069  11.798 -0.5036 -0.1946 -0.1194
  561TMC3     H 8326   1.158   4.128  12.016  0.0555  0.1517 -1.6215
  561TMC3    H1 8327   1.477   4.384  11.871  0.6357 -0.9139  0.8687
  561TMC3    H2 8328   1.271   4.490  12.223 -1.6681  0.4779 -0.3622
  561TMC3    C7 8329   1.475   4.565  12.063  0.4081  0.1724 -0.8975
  561TMC3    C8 8330   1.142   4.259  12.240 -0.0780  0.2351 -0.5386
  561TMC3    O1 8331   1.466   4.608  12.178  0.8190 -0.0544 -0.6818
  561TMC3    O2 8332   1.157   4.140  12.262  0.1071 -0.1879 -0.0085
  562TMC3    C1 8333   3.190   1.012  16.181  0.4620  0.2551 -0.2343
  562TMC3    C2 8334   3.099   1.116  16.163 -0.2075  0.3073 -0.1883
  562TMC3    C3 8335   3.012   1.112  16.054  0.8553 -0.0901 -0.1715
  562TMC3    C4 8336   3.203   0.907  16.096  0.3246  0.4961  0.1418
  562TMC3    C5 8337   3.117   0.906  15.989 -0.0719 -0.0376 -0.8289
  562TMC3    C6 8338   3.022   1.009  15.965  0.3578  0.4541  0.2112
  562TMC3     C 8339   3.259   1.008  16.314 -0.1360 -1.0975  0.5185
  562TMC3     O 8340   3.255   1.109  16.379  0.0475 -0.3546  0.2586
  562TMC3     H 8341   3.086   1.203  16.227 -1.3624 -0.2306  0.3013
  562TMC3    H1 8342   3.290   0.842  16.102  0.7752  1.1212  0.4454
  562TMC3    H2 8343   2.951   1.004  15.883 -0.1650 -2.4042  0.8522
  562TMC3    C7 8344   3.096   0.777  15.917  0.0646  0.2668  0.0851
  562TMC3    C8 8345   2.894   1.191  16.069 -0.1392 -0.1433 -0.0440
  562TMC3    O1 8346   2.998   0.781  15.846 -0.4924 -0.4841  0.2248
  562TMC3    O2 8347   2.889   1.281  16.148 -0.5447 -0.2306  0.4126
  563MPD2     C 8348   0.393   2.164  15.823 -0.5701 -0.3470 -0.0276
  563MPD2    C1 8349   0.411   2.125  15.953 -0.6503 -0.7738  0.0225
  563MPD2    C2 8350   0.536   2.071  15.986 -0.1658  0.0724 -0.7739
  563MPD2    C3 8351   0.642   2.065  15.894 -0.4062 -0.0892  0.6935
  563MPD2    C4 8352   0.621   2.103  15.770 -0.5642  0.4205 -0.1602
  563MPD2    C5 8353   0.502   2.165  15.739  0.3186  0.0944 -0.7305
  563MPD2     H 8354   0.553   2.028  16.084  0.2249 -0.7923 -1.2269
  563MPD2    H1 8355   0.701   2.121  15.699 -1.9044 -0.0548 -1.7863
  563MPD2    H2 8356   0.305   2.220  15.797  0.2032 -0.1089 -2.0848
  563MPD2    H3 8357   0.497   2.218  15.645 -1.2601 -1.2092 -1.3834
  563MPD2     N 8358   0.767   2.022  15.954 -0.0216 -0.4639 -0.1817
  563MPD2    H5 8359   0.772   2.002  16.053 -1.5502  0.5105  0.0895
  563MPD2    N1 8360   0.317   2.145  16.048 -0.8876 -0.5078  0.2263
  563MPD2    H7 8361   0.333   2.115  16.144  0.3146  0.6835  0.3876
  564TMC3    C1 8362   0.102   2.222  16.133  0.2132 -0.0679  0.5348
  564TMC3    C2 8363   4.695   2.203  16.104  0.1745 -0.9869  0.6146
  564TMC3    C3 8364   4.615   2.139  16.193  0.4795  0.5153  0.2379
  564TMC3    C4 8365   0.157   2.183  16.252 -0.2144 -0.0899 -0.1291
  564TMC3    C5 8366   0.074   2.123  16.336  0.5756 -0.5688  1.1255
  564TMC3    C6 8367   4.664   2.107  16.312 -0.1521 -0.0002  0.0974
  564TMC3     C 8368   0.188   2.186  16.021  0.6149  0.1361 -0.7937
  564TMC3     O 8369   0.120   2.154  15.918  0.0929  0.7186  0.5822
  564TMC3     H 8370   4.647   2.232  16.011  0.1776 -1.2594  0.5289
  564TMC3    H1 8371   0.263   2.202  16.261 -0.3234 -0.2371  1.4504
  564TMC3    H2 8372   4.593   2.066  16.384  0.4839 -0.6854  0.3375
  564TMC3    C7 8373   0.139   2.034  16.430 -1.0701  0.7135  0.2428
  564TMC3    C8 8374   4.556   2.016  16.148 -0.0191  0.0930  0.8302
  564TMC3    O1 8375   0.257   2.063  16.446 -0.1044 -0.4512 -0.4329
  564TMC3    O2 8376   4.469   1.958  16.217  0.1513 -0.6978  0.0278
  565TMC3    C1 8377   0.850   3.737  10.524  0.2757 -0.1035  0.8547
  565TMC3    C2 8378   0.863   3.615  10.582  0.1345  0.1374  0.5284
  565TMC3    C3 8379   0.755   3.527  10.560  0.4405  0.1473  0.7170
  565TMC3    C4 8380   0.748   3.763  10.436 -0.3874 -0.0561  0.6166
  565TMC3    C5 8381   0.647   3.671  10.425  0.3323 -0.3498  0.1301
  565TMC3    C6 8382   0.644   3.551  10.485 -0.2973  0.1958  0.0953
  565TMC3     C 8383   0.933   3.852  10.569 -0.0508  0.0698 -0.7043
  565TMC3     O 8384   0.923   3.947  10.500  0.1465 -0.5594 -0.1728
  565TMC3     H 8385   0.950   3.593  10.641  0.6759  1.0387  0.0652
  565TMC3    H1 8386   0.725   3.864  10.402 -0.3806 -0.8305 -1.6483
  565TMC3    H2 8387   0.553   3.494  10.498 -0.1436 -0.1370 -0.2911
  565TMC3    C7 8388   0.517   3.704  10.363  0.1596 -0.5333  0.5609
  565TMC3    C8 8389   0.769   3.399  10.631 -1.0262 -0.7253  0.5107
  565TMC3    O1 8390   0.420   3.668  10.426 -0.3421 -0.4054 -0.3435
  565TMC3    O2 8391   0.850   3.385  10.721  0.3700 -0.4348  0.1796
  566MPD2     C 8392   2.514   0.812  14.667  0.3436 -0.3816 -0.4214
  566MPD2    C1 8393   2.604   0.769  14.570  0.3659 -0.1351 -0.2687
  566MPD2    C2 8394   2.555   0.720  14.450  0.8015 -0.5959  0.4954
  566MPD2    C3 8395   2.420   0.728  14.415 -1.1123  0.6747 -0.1525
  566MPD2    C4 8396   2.333   0.791  14.502 -0.2184 -0.9041 -0.2972
  566MPD2    C5 8397   2.381   0.832  14.629  0.2078 -0.0411  0.0381
  566MPD2     H 8398   2.625   0.675  14.381 -0.3946  1.0358 -1.7762
  566MPD2    H1 8399   2.228   0.807  14.482 -0.0223  0.3992 -0.2760
  566MPD2    H2 8400   2.548   0.858  14.758 -0.2754 -0.1931 -0.2923
  566MPD2    H3 8401   2.317   0.862  14.711 -1.0604 -2.2883 -0.1040
  566MPD2     N 8402   2.362   0.666  14.305  0.5806  0.1679  0.1598
  566MPD2    H5 8403   2.268   0.701  14.290  0.0670 -1.5225 -0.5762
  566MPD2    N1 8404   2.743   0.746  14.601  0.1324 -0.2521  0.0830
  566MPD2    H7 8405   2.801   0.710  14.527  0.7066  0.9932 -0.0782
  567TMC3    C1 8406   2.945   0.747  14.694  0.5675 -0.1048 -0.0065
  567TMC3    C2 8407   2.992   0.779  14.576  0.2737  0.1830 -1.1155
  567TMC3    C3 8408   3.110   0.728  14.534 -0.0410  0.2262 -0.2431
  567TMC3    C4 8409   3.024   0.673  14.777  0.4866 -0.5971  0.2672
  567TMC3    C5 8410   3.143   0.625  14.743  0.6582  0.3625  0.4319
  567TMC3    C6 8411   3.188   0.646  14.613 -0.5283 -0.6658  0.0191
  567TMC3     C 8412   2.806   0.761  14.718  0.0162 -0.1013 -0.5798
  567TMC3     O 8413   2.763   0.764  14.835 -0.3955 -0.1878  0.2672
  567TMC3     H 8414   2.932   0.833  14.503  0.7096  2.8758  0.5250
  567TMC3    H1 8415   2.995   0.672  14.881 -0.5892  0.8513 -0.0166
  567TMC3    H2 8416   3.285   0.605  14.585  0.1027  1.1127 -0.3895
  567TMC3    C7 8417   3.201   0.515  14.823 -0.7256  0.5758 -0.0864
  567TMC3    C8 8418   3.158   0.776  14.402 -0.5055 -0.1108  0.4132
  567TMC3    O1 8419   3.291   0.454  14.770 -0.5909 -0.8242  1.0829
  567TMC3    O2 8420   3.093   0.866  14.349  0.2623  0.0173  0.3077
  568MPD2     C 8421   0.100   0.488  16.240 -0.2696  0.6846 -0.0911
  568MPD2    C1 8422   0.104   0.552  16.364 -0.1427  0.0794  0.4367
  568MPD2    C2 8423   0.042   0.678  16.366 -0.3014  0.2600 -0.3620
  568MPD2    C3 8424   4.682   0.726  16.265 -1.0143  0.0632  0.0915
  568MPD2    C4 8425   4.667   0.647  16.150  0.0781 -0.0449 -0.3111
  568MPD2    C5 8426   0.010   0.532  16.138 -0.4109 -0.4664  0.4053
  568MPD2     H 8427   0.058   0.742  16.452 -1.4602 -0.9117  0.7274
  568MPD2    H1 8428   4.601   0.666  16.066 -0.3165 -3.8164 -0.8672
  568MPD2    H2 8429   0.155   0.398  16.217 -1.1413 -0.1019  0.8714
  568MPD2    H3 8430   0.002   0.470  16.050 -2.4574 -0.4301  0.5644
  568MPD2     N 8431   4.613   0.851  16.281  0.2438 -0.4714  0.3053
  568MPD2    H5 8432   4.613   0.888  16.376  0.0502  1.8594 -0.5899
  568MPD2    N1 8433   0.187   0.500  16.462 -0.4108  0.3655 -0.8064
  568MPD2    H7 8434   0.226   0.408  16.443 -0.4303  0.5203 -1.6163
  569TMC3    C1 8435   4.493   1.038  16.210 -0.2240  0.7413  0.4780
  569TMC3    C2 8436   4.455   1.061  16.338 -0.0137 -0.8510  0.0872
  569TMC3    C3 8437   4.459   1.192  16.390 -0.0013  0.5260  0.4098
  569TMC3    C4 8438   4.525   1.143  16.131  0.2894  0.6139 -0.1282
  569TMC3    C5 8439   4.529   1.270  16.174  0.7000 -0.0405 -0.1494
  569TMC3    C6 8440   4.497   1.298  16.307  0.1635  0.1860  0.4251
  569TMC3     C 8441   4.549   0.915  16.175 -0.4242 -0.3397 -0.6177
  569TMC3     O 8442   4.536   0.895  16.055  0.3157  0.4584  0.5076
  569TMC3     H 8443   4.438   0.977  16.405 -3.1085  0.1007  0.4978
  569TMC3    H1 8444   4.548   1.117  16.029 -0.3429 -0.6510  0.0564
  569TMC3    H2 8445   4.536   1.390  16.347  0.0861  0.4800 -0.1684
  569TMC3    C7 8446   4.606   1.362  16.095 -1.2412 -0.6871 -0.4508
  569TMC3    C8 8447   4.481   1.207  16.534  0.1262  0.7041  0.3749
  569TMC3    O1 8448   4.658   1.315  15.995 -0.3186 -0.1115 -0.8051
  569TMC3    O2 8449   4.475   1.101  16.591 -0.1380 -0.1877 -0.6237
  570TMC3    C1 8450   4.637   4.522  16.181 -0.0756  0.0038  0.0501
  570TMC3    C2 8451   0.022   4.533  16.104 -0.0585 -0.7142  0.0757
  570TMC3    C3 8452   0.031   4.641  16.024 -1.0876  0.7025  0.1094
  570TMC3    C4 8453   4.526   4.602  16.171 -0.3958  0.1795  0.0710
  570TMC3    C5 8454   4.533   4.705  16.076  0.4913 -0.3091 -0.5205
  570TMC3    C6 8455   4.648   4.721  16.003  0.6796  0.2568  0.6303
  570TMC3     C 8456   4.654   4.445  16.304  0.6579 -0.5305 -0.2300
  570TMC3     O 8457   0.019   4.361  16.307  0.5322 -0.1779 -0.4210
  570TMC3     H 8458   0.107   4.468  16.118  0.2277 -0.0796  1.2955
  570TMC3    H1 8459   4.434   4.564  16.212 -0.2787  1.0147  1.0965
  570TMC3    H2 8460   4.655   0.080  15.932 -1.4035 -1.1257 -1.1892
  570TMC3    C7 8461   4.444   0.092  16.105  0.0372  0.1628 -0.0892
  570TMC3    C8 8462   0.156   4.679  15.960  0.2442 -0.5103 -0.2369
  570TMC3    O1 8463   4.374   0.083  16.204 -0.3085 -0.3191  0.4340
  570TMC3    O2 8464   0.180   0.071  15.935 -0.1256  0.1256  0.0527
  571MPD2     C 8465   2.318   0.993  17.232  0.6446  0.4885  0.3213
  571MPD2    C1 8466   2.242   0.932  17.324  0.5183  0.1580  0.1846
  571MPD2    C2 8467   2.145   1.002  17.390 -0.0273  0.2143  0.1595
  571MPD2    C3 8468   2.138   1.140  17.372  0.0708 -0.1096  0.1000
  571MPD2    C4 8469   2.224   1.204  17.273 -0.0708  1.1281 -0.5979
  571MPD2    C5 8470   2.313   1.129  17.208  0.4852  0.2127  0.2555
  571MPD2     H 8471   2.077   0.955  17.460 -1.0471 -0.4380 -1.2768
  571MPD2    H1 8472   2.223   1.310  17.254  0.6257  1.3716  0.7597
  571MPD2    H2 8473   2.393   0.931  17.185  0.4773 -0.5080  1.3693
  571MPD2    H3 8474   2.379   1.181  17.141  1.4500  1.1954  1.9764
  571MPD2     N 8475   2.044   1.222  17.434 -0.3385  0.0457  0.1949
  571MPD2    H5 8476   2.036   1.313  17.389  1.3971  1.0339  1.8992
  571MPD2    N1 8477   2.272   0.793  17.343 -0.3893 -0.4615 -0.4933
  571MPD2    H7 8478   2.354   0.763  17.291 -0.5663 -0.1735 -0.9416
  572TMC3    C1 8479   1.922   1.299  17.615 -0.1523  0.1036  0.6999
  572TMC3    C2 8480   1.845   1.266   0.026 -0.0230 -0.3011 -0.0515
  572TMC3    C3 8481   1.823   1.364   0.121  0.3393  0.2839 -0.0597
  572TMC3    C4 8482   1.977   1.424  17.597 -0.3467  0.0643 -0.3757
  572TMC3    C5 8483   1.955   1.517   0.004  0.0078 -0.0563  0.3136
  572TMC3    C6 8484   1.878   1.487   0.110  0.3066 -0.5121  0.9321
  572TMC3     C 8485   1.979   1.187  17.556 -0.5518  0.3968  0.6042
  572TMC3     O 8486   1.994   1.096  17.638  0.8485 -0.3698 -0.3149
  572TMC3     H 8487   1.788   1.174   0.023  0.1433 -0.4156  0.2778
  572TMC3    H1 8488   2.045   1.456  17.519  0.6435 -2.2414 -0.4432
  572TMC3    H2 8489   1.868   1.560   0.190 -3.4611 -2.1070  1.9053
  572TMC3    C7 8490   2.015   1.648   0.002 -0.2549  0.5678 -0.6405
  572TMC3    C8 8491   1.791   1.314   0.260 -0.7297 -0.3473 -0.0452
  572TMC3    O1 8492   1.944   1.738   0.044 -0.4708  0.5743 -0.0572
  572TMC3    O2 8493   1.690   1.254   0.274 -0.9436 -0.1391  0.2943
  573MPD2     C 8494   3.513   1.824   0.660 -0.6681 -0.2315  0.4046
  573MPD2    C1 8495   3.604   1.923   0.625 -0.2894 -0.4804  0.3489
  573MPD2    C2 8496   3.645   1.946   0.490 -0.6282 -0.2720  0.2057
  573MPD2    C3 8497   3.570   1.880   0.389 -0.1951  0.8349 -0.4740
  573MPD2    C4 8498   3.482   1.781   0.427 -0.8073  0.5874  0.2567
  573MPD2    C5 8499   3.454   1.755   0.558 -0.2471  0.8079 -0.2765
  573MPD2     H 8500   3.722   2.021   0.473  0.7095 -1.2914  1.7735
  573MPD2    H1 8501   3.422   1.734   0.350 -0.0138  1.9093 -1.1451
  573MPD2    H2 8502   3.488   1.807   0.764  1.3670 -0.2537  0.8885
  573MPD2    H3 8503   3.384   1.676   0.581  0.1307 -0.4264 -3.4076
  573MPD2     N 8504   3.566   1.926   0.259  0.6571  0.3281  0.4332
  573MPD2    H5 8505   3.499   1.879   0.199  1.3449  1.0827 -0.9171
  573MPD2    N1 8506   3.663   1.997   0.725 -0.5411  0.2122 -0.6262
  573MPD2    H7 8507   3.623   1.984   0.818 -0.1616  0.1547 -0.4711
  574TMC3    C1 8508   3.596   2.050   0.069 -0.3607 -0.0553  0.2616
  574TMC3    C2 8509   3.458   2.064   0.064 -0.1508  0.5947  0.6963
  574TMC3    C3 8510   3.405   2.141  17.657  0.3923 -0.7391 -0.4813
  574TMC3    C4 8511   3.677   2.102  17.669 -0.0984  0.2611 -0.3739
  574TMC3    C5 8512   3.615   2.168  17.564  0.6667 -0.4287  0.2045
  574TMC3    C6 8513   3.479   2.187  17.559  0.1168 -0.3993  0.2322
  574TMC3     C 8514   3.650   2.017   0.198  0.1069 -0.1732 -0.7043
  574TMC3     O 8515   3.750   2.075   0.240  0.3939 -0.1437 -0.1731
  574TMC3     H 8516   3.382   2.043   0.139  2.0219 -0.6041  2.5855
  574TMC3    H1 8517   3.785   2.101  17.675 -0.0208  0.2922 -1.6700
  574TMC3    H2 8518   3.427   2.234  17.476 -0.6795 -0.7339  0.5443
  574TMC3    C7 8519   3.693   2.239  17.464  0.0035  0.2672 -0.3712
  574TMC3    C8 8520   3.284   2.212  17.692 -0.1530 -0.4146  0.1253
  574TMC3    O1 8521   3.804   2.286  17.497  0.1827 -0.0768  0.0776
  574TMC3    O2 8522   3.206   2.161   0.076 -0.1327  0.2460 -0.8006
  575TMC3    C1 8523   0.970   2.806  11.276  0.3429 -0.4874  0.0685
  575TMC3    C2 8524   0.982   2.676  11.244 -0.2037 -0.3479  0.0543
  575TMC3    C3 8525   0.956   2.635  11.114 -0.2157  0.2897  0.4459
  575TMC3    C4 8526   0.932   2.902  11.187 -0.4017  0.2185  0.0304
  575TMC3    C5 8527   0.906   2.860  11.062 -0.6567  0.1128  0.3113
  575TMC3    C6 8528   0.925   2.734  11.019 -0.3898  0.3874  0.3668
  575TMC3     C 8529   0.980   2.836  11.422 -0.4863 -0.1176  0.0768
  575TMC3     O 8530   1.027   2.751  11.492 -0.1641 -0.3483  0.5147
  575TMC3     H 8531   1.013   2.598  11.313  1.6983 -0.3097 -0.7598
  575TMC3    H1 8532   0.912   3.004  11.220 -0.0159  0.1249  0.5480
  575TMC3    H2 8533   0.905   2.711  10.915  1.2281  3.2356 -0.5654
  575TMC3    C7 8534   0.863   2.952  10.954  0.2904 -0.4002 -0.6603
  575TMC3    C8 8535   0.902   2.500  11.099 -0.1522 -1.6491  0.3722
  575TMC3    O1 8536   0.898   3.069  10.965  0.6504 -0.4275  0.5194
  575TMC3    O2 8537   0.877   2.441  11.201  1.1444  0.0657 -0.1080
  576MPD2     C 8538   0.306   0.246  13.210 -0.6764 -0.2202 -0.7481
  576MPD2    C1 8539   0.408   0.316  13.139 -0.3571  0.5473 -0.4007
  576MPD2    C2 8540   0.440   0.435  13.192  0.0277  0.5736 -0.1558
  576MPD2    C3 8541   0.388   0.490  13.308 -0.4534  0.6526  0.5171
  576MPD2    C4 8542   0.287   0.417  13.375 -0.6598 -0.1096 -0.3441
  576MPD2    C5 8543   0.244   0.298  13.322 -0.0581  0.1925  0.2267
  576MPD2     H 8544   0.511   0.498  13.140  1.8663 -0.9030  0.5662
  576MPD2    H1 8545   0.236   0.452  13.464  0.4132 -1.1507  0.6810
  576MPD2    H2 8546   0.254   0.157  13.176 -0.0513 -0.8272 -0.1165
  576MPD2    H3 8547   0.160   0.249  13.370 -2.2240  1.4196 -2.3255
  576MPD2     N 8548   0.443   0.609  13.353  0.1533 -0.4606  0.0037
  576MPD2    H5 8549   0.514   0.655  13.298 -2.4638  1.5911 -1.6685
  576MPD2    N1 8550   0.479   0.267  13.025 -0.0689  0.0510 -0.1061
  576MPD2    H7 8551   0.552   0.324  12.983  0.7344  0.5938  1.9812
  577TMC3    C1 8552   0.574   0.111  12.867 -0.0259 -0.2994  0.4189
  577TMC3    C2 8553   0.638   4.714  12.889  0.3939 -0.1434  0.5601
  577TMC3    C3 8554   0.764   4.698  12.830 -0.2483  0.0225 -0.3786
  577TMC3    C4 8555   0.633   0.205  12.788 -0.1219 -0.4710  0.2533
  577TMC3    C5 8556   0.745   0.176  12.718  0.1414  0.1245 -0.5013
  577TMC3    C6 8557   0.822   0.073  12.757 -0.1909  0.5981 -0.4127
  577TMC3     C 8558   0.467   0.144  12.958  0.4059 -0.2491 -0.4355
  577TMC3     O 8559   0.414   0.044  13.005 -0.4130  0.2431 -0.2909
  577TMC3     H 8560   0.592   4.628  12.936  0.3653  0.0083  0.8072
  577TMC3    H1 8561   0.572   0.295  12.778 -0.9191 -0.7846  2.4204
  577TMC3    H2 8562   0.923   0.058  12.721 -0.6568 -0.9743 -1.0332
  577TMC3    C7 8563   0.747   0.190  12.575  0.1194 -0.0219 -0.9610
  577TMC3    C8 8564   0.793   4.561  12.796 -0.0709  0.1760 -0.2821
  577TMC3    O1 8565   0.836   0.125  12.520 -0.3792 -0.1696 -0.3611
  577TMC3    O2 8566   0.741   4.476  12.864  0.0313 -0.3662  0.5065
  578MPD2     C 8567   4.033   0.409   1.548 -0.2707 -0.2232  0.0889
  578MPD2    C1 8568   4.025   0.287   1.487 -0.3733  0.6312  0.2200
  578MPD2    C2 8569   4.130   0.201   1.518 -0.3412 -0.3177 -0.4282
  578MPD2    C3 8570   4.235   0.230   1.612  0.6033  0.0469  0.0741
  578MPD2    C4 8571   4.233   0.355   1.663 -0.5748  0.0417  0.0799
  578MPD2    C5 8572   4.134   0.437   1.631  0.4279  0.3413  0.0894
  578MPD2     H 8573   4.138   0.107   1.466 -2.3896 -0.3102 -0.7594
  578MPD2    H1 8574   4.304   0.393   1.736  0.1764  2.1677 -1.7804
  578MPD2    H2 8575   3.961   0.488   1.535  1.6876  1.0819 -2.9100
  578MPD2    H3 8576   4.137   0.538   1.668 -0.0731 -0.9217  3.6147
  578MPD2     N 8577   4.336   0.132   1.620 -0.0740  0.1323 -0.1006
  578MPD2    H5 8578   4.340   0.064   1.545 -0.2937  2.1609 -1.9481
  578MPD2    N1 8579   3.915   0.259   1.403 -0.2171  0.2013 -0.6715
  578MPD2    H7 8580   3.866   0.345   1.380 -1.1240  0.2573  1.4698
  579TMC3    C1 8581   4.549   0.040   1.691 -0.0365 -1.0828  0.0599
  579TMC3    C2 8582   4.673   0.080   1.741  0.3040 -0.2029 -0.2399
  579TMC3    C3 8583   0.067   0.020   1.687 -0.0436  0.4859 -1.4456
  579TMC3    C4 8584   4.539   4.680   1.584 -1.0747  0.3913 -0.4064
  579TMC3    C5 8585   4.654   4.606   1.549  1.0268 -0.2320  0.8216
  579TMC3    C6 8586   0.055   4.636   1.600 -0.0952 -0.1842  0.0715
  579TMC3     C 8587   4.444   0.136   1.704  0.0893  0.0207 -0.4562
  579TMC3     O 8588   4.461   0.218   1.794 -0.1536  0.2054 -0.3537
  579TMC3     H 8589   4.668   0.135   1.834  1.4059  0.3760 -0.5270
  579TMC3    H1 8590   4.440   4.651   1.551 -1.3295  0.2802  0.4625
  579TMC3    H2 8591   0.140   4.577   1.568 -0.2592 -1.7053  2.4560
  579TMC3    C7 8592   4.646   4.487   1.475 -0.0206 -0.8658 -0.3940
  579TMC3    C8 8593   0.189   0.026   1.764 -0.6944 -0.0415 -0.1760
  579TMC3    O1 8594   0.022   4.416   1.468  0.1208 -0.7968 -0.8191
  579TMC3    O2 8595   0.180   0.047   1.883 -0.2720  0.7901  0.5611
  580TMC3    C1 8596   2.943   4.076  12.039 -0.7917 -0.5664  0.1769
  580TMC3    C2 8597   2.945   4.154  12.146  0.4956 -0.1519  0.0468
  580TMC3    C3 8598   3.038   4.127  12.242 -0.0043  0.4230 -0.6220
  580TMC3    C4 8599   3.005   3.947  12.038  0.2809 -0.2561  0.1460
  580TMC3    C5 8600   3.070   3.910  12.152 -0.8183 -0.2686  0.3828
  580TMC3    C6 8601   3.087   4.002  12.251  0.0283  0.3840  0.2341
  580TMC3     C 8602   2.932   4.142  11.910 -0.2787  1.3019 -0.1089
  580TMC3     O 8603   2.912   4.079  11.810  0.3895  0.0989  0.3407
  580TMC3     H 8604   2.901   4.253  12.147  0.0827 -0.3414  0.3176
  580TMC3    H1 8605   3.000   3.885  11.948  0.0437  0.1176 -0.1006
  580TMC3    H2 8606   3.126   3.972  12.348 -3.5904 -0.3535  1.4544
  580TMC3    C7 8607   3.147   3.790  12.147  0.6034  0.1641  0.8534
  580TMC3    C8 8608   3.127   4.233  12.269 -0.5819 -0.2431  0.5767
  580TMC3    O1 8609   3.231   3.789  12.241  0.2671  0.7141 -0.0604
  580TMC3    O2 8610   3.104   4.344  12.225  0.1136  0.7041 -0.6265
  581MPD2     C 8611   1.322   3.920  15.342 -0.2797 -0.8303 -0.1760
  581MPD2    C1 8612   1.336   3.807  15.258  0.5132 -0.1149 -0.7044
  581MPD2    C2 8613   1.229   3.779  15.168  0.3861  0.4274 -0.4212
  581MPD2    C3 8614   1.117   3.864  15.163  0.0233  0.0552 -0.1413
  581MPD2    C4 8615   1.112   3.967  15.252 -0.7835 -0.4966 -0.0463
  581MPD2    C5 8616   1.209   3.994  15.338  0.0693 -0.1245  0.4747
  581MPD2     H 8617   1.226   3.685  15.115 -1.4715 -0.9149  2.0826
  581MPD2    H1 8618   1.030   4.038  15.258 -0.3154  0.0946 -0.5892
  581MPD2    H2 8619   1.407   3.963  15.395  1.0165 -0.7903 -2.2529
  581MPD2    H3 8620   1.197   4.082  15.400 -0.4374 -0.1769  0.4468
  581MPD2     N 8621   1.023   3.863  15.057 -0.0757 -0.3983 -0.1430
  581MPD2    H5 8622   0.960   3.942  15.045 -1.0912 -1.4426 -1.6317
  581MPD2    N1 8623   1.452   3.732  15.276  0.6895 -0.2883 -0.1290
  581MPD2    H7 8624   1.522   3.769  15.339  2.0110 -0.2018 -1.6307
  582TMC3    C1 8625   1.585   3.541  15.280 -0.0512 -0.3345  0.1608
  582TMC3    C2 8626   1.626   3.582  15.409 -0.6796 -0.0262  0.2148
  582TMC3    C3 8627   1.718   3.506  15.469 -0.6873  0.4385 -0.3795
  582TMC3    C4 8628   1.643   3.428  15.223 -0.6126 -0.1400  0.3119
  582TMC3    C5 8629   1.732   3.353  15.292  0.0232 -0.6212  0.4827
  582TMC3    C6 8630   1.774   3.398  15.412 -0.7974 -0.0219 -0.1696
  582TMC3     C 8631   1.487   3.619  15.211 -0.3395 -0.1640 -0.2623
  582TMC3     O 8632   1.436   3.568  15.115 -1.0836  0.0634 -0.0916
  582TMC3     H 8633   1.589   3.666  15.465 -1.4886 -0.3362  0.1534
  582TMC3    H1 8634   1.619   3.399  15.121 -0.7818  1.3810 -0.0926
  582TMC3    H2 8635   1.835   3.325  15.464  1.9498  2.3256 -0.1135
  582TMC3    C7 8636   1.685   3.219  15.306  0.0195 -0.6588  0.5838
  582TMC3    C8 8637   1.736   3.523  15.615  0.1831  0.5996 -0.3062
  582TMC3    O1 8638   1.744   3.128  15.373 -0.2579  0.1046 -0.2744
  582TMC3    O2 8639   1.666   3.610  15.671 -0.1112 -0.4582 -0.2097
  583MPD2     C 8640   1.421   0.193  16.768  0.2797  0.3688 -0.6072
  583MPD2    C1 8641   1.387   0.324  16.737  0.3337  0.1074  0.3336
  583MPD2    C2 8642   1.350   0.409  16.837  0.2386 -0.3321  0.2800
  583MPD2    C3 8643   1.351   0.372  16.968 -0.6013 -0.0540 -1.0771
  583MPD2    C4 8644   1.398   0.246  17.001  0.1476  0.4001 -0.7063
  583MPD2    C5 8645   1.426   0.152  16.901  0.0356  0.1137  0.5409
  583MPD2     H 8646   1.306   0.505  16.812  1.0081 -0.4235 -1.4086
  583MPD2    H1 8647   1.409   0.209  17.102 -0.0281 -0.4216 -0.9867
  583MPD2    H2 8648   1.454   0.132  16.685  2.2438  1.7581 -0.8245
  583MPD2    H3 8649   1.449   0.047  16.917 -0.9791  0.1866  2.5556
  583MPD2     N 8650   1.312   0.470  17.057  0.0724 -0.2316 -0.0209
  583MPD2    H5 8651   1.266   0.553  17.020  1.6536  0.7964  0.2878
  583MPD2    N1 8652   1.388   0.384  16.607 -0.2043  0.4727  0.5965
  583MPD2    H7 8653   1.357   0.480  16.613  1.8511  1.1478  0.3687
  584TMC3    C1 8654   1.276   0.584  17.257 -0.2261 -0.1767 -0.6829
  584TMC3    C2 8655   1.241   0.696  17.187 -1.5704 -0.2193 -0.6387
  584TMC3    C3 8656   1.181   0.802  17.253  0.0512 -0.0042  0.0973
  584TMC3    C4 8657   1.262   0.582  17.399  0.1807 -0.2006  0.1338
  584TMC3    C5 8658   1.213   0.697  17.455 -0.7015  0.9552  0.5460
  584TMC3    C6 8659   1.170   0.811  17.384  0.2667 -0.1725  0.2712
  584TMC3     C 8660   1.323   0.463  17.193  0.0408 -0.5614 -0.3619
  584TMC3     O 8661   1.353   0.368  17.263  0.1494 -0.1744  0.1652
  584TMC3     H 8662   1.237   0.692  17.079  0.1717  0.2939 -0.7184
  584TMC3    H1 8663   1.283   0.493  17.456 -0.8268 -0.0079  0.7979
  584TMC3    H2 8664   1.111   0.895  17.417  2.0786  1.1505  0.1386
  584TMC3    C7 8665   1.191   0.673  17.600  1.0730 -0.2700 -0.1275
  584TMC3    C8 8666   1.183   0.920  17.176  0.0849  0.3935  0.6561
  584TMC3    O1 8667   1.161   0.561  17.638 -0.6007  0.1402  0.6450
  584TMC3    O2 8668   1.148   0.898  17.061 -0.1293  0.0188 -0.0387
  585MPD2     C 8669   0.983   4.201   0.746  0.0861 -0.3359  0.5757
  585MPD2    C1 8670   1.067   4.193   0.633  0.1098 -0.0297  0.1094
  585MPD2    C2 8671   1.039   4.103   0.534 -0.3391 -0.4152 -0.2175
  585MPD2    C3 8672   0.929   4.025   0.537 -0.6529  0.1816  0.4721
  585MPD2    C4 8673   0.844   4.039   0.640  0.0364  0.8063  0.2763
  585MPD2    C5 8674   0.873   4.118   0.745  0.4694 -0.0552  0.2735
  585MPD2     H 8675   1.101   4.096   0.446 -0.7689 -1.2688 -0.4464
  585MPD2    H1 8676   0.747   3.992   0.648  0.8658 -1.1024 -0.7740
  585MPD2    H2 8677   1.010   4.258   0.834  1.0187 -2.3291  1.5809
  585MPD2    H3 8678   0.812   4.118   0.834  1.1592 -1.2773  0.7447
  585MPD2     N 8679   0.909   3.942   0.428 -0.0196  0.2751  0.7171
  585MPD2    H5 8680   0.986   3.934   0.362 -1.5915 -1.9701 -0.8626
  585MPD2    N1 8681   1.171   4.295   0.617  0.3206 -0.1909 -0.2230
  585MPD2    H7 8682   1.162   4.368   0.687  2.0998 -0.6268  0.4568
  586TMC3    C1 8683   0.801   3.800   0.271  0.3776 -0.1330 -0.4470
  586TMC3    C2 8684   0.750   3.831   0.149 -0.6975 -0.2562 -0.0209
  586TMC3    C3 8685   0.813   3.774   0.036  0.1023 -0.4662 -0.0208
  586TMC3    C4 8686   0.909   3.711   0.291 -0.4695 -0.3763 -0.2550
  586TMC3    C5 8687   0.969   3.662   0.178  0.1011  0.1954 -0.4473
  586TMC3    C6 8688   0.929   3.695   0.054  0.6570  0.3800  0.3499
  586TMC3     C 8689   0.789   3.901   0.370 -0.0777  0.5391  0.5195
  586TMC3     O 8690   0.678   3.949   0.394 -0.1795  0.7523  0.4859
  586TMC3     H 8691   0.667   3.901   0.145 -0.9674 -0.6877 -1.6699
  586TMC3    H1 8692   0.943   3.701   0.393  1.4729 -1.7630 -1.0284
  586TMC3    H2 8693   0.977   3.636  17.674 -0.9364 -1.8390  1.0547
  586TMC3    C7 8694   1.042   3.540   0.192 -0.3194  0.2078 -0.0404
  586TMC3    C8 8695   0.749   3.747  17.608  0.5486 -0.0202 -0.5039
  586TMC3    O1 8696   1.093   3.480   0.101  0.0978  0.2922 -0.1324
  586TMC3    O2 8697   0.822   3.695  17.521  0.3620  0.8143 -0.1013
  587TMC3    C1 8698   3.003   2.520  16.206 -0.5120 -0.5936  0.1017
  587TMC3    C2 8699   3.021   2.637  16.271 -0.3344  0.6061 -0.4366
  587TMC3    C3 8700   3.144   2.693  16.265  0.3635  0.1081 -0.0648
  587TMC3    C4 8701   3.100   2.473  16.118 -0.6515  0.0429 -0.7226
  587TMC3    C5 8702   3.224   2.529  16.115 -0.1477 -0.4448 -0.2606
  587TMC3    C6 8703   3.247   2.638  16.192 -0.0928  0.0528 -0.2424
  587TMC3     C 8704   2.881   2.446  16.217  0.3298 -0.0144 -0.0397
  587TMC3     O 8705   2.882   2.329  16.178  0.0936  0.4529 -0.3820
  587TMC3     H 8706   2.959   2.666  16.355  1.6560  0.4897  1.0889
  587TMC3    H1 8707   3.070   2.390  16.054 -1.5348 -1.0616  1.1142
  587TMC3    H2 8708   3.344   2.686  16.198  0.1835 -0.4125 -1.0588
  587TMC3    C7 8709   3.321   2.481  16.024  0.1688  0.0839  0.3025
  587TMC3    C8 8710   3.165   2.818  16.341  1.0396 -0.4510 -0.3896
  587TMC3    O1 8711   3.311   2.365  15.987  0.3274 -0.0501  0.3475
  587TMC3    O2 8712   3.285   2.844  16.348  0.5617 -0.5268 -0.1290
  588TMC3    C1 8713   0.135   1.237  10.178 -0.1186 -0.8139 -0.3515
  588TMC3    C2 8714   0.085   1.133  10.233 -0.3917 -0.9816 -0.2653
  588TMC3    C3 8715   0.153   1.015  10.231  0.1832  0.5685 -0.4531
  588TMC3    C4 8716   0.258   1.228  10.109 -0.1911 -0.4052  0.4823
  588TMC3    C5 8717   0.332   1.109  10.114 -0.3695  0.2505 -0.5193
  588TMC3    C6 8718   0.277   1.002  10.175 -1.0594 -0.3895  0.0143
  588TMC3     C 8719   0.044   1.344  10.142 -0.6238  0.8651  1.0819
  588TMC3     O 8720   4.647   1.319  10.132  0.4970  0.0109 -0.0009
  588TMC3     H 8721   4.715   1.143  10.287  0.8938 -1.9849  2.1788
  588TMC3    H1 8722   0.288   1.304  10.038  1.3549  0.7673  2.4038
  588TMC3    H2 8723   0.331   0.910  10.158 -0.1350  0.4658 -1.6981
  588TMC3    C7 8724   0.450   1.094  10.031  0.3108 -0.2639  0.2830
  588TMC3    C8 8725   0.085   0.891  10.267  0.1263 -0.0395 -0.0476
  588TMC3    O1 8726   0.486   0.984   9.998 -0.6593  0.1483  0.2248
  588TMC3    O2 8727   4.688   0.896  10.283  0.1326  0.0251 -0.0191
  589TMC3    C1 8728   0.026   2.939   0.896  0.2244  0.1390  0.0923
  589TMC3    C2 8729   0.102   3.029   0.974  0.7370  0.2516 -0.1881
  589TMC3    C3 8730   0.227   2.982   1.002  0.4479 -0.3006 -0.6206
  589TMC3    C4 8731   0.079   2.842   0.820  0.5465 -0.7749  0.4060
  589TMC3    C5 8732   0.219   2.814   0.835  0.6434 -0.0268 -0.7002
  589TMC3    C6 8733   0.288   2.883   0.931  0.1642 -0.1133  0.3696
  589TMC3     C 8734   4.605   2.956   0.896 -0.6420  0.1557 -0.2114
  589TMC3     O 8735   4.547   2.902   0.804 -0.3506  0.0500  0.4605
  589TMC3     H 8736   0.057   3.110   1.031  0.0961 -0.5990  0.5106
  589TMC3    H1 8737   0.034   2.795   0.733 -1.5167  2.7202 -0.3900
  589TMC3    H2 8738   0.363   2.823   0.981 -1.5190 -1.7298  0.9524
  589TMC3    C7 8739   0.249   2.679   0.812 -0.6702  0.1806 -0.5276
  589TMC3    C8 8740   0.303   3.055   1.109  0.2183 -0.0527  0.6063
  589TMC3    O1 8741   0.156   2.598   0.802  0.2351  0.1947 -0.0780
  589TMC3    O2 8742   0.243   3.119   1.196  0.4286  0.7394 -0.0822
  590MPD2     C 8743   3.880   1.303  16.349 -0.2112 -0.0182 -0.2425
  590MPD2    C1 8744   3.828   1.400  16.268  0.5526  0.3090 -0.3064
  590MPD2    C2 8745   3.900   1.467  16.173  0.6388 -0.1692  0.1924
  590MPD2    C3 8746   4.033   1.437  16.161  0.0605 -0.6910 -0.0661
  590MPD2    C4 8747   4.088   1.334  16.237  0.5490  1.2094 -0.0981
  590MPD2    C5 8748   4.010   1.266  16.330 -0.0879  0.0913 -0.4243
  590MPD2     H 8749   3.856   1.545  16.112 -1.3059 -1.4718 -0.0936
  590MPD2    H1 8750   4.194   1.311  16.232  0.5297  1.0040  0.5162
  590MPD2    H2 8751   3.819   1.246  16.418  0.1624  0.8580  0.8184
  590MPD2    H3 8752   4.050   1.185  16.389  0.5600  0.0295 -0.9403
  590MPD2     N 8753   4.112   1.521  16.080 -0.1884  0.7820  0.7749
  590MPD2    H5 8754   4.069   1.602  16.036  0.0551  1.0702  1.0655
  590MPD2    N1 8755   3.691   1.425  16.283 -0.0290  0.9802 -0.1274
  590MPD2    H7 8756   3.634   1.365  16.341  1.3667 -0.2238 -0.0149
  591TMC3    C1 8757   4.285   1.590  15.946  0.3155 -0.0513 -0.1695
  591TMC3    C2 8758   4.382   1.544  15.857  0.0599  0.4854  0.1720
  591TMC3    C3 8759   4.433   1.642  15.778 -0.2779 -0.5112 -0.3624
  591TMC3    C4 8760   4.245   1.722  15.944  0.6162 -0.6311 -0.2300
  591TMC3    C5 8761   4.307   1.813  15.868 -0.3506  0.2472 -0.6427
  591TMC3    C6 8762   4.405   1.775  15.780  0.0783 -0.1229  0.5459
  591TMC3     C 8763   4.233   1.491  16.035  0.0670  0.2212  0.3221
  591TMC3     O 8764   4.284   1.378  16.029 -0.5411 -0.1961  0.2686
  591TMC3     H 8765   4.412   1.441  15.845 -0.6106  0.4538 -1.1790
  591TMC3    H1 8766   4.170   1.758  16.013  0.3835 -2.5504  0.5284
  591TMC3    H2 8767   4.453   1.856  15.727 -2.5039 -0.1194 -1.7941
  591TMC3    C7 8768   4.230   1.928  15.832 -0.8988  0.9853 -0.6380
  591TMC3    C8 8769   4.527   1.594  15.680 -0.9504 -0.0950  0.2774
  591TMC3    O1 8770   4.114   1.901  15.842 -0.1667 -0.3296  0.6166
  591TMC3    O2 8771   4.570   1.478  15.691  0.4574 -0.2754 -0.0957
  592MPD2     C 8772   4.544   3.375  11.996  0.4345  0.3458 -0.2714
  592MPD2    C1 8773   4.451   3.455  12.053 -0.0465 -0.1145  0.0979
  592MPD2    C2 8774   4.338   3.392  12.107  0.1849  0.1554  0.2984
  592MPD2    C3 8775   4.310   3.259  12.091 -0.0499 -0.2414  0.0024
  592MPD2    C4 8776   4.403   3.186  12.027 -0.5403  0.0273 -0.2945
  592MPD2    C5 8777   4.516   3.244  11.974 -0.0829  0.8867 -0.0492
  592MPD2     H 8778   4.271   3.454  12.165 -0.3199  0.8325 -0.9913
  592MPD2    H1 8779   4.386   3.079  12.017 -1.6443  0.4116 -2.5721
  592MPD2    H2 8780   4.639   3.413  11.961  0.5944  0.6903  0.5284
  592MPD2    H3 8781   4.583   3.180  11.918  1.2983  2.2272  0.0934
  592MPD2     N 8782   4.186   3.209  12.144  0.0334 -0.6366  0.4546
  592MPD2    H5 8783   4.123   3.273  12.189 -0.3612 -0.7734  0.0961
  592MPD2    N1 8784   4.478   3.599  12.052  0.0005  0.3018  0.4283
  592MPD2    H7 8785   4.566   3.627  12.011 -0.0103  0.1538  0.3029
  593TMC3    C1 8786   4.472   3.817  12.135 -0.2850  0.2648 -0.1132
  593TMC3    C2 8787   4.457   3.874  12.262 -1.1454 -0.0507  0.4863
  593TMC3    C3 8788   4.554   3.957  12.312 -0.7135  0.3626  0.1035
  593TMC3    C4 8789   4.576   3.861  12.059 -0.3088  0.6692  0.1357
  593TMC3    C5 8790   4.675   3.942  12.108 -0.2457  0.5768 -0.0416
  593TMC3    C6 8791   4.665   3.994  12.237 -0.3230 -0.1652  0.5262
  593TMC3     C 8792   4.392   3.697  12.097  0.5153 -0.0546  0.2929
  593TMC3     O 8793   4.282   3.678  12.145  1.1823 -0.1470  0.1334
  593TMC3     H 8794   4.386   3.835  12.335 -1.9350  0.2098 -0.1377
  593TMC3    H1 8795   4.588   3.831  11.956 -0.9997 -1.1018  0.5761
  593TMC3    H2 8796   0.020   4.049  12.288  1.3914 -2.0740 -0.0507
  593TMC3    C7 8797   0.039   4.015  12.022 -0.4221  0.1600  0.2341
  593TMC3    C8 8798   4.510   4.011  12.443 -0.4901 -0.0318 -0.1731
  593TMC3    O1 8799   0.071   4.123  12.069 -0.4455  0.5427  0.4569
  593TMC3    O2 8800   4.391   4.018  12.457  0.4091 -0.4567 -0.2314
  594MPD2     C 8801   3.454   2.020  14.762  0.3837  0.0955  0.2821
  594MPD2    C1 8802   3.353   2.117  14.745  0.8324  0.3162 -0.4492
  594MPD2    C2 8803   3.383   2.251  14.721 -0.5478  0.3802 -0.2638
  594MPD2    C3 8804   3.514   2.293  14.723  0.8768  0.4043 -0.3847
  594MPD2    C4 8805   3.614   2.199  14.744 -0.0475 -0.0237 -0.7747
  594MPD2    C5 8806   3.580   2.068  14.782  0.3264 -0.8634  0.0388
  594MPD2     H 8807   3.302   2.314  14.688  0.9567  1.4502 -1.9246
  594MPD2    H1 8808   3.718   2.228  14.752 -0.6622  1.9204  0.2982
  594MPD2    H2 8809   3.434   1.916  14.783  2.0283 -0.4181 -0.7580
  594MPD2    H3 8810   3.655   2.002  14.824  0.4710  1.0758  2.8037
  594MPD2     N 8811   3.537   2.432  14.696  0.0487 -0.1911  0.2961
  594MPD2    H5 8812   3.458   2.492  14.674  1.0436 -0.1949 -3.3086
  594MPD2    N1 8813   3.224   2.061  14.729  0.8065 -0.0150  0.1922
  594MPD2    H7 8814   3.217   1.960  14.724 -0.3711  0.0032  1.6977
  595TMC3    C1 8815   3.804   2.798  14.577  0.2129 -0.2553 -0.2850
  595TMC3    C2 8816   3.788   2.667  14.599  0.2765  0.8158  0.3251
  595TMC3    C3 8817   3.680   2.620  14.669 -0.4422 -0.2549 -0.2428
  595TMC3    C4 8818   3.719   2.887  14.633  0.2418 -0.0555  0.0988
  595TMC3    C5 8819   3.612   2.835  14.704 -0.2000 -0.0566  0.0506
  595TMC3    C6 8820   3.585   2.703  14.716  0.6051 -0.0025  0.7849
  595TMC3     C 8821   3.933   2.852  14.548 -0.0118 -0.1943  0.6225
  595TMC3     O 8822   3.945   2.974  14.558 -0.5598  0.4369  0.4044
  595TMC3     H 8823   3.864   2.599  14.563 -1.9020 -1.0257 -0.8467
  595TMC3    H1 8824   3.714   2.988  14.596  2.1246  0.4250  1.1281
  595TMC3    H2 8825   3.496   2.679  14.774  0.3953  0.8200  0.8060
  595TMC3    C7 8826   3.515   2.925  14.759 -0.0180  0.2850  0.3494
  595TMC3    C8 8827   3.667   2.476  14.675 -0.8773  0.2406 -0.3307
  595TMC3    O1 8828   3.405   2.882  14.788 -0.1574  0.4194 -0.2484
  595TMC3    O2 8829   3.774   2.419  14.659 -0.0941  0.0859  0.3388
  596MPD2     C 8830   2.235   0.181  16.658 -0.3901  0.2993  0.0729
  596MPD2    C1 8831   2.221   0.306  16.598  0.6369 -0.0197  0.2503
  596MPD2    C2 8832   2.197   0.311  16.456  0.1829 -0.1645 -0.5193
  596MPD2    C3 8833   2.192   0.189  16.383  0.6526 -0.1622 -0.2644
  596MPD2    C4 8834   2.216   0.064  16.442 -0.8251  0.7357 -0.0235
  596MPD2    C5 8835   2.240   0.066  16.577  1.0991  0.0817  0.3455
  596MPD2     H 8836   2.188   0.410  16.412 -1.1124 -0.5575 -1.1113
  596MPD2    H1 8837   2.211   4.694  16.388 -0.0745  0.3804  0.5399
  596MPD2    H2 8838   2.249   0.170  16.765  0.4030 -0.6983 -0.1278
  596MPD2    H3 8839   2.256   4.693  16.623  2.6348  1.0805  1.9223
  596MPD2     N 8840   2.159   0.196  16.243  0.3841  0.4315  0.5217
  596MPD2    H5 8841   2.168   0.106  16.196 -1.2429  0.7310 -0.3568
  596MPD2    N1 8842   2.209   0.427  16.664 -0.8663 -0.2140 -0.5381
  596MPD2    H7 8843   2.200   0.498  16.592 -0.8412  0.2383 -0.0868
  597TMC3    C1 8844   2.179   0.585  16.829 -0.0157  0.0855 -0.3625
  597TMC3    C2 8845   2.268   0.672  16.772  0.6211  0.3879  0.1739
  597TMC3    C3 8846   2.272   0.795  16.836  0.0749 -0.1826 -0.1733
  597TMC3    C4 8847   2.101   0.611  16.943  0.1496 -0.0702 -0.2156
  597TMC3    C5 8848   2.099   0.742  16.983 -0.7852 -0.0514 -0.1954
  597TMC3    C6 8849   2.187   0.832  16.937  0.0723  0.6100  0.6288
  597TMC3     C 8850   2.196   0.448  16.793 -1.0998  0.0138  0.3141
  597TMC3     O 8851   2.184   0.360  16.875 -0.3862 -0.6875 -0.1202
  597TMC3     H 8852   2.340   0.637  16.699 -2.4669 -1.5585 -1.9552
  597TMC3    H1 8853   2.043   0.529  16.983 -0.5170 -0.7102 -2.4644
  597TMC3    H2 8854   2.195   0.930  16.982  1.6478 -0.3749  2.5273
  597TMC3    C7 8855   2.006   0.768  17.090 -0.6232 -0.6019  0.2992
  597TMC3    C8 8856   2.355   0.903  16.776 -0.1499  0.3018  0.0803
  597TMC3    O1 8857   1.981   0.677  17.170  0.6530 -0.6979 -0.1305
  597TMC3    O2 8858   2.373   1.002  16.848  0.1949  0.2948  0.1016
  598TMC3    C1 8859   0.395   1.912  15.535 -0.5474  0.1174  0.5518
  598TMC3    C2 8860   0.257   1.927  15.537 -1.0524 -0.3413  0.6800
  598TMC3    C3 8861   0.200   2.023  15.466  0.1924  0.1556  0.0351
  598TMC3    C4 8862   0.475   1.994  15.458  0.4569 -0.3297  0.0508
  598TMC3    C5 8863   0.412   2.087  15.388  0.5983 -0.2006  0.6493
  598TMC3    C6 8864   0.279   2.106  15.391  0.0107 -0.6190  0.7060
  598TMC3     C 8865   0.449   1.806  15.613  0.9013  0.1039 -0.2333
  598TMC3     O 8866   0.550   1.745  15.574 -0.1550  0.1201  0.0221
  598TMC3     H 8867   0.194   1.857  15.590 -1.4708  1.2504  2.2849
  598TMC3    H1 8868   0.583   1.984  15.460  0.3438 -1.5489  0.4597
  598TMC3    H2 8869   0.241   2.197  15.346  0.6050 -0.4348  0.5785
  598TMC3    C7 8870   0.485   2.170  15.295  0.1543 -0.1036 -0.2957
  598TMC3    C8 8871   0.056   2.046  15.467  0.0963  0.4481 -0.1373
  598TMC3    O1 8872   0.585   2.222  15.335 -0.2333 -0.1904  0.0635
  598TMC3    O2 8873   4.715   2.006  15.562 -0.2510  0.2359  0.2955
  599MPD2     C 8874   0.878   4.479  16.040  0.5787  0.1299  0.2771
  599MPD2    C1 8875   0.817   4.352  16.059  0.6430  0.9646  0.0781
  599MPD2    C2 8876   0.695   4.342  16.127  0.4705 -0.6948 -0.3644
  599MPD2    C3 8877   0.638   4.452  16.185  1.0080 -0.3838 -0.6799
  599MPD2    C4 8878   0.706   4.569  16.176 -0.2587 -0.1807  0.0930
  599MPD2    C5 8879   0.815   4.584  16.099 -0.2208  0.1788  0.7626
  599MPD2     H 8880   0.644   4.247  16.130 -2.3452  0.8640  0.9722
  599MPD2    H1 8881   0.657   4.658  16.215 -2.6371 -1.2854 -0.4215
  599MPD2    H2 8882   0.966   4.495  15.979 -1.0063  2.9070 -1.2787
  599MPD2    H3 8883   0.849   4.686  16.082  0.6012 -0.2587 -0.1582
  599MPD2     N 8884   0.517   4.460  16.252 -0.4612  0.2795  0.3833
  599MPD2    H5 8885   0.492   4.534  16.317  1.1534 -0.9363  2.3691
  599MPD2    N1 8886   0.884   4.240  16.004  0.0186 -0.6448  0.6290
  599MPD2    H7 8887   0.975   4.252  15.961 -0.7890 -0.1320 -0.9308
  600TMC3    C1 8888   0.323   4.374  16.342 -0.5790  0.9993  0.2104
  600TMC3    C2 8889   0.298   4.258  16.415 -0.0172 -0.4049  0.2948
  600TMC3    C3 8890   0.268   4.279  16.545  0.3406 -0.2049  0.1891
  600TMC3    C4 8891   0.303   4.505  16.399  0.8116  0.1022 -0.4997
  600TMC3    C5 8892   0.273   4.514  16.527  0.3850  0.3223  0.5380
  600TMC3    C6 8893   0.239   4.401  16.598  0.1924  0.3851 -0.0144
  600TMC3     C 8894   0.423   4.359  16.243 -0.1413 -0.4395  0.0171
  600TMC3     O 8895   0.415   4.267  16.166 -0.3563  0.1765  0.1259
  600TMC3     H 8896   0.341   4.166  16.379  1.1605  0.7967 -1.3655
  600TMC3    H1 8897   0.297   4.595  16.339  0.8128  0.5349  0.1460
  600TMC3    H2 8898   0.202   4.402  16.700 -0.4278  0.3972 -0.2350
  600TMC3    C7 8899   0.209   4.639  16.574 -0.0067  0.9488  0.2165
  600TMC3    C8 8900   0.182   4.177  16.605  0.0802 -0.1517 -0.2294
  600TMC3    O1 8901   0.167   4.720  16.496 -0.3841 -0.5247 -0.5305
  600TMC3    O2 8902   0.159   4.189  16.725  0.3514  0.3297 -0.7323
  601MPD2     C 8903   2.392   1.957  17.559 -0.3441 -0.3186 -0.7425
  601MPD2    C1 8904   2.255   1.984  17.564 -0.0156  0.7225 -0.2842
  601MPD2    C2 8905   2.172   1.876  17.599 -0.2400 -0.4652 -0.5156
  601MPD2    C3 8906   2.217   1.753  17.620  0.1440  0.2943  0.6761
  601MPD2    C4 8907   2.357   1.730  17.616  0.0969 -0.1337  0.3001
  601MPD2    C5 8908   2.442   1.832  17.593 -0.4434  0.2879  0.4446
  601MPD2     H 8909   2.066   1.898  17.609  0.2154  2.1912 -1.5847
  601MPD2    H1 8910   2.388   1.626  17.628  0.4615 -0.2094 -1.4129
  601MPD2    H2 8911   2.463   2.038  17.557  1.7418 -2.0760  2.1909
  601MPD2    H3 8912   2.546   1.801  17.592 -0.2329  0.8596  3.9016
  601MPD2     N 8913   2.136   1.640  17.647  0.4923  0.3051  0.6392
  601MPD2    H5 8914   2.172   1.545  17.649  1.9286  0.8861  3.0548
  601MPD2    N1 8915   2.201   2.113  17.547 -0.9199  0.0673  0.2003
  601MPD2    H7 8916   2.103   2.119  17.573 -1.4514 -1.0199 -1.5326
  602TMC3    C1 8917   2.200   2.352  17.532 -0.3886  0.2978  0.0397
  602TMC3    C2 8918   2.275   2.468  17.551 -0.3539  0.4762 -0.1718
  602TMC3    C3 8919   2.219   2.594  17.542  0.1734 -0.0903  0.4087
  602TMC3    C4 8920   2.063   2.354  17.515 -0.0656  0.7137 -0.4476
  602TMC3    C5 8921   2.009   2.486  17.506 -0.0853 -0.0025  0.0632
  602TMC3    C6 8922   2.086   2.600  17.524 -0.3158 -0.0928  0.7364
  602TMC3     C 8923   2.276   2.231  17.523 -0.4299 -0.5710 -0.0227
  602TMC3     O 8924   2.396   2.246  17.488 -0.2799  0.1724 -0.0796
  602TMC3     H 8925   2.383   2.463  17.559 -0.4220 -1.1468 -0.1332
  602TMC3    H1 8926   1.994   2.273  17.493  1.1563 -0.2239 -0.7857
  602TMC3    H2 8927   2.026   2.679  17.569 -0.1214  0.9305 -0.7800
  602TMC3    C7 8928   1.867   2.504  17.500 -0.3597 -0.0280 -0.2472
  602TMC3    C8 8929   2.296   2.705  17.496 -0.3239 -0.5649 -0.3264
  602TMC3    O1 8930   1.789   2.423  17.552  0.5704  0.0380  0.3803
  602TMC3    O2 8931   2.417   2.683  17.493  0.0144 -0.5692  0.1719
  603TMC3    C1 8932   0.486   3.296  11.033 -0.1275 -0.0235  0.5076
  603TMC3    C2 8933   0.472   3.258  11.166 -0.5259  0.0087 -0.8906
  603TMC3    C3 8934   0.575   3.298  11.249  0.0445 -0.2192  0.2337
  603TMC3    C4 8935   0.584   3.377  10.987  0.6483  0.1347  0.2949
  603TMC3    C5 8936   0.675   3.416  11.081  0.0642  0.9840  0.1490
  603TMC3    C6 8937   0.674   3.384  11.214  0.0805 -0.2287  0.1738
  603TMC3     C 8938   0.369   3.293  10.945 -0.1500 -0.1579 -0.3970
  603TMC3     O 8939   0.379   3.366  10.847  0.4624 -0.5299  0.4426
  603TMC3     H 8940   0.402   3.188  11.207 -0.2097 -0.7727 -1.6861
  603TMC3    H1 8941   0.595   3.396  10.881  2.5928 -0.1394  0.4406
  603TMC3    H2 8942   0.764   3.409  11.269 -2.2684  1.0778  3.4852
  603TMC3    C7 8943   0.734   3.543  11.047 -0.3144  0.5565  0.3315
  603TMC3    C8 8944   0.574   3.252  11.390  0.2812  0.1224 -0.1667
  603TMC3    O1 8945   0.791   3.601  11.141 -0.1995 -0.1174  0.0047
  603TMC3    O2 8946   0.488   3.170  11.422 -0.6132  0.1350 -0.3127
  604MPD2     C 8947   0.735   1.301  16.120 -0.0286 -0.6457 -0.8193
  604MPD2    C1 8948   0.819   1.395  16.160 -0.1782 -0.3249 -0.2297
  604MPD2    C2 8949   0.920   1.431  16.077 -0.4076 -0.0832  0.2901
  604MPD2    C3 8950   0.954   1.372  15.960 -0.0885  0.1656  0.5370
  604MPD2    C4 8951   0.873   1.271  15.926  0.1745 -0.2513 -0.2210
  604MPD2    C5 8952   0.761   1.234  16.008 -0.2846  1.0457  0.2336
  604MPD2     H 8953   0.998   1.501  16.104  0.2488 -2.7254  5.2430
  604MPD2    H1 8954   0.887   1.216  15.834 -1.0217  0.0389 -0.5755
  604MPD2    H2 8955   0.640   1.280  16.169  0.6034  1.6923  1.3905
  604MPD2    H3 8956   0.703   1.148  15.974 -0.0000  0.6056  0.8682
  604MPD2     N 8957   1.064   1.417  15.884  0.0939  0.0053  0.1479
  604MPD2    H5 8958   1.102   1.509  15.904 -1.5268  0.4773  1.0367
  604MPD2    N1 8959   0.787   1.462  16.277 -0.1895  0.1615 -0.9651
  604MPD2    H7 8960   0.718   1.427  16.343 -1.3686 -1.8389 -3.2804
  605TMC3    C1 8961   0.816   1.609  16.455  0.0465 -0.0012  0.0736
  605TMC3    C2 8962   0.903   1.691  16.514 -0.3059  0.3416  0.3597
  605TMC3    C3 8963   0.862   1.763  16.624  0.4621 -0.3640  0.4599
  605TMC3    C4 8964   0.689   1.589  16.508 -0.6793 -0.0237  1.3734
  605TMC3    C5 8965   0.651   1.664  16.613  0.2648  0.2402  1.1301
  605TMC3    C6 8966   0.737   1.748  16.682  0.1341 -0.2948 -0.1944
  605TMC3     C 8967   0.850   1.575  16.321  0.5156  0.6354  0.1793
  605TMC3     O 8968   0.907   1.665  16.262 -0.0345 -0.0840 -0.0508
  605TMC3     H 8969   0.999   1.710  16.467  1.3553 -2.1858  2.7187
  605TMC3    H1 8970   0.613   1.529  16.458 -0.6096  0.6635  0.4341
  605TMC3    H2 8971   0.708   1.783  16.780 -1.4592 -0.8004 -0.4703
  605TMC3    C7 8972   0.512   1.719  16.614  0.5878  0.3883 -0.5744
  605TMC3    C8 8973   0.973   1.804  16.710  0.3388  0.2006  0.6812
  605TMC3    O1 8974   0.510   1.837  16.608  0.4095  0.4157  0.3320
  605TMC3    O2 8975   1.080   1.820  16.659  0.4120  0.0552  0.0043
  606TMC3    C1 8976   2.505   0.078  17.077  0.0710  0.3313 -0.1222
  606TMC3    C2 8977   2.533   0.174  17.175 -0.3069  0.0516  0.0965
  606TMC3    C3 8978   2.503   0.144  17.302  0.3167  0.0650 -0.1762
  606TMC3    C4 8979   2.450   4.681  17.116  0.3554  0.3834  0.0430
  606TMC3    C5 8980   2.430   4.659  17.248  0.4953 -0.2554 -0.6408
  606TMC3    C6 8981   2.443   0.031  17.338 -0.1177  0.0060 -0.3322
  606TMC3     C 8982   2.503   0.111  16.937  0.4456  0.0275  0.2771
  606TMC3     O 8983   2.469   0.226  16.909 -0.2543  0.0596 -0.2988
  606TMC3     H 8984   2.595   0.261  17.155 -1.5619  0.7022 -0.9246
  606TMC3    H1 8985   2.432   4.603  17.043  1.5473  1.3266 -1.2580
  606TMC3    H2 8986   2.434   0.013  17.445 -2.4427  0.0879 -0.5123
  606TMC3    C7 8987   2.371   4.533  17.285 -0.4865 -0.0351 -0.1674
  606TMC3    C8 8988   2.541   0.241  17.404 -0.4838  1.2548  0.2648
  606TMC3    O1 8989   2.321   4.476  17.188  0.0532 -0.6343 -0.0332
  606TMC3    O2 8990   2.624   0.325  17.377  0.9475 -0.1671  0.2950
  607MPD2     C 8991   0.111   2.993  11.841  0.0363  0.0047  0.6313
  607MPD2    C1 8992   0.098   3.055  11.968 -1.1098  0.2882  0.4320
  607MPD2    C2 8993   4.722   3.013  12.063  0.8151 -0.1381  0.9398
  607MPD2    C3 8994   4.636   2.910  12.032  0.6075 -0.3657 -0.8331
  607MPD2    C4 8995   4.646   2.855  11.899  0.1945 -0.4885 -0.1172
  607MPD2    C5 8996   0.010   2.906  11.809  0.4739  0.6503  0.8140
  607MPD2     H 8997   4.709   3.055  12.161  2.3550  0.7880  0.7375
  607MPD2    H1 8998   4.579   2.776  11.868 -1.3770  1.3550 -1.3802
  607MPD2    H2 8999   0.186   3.016  11.767  0.4413  0.7073  1.2538
  607MPD2    H3 9000   0.002   2.866  11.708  0.5670  2.4665  0.0937
  607MPD2     N 9001   4.544   2.868  12.127 -0.4799 -0.2137 -0.5545
  607MPD2    H5 9002   4.560   2.904  12.220 -1.5232 -0.3308 -0.3301
  607MPD2    N1 9003   0.187   3.159  12.009 -0.5653  0.0374 -0.2873
  607MPD2    H7 9004   0.195   3.175  12.109 -1.2381 -5.2557  0.6127
  608TMC3    C1 9005   0.304   3.357  12.004  0.4160  0.1821  0.3873
  608TMC3    C2 9006   0.239   3.393  12.112 -0.0799 -0.0776  0.7553
  608TMC3    C3 9007   0.193   3.520  12.134  0.1888  0.5987  0.0251
  608TMC3    C4 9008   0.346   3.456  11.917  0.5697  0.3657  0.1518
  608TMC3    C5 9009   0.314   3.585  11.948 -0.9173 -0.5712  0.9131
  608TMC3    C6 9010   0.233   3.621  12.049  0.8882  0.3447 -0.0833
  608TMC3     C 9011   0.260   3.240  11.926  0.1344 -0.6948  0.0297
  608TMC3     O 9012   0.276   3.226  11.804 -0.2177  0.1443  0.5580
  608TMC3     H 9013   0.211   3.323  12.191 -2.1328  0.1357  0.2260
  608TMC3    H1 9014   0.416   3.432  11.838 -2.0088 -3.2504 -1.0713
  608TMC3    H2 9015   0.177   3.714  12.053  1.9172  0.9656 -0.1952
  608TMC3    C7 9016   0.383   3.688  11.874  0.4894 -0.2676 -0.0998
  608TMC3    C8 9017   0.077   3.543  12.204  0.3431  0.3548  0.2991
  608TMC3    O1 9018   0.447   3.657  11.774  0.3238  0.1424 -0.0340
  608TMC3    O2 9019   0.046   3.657  12.232 -0.1077 -0.2692  0.3932
  609TMC3    C1 9020   3.310   1.880   9.006  0.1274 -0.4177 -0.6583
  609TMC3    C2 9021   3.356   1.879   8.877 -0.0187  0.2729 -0.7664
  609TMC3    C3 9022   3.417   1.767   8.825 -0.1735  0.3707 -0.5364
  609TMC3    C4 9023   3.322   1.766   9.083  0.0537  0.7562 -0.2596
  609TMC3    C5 9024   3.381   1.654   9.022  0.2329  0.4902 -0.1498
  609TMC3    C6 9025   3.430   1.652   8.896 -0.4712  0.9231 -0.2828
  609TMC3     C 9026   3.258   1.998   9.074  0.2722 -0.2680  0.3874
  609TMC3     O 9027   3.175   1.971   9.156 -0.4783 -0.5861  0.4714
  609TMC3     H 9028   3.354   1.966   8.812  1.9254  0.8822 -0.0430
  609TMC3    H1 9029   3.272   1.752   9.179  2.3153  1.5541  1.0394
  609TMC3    H2 9030   3.482   1.564   8.860 -0.2940  1.4997 -1.4510
  609TMC3    C7 9031   3.399   1.535   9.112  0.9129 -0.5073  0.7214
  609TMC3    C8 9032   3.458   1.775   8.689 -0.2586  1.0185  0.1604
  609TMC3    O1 9033   3.414   1.569   9.228 -0.4886 -0.6330 -0.5232
  609TMC3    O2 9034   3.492   1.882   8.641  0.1868  0.1875 -0.2423
  610TMC3    C1 9035   0.106   3.079  12.672 -0.4742 -0.1923  0.5262
  610TMC3    C2 9036   0.115   3.207  12.622  0.7152  0.2144 -0.1382
  610TMC3    C3 9037   0.241   3.250  12.568 -0.2510  0.5065 -0.2561
  610TMC3    C4 9038   0.213   3.002  12.700  0.1613  0.2483  0.2047
  610TMC3    C5 9039   0.337   3.069  12.674  0.2841  0.1796 -0.8295
  610TMC3    C6 9040   0.353   3.180  12.602 -0.3175  0.6057  0.7328
  610TMC3     C 9041   4.702   3.024  12.718 -0.1366  0.4528  0.1004
  610TMC3     O 9042   4.710   2.907  12.744  0.3293  0.1932  0.2405
  610TMC3     H 9043   0.030   3.269  12.595  0.3985  0.3353  1.1333
  610TMC3    H1 9044   0.203   2.907  12.752 -0.9580  0.6239  0.6849
  610TMC3    H2 9045   0.453   3.223  12.598 -0.8932  1.6308 -2.5026
  610TMC3    C7 9046   0.454   3.020  12.743  0.0279  0.8249 -0.1000
  610TMC3    C8 9047   0.254   3.383  12.504 -0.2396 -0.5118  0.0522
  610TMC3    O1 9048   0.563   3.046  12.696 -0.3271 -0.5346 -0.1609
  610TMC3    O2 9049   0.170   3.469  12.529 -0.2098  0.5968 -0.1744
  611MPD2     C 9050   0.018   3.260  10.415  0.7928  0.4989  0.4916
  611MPD2    C1 9051   4.648   3.361  10.416 -0.7633  0.0030  0.5170
  611MPD2    C2 9052   4.690   3.499  10.438 -0.1032 -0.3315 -0.0007
  611MPD2    C3 9053   0.102   3.529  10.447  0.8570  0.4186  0.6230
  611MPD2    C4 9054   0.193   3.419  10.435  0.4406  0.3440  0.3373
  611MPD2    C5 9055   0.151   3.293  10.427  0.6343 -0.0410 -0.1504
  611MPD2     H 9056   4.616   3.578  10.430 -0.1856 -0.4968 -0.9188
  611MPD2    H1 9057   0.300   3.434  10.436  0.5911 -0.7901  0.9748
  611MPD2    H2 9058   4.716   3.159  10.387  1.0630  0.7701 -0.7689
  611MPD2    H3 9059   0.226   3.215  10.414  1.3526  0.5006  0.6839
  611MPD2     N 9060   0.145   3.663  10.459 -0.1857  0.2785  0.5742
  611MPD2    H5 9061   0.247   3.668  10.462 -0.2248  0.3285  1.7683
  611MPD2    N1 9062   4.510   3.325  10.408  0.1241 -0.6995 -0.4323
  611MPD2    H7 9063   4.483   3.228  10.395 -0.4236 -0.4866 -0.9045
  612TMC3    C1 9064   0.141   3.902  10.471  0.2580 -0.5282 -0.1843
  612TMC3    C2 9065   0.262   3.901  10.533 -0.1948 -0.0927 -0.0820
  612TMC3    C3 9066   0.349   4.004  10.500 -0.3605 -0.7243  0.2017
  612TMC3    C4 9067   0.097   4.004  10.395  0.9117 -0.1306 -0.3106
  612TMC3    C5 9068   0.173   4.115  10.392 -0.2609  0.1859 -0.0310
  612TMC3    C6 9069   0.305   4.109  10.430  0.0862  0.1555  0.1516
  612TMC3     C 9070   0.063   3.772  10.479 -0.4698 -0.2540  0.2298
  612TMC3     O 9071   4.664   3.783  10.478 -0.2919 -0.1100  0.4682
  612TMC3     H 9072   0.290   3.818  10.597  1.0520  0.6364  0.3192
  612TMC3    H1 9073   4.722   3.994  10.350  0.1330  1.1387  1.1194
  612TMC3    H2 9074   0.358   4.203  10.430  0.8447 -0.2704 -0.6879
  612TMC3    C7 9075   0.129   4.203  10.286 -0.1400 -0.1399 -0.2843
  612TMC3    C8 9076   0.469   4.021  10.578  1.4021 -0.1588  0.2674
  612TMC3    O1 9077   0.009   4.219  10.273 -0.4082  0.6629 -0.3299
  612TMC3    O2 9078   0.530   4.124  10.590  0.1810 -0.5870  0.0690
  613MPD2     C 9079   3.914   4.721  16.612 -0.8281 -0.2007  1.1256
  613MPD2    C1 9080   3.860   0.095  16.529 -0.1034 -0.4943 -0.1070
  613MPD2    C2 9081   3.730   0.077  16.481  0.1143 -0.5551 -0.1123
  613MPD2    C3 9082   3.652   4.704  16.544  0.3899  0.5381 -0.1419
  613MPD2    C4 9083   3.710   4.613  16.627 -0.1756  0.1655 -0.6316
  613MPD2    C5 9084   3.843   4.619  16.663 -0.2302  0.2703  0.6000
  613MPD2     H 9085   3.674   0.143  16.417  1.6474  1.2437  0.4182
  613MPD2    H1 9086   3.653   4.532  16.671 -0.7601  0.6453 -0.5141
  613MPD2    H2 9087   4.019   0.011  16.635 -0.6022 -0.1092  0.0216
  613MPD2    H3 9088   3.889   4.544  16.727 -0.5625 -1.1049 -0.7611
  613MPD2     N 9089   3.513   4.685  16.523 -0.5478  0.0764  0.1123
  613MPD2    H5 9090   3.475   4.601  16.566 -0.3031  1.1318  2.4196
  613MPD2    N1 9091   3.941   0.189  16.469 -0.1380  0.2468 -0.0148
  613MPD2    H7 9092   4.040   0.180  16.489 -0.2910  1.0163  1.1217
  614TMC3    C1 9093   4.009   0.385  16.354  0.1071 -0.3701  0.2853
  614TMC3    C2 9094   4.079   0.296  16.276 -0.2606  0.1202  0.2797
  614TMC3    C3 9095   4.063   0.299  16.142  0.5514 -0.1414 -0.3362
  614TMC3    C4 9096   3.950   0.492  16.292  0.3882 -0.2521 -0.7185
  614TMC3    C5 9097   3.943   0.502  16.156 -0.0084 -0.3851  0.2422
  614TMC3    C6 9098   3.988   0.397  16.078  0.0991 -0.0232  0.1533
  614TMC3     C 9099   3.898   0.306  16.414  0.1732  0.7889  0.3633
  614TMC3     O 9100   3.787   0.343  16.382  0.0955  0.1672  0.2098
  614TMC3     H 9101   4.145   0.227  16.329  0.5986  0.1980 -0.6884
  614TMC3    H1 9102   3.912   0.572  16.355  0.9388 -1.0549  0.6377
  614TMC3    H2 9103   3.979   0.399  15.970  0.8500  0.1997  0.0972
  614TMC3    C7 9104   3.850   0.602  16.100  0.2945  0.5134 -0.0811
  614TMC3    C8 9105   4.029   0.169  16.091 -0.1934 -0.1313 -0.4574
  614TMC3    O1 9106   3.846   0.706  16.164  0.5450 -0.3406  0.1458
  614TMC3    O2 9107   3.935   0.160  16.013  0.3118  0.3785 -0.0181
  615MPD2     C 9108   2.909   1.677  16.024  0.0845  0.5198  0.3979
  615MPD2    C1 9109   2.825   1.787  16.014  0.5024  0.1541 -0.2057
  615MPD2    C2 9110   2.736   1.793  15.913  1.0303  0.3033 -0.4610
  615MPD2    C3 9111   2.735   1.691  15.817  0.0984  0.4983  0.4896
  615MPD2    C4 9112   2.809   1.577  15.828 -0.7944 -0.3545 -0.4456
  615MPD2    C5 9113   2.894   1.575  15.936  0.5649 -0.2163 -0.2794
  615MPD2     H 9114   2.668   1.876  15.897 -0.1905 -0.1674  2.3156
  615MPD2    H1 9115   2.806   1.486  15.769  1.4159 -0.1218 -0.9358
  615MPD2    H2 9116   2.970   1.653  16.111  2.1099  1.3222 -0.7970
  615MPD2    H3 9117   2.960   1.489  15.944 -1.1206 -1.3594  1.4594
  615MPD2     N 9118   2.630   1.691  15.718  0.4232 -0.1127 -0.2882
  615MPD2    H5 9119   2.572   1.774  15.716  1.7314  0.8254  0.5490
  615MPD2    N1 9120   2.838   1.892  16.115  0.1011 -0.2923 -0.5445
  615MPD2    H7 9121   2.770   1.967  16.104 -0.8506 -1.0377  0.2654
  616TMC3    C1 9122   2.878   2.003  16.322 -0.4711 -1.2784  0.1731
  616TMC3    C2 9123   2.982   2.076  16.371  0.8017 -0.7486  0.2374
  616TMC3    C3 9124   2.953   2.176  16.461  0.0235  0.4879  0.0784
  616TMC3    C4 9125   2.749   2.020  16.370  0.4240 -0.8997  0.2033
  616TMC3    C5 9126   2.731   2.096  16.481  0.1486 -0.7709  0.4365
  616TMC3    C6 9127   2.831   2.177  16.526 -0.0343 -0.2578 -0.5798
  616TMC3     C 9128   2.914   1.897  16.235  0.4227 -0.3090  0.9052
  616TMC3     O 9129   3.004   1.823  16.283 -0.0961  0.5473 -0.3440
  616TMC3     H 9130   3.078   2.041  16.334  1.4642  1.3292 -0.0164
  616TMC3    H1 9131   2.666   1.972  16.321  1.1069 -2.9002  1.0409
  616TMC3    H2 9132   2.819   2.236  16.617  1.9768 -1.2989  0.3559
  616TMC3    C7 9133   2.601   2.103  16.557 -0.0228  0.1191 -0.6018
  616TMC3    C8 9134   3.050   2.276  16.502 -0.1250 -0.4525  0.0572
  616TMC3    O1 9135   2.584   2.204  16.622 -0.2468  0.0746 -0.1273
  616TMC3    O2 9136   3.027   2.334  16.611  0.0505 -0.0210 -0.1215
  617MPD2     C 9137   0.895   0.588  14.024 -0.1186 -0.1577 -0.5324
  617MPD2    C1 9138   0.918   0.495  14.119 -0.4222 -0.1763 -0.2837
  617MPD2    C2 9139   0.826   0.388  14.126 -0.4449 -0.4468 -0.3790
  617MPD2    C3 9140   0.719   0.378  14.047 -0.8263  0.3332  0.0648
  617MPD2    C4 9141   0.695   0.468  13.942 -0.1389  0.1116  0.1359
  617MPD2    C5 9142   0.786   0.580  13.944 -0.9054 -0.1821 -0.9262
  617MPD2     H 9143   0.847   0.307  14.195 -1.7836 -1.0263 -0.6399
  617MPD2    H1 9144   0.607   0.462  13.880 -0.8225  0.1057  1.1109
  617MPD2    H2 9145   0.961   0.673  14.018  0.4551 -0.4940  1.0067
  617MPD2    H3 9146   0.776   0.655  13.867 -1.8070 -0.1161 -0.7461
  617MPD2     N 9147   0.630   0.266  14.051  0.2862 -0.6620  0.7183
  617MPD2    H5 9148   0.553   0.259  13.984  1.3221  0.7918 -0.6194
  617MPD2    N1 9149   1.039   0.497  14.195  0.3780  0.6019 -0.8582
  617MPD2    H7 9150   1.093   0.583  14.193 -0.3986  1.0650 -1.8640
  618TMC3    C1 9151   1.239   0.403  14.285 -0.5212  0.0415  0.0858
  618TMC3    C2 9152   1.307   0.291  14.313  0.1898 -0.0654 -0.3048
  618TMC3    C3 9153   1.441   0.294  14.289 -0.1013  0.2874 -0.3176
  618TMC3    C4 9154   1.299   0.519  14.256 -0.4033  0.3225  0.4176
  618TMC3    C5 9155   1.436   0.527  14.257  0.7963 -0.6611  0.3034
  618TMC3    C6 9156   1.507   0.413  14.272 -0.4434  0.0485 -0.0278
  618TMC3     C 9157   1.098   0.387  14.247  0.3779 -0.4974 -0.0315
  618TMC3     O 9158   1.055   0.273  14.263  0.9176  0.3942  0.0210
  618TMC3     H 9159   1.256   0.196  14.326 -1.2408  0.6699 -0.4906
  618TMC3    H1 9160   1.256   0.617  14.241  2.5437  1.5008 -0.3568
  618TMC3    H2 9161   1.615   0.412  14.270 -0.3815 -1.8675  4.3109
  618TMC3    C7 9162   1.483   0.599  14.137 -0.4803  0.3936  0.0275
  618TMC3    C8 9163   1.472   0.192  14.184 -0.0303  0.1902 -0.1431
  618TMC3    O1 9164   1.406   0.606  14.040  0.0104  0.6800  0.3916
  618TMC3    O2 9165   1.378   0.126  14.139 -0.3347 -0.4743 -0.3055
  619MPD2     C 9166   2.622   1.765  13.231 -0.0500 -0.5741  0.3344
  619MPD2    C1 9167   2.520   1.831  13.165  0.6531  0.4675 -0.3870
  619MPD2    C2 9168   2.391   1.813  13.217  0.4636  0.5393  0.1872
  619MPD2    C3 9169   2.364   1.746  13.334  0.2075 -0.2811  0.1316
  619MPD2    C4 9170   2.472   1.689  13.403  0.6704  0.7889  1.2594
  619MPD2    C5 9171   2.591   1.711  13.352  0.1402 -0.2130 -0.4670
  619MPD2     H 9172   2.318   1.881  13.175 -1.2382  0.1771  2.5267
  619MPD2    H1 9173   2.465   1.641  13.500  0.0299 -1.4533  0.1030
  619MPD2    H2 9174   2.725   1.770  13.199  0.0671 -0.0610  0.7969
  619MPD2    H3 9175   2.668   1.662  13.409 -0.3013 -0.4609 -0.0793
  619MPD2     N 9176   2.236   1.723  13.386  0.0001 -0.5538  0.2135
  619MPD2    H5 9177   2.229   1.678  13.477 -1.2342 -2.5028 -0.8468
  619MPD2    N1 9178   2.544   1.923  13.065  0.0466  0.2895 -0.0796
  619MPD2    H7 9179   2.456   1.968  13.042 -0.8550 -1.1904  0.4681
  620TMC3    C1 9180   2.661   2.075  12.927 -1.0575 -0.2028 -0.0149
  620TMC3    C2 9181   2.543   2.134  12.906  0.0633  0.5869  0.4425
  620TMC3    C3 9182   2.518   2.270  12.918 -0.1143  0.7709 -0.4425
  620TMC3    C4 9183   2.769   2.149  12.954 -0.4884  0.3196  0.3181
  620TMC3    C5 9184   2.743   2.279  12.972 -0.0892 -0.0327  0.4223
  620TMC3    C6 9185   2.626   2.346  12.945  0.6257 -0.9406 -0.2540
  620TMC3     C 9186   2.666   1.950  13.001 -0.6524 -0.1077 -0.6865
  620TMC3     O 9187   2.774   1.904  13.021 -0.2357 -0.1613 -1.1878
  620TMC3     H 9188   2.459   2.072  12.879  1.4280 -0.9408 -0.3490
  620TMC3    H1 9189   2.863   2.106  12.988 -1.1604 -0.9826  0.5424
  620TMC3    H2 9190   2.620   2.452  12.966 -1.5979 -0.9047 -1.0037
  620TMC3    C7 9191   2.822   2.335  13.085 -0.1420 -0.4556  0.4303
  620TMC3    C8 9192   2.416   2.288  13.019  0.1966 -0.1301  0.7293
  620TMC3    O1 9193   2.940   2.312  13.091 -0.2104 -0.3649  0.3517
  620TMC3    O2 9194   2.457   2.336  13.126 -0.6280  0.5672 -0.0974
  621MPD2     C 9195   2.422   2.035  10.092  0.3657  0.0415  0.6135
  621MPD2    C1 9196   2.519   1.937  10.066 -0.1805  0.3755 -0.9284
  621MPD2    C2 9197   2.584   1.933   9.950  0.3219  0.2427  0.0527
  621MPD2    C3 9198   2.556   2.028   9.853  0.3456  0.3011 -0.1578
  621MPD2    C4 9199   2.457   2.114   9.873 -0.1576  0.5118 -0.1033
  621MPD2    C5 9200   2.386   2.119   9.987 -0.2342 -0.2352  0.3743
  621MPD2     H 9201   2.650   1.850   9.930 -1.6534 -1.2185 -0.3853
  621MPD2    H1 9202   2.422   2.185   9.799  0.6868 -0.8944 -1.8245
  621MPD2    H2 9203   2.362   2.037  10.182  0.8261 -3.1853  0.9907
  621MPD2    H3 9204   2.313   2.198   9.995  1.5742  1.3383  1.2896
  621MPD2     N 9205   2.633   2.022   9.735 -0.1721 -0.0463 -0.1574
  621MPD2    H5 9206   2.713   1.961   9.744 -1.3207 -1.6378 -0.7870
  621MPD2    N1 9207   2.549   1.825  10.146  0.7632  0.4359  0.0555
  621MPD2    H7 9208   2.610   1.754  10.108  3.2227  2.7563 -0.3124
  622TMC3    C1 9209   2.488   1.652  10.280  0.7555 -0.5809 -0.4321
  622TMC3    C2 9210   2.431   1.612  10.397 -0.9992 -0.3961  0.4860
  622TMC3    C3 9211   2.363   1.493  10.399 -0.0887  0.0292 -0.3107
  622TMC3    C4 9212   2.474   1.574  10.168  0.1043 -0.3290 -0.2868
  622TMC3    C5 9213   2.410   1.452  10.181 -0.0299 -0.3824  0.1733
  622TMC3    C6 9214   2.365   1.401  10.298  0.5065 -0.2670 -0.0909
  622TMC3     C 9215   2.487   1.795  10.267  0.0605 -0.2143  0.2819
  622TMC3     O 9216   2.413   1.860  10.341  0.3731 -0.6264 -0.5477
  622TMC3     H 9217   2.437   1.670  10.488 -1.9602  1.0188 -0.3665
  622TMC3    H1 9218   2.513   1.603  10.071  1.3220 -0.8621  0.0433
  622TMC3    H2 9219   2.295   1.318  10.292  0.1558 -0.1518  2.7075
  622TMC3    C7 9220   2.390   1.366  10.064 -0.2268  0.6305 -0.2257
  622TMC3    C8 9221   2.225   1.518  10.433 -0.2868  0.3445  0.6019
  622TMC3    O1 9222   2.412   1.244  10.078  0.1047  0.5679  0.0330
  622TMC3    O2 9223   2.145   1.431  10.461 -0.2182 -0.1440  0.0164
  623MPD2     C 9224   1.314   1.457  16.210 -0.2393  0.3010  0.1515
  623MPD2    C1 9225   1.323   1.585  16.273  0.1462 -0.3159  0.2429
  623MPD2    C2 9226   1.401   1.599  16.379 -0.1272  0.5378 -0.0457
  623MPD2    C3 9227   1.457   1.494  16.435 -0.3780  0.0095  0.2285
  623MPD2    C4 9228   1.445   1.362  16.386 -0.0119  0.5841 -0.3132
  623MPD2    C5 9229   1.365   1.344  16.279 -0.2443  0.3090  0.1418
  623MPD2     H 9230   1.409   1.699  16.421  2.5072 -0.4186  1.6850
  623MPD2    H1 9231   1.491   1.274  16.428 -2.6441 -2.2757 -3.3659
  623MPD2    H2 9232   1.257   1.432  16.121  1.1598  0.6009 -0.8297
  623MPD2    H3 9233   1.358   1.244  16.238 -3.5421 -0.3524  2.2794
  623MPD2     N 9234   1.524   1.525  16.551 -0.0233 -0.6208 -0.3207
  623MPD2    H5 9235   1.534   1.622  16.579 -0.3407 -0.8366  0.5129
  623MPD2    N1 9236   1.266   1.701  16.214  0.0344  0.0607  0.4119
  623MPD2    H7 9237   1.295   1.791  16.252  3.2605 -0.0691 -1.7116
  624TMC3    C1 9238   1.796   1.499  16.924 -0.0708 -0.3532 -0.2236
  624TMC3    C2 9239   1.732   1.606  16.977 -0.1609  0.8939  0.5837
  624TMC3    C3 9240   1.623   1.658  16.916 -0.4355 -0.5536 -0.0127
  624TMC3    C4 9241   1.755   1.447  16.809  0.2163  0.4095 -0.3059
  624TMC3    C5 9242   1.638   1.489  16.755 -0.5727 -0.1335 -0.2067
  624TMC3    C6 9243   1.577   1.604  16.806  0.6390  0.1256  0.3963
  624TMC3     C 9244   1.943   1.494  16.951  0.3903  0.4461  0.8182
  624TMC3     O 9245   1.983   1.573  17.036 -0.0136 -0.7599  0.1738
  624TMC3     H 9246   1.769   1.633  17.076  0.6842  0.8607  0.2758
  624TMC3    H1 9247   1.810   1.370  16.756  1.0181 -1.1541  2.8140
  624TMC3    H2 9248   1.478   1.620  16.764  0.1911 -0.5323  1.2125
  624TMC3    C7 9249   1.588   1.434  16.629  0.0578  0.0627  0.2205
  624TMC3    C8 9250   1.529   1.704  17.019  0.1301  0.1078  0.0723
  624TMC3    O1 9251   1.624   1.319  16.616  0.4468 -0.2727 -0.4140
  624TMC3    O2 9252   1.550   1.668  17.133 -0.7991  0.3619 -0.1799
  625MPD2     C 9253   2.171   2.377   0.549  0.2631  0.8995  0.2588
  625MPD2    C1 9254   2.231   2.496   0.580 -0.7586 -0.0392 -0.3462
  625MPD2    C2 9255   2.353   2.490   0.647 -0.6923  0.5183  0.1758
  625MPD2    C3 9256   2.409   2.363   0.675 -0.3348  0.4929  0.4384
  625MPD2    C4 9257   2.343   2.244   0.656  0.2774 -0.1292 -0.3004
  625MPD2    C5 9258   2.227   2.252   0.581 -0.1503 -0.7404  0.4461
  625MPD2     H 9259   2.412   2.580   0.651 -0.2486  0.1895  0.9842
  625MPD2    H1 9260   2.390   2.152   0.686 -0.2531  0.1812  1.4788
  625MPD2    H2 9261   2.079   2.384   0.491 -1.2765 -1.8256  2.3439
  625MPD2    H3 9262   2.175   2.165   0.543  1.4442 -1.3672 -0.2927
  625MPD2     N 9263   2.538   2.374   0.731  0.1738  0.1407 -0.3700
  625MPD2    H5 9264   2.571   2.467   0.755  0.4955  0.2810 -1.3261
  625MPD2    N1 9265   2.180   2.626   0.555  0.3085 -0.3872  0.9255
  625MPD2    H7 9266   2.244   2.703   0.567 -0.2382  0.0134  1.2716
  626TMC3    C1 9267   2.030   2.809   0.494 -0.0723  0.0827 -0.2255
  626TMC3    C2 9268   1.931   2.849   0.414 -0.4672  0.0973 -0.0842
  626TMC3    C3 9269   1.893   2.980   0.431 -0.2392  0.1202  0.0870
  626TMC3    C4 9270   2.088   2.895   0.580 -0.9272 -0.7789  0.2386
  626TMC3    C5 9271   2.028   3.015   0.614  1.0033  0.1446 -0.1674
  626TMC3    C6 9272   1.939   3.066   0.531  0.5179 -0.0228 -0.1112
  626TMC3     C 9273   2.064   2.661   0.495  0.3522  0.0966  0.1071
  626TMC3     O 9274   1.977   2.579   0.478  0.0353  0.1799  0.0829
  626TMC3     H 9275   1.898   2.792   0.328  0.6784  1.1268 -1.2020
  626TMC3    H1 9276   2.174   2.867   0.639 -1.0650  0.1887  0.9091
  626TMC3    H2 9277   1.891   3.160   0.556  0.9839  0.4190 -0.8624
  626TMC3    C7 9278   2.089   3.102   0.714  0.7971 -0.2396  0.3739
  626TMC3    C8 9279   1.826   3.050   0.326 -0.2783 -0.4716  0.3738
  626TMC3    O1 9280   2.195   3.070   0.763 -0.0857 -0.7928 -0.0489
  626TMC3    O2 9281   1.820   3.175   0.323  0.2561  0.0032 -0.1236
  627MPD2     C 9282   0.508   3.609  14.441 -0.7355 -0.2367 -0.3784
  627MPD2    C1 9283   0.584   3.553  14.535 -0.0629 -0.0697  0.7232
  627MPD2    C2 9284   0.594   3.417  14.546 -0.3899  0.9769  0.0942
  627MPD2    C3 9285   0.533   3.334  14.452  0.3612 -0.7913  0.7178
  627MPD2    C4 9286   0.471   3.391  14.341  0.5809 -0.4814 -0.2215
  627MPD2    C5 9287   0.458   3.532  14.339  0.2139 -0.6818 -0.6990
  627MPD2     H 9288   0.657   3.378  14.625 -1.0702  1.4607  0.8670
  627MPD2    H1 9289   0.434   3.338  14.254 -0.5307 -0.1496  0.0464
  627MPD2    H2 9290   0.493   3.715  14.431 -0.1551 -0.0203  0.9221
  627MPD2    H3 9291   0.430   3.579  14.245 -2.1865 -1.5556 -0.4216
  627MPD2     N 9292   0.569   3.201  14.452  0.2719  1.4170  0.3020
  627MPD2    H5 9293   0.632   3.168  14.524 -1.7787 -0.0856  1.3949
  627MPD2    N1 9294   0.675   3.627  14.614 -0.4133  0.3433  0.2278
  627MPD2    H7 9295   0.751   3.576  14.658  0.6057  1.0022 -0.7671
  628TMC3    C1 9296   0.788   3.819  14.689 -0.5458 -0.2270 -0.1539
  628TMC3    C2 9297   0.861   3.752  14.776 -0.0167 -0.1486  0.4269
  628TMC3    C3 9298   0.964   3.822  14.838  0.3799  0.3529 -0.2293
  628TMC3    C4 9299   0.804   3.947  14.655 -0.1225  0.1043 -0.5343
  628TMC3    C5 9300   0.898   4.016  14.716  0.1721 -0.3742  0.3703
  628TMC3    C6 9301   0.972   3.955  14.811  0.9334  0.6010 -0.3400
  628TMC3     C 9302   0.672   3.763  14.622 -0.1541 -0.2598  0.5694
  628TMC3     O 9303   0.586   3.850  14.590 -0.7298  0.4371  0.0846
  628TMC3     H 9304   0.825   3.655  14.809 -1.6538  0.0908 -0.6350
  628TMC3    H1 9305   0.742   4.003  14.585  2.3653  0.2519 -2.6172
  628TMC3    H2 9306   1.060   4.002  14.852  1.6251  0.4194 -1.6258
  628TMC3    C7 9307   0.904   4.161  14.713  0.1130 -0.2579 -0.4172
  628TMC3    C8 9308   1.006   3.764  14.961  0.1221 -0.2328 -0.4067
  628TMC3    O1 9309   0.972   4.216  14.796  0.0022 -0.6447  0.3346
  628TMC3    O2 9310   1.032   3.646  14.950 -0.2026 -0.9111  0.4669
  629MPD2     C 9311   3.476   2.537  16.424 -0.5552  0.1743  0.3252
  629MPD2    C1 9312   3.485   2.429  16.346 -0.6935 -0.0672 -0.4518
  629MPD2    C2 9313   3.377   2.342  16.343  0.0527 -0.2787 -0.1079
  629MPD2    C3 9314   3.274   2.360  16.427 -0.2268 -0.2595  0.0096
  629MPD2    C4 9315   3.267   2.472  16.513  0.0039  0.8393 -0.3864
  629MPD2    C5 9316   3.366   2.557  16.497  0.3420 -0.4007 -0.0592
  629MPD2     H 9317   3.363   2.262  16.271 -1.1782  0.3542 -0.5572
  629MPD2    H1 9318   3.186   2.500  16.578  0.5022 -0.2338  0.7069
  629MPD2    H2 9319   3.554   2.612  16.432  0.3647 -0.7953  0.4478
  629MPD2    H3 9320   3.362   2.638  16.569 -1.3071  0.0762 -0.6801
  629MPD2     N 9321   3.163   2.275  16.421 -0.4417 -0.4483  0.0614
  629MPD2    H5 9322   3.161   2.197  16.355 -0.0483  0.3059 -0.8404
  629MPD2    N1 9323   3.601   2.415  16.263 -0.0871 -0.6973 -0.3684
  629MPD2    H7 9324   3.677   2.482  16.270 -0.0762 -0.5159 -2.0800
  630TMC3    C1 9325   3.758   2.299  16.130 -0.9774  0.6131  0.6039
  630TMC3    C2 9326   3.826   2.417  16.108 -0.2201  0.2280 -0.4077
  630TMC3    C3 9327   3.963   2.401  16.098 -0.4296 -0.3117  0.0945
  630TMC3    C4 9328   3.817   2.177  16.159  0.4450  0.1565  0.0131
  630TMC3    C5 9329   3.953   2.173  16.153 -0.6119  0.1268 -0.0869
  630TMC3    C6 9330   4.027   2.276  16.107 -0.5203 -0.4155 -0.3127
  630TMC3     C 9331   3.618   2.312  16.178  0.4979 -0.2570 -0.2965
  630TMC3     O 9332   3.539   2.226  16.145  0.0343 -0.1961 -0.0688
  630TMC3     H 9333   3.781   2.514  16.091  0.3509  0.5312 -0.1799
  630TMC3    H1 9334   3.771   2.097  16.215 -0.5428  0.4629 -0.3644
  630TMC3    H2 9335   4.134   2.269  16.120 -0.2841  2.9159 -0.4045
  630TMC3    C7 9336   4.020   2.103  16.266 -0.0816 -0.2303 -0.0022
  630TMC3    C8 9337   4.045   2.514  16.078 -1.0878  0.4306 -0.2281
  630TMC3    O1 9338   4.097   2.162  16.336  0.2194 -0.6752 -0.2469
  630TMC3    O2 9339   4.163   2.501  16.110  0.1320 -0.3107 -0.0589
  631MPD2     C 9340   1.937   2.211  15.745  0.3412  0.0295  0.3663
  631MPD2    C1 9341   2.012   2.268  15.646 -0.2894 -0.0273 -0.5478
  631MPD2    C2 9342   2.091   2.184  15.569 -0.4287  0.1898  0.0807
  631MPD2    C3 9343   2.092   2.053  15.593  0.1750  0.2197 -0.0820
  631MPD2    C4 9344   2.029   1.996  15.706  0.3814 -0.1546 -0.1037
  631MPD2    C5 9345   1.937   2.075  15.769 -0.0179  0.5886  0.2257
  631MPD2     H 9346   2.149   2.224  15.487  0.5878 -0.4554  0.4898
  631MPD2    H1 9347   2.029   1.895  15.744 -1.0250 -0.2934 -0.4770
  631MPD2    H2 9348   1.862   2.272  15.793 -0.6482 -1.6997  1.0340
  631MPD2    H3 9349   1.878   2.048  15.857 -0.4389 -0.7511 -0.4583
  631MPD2     N 9350   2.179   1.974  15.512  0.0659  0.2898  0.4660
  631MPD2    H5 9351   2.233   2.020  15.440 -1.7189  0.5497 -0.6954
  631MPD2    N1 9352   2.011   2.407  15.633 -0.0638 -0.1417 -0.3393
  631MPD2    H7 9353   1.968   2.463  15.705  0.6259 -2.2457  1.7176
  632TMC3    C1 9354   2.026   2.614  15.521 -0.7967  0.3911 -0.4992
  632TMC3    C2 9355   1.928   2.665  15.607  0.1819 -0.5611 -0.0197
  632TMC3    C3 9356   1.893   2.799  15.603 -0.1799  0.7382 -0.1478
  632TMC3    C4 9357   2.080   2.695  15.428 -0.5293 -0.0680  0.0409
  632TMC3    C5 9358   2.030   2.823  15.414 -0.0580 -0.1213  0.4450
  632TMC3    C6 9359   1.943   2.876  15.505 -0.0472 -0.4384  0.5237
  632TMC3     C 9360   2.046   2.475  15.518 -0.1074 -0.7409  0.7438
  632TMC3     O 9361   2.082   2.438  15.406 -0.6099 -0.5618  0.4228
  632TMC3     H 9362   1.871   2.600  15.673  3.1337 -0.5005  2.5948
  632TMC3    H1 9363   2.170   2.666  15.375 -0.5663 -1.0278  0.5105
  632TMC3    H2 9364   1.941   2.985  15.499  1.1999 -0.5445 -1.8859
  632TMC3    C7 9365   2.085   2.918  15.320 -0.0933 -0.4336 -0.8142
  632TMC3    C8 9366   1.795   2.848  15.699 -0.4489  0.4822  0.2803
  632TMC3    O1 9367   2.064   3.041  15.331  0.1095  0.3478  0.6920
  632TMC3    O2 9368   1.751   2.768  15.780  0.1599  0.0781 -0.4280
  633MPD2     C 9369   1.694   0.013  17.387  0.4315 -0.1138 -0.0258
  633MPD2    C1 9370   1.701   4.680  17.263 -0.2137 -0.5259  0.0953
  633MPD2    C2 9371   1.694   4.543  17.253  0.1696 -0.1248  0.1729
  633MPD2    C3 9372   1.692   4.463  17.359  0.2301  0.0505 -0.7838
  633MPD2    C4 9373   1.688   4.518  17.484  0.4474  0.0836  0.0270
  633MPD2    C5 9374   1.681   4.653  17.496 -0.8718  0.3554 -0.1263
  633MPD2     H 9375   1.709   4.496  17.157  1.2259  0.4028  0.0786
  633MPD2    H1 9376   1.691   4.452  17.570  0.6626  1.3669  1.0078
  633MPD2    H2 9377   1.695   0.119  17.408 -0.4315 -0.0961 -0.0459
  633MPD2    H3 9378   1.684   4.708  17.589 -0.4146 -0.0466  0.0927
  633MPD2     N 9379   1.686   4.330  17.352 -0.7396 -0.6061 -0.0581
  633MPD2    H5 9380   1.680   4.275  17.437  3.2661 -0.7550  0.0883
  633MPD2    N1 9381   1.700   0.030  17.138 -0.0214 -0.6544 -0.3740
  633MPD2    H7 9382   1.697   4.696  17.055  0.9825  1.4555 -1.8671
  634TMC3    C1 9383   1.743   0.213  16.994  0.1095  0.2919  0.0690
  634TMC3    C2 9384   1.798   0.128  16.899 -0.1512 -0.3152  0.6787
  634TMC3    C3 9385   1.801   0.180  16.773  0.4022 -0.0681 -0.9466
  634TMC3    C4 9386   1.709   0.344  16.958  0.4452 -0.3390  0.1295
  634TMC3    C5 9387   1.729   0.388  16.827  0.1096  0.3170 -0.4382
  634TMC3    C6 9388   1.780   0.308  16.733 -0.4048 -0.3922  0.0200
  634TMC3     C 9389   1.710   0.164  17.128 -0.6391 -0.1984  0.4336
  634TMC3     O 9390   1.698   0.250  17.212  0.3894  0.1709 -0.2107
  634TMC3     H 9391   1.811   0.022  16.918 -1.5801 -0.6799 -0.3612
  634TMC3    H1 9392   1.641   0.397  17.024 -0.8972 -0.7095 -0.9380
  634TMC3    H2 9393   1.803   0.344  16.633 -1.8311 -0.6575 -0.4048
  634TMC3    C7 9394   1.693   0.521  16.780 -0.3878  0.1165 -0.1222
  634TMC3    C8 9395   1.853   0.091  16.672 -0.2152 -0.7736 -0.2070
  634TMC3    O1 9396   1.708   0.530  16.661 -0.4015 -0.3841  0.1035
  634TMC3    O2 9397   1.891   4.702  16.706 -0.2304 -0.0191  0.3681
  635TMC3    C1 9398   2.280   0.578  17.416  0.9314  0.2383 -0.4692
  635TMC3    C2 9399   2.395   0.590  17.341  0.3481  1.0745 -0.2334
  635TMC3    C3 9400   2.404   0.518  17.228  0.4071 -0.2650 -0.0374
  635TMC3    C4 9401   2.186   0.489  17.372 -0.4509  0.3693 -0.3045
  635TMC3    C5 9402   2.191   0.428  17.256 -0.2464 -0.3179 -0.3635
  635TMC3    C6 9403   2.302   0.441  17.176  0.6045 -0.4369  0.0467
  635TMC3     C 9404   2.213   0.709  17.425  0.7208 -0.0903 -0.1180
  635TMC3     O 9405   2.114   0.722  17.493  0.3889 -0.2027  0.4715
  635TMC3     H 9406   2.480   0.649  17.374 -1.0402  2.6430  0.5118
  635TMC3    H1 9407   2.095   0.481  17.431  0.0492 -0.0052  0.4104
  635TMC3    H2 9408   2.314   0.387  17.083  0.1183  3.3578 -2.2381
  635TMC3    C7 9409   2.145   0.292  17.271 -0.6932  0.4837 -0.1544
  635TMC3    C8 9410   2.493   0.574  17.135  0.3088 -0.0743  0.0107
  635TMC3    O1 9411   2.147   0.253  17.388 -0.1701  0.2248  0.4390
  635TMC3    O2 9412   2.562   0.670  17.172  0.4393  0.2199  0.1179
  636MPD2     C 9413   3.066   0.496  15.815 -0.0994 -0.0478 -0.2658
  636MPD2    C1 9414   3.162   0.541  15.905 -0.5793 -0.2098  0.4270
  636MPD2    C2 9415   3.240   0.440  15.959 -0.1617 -0.3049 -0.4699
  636MPD2    C3 9416   3.224   0.304  15.932 -0.0852 -0.1501 -0.3604
  636MPD2    C4 9417   3.126   0.263  15.843 -0.1504  0.5482 -0.7575
  636MPD2    C5 9418   3.047   0.362  15.787  0.8111  0.6810 -0.5960
  636MPD2     H 9419   3.312   0.473  16.033 -0.8259  0.0430  0.0260
  636MPD2    H1 9420   3.110   0.159  15.816  0.3630  0.2317  0.1409
  636MPD2    H2 9421   3.005   0.570  15.763 -3.5041 -1.5813  1.5130
  636MPD2    H3 9422   2.975   0.343  15.709 -3.2197  0.8559  3.0941
  636MPD2     N 9423   3.299   0.212  16.011  0.4146  0.0224 -0.1238
  636MPD2    H5 9424   3.351   0.253  16.088 -0.8536  1.9122 -0.2772
  636MPD2    N1 9425   3.181   0.674  15.947  1.0190 -0.2836 -0.4591
  636MPD2    H7 9426   3.259   0.691  16.011  1.5158 -0.0498 -1.1289
  637TMC3    C1 9427   3.341   0.001  16.111 -0.0507 -0.1640  0.7408
  637TMC3    C2 9428   3.319   0.040  16.241  0.1969  0.4722  0.4648
  637TMC3    C3 9429   3.373   4.682  16.334 -0.6018 -0.6627 -0.3382
  637TMC3    C4 9430   3.407   4.609  16.074 -0.5558  0.1514  0.1903
  637TMC3    C5 9431   3.476   4.543  16.169  0.1022  0.1836  0.2341
  637TMC3    C6 9432   3.449   4.570  16.302  0.2597 -0.1343 -0.4152
  637TMC3     C 9433   3.297   0.078  15.992  0.1797  0.6969 -0.0825
  637TMC3     O 9434   3.241   0.010  15.908  0.0490  0.8622 -0.0045
  637TMC3     H 9435   3.276   0.136  16.268  1.3515  1.0785  0.1380
  637TMC3    H1 9436   3.417   4.576  15.971 -4.7926 -1.9039  0.4294
  637TMC3    H2 9437   3.491   4.513  16.383 -1.0225  0.0631  0.3798
  637TMC3    C7 9438   3.619   4.561  16.131 -0.1840  0.3694 -1.2434
  637TMC3    C8 9439   3.431   0.034  16.445 -0.1278 -0.6049  0.2064
  637TMC3    O1 9440   3.649   4.637  16.043  0.4715  0.0535 -0.0839
  637TMC3    O2 9441   3.432   0.155  16.430  0.3397  0.0826 -0.2131
  638MPD2     C 9442   2.887   4.403  15.082  0.3087  0.1906 -0.1237
  638MPD2    C1 9443   2.905   4.296  14.995 -0.2082  1.5142 -0.1953
  638MPD2    C2 9444   2.886   4.170  15.037 -0.1445 -0.3650 -0.1493
  638MPD2    C3 9445   2.847   4.150  15.171  0.7833 -0.1013  0.8786
  638MPD2    C4 9446   2.835   4.252  15.255 -0.0785 -0.1738 -0.0599
  638MPD2    C5 9447   2.855   4.378  15.210 -0.8070  0.7240  0.2752
  638MPD2     H 9448   2.894   4.088  14.967 -0.4271  1.3938 -2.2685
  638MPD2    H1 9449   2.800   4.251  15.357  0.6360  0.6547  0.1883
  638MPD2    H2 9450   2.899   4.507  15.055  0.7240 -0.1840 -1.3917
  638MPD2    H3 9451   2.823   4.458  15.276 -2.1391 -0.2202  0.7835
  638MPD2     N 9452   2.825   4.017  15.211  0.1259  0.5347  0.2366
  638MPD2    H5 9453   2.826   3.944  15.141  0.2527 -0.3145  1.1217
  638MPD2    N1 9454   2.921   4.320  14.851 -0.5444  0.6777  0.7679
  638MPD2    H7 9455   2.937   4.415  14.817  2.5949  0.1618  0.8682
  639TMC3    C1 9456   2.800   3.831  15.332 -0.1115  0.1865 -0.4691
  639TMC3    C2 9457   2.688   3.775  15.280  0.7914  0.5942  0.4052
  639TMC3    C3 9458   2.684   3.646  15.250  0.1245 -0.4885  0.0928
  639TMC3    C4 9459   2.925   3.781  15.323 -0.2084 -0.0076  0.0068
  639TMC3    C5 9460   2.917   3.651  15.281  0.1649  0.1094 -0.0782
  639TMC3    C6 9461   2.803   3.584  15.239  0.2396 -0.0976  0.1769
  639TMC3     C 9462   2.794   3.971  15.336  0.3491 -1.0070 -0.1299
  639TMC3     O 9463   2.806   4.027  15.447  0.0367 -0.9110 -0.3203
  639TMC3     H 9464   2.601   3.839  15.284 -0.7064 -1.4872  1.0792
  639TMC3    H1 9465   3.017   3.825  15.358  1.3258  0.4340 -4.5584
  639TMC3    H2 9466   2.815   3.486  15.193 -1.0419  0.8352 -2.1275
  639TMC3    C7 9467   3.045   3.575  15.260 -1.1362 -0.2937  0.0603
  639TMC3    C8 9468   2.596   3.616  15.138 -0.0967  0.3384  0.3012
  639TMC3    O1 9469   3.031   3.463  15.213  0.8420  0.3222 -0.1895
  639TMC3    O2 9470   2.660   3.587  15.038 -0.1147  0.0849  0.0912
  640MPD2     C 9471   3.726   2.495  10.079 -0.2405 -0.5405  0.0555
  640MPD2    C1 9472   3.786   2.558   9.973  1.2208 -0.6581 -0.2304
  640MPD2    C2 9473   3.801   2.696   9.980  0.0589  0.1723  0.2900
  640MPD2    C3 9474   3.757   2.771  10.086 -0.0601  0.4079 -0.1140
  640MPD2    C4 9475   3.690   2.701  10.186 -0.0564  0.1857  0.3507
  640MPD2    C5 9476   3.677   2.565  10.182 -0.1895 -0.2995  0.0436
  640MPD2     H 9477   3.851   2.750   9.900  0.3396 -0.4340  0.0573
  640MPD2    H1 9478   3.649   2.764  10.264 -1.8052  0.2980 -0.6710
  640MPD2    H2 9479   3.709   2.389  10.068  2.0486 -1.1111  1.9886
  640MPD2    H3 9480   3.625   2.511  10.261 -0.0935 -0.3940  0.0416
  640MPD2     N 9481   3.755   2.915  10.097 -0.0475  0.3880  0.2359
  640MPD2    H5 9482   3.721   2.957  10.183 -1.1531  1.7061 -0.8526
  640MPD2    N1 9483   3.835   2.485   9.866 -0.4182 -0.0291 -0.7860
  640MPD2    H7 9484   3.811   2.387   9.869 -2.1461  0.3824 -1.5002
  641TMC3    C1 9485   3.942   2.424   9.671 -0.1480  0.2878 -0.1292
  641TMC3    C2 9486   3.934   2.292   9.713  0.6489  0.5360  1.0637
  641TMC3    C3 9487   3.930   2.189   9.617 -0.1432 -0.5482  0.5834
  641TMC3    C4 9488   3.946   2.453   9.532  0.3321  0.5078 -0.6198
  641TMC3    C5 9489   3.932   2.346   9.449 -0.6909  0.3471  0.4086
  641TMC3    C6 9490   3.924   2.212   9.485  0.3618 -0.1975 -0.6827
  641TMC3     C 9491   3.904   2.528   9.765  0.3180  0.6183 -0.0838
  641TMC3     O 9492   3.914   2.641   9.721  0.5774 -0.5847 -0.4585
  641TMC3     H 9493   3.920   2.271   9.818  1.2826 -2.5366  0.5151
  641TMC3    H1 9494   3.965   2.554   9.496 -1.1298  0.5813 -1.1842
  641TMC3    H2 9495   3.900   2.132   9.415  0.0176 -1.0111  0.3592
  641TMC3    C7 9496   3.914   2.376   9.308 -1.1055 -0.3778  0.1654
  641TMC3    C8 9497   3.933   2.044   9.651 -0.3297 -0.5331  0.0549
  641TMC3    O1 9498   3.892   2.493   9.281  0.4660 -0.1868 -0.3488
  641TMC3    O2 9499   3.907   1.960   9.566  0.1468  0.1245  0.2255
  642TMC3    C1 9500   4.219   3.931  12.948  0.8561 -0.0516  0.2498
  642TMC3    C2 9501   4.317   3.896  13.033 -0.8894  0.2076 -0.1081
  642TMC3    C3 9502   4.357   3.766  13.041 -0.3153  0.0690  0.6179
  642TMC3    C4 9503   4.154   3.845  12.864  0.3200  0.1783 -0.4019
  642TMC3    C5 9504   4.200   3.717  12.870 -0.2032  0.8258  0.0215
  642TMC3    C6 9505   4.301   3.676  12.954 -0.0600 -0.0083  0.5427
  642TMC3     C 9506   4.174   4.064  12.957 -0.1203 -0.0238  1.1230
  642TMC3     O 9507   4.249   4.141  13.020 -0.1953  0.4583  0.1366
  642TMC3     H 9508   4.339   3.961  13.116 -4.8113  1.7828 -0.2931
  642TMC3    H1 9509   4.097   3.882  12.779 -0.1323 -0.8283 -0.5339
  642TMC3    H2 9510   4.332   3.576  12.927 -1.2011  0.1679 -1.4209
  642TMC3    C7 9511   4.135   3.622  12.784 -0.6467  0.4622 -0.5467
  642TMC3    C8 9512   4.412   3.710  13.165 -0.4041  0.3810  0.1503
  642TMC3    O1 9513   4.196   3.521  12.756 -0.0513 -0.0444  0.3406
  642TMC3    O2 9514   4.366   3.600  13.199  0.7373  0.1322  0.3327
  643TMC3    C1 9515   4.017   2.883   0.194 -0.8398 -0.6991  0.2148
  643TMC3    C2 9516   3.899   2.874   0.259  0.7716 -0.3198  0.5831
  643TMC3    C3 9517   3.789   2.834   0.191  0.3397 -0.1765  0.0932
  643TMC3    C4 9518   4.037   2.830   0.069 -0.2670 -0.0765 -0.0344
  643TMC3    C5 9519   3.923   2.794   0.003  0.9096  0.2081  0.6241
  643TMC3    C6 9520   3.804   2.790   0.062  0.3085 -0.0791 -0.2469
  643TMC3     C 9521   4.050   3.028   0.196  0.4592 -0.1229 -0.8355
  643TMC3     O 9522   4.066   3.079   0.086 -0.5293 -0.2814  0.4718
  643TMC3     H 9523   3.892   2.913   0.360  1.5632  1.6067 -0.1116
  643TMC3    H1 9524   4.125   2.852   0.010  0.1377 -2.9287 -0.5103
  643TMC3    H2 9525   3.717   2.777  17.695 -0.1583  1.6037  0.0397
  643TMC3    C7 9526   3.921   2.863  17.572  0.6158  0.2816 -0.2613
  643TMC3    C8 9527   3.679   2.924   0.203  0.5823  0.0704  0.0787
  643TMC3    O1 9528   3.880   2.976  17.566  0.2873 -0.0906  0.1292
  643TMC3    O2 9529   3.620   2.926   0.312 -0.1427  0.6933 -0.1352
  644MPD2     C 9530   4.003   3.279   9.366  0.3683 -0.6233 -0.0160
  644MPD2    C1 9531   3.941   3.285   9.491  0.9271  0.4325  0.3814
  644MPD2    C2 9532   3.862   3.177   9.527 -0.1371 -0.4864  0.3156
  644MPD2    C3 9533   3.842   3.072   9.443  0.5568  0.0529 -0.6387
  644MPD2    C4 9534   3.909   3.067   9.327  0.3642  0.1204  0.4412
  644MPD2    C5 9535   3.986   3.172   9.288  0.2476  0.2773  0.8130
  644MPD2     H 9536   3.811   3.164   9.622  0.9147  1.7220  1.1846
  644MPD2    H1 9537   3.906   2.981   9.262  1.2281  1.5694 -1.5017
  644MPD2    H2 9538   4.083   3.346   9.335 -0.4327 -0.2301 -1.2532
  644MPD2    H3 9539   4.048   3.157   9.200 -1.2348  1.6549 -0.4749
  644MPD2     N 9540   3.766   2.963   9.499  0.0715  0.1000 -0.0347
  644MPD2    H5 9541   3.742   2.969   9.597  0.8230  0.6651  0.1141
  644MPD2    N1 9542   3.972   3.391   9.576  0.3433 -0.1906  0.5628
  644MPD2    H7 9543   4.035   3.460   9.536  0.8633 -1.5565 -1.0268
  645TMC3    C1 9544   3.645   2.764   9.523 -0.1461  0.4892 -0.1939
  645TMC3    C2 9545   3.628   2.796   9.652  0.2253  0.2109 -0.0481
  645TMC3    C3 9546   3.576   2.708   9.741  0.3970 -1.1169  0.2828
  645TMC3    C4 9547   3.618   2.643   9.477 -0.3771  0.4123 -0.1454
  645TMC3    C5 9548   3.560   2.555   9.563  0.4300 -0.0592  0.6050
  645TMC3    C6 9549   3.544   2.583   9.695  0.0997  0.8752  0.4708
  645TMC3     C 9550   3.729   2.847   9.440 -0.1620 -0.5258  0.0844
  645TMC3     O 9551   3.745   2.807   9.330 -0.0639  0.2079 -0.2694
  645TMC3     H 9552   3.643   2.897   9.686 -0.0927  0.0669  0.5167
  645TMC3    H1 9553   3.638   2.611   9.376  1.8421  2.6625 -0.4211
  645TMC3    H2 9554   3.514   2.513   9.772  0.2036 -0.7908 -1.0088
  645TMC3    C7 9555   3.584   2.410   9.537  0.5598  0.3839  0.6026
  645TMC3    C8 9556   3.490   2.766   9.847 -0.4509  0.2526 -0.2349
  645TMC3    O1 9557   3.605   2.343   9.639 -0.7193 -0.6127 -0.2288
  645TMC3    O2 9558   3.502   2.883   9.866  0.5138  0.1059  0.7114
  646MPD2     C 9559   3.009   3.035  14.671  0.6873 -0.5567  1.5603
  646MPD2    C1 9560   2.897   2.991  14.743 -0.5146  0.1207 -0.2664
  646MPD2    C2 9561   2.777   3.010  14.678  0.3720 -0.0570  0.5584
  646MPD2    C3 9562   2.778   3.098  14.571  0.0232  0.3305 -0.1671
  646MPD2    C4 9563   2.892   3.145  14.510 -0.4556  0.8828  0.4835
  646MPD2    C5 9564   3.010   3.097  14.555 -0.5708  0.7838  0.2532
  646MPD2     H 9565   2.689   2.963  14.721  0.3722  1.7606  2.5803
  646MPD2    H1 9566   2.888   3.211  14.425 -1.7542  1.3190  0.8725
  646MPD2    H2 9567   3.105   3.011  14.716  0.3189 -0.3269  2.4865
  646MPD2    H3 9568   3.106   3.127  14.515 -0.2158 -1.7617 -0.7893
  646MPD2     N 9569   2.645   3.138  14.526 -0.4216 -0.0376 -0.0225
  646MPD2    H5 9570   2.566   3.100  14.578 -0.4547  0.4752  0.3043
  646MPD2    N1 9571   2.917   2.892  14.843  0.5741  0.3064  0.2959
  646MPD2    H7 9572   3.014   2.868  14.855  0.1998 -1.0191  0.5902
  647TMC3    C1 9573   2.878   2.769  15.038 -0.3584 -0.5192 -0.0046
  647TMC3    C2 9574   2.802   2.663  15.092  0.1322 -0.4333 -0.2200
  647TMC3    C3 9575   2.846   2.603  15.212 -0.5835  0.1381 -0.3399
  647TMC3    C4 9576   2.998   2.808  15.091 -0.0196  0.3837 -0.4180
  647TMC3    C5 9577   3.033   2.740  15.198 -0.0980  0.1969  1.0680
  647TMC3    C6 9578   2.966   2.640  15.263  0.4371 -0.1352 -0.0292
  647TMC3     C 9579   2.821   2.851  14.934  0.1387 -1.1041  0.2190
  647TMC3     O 9580   2.703   2.871  14.935 -0.3194  0.4705 -0.3379
  647TMC3     H 9581   2.704   2.634  15.055 -1.9181  3.4905  2.1567
  647TMC3    H1 9582   3.069   2.874  15.044  1.2141 -1.7003 -1.4961
  647TMC3    H2 9583   3.009   2.598  15.353  0.9774  0.6625  0.0852
  647TMC3    C7 9584   3.184   2.728  15.218 -0.6779  0.5275 -0.5879
  647TMC3    C8 9585   2.805   2.465  15.241 -0.5412  0.4946  0.7467
  647TMC3    O1 9586   3.227   2.619  15.244 -0.2467 -0.3503  0.6795
  647TMC3    O2 9587   2.751   2.400  15.153 -0.2731 -0.1726  0.1306
  648TMC3    C1 9588   2.067   0.266  16.034 -0.3547 -0.7342  0.0768
  648TMC3    C2 9589   2.096   0.151  15.969  0.2342 -0.4931  0.7470
  648TMC3    C3 9590   2.022   0.129  15.853 -0.3369  0.6053  0.2829
  648TMC3    C4 9591   1.982   0.364  15.976 -0.0616 -0.5788  1.1213
  648TMC3    C5 9592   1.914   0.336  15.862 -0.1024 -0.5281  0.8070
  648TMC3    C6 9593   1.934   0.213  15.804  0.2957  0.2713  0.4679
  648TMC3     C 9594   2.112   0.300  16.173 -0.4658  0.0371 -0.0017
  648TMC3     O 9595   2.070   0.412  16.219  0.1858  0.0240 -0.4779
  648TMC3     H 9596   2.170   0.084  16.011 -0.0992 -1.6378 -0.4832
  648TMC3    H1 9597   1.973   0.462  16.021  1.6149  0.2007 -0.2065
  648TMC3    H2 9598   1.875   0.191  15.715 -2.5628  0.2349  2.3845
  648TMC3    C7 9599   1.865   0.445  15.778  0.1601  0.4103  0.2772
  648TMC3    C8 9600   2.014   4.720  15.800 -0.0812 -0.4789 -0.3218
  648TMC3    O1 9601   1.922   0.453  15.670 -0.4979 -0.4557  0.2589
  648TMC3    O2 9602   1.922   4.692  15.723  0.9118 -0.0638  0.0249
  649TMC3    C1 9603   1.779   1.584  12.584  0.5742  0.2979 -0.4160
  649TMC3    C2 9604   1.878   1.670  12.608 -0.1424 -0.0790 -0.2230
  649TMC3    C3 9605   1.960   1.640  12.710  0.5024  0.4633 -0.3205
  649TMC3    C4 9606   1.749   1.481  12.668  0.2181 -0.5659  0.2130
  649TMC3    C5 9607   1.835   1.462  12.773  0.1169 -0.0384 -0.8033
  649TMC3    C6 9608   1.949   1.534  12.791  0.1893 -0.6313  0.1458
  649TMC3     C 9609   1.685   1.611  12.468  0.2220  0.3641 -0.4180
  649TMC3     O 9610   1.572   1.564  12.472 -0.2615  0.0577  0.1033
  649TMC3     H 9611   1.882   1.769  12.564 -0.4301  0.8796  1.9064
  649TMC3    H1 9612   1.660   1.419  12.663 -1.3531  1.8228 -1.6061
  649TMC3    H2 9613   2.019   1.518  12.872  2.7965  1.8988 -1.6111
  649TMC3    C7 9614   1.769   1.404  12.891 -0.0890 -0.0841  0.1012
  649TMC3    C8 9615   2.094   1.704  12.721  0.2569  0.2205 -0.6718
  649TMC3    O1 9616   1.652   1.374  12.881  0.0969  0.5252 -0.5664
  649TMC3    O2 9617   2.159   1.705  12.821  0.1473 -0.3784  0.0056
  650TMC3    C1 9618   3.439   3.225  12.778 -0.4538 -0.1637  0.0962
  650TMC3    C2 9619   3.373   3.329  12.839 -0.0108  0.2516  0.5488
  650TMC3    C3 9620   3.265   3.377  12.769  0.1292  0.3060 -0.2918
  650TMC3    C4 9621   3.403   3.181  12.651 -0.0969 -0.3449  0.6051
  650TMC3    C5 9622   3.297   3.248  12.586 -0.1870 -0.7809  0.4151
  650TMC3    C6 9623   3.223   3.339  12.640 -0.4572 -0.1297 -0.1840
  650TMC3     C 9624   3.528   3.150  12.864 -0.8549  0.1187  0.0896
  650TMC3     O 9625   3.504   3.156  12.983  0.3528  0.1745 -0.4292
  650TMC3     H 9626   3.396   3.357  12.941 -0.1973  4.0847 -0.4752
  650TMC3    H1 9627   3.472   3.115  12.599  0.5314 -0.7832  1.9886
  650TMC3    H2 9628   3.138   3.385  12.591  0.2525 -0.7317 -1.9834
  650TMC3    C7 9629   3.293   3.236  12.441  0.4496  0.5560 -0.0275
  650TMC3    C8 9630   3.232   3.509  12.809  0.6122 -0.0399  0.5886
  650TMC3    O1 9631   3.291   3.123  12.392 -0.0446  0.3298  0.2592
  650TMC3    O2 9632   3.322   3.588  12.828  0.1246  0.3345  0.1239
  651MPD2     C 9633   2.619   0.223  11.466 -0.1741 -0.4527  0.0617
  651MPD2    C1 9634   2.551   0.302  11.376  0.2721  0.1357 -0.0254
  651MPD2    C2 9635   2.619   0.375  11.283  0.4902  0.2304  0.3508
  651MPD2    C3 9636   2.760   0.360  11.281 -0.4655  0.1851 -0.2611
  651MPD2    C4 9637   2.824   0.275  11.370 -0.0918 -0.6734  0.5493
  651MPD2    C5 9638   2.751   0.202  11.458 -0.4212 -0.0183  0.7350
  651MPD2     H 9639   2.570   0.447  11.220 -0.2137 -0.5959 -0.0381
  651MPD2    H1 9640   2.931   0.263  11.373 -0.0558  0.2415  3.0760
  651MPD2    H2 9641   2.567   0.158  11.536 -1.0283 -0.2769 -0.3993
  651MPD2    H3 9642   2.804   0.141  11.530 -0.2918  0.3589  0.9591
  651MPD2     N 9643   2.839   0.442  11.192 -0.1096 -0.3937  0.4570
  651MPD2    H5 9644   2.785   0.492  11.122 -0.9807 -1.9833 -0.0021
  651MPD2    N1 9645   2.409   0.312  11.379 -0.4794 -0.2668  0.4754
  651MPD2    H7 9646   2.365   0.366  11.304  1.8103  0.7294 -0.1388
  652TMC3    C1 9647   3.219   0.585  10.938 -0.2982  0.3082 -0.1366
  652TMC3    C2 9648   3.160   0.526  11.043  0.2718  0.4568  0.1779
  652TMC3    C3 9649   3.025   0.518  11.061  0.3719  0.0299 -0.1533
  652TMC3    C4 9650   3.138   0.655  10.853  0.1340 -0.8098  0.0741
  652TMC3    C5 9651   3.004   0.671  10.879  0.5262  0.4124  0.3377
  652TMC3    C6 9652   2.952   0.597  10.980 -0.5478 -0.1377 -0.6970
  652TMC3     C 9653   3.362   0.579  10.924  0.2159 -0.3946  0.2532
  652TMC3     O 9654   3.427   0.503  10.994  1.3898  0.4161 -0.7037
  652TMC3     H 9655   3.236   0.464  11.088  0.6062  0.9356  0.2636
  652TMC3    H1 9656   3.183   0.674  10.757 -0.1185  0.6157  0.2494
  652TMC3    H2 9657   2.847   0.603  11.003 -0.5605 -0.8632 -0.5733
  652TMC3    C7 9658   2.924   0.728  10.781 -0.2131  0.0636  0.5843
  652TMC3    C8 9659   2.976   0.443  11.176  0.4028  0.6033 -0.0424
  652TMC3    O1 9660   2.818   0.671  10.749  0.8194  0.2779  0.1827
  652TMC3    O2 9661   3.058   0.398  11.253  0.1255  0.1283  0.4014
  653MPD2     C 9662   1.398   0.219   0.139 -0.3045 -0.1919 -0.4242
  653MPD2    C1 9663   1.441   0.298   0.036  0.1806 -0.1432  0.0755
  653MPD2    C2 9664   1.427   0.253  17.598  0.2211  0.5053  0.9878
  653MPD2    C3 9665   1.387   0.126  17.569 -1.0713  0.0026 -0.1321
  653MPD2    C4 9666   1.346   0.045  17.674  0.3524  0.6009  0.6285
  653MPD2    C5 9667   1.353   0.097   0.105 -0.0511  0.1200  0.0562
  653MPD2     H 9668   1.452   0.317  17.513  1.6728 -0.3988  0.7409
  653MPD2    H1 9669   1.304   4.669  17.662 -0.0979  0.4844  3.1894
  653MPD2    H2 9670   1.403   0.249   0.243  2.5120  0.5111 -0.7733
  653MPD2    H3 9671   1.329   0.032   0.188  0.1612  0.4368  0.3690
  653MPD2     N 9672   1.366   0.089  17.432  0.6721 -0.2194 -0.2582
  653MPD2    H5 9673   1.386   0.157  17.360 -0.5039  1.7962  1.3175
  653MPD2    N1 9674   1.483   0.432   0.070 -0.1780 -0.1681  0.5077
  653MPD2    H7 9675   1.467   0.464   0.165 -0.7959 -0.4285  0.4948
  654TMC3    C1 9676   1.326   4.653  17.260 -0.0106 -0.3366 -0.3199
  654TMC3    C2 9677   1.261   0.018  17.188  0.2939 -0.4218 -0.5327
  654TMC3    C3 9678   1.220   4.707  17.063 -0.5052  0.3592 -0.2106
  654TMC3    C4 9679   1.344   4.523  17.216  0.0107 -0.7335 -0.7223
  654TMC3    C5 9680   1.272   4.483  17.104  0.0559  0.0998  0.0229
  654TMC3    C6 9681   1.218   4.575  17.019  0.1935 -0.4147  0.5876
  654TMC3     C 9682   1.351   4.678  17.402 -0.0701 -0.1620 -0.5871
  654TMC3     O 9683   1.345   4.583  17.473 -0.0791  0.7137  0.4099
  654TMC3     H 9684   1.253   0.121  17.221 -1.7439 -0.3328 -1.3145
  654TMC3    H1 9685   1.386   4.450  17.284  2.3997  1.0787 -0.2943
  654TMC3    H2 9686   1.178   4.539  16.925  0.8260  0.5269 -0.0461
  654TMC3    C7 9687   1.306   4.356  17.036 -0.1014  0.2756  0.1883
  654TMC3    C8 9688   1.124   0.069  17.001 -0.3048 -0.1776  0.1790
  654TMC3    O1 9689   1.326   4.359  16.915  0.0932 -0.6290  0.2730
  654TMC3    O2 9690   1.066   0.158  17.068  0.1477 -0.0254 -0.0856
  655MPD2     C 9691   2.641   0.660  15.957 -0.2163  0.4532  0.8091
  655MPD2    C1 9692   2.548   0.695  15.860 -0.3179 -0.4471  0.3512
  655MPD2    C2 9693   2.522   0.624  15.749 -0.2698  0.0095  0.4781
  655MPD2    C3 9694   2.596   0.506  15.729 -0.7985 -0.1211  0.3672
  655MPD2    C4 9695   2.697   0.478  15.820  0.2349  0.0570  0.5226
  655MPD2    C5 9696   2.729   0.552  15.929 -0.2542 -0.8161  0.5192
  655MPD2     H 9697   2.442   0.663  15.686 -0.8934  0.1858  1.3796
  655MPD2    H1 9698   2.765   0.399  15.790  2.3955  3.0411 -2.5115
  655MPD2    H2 9699   2.663   0.735  16.031  1.2637  0.1176  0.7149
  655MPD2    H3 9700   2.822   0.537  15.984 -0.5533 -1.3693  0.8729
  655MPD2     N 9701   2.580   0.429  15.603  0.5095  0.3695 -0.3581
  655MPD2    H5 9702   2.635   0.344  15.593 -1.4065 -0.5381 -3.0097
  655MPD2    N1 9703   2.459   0.804  15.870 -0.1753 -0.2736  0.1241
  655MPD2    H7 9704   2.423   0.833  15.779  0.8844 -1.6331 -0.7320
  656TMC3    C1 9705   2.339   0.989  15.965 -0.7179 -1.3720  0.4909
  656TMC3    C2 9706   2.292   1.050  16.077 -0.6614 -0.3472  0.8335
  656TMC3    C3 9707   2.176   1.124  16.066 -0.1099 -0.0164 -0.0217
  656TMC3    C4 9708   2.278   1.008  15.846  0.4253 -0.6086 -0.8922
  656TMC3    C5 9709   2.170   1.094  15.841 -0.6604 -0.2877 -0.7355
  656TMC3    C6 9710   2.108   1.145  15.950 -0.2118  0.0367 -0.5493
  656TMC3     C 9711   2.428   0.872  15.983  0.0590  0.0576  0.8799
  656TMC3     O 9712   2.463   0.850  16.099  0.1768  0.3638  0.1621
  656TMC3     H 9713   2.350   1.044  16.169 -0.1647 -1.5522  0.4525
  656TMC3    H1 9714   2.314   0.954  15.759  0.0592 -1.5392 -0.4658
  656TMC3    H2 9715   2.010   1.190  15.962 -0.0724  0.1701  0.0801
  656TMC3    C7 9716   2.093   1.083  15.717  0.1333 -0.3886 -0.3013
  656TMC3    C8 9717   2.086   1.052  16.152 -0.2568 -0.4703 -0.6827
  656TMC3    O1 9718   2.136   1.011  15.629  0.1393  0.2033 -0.4091
  656TMC3    O2 9719   1.989   1.003  16.096  0.1727 -0.3184  0.1562
  657TMC3    C1 9720   1.523   0.118  15.110  0.1784 -0.0575  0.0533
  657TMC3    C2 9721   1.547   0.103  15.244  0.2469 -0.0163 -0.0478
  657TMC3    C3 9722   1.478   0.189  15.321 -0.3502 -0.5042 -0.5733
  657TMC3    C4 9723   1.437   0.208  15.063 -0.1105  0.4845  0.6426
  657TMC3    C5 9724   1.380   0.295  15.149 -0.7631 -0.2229  0.7660
  657TMC3    C6 9725   1.398   0.286  15.282 -0.3405 -0.5990 -0.3503
  657TMC3     C 9726   1.592   0.046  15.002 -0.1127  0.1644  0.3471
  657TMC3     O 9727   1.558   0.064  14.887 -0.4934  0.0199 -0.2153
  657TMC3     H 9728   1.608   0.020  15.278  0.9064  0.8076  0.7775
  657TMC3    H1 9729   1.416   0.208  14.956  0.5016 -0.0967  0.5194
  657TMC3    H2 9730   1.337   0.333  15.358  0.5628  2.7866 -1.6804
  657TMC3    C7 9731   1.298   0.402  15.092 -0.9423 -0.6395 -0.7424
  657TMC3    C8 9732   1.496   0.173  15.462 -0.5041 -0.7033  0.3758
  657TMC3    O1 9733   1.302   0.407  14.973  0.3509 -0.0823  0.0217
  657TMC3    O2 9734   1.460   0.260  15.540  0.4298  0.6364  0.0048
  658MPD2     C 9735   2.991   0.116  15.093  0.0497 -0.6007  0.7415
  658MPD2    C1 9736   2.937   0.238  15.124  0.3430 -0.0904 -0.4083
  658MPD2    C2 9737   2.987   0.356  15.071  0.2260  0.0728  0.3678
  658MPD2    C3 9738   3.085   0.355  14.979 -0.3371 -0.8011  0.5133
  658MPD2    C4 9739   3.139   0.240  14.950  0.1338 -0.2238  1.4033
  658MPD2    C5 9740   3.096   0.126  15.011  0.6211 -1.0000 -0.3099
  658MPD2     H 9741   2.935   0.448  15.091  1.5358  0.6025  1.3236
  658MPD2    H1 9742   3.221   0.232  14.879 -0.8356 -1.6444  0.4357
  658MPD2    H2 9743   2.957   0.023  15.136  3.4078 -2.1579  0.0544
  658MPD2    H3 9744   3.145   0.034  14.981  0.6759 -0.7554 -0.9821
  658MPD2     N 9745   3.116   0.483  14.924 -1.4601  0.4925  1.2692
  658MPD2    H5 9746   3.058   0.555  14.964  0.1872  2.8211 -0.5345
  658MPD2    N1 9747   2.814   0.249  15.195 -0.5116 -0.0079  0.4306
  658MPD2    H7 9748   2.789   0.339  15.235 -1.3678 -0.5210  1.0547
  659TMC3    C1 9749   2.595   0.225  15.243  0.5142  0.1534 -0.9340
  659TMC3    C2 9750   2.596   0.302  15.361  0.0861  0.0905 -0.1583
  659TMC3    C3 9751   2.487   0.371  15.391 -0.2497 -0.4270 -0.0350
  659TMC3    C4 9752   2.494   0.226  15.159 -0.1231 -0.0003 -0.2022
  659TMC3    C5 9753   2.381   0.289  15.201  0.1048 -0.5302 -0.0248
  659TMC3    C6 9754   2.377   0.368  15.312 -0.3390  0.5570  0.5055
  659TMC3     C 9755   2.715   0.156  15.208 -0.1278  0.3989  0.5221
  659TMC3     O 9756   2.701   0.051  15.148 -0.7569 -0.4250  0.5649
  659TMC3     H 9757   2.688   0.317  15.416 -0.5436 -0.2435  0.9860
  659TMC3    H1 9758   2.489   0.146  15.085 -1.5719  1.5431 -1.7640
  659TMC3    H2 9759   2.296   0.440  15.319  0.4854  1.4800  0.5923
  659TMC3    C7 9760   2.256   0.282  15.118 -0.1321  0.0094  0.3229
  659TMC3    C8 9761   2.486   0.460  15.509 -0.1161 -0.0882  0.0624
  659TMC3    O1 9762   2.160   0.338  15.167  0.0528 -0.2333  0.8990
  659TMC3    O2 9763   2.388   0.535  15.513  0.5015 -0.3688  0.0344
  660MPD2     C 9764   0.751   4.063  12.907  0.1374  0.1909 -0.0266
  660MPD2    C1 9765   0.613   4.081  12.925  0.3334 -0.1626  0.0529
  660MPD2    C2 9766   0.543   3.971  12.973  0.0600  0.5084 -0.0395
  660MPD2    C3 9767   0.607   3.851  13.007 -0.4671 -0.5753  0.6187
  660MPD2    C4 9768   0.740   3.835  12.989 -0.3014  0.0501  0.5473
  660MPD2    C5 9769   0.808   3.944  12.944 -0.0776  0.4973  0.5207
  660MPD2     H 9770   0.436   3.979  12.987  0.4091  1.4072  1.9575
  660MPD2    H1 9771   0.803   3.748  12.998  1.2591  0.8740 -2.2521
  660MPD2    H2 9772   0.817   4.140  12.868 -0.6082  1.1985  0.6910
  660MPD2    H3 9773   0.916   3.935  12.945 -0.1226 -0.0358  0.1004
  660MPD2     N 9774   0.544   3.742  13.075 -0.1689  0.2227  0.4890
  660MPD2    H5 9775   0.597   3.656  13.089 -0.8170 -0.4311 -1.1933
  660MPD2    N1 9776   0.559   4.197  12.870 -0.1360  0.1337  0.4278
  660MPD2    H7 9777   0.621   4.277  12.857 -0.5391  0.2871 -0.5904
  661TMC3    C1 9778   0.399   4.369  12.837  0.3025  0.2373  0.2492
  661TMC3    C2 9779   0.461   4.432  12.734 -0.5549  0.1834  0.4800
  661TMC3    C3 9780   0.402   4.539  12.677  0.7334 -0.3633  1.0319
  661TMC3    C4 9781   0.287   4.423  12.891  0.4042 -0.0909  0.1962
  661TMC3    C5 9782   0.235   4.539  12.847  1.0577  0.0955  0.3435
  661TMC3    C6 9783   0.288   4.597  12.735 -0.3078  0.3497 -0.0622
  661TMC3     C 9784   0.428   4.225  12.865  0.5708 -0.3993 -0.2266
  661TMC3     O 9785   0.331   4.157  12.891 -0.3515 -0.0988 -0.5056
  661TMC3     H 9786   0.553   4.388  12.697 -0.8325  0.5659 -0.6647
  661TMC3    H1 9787   0.236   4.379  12.976  0.1515 -0.4301 -0.1323
  661TMC3    H2 9788   0.239   4.684  12.693 -1.0497 -0.2285 -0.4015
  661TMC3    C7 9789   0.094   4.518  12.842 -0.4092 -0.7474 -0.0107
  661TMC3    C8 9790   0.437   4.579  12.542  0.1203 -0.9682  0.3223
  661TMC3    O1 9791   0.029   4.564  12.935  0.6465  0.0724 -0.4731
  661TMC3    O2 9792   0.424   4.699  12.519  0.0555 -0.3663 -0.4697
  662MPD2     C 9793   0.322   3.674  17.323  0.4573  0.5405  0.4057
  662MPD2    C1 9794   0.445   3.617  17.317 -0.4342 -0.2626  0.6518
  662MPD2    C2 9795   0.542   3.652  17.406 -0.3366  0.6498  0.0859
  662MPD2    C3 9796   0.518   3.743  17.506 -0.0386  0.2131  0.8246
  662MPD2    C4 9797   0.390   3.798  17.513  0.5200  0.0849  0.4272
  662MPD2    C5 9798   0.292   3.766  17.415  0.2701  0.5209 -0.1376
  662MPD2     H 9799   0.636   3.599  17.402  0.1447  1.4797  0.2505
  662MPD2    H1 9800   0.361   3.875  17.584 -2.1643 -1.5142  1.0654
  662MPD2    H2 9801   0.244   3.652  17.251 -0.7690  1.9844  1.2772
  662MPD2    H3 9802   0.193   3.811  17.419 -0.0954 -0.0185 -2.9911
  662MPD2     N 9803   0.610   3.769  17.606 -0.0027 -0.5812 -0.1062
  662MPD2    H5 9804   0.573   3.822  17.685  1.6892 -0.6957  0.7744
  662MPD2    N1 9805   0.484   3.512  17.233 -0.0564 -0.5593 -0.9797
  662MPD2    H7 9806   0.582   3.486  17.228 -0.0655 -0.6963 -0.4770
  663TMC3    C1 9807   0.471   3.335  17.083 -0.1767  0.1945  0.3685
  663TMC3    C2 9808   0.562   3.268  17.158  0.5892 -0.4062  0.2079
  663TMC3    C3 9809   0.675   3.226  17.096  0.1550  0.3464 -0.0129
  663TMC3    C4 9810   0.461   3.329  16.947  0.3946  0.4084  0.1168
  663TMC3    C5 9811   0.563   3.264  16.885 -0.3872 -0.0063 -0.3408
  663TMC3    C6 9812   0.667   3.225  16.960  0.0400 -0.0023 -1.0033
  663TMC3     C 9813   0.405   3.445  17.147  0.0061  0.4099  0.2462
  663TMC3     O 9814   0.294   3.478  17.102  0.1456  0.5161 -0.3819
  663TMC3     H 9815   0.563   3.286  17.264  1.9662  1.1323 -0.0781
  663TMC3    H1 9816   0.381   3.380  16.895 -0.3843  0.1109  1.0373
  663TMC3    H2 9817   0.760   3.227  16.903  0.4171  1.3370 -0.3447
  663TMC3    C7 9818   0.545   3.180  16.766  0.2539 -0.0590  0.3515
  663TMC3    C8 9819   0.736   3.109  17.140 -0.5826  0.7790 -0.0307
  663TMC3    O1 9820   0.457   3.204  16.682  0.0656  0.0087  0.0309
  663TMC3    O2 9821   0.743   3.020  17.061  0.4618  0.5214 -0.8602
  664MPD2     C 9822   3.731   1.705  17.417 -0.2907  0.1886  0.2133
  664MPD2    C1 9823   3.800   1.820  17.451  1.0636 -0.1804  0.2114
  664MPD2    C2 9824   3.846   1.834  17.577  0.4523 -0.5594 -0.1603
  664MPD2    C3 9825   3.824   1.747  17.677  0.3654 -0.6562  0.0240
  664MPD2    C4 9826   3.753   1.634  17.646  0.3616 -0.0416  0.2902
  664MPD2    C5 9827   3.708   1.613  17.524  0.4141 -0.1935 -0.1144
  664MPD2     H 9828   3.888   1.932  17.598 -2.0769  0.5929 -0.5619
  664MPD2    H1 9829   3.725   1.567   0.030 -0.5109 -0.0632 -0.0328
  664MPD2    H2 9830   3.678   1.695  17.323 -0.4521  2.5434  0.0519
  664MPD2    H3 9831   3.636   1.534  17.507  1.3841 -1.0667 -0.1519
  664MPD2     N 9832   3.868   1.785   0.114 -0.0835  0.1196 -0.3030
  664MPD2    H5 9833   3.910   1.876   0.127  1.9155 -0.9026  0.3008
  664MPD2    N1 9834   3.815   1.929  17.363 -0.1761 -0.1932  0.0733
  664MPD2    H7 9835   3.881   1.999  17.393 -0.1861  0.2720 -0.9573
  665TMC3    C1 9836   3.919   1.751   0.343  0.0100 -0.1012  0.2529
  665TMC3    C2 9837   3.908   1.679   0.468 -0.2684  0.4048 -0.6805
  665TMC3    C3 9838   3.973   1.716   0.582 -0.6176  0.7845 -0.1682
  665TMC3    C4 9839   3.998   1.857   0.340 -0.1554 -0.1357  0.2954
  665TMC3    C5 9840   4.060   1.894   0.456 -0.1221 -0.2644 -0.1288
  665TMC3    C6 9841   4.049   1.832   0.571 -0.6872 -0.0189  0.8139
  665TMC3     C 9842   3.858   1.698   0.224 -0.1778  0.8919  0.4212
  665TMC3     O 9843   3.814   1.583   0.232 -0.1788 -0.1146  0.3803
  665TMC3     H 9844   3.849   1.588   0.458  0.5383 -0.2748  0.8325
  665TMC3    H1 9845   4.014   1.922   0.255  1.2415 -0.7303  0.1161
  665TMC3    H2 9846   4.115   1.859   0.653  0.5186  1.8742 -0.7814
  665TMC3    C7 9847   4.141   2.012   0.450  0.4859 -0.8087 -0.3129
  665TMC3    C8 9848   3.919   1.675   0.704  0.3229  0.2455 -0.2885
  665TMC3    O1 9849   4.191   2.044   0.345  0.0350 -0.8173 -0.3218
  665TMC3    O2 9850   3.959   1.740   0.796  0.0802 -0.1016 -1.0147
  666TMC3    C1 9851   2.739   2.095   9.546 -0.5351  0.1183  0.0509
  666TMC3    C2 9852   2.828   2.003   9.592 -0.4883 -0.3544  0.3613
  666TMC3    C3 9853   2.958   2.043   9.602  0.2944 -0.1880  1.1728
  666TMC3    C4 9854   2.781   2.217   9.503 -1.1667 -0.1211 -0.1444
  666TMC3    C5 9855   2.909   2.253   9.523  0.1011 -0.3546 -0.3086
  666TMC3    C6 9856   2.999   2.170   9.578  0.4661 -0.0642 -0.0899
  666TMC3     C 9857   2.618   2.097   9.624  0.3477 -0.1383  0.2530
  666TMC3     O 9858   2.534   2.176   9.593 -0.5064  0.3756  0.0973
  666TMC3     H 9859   2.796   1.901   9.608 -1.2612  0.0357  1.2988
  666TMC3    H1 9860   2.715   2.300   9.481 -2.3600 -1.5276 -1.7737
  666TMC3    H2 9861   3.098   2.207   9.602  0.0123 -0.2677  2.0890
  666TMC3    C7 9862   2.926   2.384   9.573  0.0596 -0.1428 -0.4617
  666TMC3    C8 9863   3.031   1.973   9.700 -0.1124  0.3686 -0.0225
  666TMC3    O1 9864   2.825   2.426   9.625 -0.6011 -0.7531 -0.5077
  666TMC3    O2 9865   2.976   1.883   9.759 -0.0888  0.7066 -0.7588
  667MPD2     C 9866   4.596   2.542  14.841  0.3460 -0.1811 -0.0609
  667MPD2    C1 9867   4.706   2.463  14.880  0.5344 -0.2162 -1.1573
  667MPD2    C2 9868   4.708   2.326  14.859 -0.3916  0.1511 -0.4763
  667MPD2    C3 9869   4.602   2.261  14.809  1.0419 -0.2049 -0.5302
  667MPD2    C4 9870   4.490   2.338  14.770  0.2817 -0.1893  0.2203
  667MPD2    C5 9871   4.489   2.478  14.783 -0.3665 -0.1637 -0.4997
  667MPD2     H 9872   0.074   2.272  14.887 -0.9093 -1.8957 -2.8162
  667MPD2    H1 9873   4.400   2.286  14.738  0.4178 -0.4781  0.3073
  667MPD2    H2 9874   4.588   2.650  14.854  0.3997 -0.3801  1.6479
  667MPD2    H3 9875   4.407   2.537  14.745  0.5247  2.6896  2.0082
  667MPD2     N 9876   4.598   2.126  14.779  0.3653  0.9354 -0.0336
  667MPD2    H5 9877   4.511   2.092  14.739 -0.1884  1.2699  0.8864
  667MPD2    N1 9878   0.094   2.527  14.939  0.2709  0.0904 -0.4277
  667MPD2    H7 9879   0.168   2.466  14.972 -0.1089 -1.9808 -3.4936
  668TMC3    C1 9880   0.248   2.685  15.018 -0.4233 -0.0162 -0.1796
  668TMC3    C2 9881   0.305   2.813  15.011  0.3879 -0.6712  0.1319
  668TMC3    C3 9882   0.367   2.862  15.123 -0.5314  0.2753 -0.2180
  668TMC3    C4 9883   0.246   2.620  15.136  0.2546 -0.2383  0.3075
  668TMC3    C5 9884   0.305   2.680  15.246 -0.0256 -0.2324  0.4274
  668TMC3    C6 9885   0.372   2.801  15.242  0.1950  0.9155 -0.2647
  668TMC3     C 9886   0.136   2.656  14.924 -0.3773 -0.6539 -0.1510
  668TMC3     O 9887   0.078   2.753  14.872 -0.0896  0.2325 -0.2381
  668TMC3     H 9888   0.318   2.860  14.914 -0.1724  1.1216  0.9314
  668TMC3    H1 9889   0.205   2.522  15.155 -0.2733  0.0315  0.5613
  668TMC3    H2 9890   0.435   2.827  15.327 -0.1516  1.1966 -0.0935
  668TMC3    C7 9891   0.304   2.610  15.370 -0.0842  0.1939  0.3185
  668TMC3    C8 9892   0.443   2.982  15.109 -1.1340 -0.0507 -0.0104
  668TMC3    O1 9893   0.403   2.626  15.441  0.1801  0.0561 -0.2861
  668TMC3    O2 9894   0.460   3.044  15.214 -0.3979  0.1242  0.3902
  669TMC3    C1 9895   2.880   1.855  14.732 -0.0387  0.2902  0.5851
  669TMC3    C2 9896   2.785   1.893  14.642  0.1061 -0.2585 -0.0424
  669TMC3    C3 9897   2.792   2.017  14.588  0.2658 -0.6931 -0.6885
  669TMC3    C4 9898   2.991   1.931  14.753  0.1665  0.7377 -0.7152
  669TMC3    C5 9899   2.996   2.048  14.681  0.7097 -0.4016 -0.7184
  669TMC3    C6 9900   2.897   2.103  14.600  0.1890  0.6225  0.9866
  669TMC3     C 9901   2.846   1.761  14.827 -0.2098  0.5791 -0.1061
  669TMC3     O 9902   2.727   1.730  14.828 -0.0931 -0.0690  0.5152
  669TMC3     H 9903   2.703   1.825  14.617  0.1672  0.2137 -1.5708
  669TMC3    H1 9904   3.063   1.912  14.831  2.2735 -0.2435 -2.8900
  669TMC3    H2 9905   2.917   2.200  14.554 -0.6726  0.5538  0.4719
  669TMC3    C7 9906   3.110   2.135  14.697  0.4129 -0.2513  0.4473
  669TMC3    C8 9907   2.694   2.050  14.487  0.2596  0.3035 -0.2794
  669TMC3    O1 9908   3.093   2.256  14.686 -0.1709 -0.1258 -0.1739
  669TMC3    O2 9909   2.660   1.953  14.422 -0.5278  0.0765 -0.7187
  670MPD2     C 9910   1.388   4.439  13.591  0.1203 -0.8068  0.5198
  670MPD2    C1 9911   1.328   4.563  13.617  0.3115  0.2086  0.2369
  670MPD2    C2 9912   1.246   4.577  13.731  0.7235 -0.0540  0.1150
  670MPD2    C3 9913   1.225   4.465  13.814 -0.1106  0.6133 -0.0233
  670MPD2    C4 9914   1.297   4.350  13.792  0.5602 -0.0515  0.2977
  670MPD2    C5 9915   1.375   4.335  13.684  0.3636 -0.1803 -0.2840
  670MPD2     H 9916   1.190   4.669  13.743  1.3138  0.5762 -2.0255
  670MPD2    H1 9917   1.303   4.266  13.861 -0.9832  0.9000  1.5824
  670MPD2    H2 9918   1.469   4.422  13.521 -1.0420  0.7438 -1.2057
  670MPD2    H3 9919   1.433   4.244  13.672  1.4264  0.4178  0.3222
  670MPD2     N 9920   1.133   4.468  13.923 -0.1552  0.1955  0.0446
  670MPD2    H5 9921   1.076   4.551  13.924  0.4563  0.6141  0.1865
  670MPD2    N1 9922   1.355   4.676  13.539 -0.0782 -0.3068 -0.2889
  670MPD2    H7 9923   1.315   0.040  13.572 -0.2362  0.0478 -1.4224
  671TMC3    C1 9924   1.014   4.410  14.110 -0.4102 -0.4068 -0.3291
  671TMC3    C2 9925   1.031   4.347  14.228 -0.4071  1.0512  0.5872
  671TMC3    C3 9926   0.930   4.266  14.276 -0.3200  0.3077 -0.3474
  671TMC3    C4 9927   0.897   4.406  14.041  0.7077  0.4027 -0.7338
  671TMC3    C5 9928   0.793   4.335  14.098  0.6356  0.0943  0.2095
  671TMC3    C6 9929   0.808   4.266  14.213  0.6040  0.5278  0.9455
  671TMC3     C 9930   1.125   4.380  14.026 -0.2535 -0.2808 -0.3062
  671TMC3     O 9931   1.212   4.301  14.056  0.2571 -0.0301  0.8566
  671TMC3     H 9932   1.132   4.324  14.261 -0.6922 -0.6238  0.2705
  671TMC3    H1 9933   0.886   4.446  13.941 -0.4004 -0.5715 -0.9955
  671TMC3    H2 9934   0.732   4.197  14.247  1.3501  0.3632  2.2900
  671TMC3    C7 9935   0.724   4.252  13.995  0.4548 -0.1821  0.5996
  671TMC3    C8 9936   0.968   4.138  14.319  0.2695 -0.0307  0.0030
  671TMC3    O1 9937   0.791   4.220  13.902 -0.2528 -0.1422 -0.8648
  671TMC3    O2 9938   0.943   4.050  14.239  0.2171 -0.7663  0.5011
  672MPD2     C 9939   2.386   4.719   0.459  0.3147  0.3336 -0.8658
  672MPD2    C1 9940   2.300   4.704   0.567  0.5684 -0.8116  0.0281
  672MPD2    C2 9941   2.305   0.073   0.672 -0.1811  0.3635  0.2322
  672MPD2    C3 9942   2.409   0.166   0.683 -1.1842  0.1346  0.2524
  672MPD2    C4 9943   2.499   0.177   0.580  0.3992  0.3513  0.0815
  672MPD2    C5 9944   2.484   0.092   0.470 -0.8080  0.3623  0.6509
  672MPD2     H 9945   2.222   0.063   0.740  1.2165  0.8204  1.9972
  672MPD2    H1 9946   2.587   0.240   0.585  1.8004 -1.6479  0.4222
  672MPD2    H2 9947   2.385   4.658   0.370  0.4952 -1.7824  0.5731
  672MPD2    H3 9948   2.559   0.100   0.392 -1.9988 -0.1218 -0.5447
  672MPD2     N 9949   2.434   0.234   0.803  0.0519  0.8460 -0.0431
  672MPD2    H5 9950   2.510   0.301   0.809  2.0034 -1.2165 -1.9096
  672MPD2    N1 9951   2.196   4.605   0.564  0.0580 -0.3749 -0.4317
  672MPD2    H7 9952   2.123   4.621   0.631  0.1569 -1.0166 -0.1703
  673TMC3    C1 9953   2.076   4.414   0.477 -0.6318 -0.3869  0.0232
  673TMC3    C2 9954   2.101   4.277   0.457 -0.2328  0.7316 -0.6664
  673TMC3    C3 9955   1.993   4.199   0.472  0.1068  0.4051  0.0613
  673TMC3    C4 9956   1.964   4.463   0.534 -0.4645 -0.0757  0.0313
  673TMC3    C5 9957   1.861   4.371   0.546 -0.9385  0.2018  0.2147
  673TMC3    C6 9958   1.872   4.235   0.505  0.5590 -0.1697  0.4291
  673TMC3     C 9959   2.194   4.501   0.468 -0.3112 -0.1239 -0.2538
  673TMC3     O 9960   2.272   4.463   0.382  0.5113  0.5315  0.0070
  673TMC3     H 9961   2.198   4.240   0.428 -0.6085 -0.9060  0.1643
  673TMC3    H1 9962   1.950   4.570   0.549  0.2450 -0.0197  0.3177
  673TMC3    H2 9963   1.796   4.163   0.534  0.4665  0.4193  1.6337
  673TMC3    C7 9964   1.755   4.395   0.645  0.2264  0.4062  0.0402
  673TMC3    C8 9965   2.022   4.068   0.522 -0.2541 -0.4955  0.4742
  673TMC3    O1 9966   1.707   4.297   0.697  0.0262  0.1917  0.1429
  673TMC3    O2 9967   1.953   3.976   0.474  0.4371 -0.5365 -0.2336
  674MPD2     C 9968   2.000   4.406   0.076  0.1908 -0.4341  0.1759
  674MPD2    C1 9969   1.923   4.298   0.118 -0.4528  0.0008  0.2411
  674MPD2    C2 9970   1.788   4.321   0.153 -0.0591  0.3475 -0.3935
  674MPD2    C3 9971   1.747   4.450   0.166 -0.3085 -0.1734  0.2956
  674MPD2    C4 9972   1.829   4.551   0.123  0.2312 -0.4033 -0.5916
  674MPD2    C5 9973   1.947   4.530   0.063  0.1636 -0.0683  0.5368
  674MPD2     H 9974   1.723   4.241   0.187  0.4902  0.3898  0.7575
  674MPD2    H1 9975   1.791   4.653   0.124 -0.4446 -0.6815  1.9120
  674MPD2    H2 9976   2.104   4.394   0.049 -0.0564  1.2258 -1.4949
  674MPD2    H3 9977   2.008   4.616   0.040  2.5137 -1.8122  0.3197
  674MPD2     N 9978   1.626   4.469   0.225 -0.0212  0.2900  0.1093
  674MPD2    H5 9979   1.574   4.383   0.238 -1.3982  1.2069  0.6873
  674MPD2    N1 9980   1.988   4.173   0.112 -0.2000 -0.3048  0.3175
  674MPD2    H7 9981   2.087   4.171   0.091  0.0086  1.2570  1.2226
  675TMC3    C1 9982   2.026   3.941   0.165  0.1139 -0.3907 -0.2201
  675TMC3    C2 9983   1.970   3.827   0.214 -0.4104  0.2404 -0.6365
  675TMC3    C3 9984   2.052   3.724   0.245  0.3036 -0.6825  0.6361
  675TMC3    C4 9985   2.158   3.955   0.166  0.3740  0.0639  0.4117
  675TMC3    C5 9986   2.233   3.842   0.193  0.1723  0.3043 -0.4400
  675TMC3    C6 9987   2.191   3.720   0.229 -0.0483 -1.2766  0.3600
  675TMC3     C 9988   1.928   4.049   0.139  0.7369 -0.7314 -0.2500
  675TMC3     O 9989   1.804   4.027   0.147  0.3906 -0.0795  0.4318
  675TMC3     H 9990   1.865   3.835   0.243 -0.2556  1.1448 -0.2963
  675TMC3    H1 9991   2.215   4.040   0.131  0.3375 -0.6416 -1.3520
  675TMC3    H2 9992   2.248   3.628   0.239  0.6877 -0.8054  0.5799
  675TMC3    C7 9993   2.370   3.853   0.158 -0.3699  0.2926  0.4907
  675TMC3    C8 9994   1.999   3.619   0.324  0.4072 -0.2840  0.1037
  675TMC3    O1 9995   2.406   3.943   0.081 -0.1722  0.2851  0.0785
  675TMC3    O2 9996   2.030   3.502   0.290  0.3125 -0.0131  0.1877
  676MPD2     C 9997   3.879   2.999  11.103  0.1964 -0.1392  0.1227
  676MPD2    C1 9998   3.819   2.898  11.172  0.9417  0.8551  0.2735
  676MPD2    C2 9999   3.800   2.779  11.104 -0.1928  0.5772 -0.3227
  676MPD2    C310000   3.818   2.779  10.963 -0.0625 -0.8777  0.2580
  676MPD2    C410001   3.880   2.883  10.898  0.2732 -0.3900  0.0190
  676MPD2    C510002   3.911   2.991  10.976  0.4506  0.7394 -0.5619
  676MPD2     H10003   3.753   2.694  11.152  0.4302  0.1880 -0.4100
  676MPD2    H110004   3.890   2.898  10.792 -0.2251  0.6214  0.1166
  676MPD2    H210005   3.908   3.095  11.144  0.6875  0.3592 -1.3951
  676MPD2    H310006   3.944   3.083  10.931  1.3525  1.2572  1.1950
  676MPD2     N10007   3.770   2.672  10.881 -0.6160 -0.5458  0.2589
  676MPD2    H510008   3.777   2.684  10.781  0.4648  0.0845  0.4091
  676MPD2    N110009   3.773   2.913  11.307 -0.2423 -0.0079 -0.0115
  676MPD2    H710010   3.733   2.834  11.356 -1.4962  0.7593  0.2147
  677TMC3    C110011   3.686   3.024  11.502 -0.7179 -0.2411 -0.7045
  677TMC3    C210012   3.576   2.940  11.521 -0.3443 -0.0971  0.2114
  677TMC3    C310013   3.496   2.975  11.623  0.2469 -1.1083 -0.7937
  677TMC3    C410014   3.727   3.120  11.586 -0.6312 -0.1338 -0.6639
  677TMC3    C510015   3.639   3.152  11.687  0.0394  0.4117  0.1347
  677TMC3    C610016   3.526   3.084  11.701  0.5442 -0.0094 -0.5556
  677TMC3     C10017   3.766   3.030  11.378  0.3246 -0.1788  0.6572
  677TMC3     O10018   3.815   3.143  11.351  0.5692 -0.0742  0.2520
  677TMC3     H10019   3.555   2.860  11.451  3.3072 -1.6119  0.8553
  677TMC3    H110020   3.821   3.174  11.585 -0.8709  0.3193  1.0879
  677TMC3    H210021   3.447   3.132  11.758  0.7372  1.8168 -1.8215
  677TMC3    C710022   3.683   3.256  11.786 -0.2197 -0.9766 -0.1158
  677TMC3    C810023   3.369   2.913  11.617  0.2216 -0.4585 -0.9026
  677TMC3    O110024   3.772   3.332  11.749  0.5057  0.5378 -0.0837
  677TMC3    O210025   3.343   2.858  11.509  0.6996  0.3351  0.1549
  678MPD2     C10026   0.749   3.188   1.340 -0.0693  0.1017  0.5090
  678MPD2    C110027   0.783   3.125   1.227  0.0362 -0.6035  0.1781
  678MPD2    C210028   0.677   3.080   1.149  0.6037 -0.8479  0.3575
  678MPD2    C310029   0.543   3.099   1.179  0.3215  0.4876  0.4510
  678MPD2    C410030   0.514   3.167   1.294 -0.7845  0.6754  0.4901
  678MPD2    C510031   0.619   3.220   1.370 -0.0118  0.2919 -0.2767
  678MPD2     H10032   0.706   3.038   1.054 -0.9753  1.0771 -0.9677
  678MPD2    H110033   0.413   3.190   1.328 -0.5113 -0.6382  2.2266
  678MPD2    H210034   0.820   3.241   1.403 -0.8548  1.6973  0.0283
  678MPD2    H310035   0.596   3.281   1.456  0.9086  0.7072 -0.3226
  678MPD2     N10036   0.444   3.036   1.097 -0.5305  0.2493  0.1984
  678MPD2    H510037   0.477   2.977   1.021 -0.6236 -1.3359  1.3887
  678MPD2    N110038   0.914   3.103   1.178 -0.6559  0.0076 -0.4892
  678MPD2    H710039   0.917   3.048   1.092 -1.0527 -1.3059  0.3371
  679TMC3    C110040   1.378   3.102   1.220  0.0437  0.0922  0.0547
  679TMC3    C210041   1.257   3.111   1.275 -0.0221  0.0771  0.4978
  679TMC3    C310042   1.146   3.089   1.194  1.4286  0.0434 -0.5681
  679TMC3    C410043   1.385   3.053   1.095  0.1305 -0.0578 -0.0672
  679TMC3    C510044   1.279   3.020   1.022 -0.2005  0.3253 -0.4156
  679TMC3    C610045   1.152   3.037   1.068  0.1988  0.0064 -0.4063
  679TMC3     C10046   1.493   3.079   1.306  0.3091  0.3528  0.5454
  679TMC3     O10047   1.471   3.049   1.424 -0.1655 -0.0925 -0.0859
  679TMC3     H10048   1.248   3.140   1.379 -1.1483  0.3972  0.3153
  679TMC3    H110049   1.479   3.027   1.048 -0.0436 -0.1769 -0.3439
  679TMC3    H210050   1.066   3.048   1.002 -0.1630  3.3490  0.6247
  679TMC3    C710051   1.308   2.987   0.883 -0.0883  0.2157 -0.1785
  679TMC3    C810052   1.026   3.150   1.231  0.9498 -0.6133  0.7713
  679TMC3    O110053   1.393   3.050   0.821 -0.2548 -1.2000  0.5091
  679TMC3    O210054   1.042   3.241   1.307 -0.0213  0.2367  0.3853
  680MPD2     C10055   1.082   1.999  13.451  0.3936  0.0470 -0.1366
  680MPD2    C110056   1.155   1.940  13.551 -0.3044 -0.0513  0.1332
  680MPD2    C210057   1.206   2.014  13.661 -0.4086 -0.3068  0.7217
  680MPD2    C310058   1.183   2.149  13.662  0.0462  0.4307  0.1426
  680MPD2    C410059   1.116   2.205  13.560 -0.3842 -0.2424 -0.3504
  680MPD2    C510060   1.074   2.133  13.455  0.3904  1.1793 -0.5585
  680MPD2     H10061   1.245   1.965  13.750  0.7233 -0.6458  0.0386
  680MPD2    H110062   1.101   2.312  13.546  0.8057 -0.2935 -1.9197
  680MPD2    H210063   1.027   1.948  13.372 -0.9376  2.0686 -0.4977
  680MPD2    H310064   1.018   2.177  13.373  2.5990  3.9030 -0.6075
  680MPD2     N10065   1.228   2.244  13.761  0.6677 -0.6087  0.2153
  680MPD2    H510066   1.209   2.342  13.743  0.0460 -0.7530  0.0993
  680MPD2    N110067   1.173   1.802  13.554  0.1716 -0.0413 -0.3349
  680MPD2    H710068   1.202   1.770  13.646 -3.3544 -1.7374  0.2197
  681TMC3    C110069   1.185   1.578  13.492  0.2708 -0.6666  0.2810
  681TMC3    C210070   1.135   1.551  13.622 -0.9433  0.5553  0.2340
  681TMC3    C310071   1.180   1.442  13.681 -0.0591  0.5434  0.2169
  681TMC3    C410072   1.289   1.516  13.434 -0.0901 -0.3820  0.2603
  681TMC3    C510073   1.339   1.413  13.510 -0.9036  0.0023 -0.1656
  681TMC3    C610074   1.286   1.379  13.636  0.8663  0.0956 -0.2324
  681TMC3     C10075   1.174   1.712  13.447  0.4122  0.1291  0.4468
  681TMC3     O10076   1.169   1.734  13.326  0.6027  0.4196 -0.5902
  681TMC3     H10077   1.052   1.605  13.667 -1.7473  0.4221 -1.0799
  681TMC3    H110078   1.330   1.544  13.337  1.0539  2.7335  1.6382
  681TMC3    H210079   1.323   1.290  13.685 -2.0718  0.5810  2.9000
  681TMC3    C710080   1.482   1.364  13.492  0.1862  0.3117 -0.0704
  681TMC3    C810081   1.156   1.401  13.824 -0.0764  0.6491  0.6194
  681TMC3    O110082   1.526   1.296  13.578  0.1890 -0.1844  0.5136
  681TMC3    O210083   1.160   1.280  13.849  0.4678  0.0181  0.6511
  682MPD2     C10084   3.159   3.127  10.547  0.1783 -0.0544 -0.1929
  682MPD2    C110085   3.039   3.061  10.522  0.0769  0.0852  0.2190
  682MPD2    C210086   2.983   2.973  10.617  0.3260 -0.3307  0.2817
  682MPD2    C310087   3.032   2.964  10.742  0.4441  0.7192  0.1433
  682MPD2    C410088   3.157   3.026  10.764  0.3029  0.2390 -0.0611
  682MPD2    C510089   3.213   3.117  10.674 -0.3690  0.1948 -0.5604
  682MPD2     H10090   2.901   2.909  10.588  0.6432 -0.0594 -1.2170
  682MPD2    H110091   3.195   3.025  10.865  1.5191  0.9575 -0.5129
  682MPD2    H210092   3.202   3.201  10.482  2.1049 -0.5483  0.5208
  682MPD2    H310093   3.305   3.170  10.698  0.0689  0.0007 -1.8154
  682MPD2     N10094   2.969   2.883  10.845 -0.6009  0.2700  0.3881
  682MPD2    H510095   3.014   2.874  10.936  2.4569  0.1610 -1.1660
  682MPD2    N110096   2.985   3.058  10.396  0.2606  0.0015 -0.6544
  682MPD2    H710097   2.906   2.994  10.388  0.3671 -0.3880  1.6109
  683TMC3    C110098   2.777   2.755  11.176 -0.6757  0.2859 -0.5810
  683TMC3    C210099   2.705   2.633  11.172  0.2602 -0.5405  0.5426
  683TMC3    C310100   2.703   2.569  11.048 -0.7170  1.0587 -0.1002
  683TMC3    C410101   2.842   2.806  11.065 -0.0257  0.0492  0.5170
  683TMC3    C510102   2.833   2.731  10.953  0.4734 -0.1176  0.1983
  683TMC3    C610103   2.754   2.618  10.937  0.0272 -0.4142  0.2078
  683TMC3     C10104   2.762   2.842  11.286 -0.5555 -0.3639  0.3648
  683TMC3     O10105   2.777   2.960  11.258 -0.1237 -0.4066 -0.5753
  683TMC3     H10106   2.651   2.591  11.256  0.5148  0.7656  1.3669
  683TMC3    H110107   2.898   2.899  11.074  0.3248 -0.1795  0.7268
  683TMC3    H210108   2.758   2.563  10.844 -0.6863 -0.9579  0.4992
  683TMC3    C710109   2.856   2.808  10.829 -0.5081 -0.2765  0.7393
  683TMC3    C810110   2.631   2.443  11.038 -0.1347 -0.0801 -0.4211
  683TMC3    O110111   2.779   2.801  10.733 -0.3150 -0.4008 -0.0700
  683TMC3    O210112   2.618   2.391  10.926 -0.3275 -0.6898 -1.1254
  684MPD2     C10113   0.980   2.234  16.599 -0.1173  0.0230 -0.4032
  684MPD2    C110114   0.950   2.288  16.479  0.5959 -0.3034  0.5429
  684MPD2    C210115   0.921   2.424  16.476 -0.4973  0.5756 -0.2520
  684MPD2    C310116   0.918   2.500  16.587  0.0686  0.3242 -1.2278
  684MPD2    C410117   0.954   2.442  16.709  0.0422  0.2111  0.5866
  684MPD2    C510118   0.983   2.307  16.711  0.7402 -0.7768 -0.4622
  684MPD2     H10119   0.897   2.463  16.377  2.3316 -1.0839 -1.5945
  684MPD2    H110120   0.964   2.491  16.805 -0.3837 -3.4298  2.4462
  684MPD2    H210121   1.003   2.128  16.608 -1.1134 -0.3306 -2.1167
  684MPD2    H310122   1.027   2.262  16.799 -0.5620 -0.1079  0.5203
  684MPD2     N10123   0.894   2.641  16.586 -0.2317 -0.3206  0.1703
  684MPD2    H510124   0.890   2.685  16.677 -1.5327 -1.2748  0.5788
  684MPD2    N110125   0.942   2.212  16.353  0.2451  0.2362  0.1350
  684MPD2    H710126   0.928   2.263  16.266  0.4691 -0.6321 -0.4033
  685TMC3    C110127   1.028   2.027  16.221 -0.1198  0.3558  0.7267
  685TMC3    C210128   0.974   2.067  16.103  0.2815  0.1374 -0.2141
  685TMC3    C310129   0.996   1.991  15.989  0.3358  0.3783 -0.4870
  685TMC3    C410130   1.090   1.902  16.225  0.0092  0.0573  0.2027
  685TMC3    C510131   1.106   1.831  16.105  0.4260  0.4376 -0.3851
  685TMC3    C610132   1.065   1.875  15.988  0.3464  0.3879 -0.0086
  685TMC3     C10133   0.985   2.083  16.353  0.8246 -0.2508 -0.2452
  685TMC3     O10134   0.973   1.993  16.435  0.1115 -0.2372 -0.0042
  685TMC3     H10135   0.913   2.156  16.098 -0.5255 -0.3667  0.7326
  685TMC3    H110136   1.134   1.866  16.317  3.5301  0.7628 -1.2174
  685TMC3    H210137   1.085   1.822  15.896  0.4986  0.9815 -0.3186
  685TMC3    C710138   1.179   1.704  16.108 -0.1351 -0.4567 -0.2358
  685TMC3    C810139   0.890   2.004  15.889  0.0031 -0.5812  0.1955
  685TMC3    O110140   1.174   1.630  16.011  0.4346 -0.4803  0.2604
  685TMC3    O210141   0.918   2.017  15.771  0.2751 -0.7101  0.1056
  686MPD2     C10142   2.422   2.324  15.477  0.3642  0.5057  0.1805
  686MPD2    C110143   2.454   2.205  15.526 -0.3665 -0.0147  0.2000
  686MPD2    C210144   2.513   2.107  15.447 -0.1874  0.3521  0.2242
  686MPD2    C310145   2.517   2.128  15.310 -0.0568  0.1957 -0.1256
  686MPD2    C410146   2.472   2.250  15.260  0.4184  0.3748 -0.1715
  686MPD2    C510147   2.431   2.349  15.345 -1.1032  0.0321 -0.2932
  686MPD2     H10148   2.548   2.009  15.478  0.0325  0.9286  1.7502
  686MPD2    H110149   2.470   2.262  15.152  0.9946  0.2997 -0.1914
  686MPD2    H210150   2.388   2.404  15.542 -1.8975  0.2808 -0.7136
  686MPD2    H310151   2.410   2.447  15.305 -0.8750 -1.1606 -3.3673
  686MPD2     N10152   2.567   2.033  15.215 -0.7446  0.5601  0.0662
  686MPD2    H510153   2.596   2.062  15.122 -0.1301  1.1697  0.4484
  686MPD2    N110154   2.431   2.180  15.663  0.6805  0.0610  0.2631
  686MPD2    H710155   2.390   2.258  15.713 -0.1542 -0.1897 -0.0196
  687TMC3    C110156   2.514   1.821  15.328  1.2311 -0.5862 -0.2176
  687TMC3    C210157   2.379   1.842  15.366 -0.6557  0.5266 -0.5912
  687TMC3    C310158   2.330   1.779  15.481 -0.4256  0.3180 -0.0719
  687TMC3    C410159   2.584   1.715  15.393 -0.2410 -0.8645  0.2004
  687TMC3    C510160   2.532   1.653  15.505  0.1497  0.1720 -0.6241
  687TMC3    C610161   2.407   1.693  15.550  0.0780 -0.1463 -0.0373
  687TMC3     C10162   2.574   1.897  15.221 -1.1697 -0.1258 -0.1609
  687TMC3     O10163   2.640   1.823  15.150  0.6845  0.4386  0.6199
  687TMC3     H10164   2.325   1.918  15.311  1.8376  2.5455 -0.2464
  687TMC3    H110165   2.679   1.681  15.354  2.4461  0.8242  5.2705
  687TMC3    H210166   2.370   1.664  15.648 -0.0572 -0.4404 -0.1739
  687TMC3    C710167   2.637   1.621  15.597  0.8315  0.3061  0.3940
  687TMC3    C810168   2.218   1.842  15.547 -0.1558  0.4824  0.7872
  687TMC3    O110169   2.729   1.553  15.546 -0.0515  0.8723 -0.0522
  687TMC3    O210170   2.177   1.764  15.634 -0.2802 -0.6282  0.2380
  688MPD2     C10171   1.718   1.121  17.341 -0.6005 -0.2710  0.0331
  688MPD2    C110172   1.756   0.997  17.377  0.5594 -0.1227 -0.0443
  688MPD2    C210173   1.822   0.922  17.283  0.6563  0.9167  0.3463
  688MPD2    C310174   1.882   0.973  17.170 -0.8184 -0.5186  0.8183
  688MPD2    C410175   1.859   1.109  17.145  0.0365 -0.0350 -0.3876
  688MPD2    C510176   1.775   1.179  17.225 -0.0242 -0.2221 -1.1738
  688MPD2     H10177   1.846   0.819  17.309 -0.9831  0.1779 -1.0088
  688MPD2    H110178   1.902   1.167  17.064 -0.4940  0.3103 -0.4242
  688MPD2    H210179   1.660   1.187  17.405  2.0092  0.3658  1.7497
  688MPD2    H310180   1.761   1.286  17.212 -0.8910  0.0139  1.5807
  688MPD2     N10181   1.967   0.898  17.081 -0.1386  0.2132  0.8176
  688MPD2    H510182   2.009   0.954  17.009 -2.7802  3.0520  1.4766
  688MPD2    N110183   1.709   0.937  17.491  0.3242 -0.8609  0.4184
  688MPD2    H710184   1.737   0.839  17.493  1.5103 -0.6343 -3.4488
  689TMC3    C110185   1.578   0.877  17.677 -0.0711  0.6935  0.3826
  689TMC3    C210186   1.557   0.923   0.110 -0.0127 -0.1428 -0.0002
  689TMC3    C310187   1.528   0.825   0.202 -0.1120  0.2116  0.0809
  689TMC3    C410188   1.565   0.744  17.630  0.1099  0.6847  0.0371
  689TMC3    C510189   1.542   0.650   0.032  0.4327 -0.8467 -0.1031
  689TMC3    C610190   1.519   0.692   0.167  0.6034  0.0337 -0.2357
  689TMC3     C10191   1.617   0.979  17.581 -0.0883  1.3396  0.2912
  689TMC3     O10192   1.577   1.092  17.599  0.7613  0.1688  1.0493
  689TMC3     H10193   1.575   1.027   0.135  0.2883  0.0221 -0.8712
  689TMC3    H110194   1.580   0.731  17.524 -0.5752 -0.6544  0.1035
  689TMC3    H210195   1.472   0.630   0.243  1.2821  0.1036  0.2472
  689TMC3    C710196   1.535   0.518  17.677 -0.6189 -0.2328  0.4371
  689TMC3    C810197   1.503   0.865   0.335  0.4580 -0.2520 -0.5858
  689TMC3    O110198   1.576   0.507  17.560  0.1770 -0.3752  0.7730
  689TMC3    O210199   1.531   0.786   0.423  0.9141 -0.1141  0.4354
  690MPD2     C10200   3.418   3.172  15.523 -0.0186 -0.1166  0.1961
  690MPD2    C110201   3.509   3.078  15.560  0.3283  0.1591  0.6195
  690MPD2    C210202   3.640   3.123  15.562  0.3077 -0.2692 -0.8859
  690MPD2    C310203   3.671   3.252  15.527  0.4149 -0.0924  0.5707
  690MPD2    C410204   3.580   3.340  15.479  1.3215  0.0579 -0.5099
  690MPD2    C510205   3.451   3.302  15.488 -0.4035  0.4234  0.3610
  690MPD2     H10206   3.718   3.052  15.589 -1.0863 -1.0738  1.0245
  690MPD2    H110207   3.609   3.440  15.450 -0.8514  1.0179  0.5996
  690MPD2    H210208   3.313   3.146  15.516 -0.7094  1.9195  3.0379
  690MPD2    H310209   3.375   3.375  15.463 -0.9698 -0.3270 -0.0785
  690MPD2     N10210   3.802   3.303  15.520  0.0757  0.1416  0.6236
  690MPD2    H510211   3.817   3.385  15.462 -1.0380  1.7303  2.5710
  690MPD2    N110212   3.487   2.937  15.588 -0.4083 -0.0567 -0.6794
  690MPD2    H710213   3.561   2.873  15.613 -1.0664 -0.3956  0.3883
  691TMC3    C110214   3.350   2.731  15.596  0.0444 -0.2576 -0.1533
  691TMC3    C210215   3.241   2.694  15.666 -0.0172  0.2187  0.7663
  691TMC3    C310216   3.220   2.558  15.677 -0.0597 -0.8282  0.2460
  691TMC3    C410217   3.439   2.647  15.536  0.4468  0.1390 -0.4354
  691TMC3    C510218   3.411   2.516  15.549  0.1943  0.2212 -0.1432
  691TMC3    C610219   3.303   2.468  15.617  0.1695  0.1308 -0.3174
  691TMC3     C10220   3.359   2.873  15.579 -0.1460 -0.0429 -0.2054
  691TMC3     O10221   3.250   2.921  15.565 -0.4867  0.1656 -0.2529
  691TMC3     H10222   3.182   2.767  15.720 -2.0822  0.5548 -1.9364
  691TMC3    H110223   3.520   2.683  15.473  1.3503 -0.9037  0.1172
  691TMC3    H210224   3.290   2.361  15.632 -2.4366  0.4510 -0.2901
  691TMC3    C710225   3.476   2.430  15.460  0.0746 -0.6235 -0.2581
  691TMC3    C810226   3.101   2.512  15.758 -0.1332 -0.7270  0.2012
  691TMC3    O110227   3.590   2.456  15.421  1.0298  0.1793 -0.5107
  691TMC3    O210228   3.074   2.391  15.746 -0.1835  0.7991  0.3104
  692TMC3    C110229   0.934   4.007  15.972 -0.6707  0.6565 -0.1089
  692TMC3    C210230   1.067   4.018  16.014 -0.4188  0.2276 -0.1349
  692TMC3    C310231   1.150   3.906  16.008  0.5733  0.3582 -0.4818
  692TMC3    C410232   0.881   3.888  15.922  0.3605 -0.4437  0.4602
  692TMC3    C510233   0.961   3.781  15.941 -0.7596  0.7670 -0.2840
  692TMC3    C610234   1.094   3.781  15.975  0.5479  0.0265  0.7857
  692TMC3     C10235   0.837   4.108  16.006 -0.1403  0.5772 -0.1451
  692TMC3     O10236   0.721   4.071  15.996 -0.0847  0.2441  0.6332
  692TMC3     H10237   1.088   4.105  16.075  1.7865 -0.9273  0.7277
  692TMC3    H110238   0.785   3.883  15.872  0.5243 -0.6800  0.1715
  692TMC3    H210239   1.142   3.687  15.998  1.4264 -0.0030 -1.1122
  692TMC3    C710240   0.898   3.651  15.895  0.1547  0.1858 -0.0281
  692TMC3    C810241   1.253   3.903  16.110 -0.8414  0.3937 -0.5170
  692TMC3    O110242   0.843   3.644  15.789  0.2766 -0.6024  0.4210
  692TMC3    O210243   1.249   3.801  16.175 -0.6151  0.3252  0.0136
  693MPD2     C10244   4.548   2.354  11.039 -0.1922 -0.1037  0.2795
  693MPD2    C110245   4.543   2.219  11.007 -0.4182  0.0215  0.9034
  693MPD2    C210246   4.628   2.131  11.070 -0.6278 -0.4341 -0.1791
  693MPD2    C310247   4.712   2.183  11.164  0.1722  0.3919 -0.3161
  693MPD2    C410248   4.721   2.314  11.193 -0.2655 -1.2325 -0.2284
  693MPD2    C510249   4.641   2.400  11.127 -0.1575 -0.7150 -0.0244
  693MPD2     H10250   4.621   2.025  11.047  0.0744 -0.6852  0.8075
  693MPD2    H110251   0.075   2.355  11.256 -0.1210  0.3473 -1.4421
  693MPD2    H210252   4.494   2.421  10.974  0.0942  1.1596  1.3645
  693MPD2    H310253   4.665   2.503  11.150  2.6514 -0.9050 -2.1751
  693MPD2     N10254   0.074   2.102  11.243 -0.2868  0.0560  0.0749
  693MPD2    H510255   0.110   2.146  11.327 -1.1510  0.4818  0.2247
  693MPD2    N110256   4.442   2.178  10.923  0.1851 -0.1295  0.1949
  693MPD2    H710257   4.372   2.243  10.891 -0.7806 -1.8187 -1.1385
  694TMC3    C110258   4.276   2.017  10.878  0.0502 -0.1133  0.2183
  694TMC3    C210259   4.239   1.913  10.794 -0.0749 -0.3828  0.0431
  694TMC3    C310260   4.141   1.821  10.829  0.1393 -0.1775  0.1028
  694TMC3    C410261   4.213   2.031  10.999  0.1517  0.6580 -0.1276
  694TMC3    C510262   4.119   1.939  11.033  0.7923 -0.0658  0.1276
  694TMC3    C610263   4.085   1.831  10.955  0.2670  0.0315 -0.0123
  694TMC3     C10264   4.416   2.047  10.883  0.7770  0.2456 -0.0471
  694TMC3     O10265   4.497   1.962  10.834  0.1178  0.8097  0.2091
  694TMC3     H10266   4.288   1.894  10.699  0.9353  1.8722  0.1218
  694TMC3    H110267   4.252   2.107  11.066 -0.5367 -0.8671  1.9695
  694TMC3    H210268   4.011   1.761  10.992 -0.9888  1.4109  0.0991
  694TMC3    C710269   4.075   1.942  11.168 -0.3409  0.2424 -0.1107
  694TMC3    C810270   4.098   1.712  10.738 -0.0068 -0.1121 -0.3155
  694TMC3    O110271   4.112   2.042  11.228  0.5455 -0.2226 -0.7446
  694TMC3    O210272   4.030   1.629  10.787  0.0334 -0.8673  0.1842
  695MPD2     C10273   1.269   3.459  13.535 -0.0873  1.3325 -0.2597
  695MPD2    C110274   1.191   3.524  13.629  0.2412  0.3805 -0.1143
  695MPD2    C210275   1.108   3.628  13.584 -0.8090  0.5566  0.5011
  695MPD2    C310276   1.093   3.653  13.452  0.3205 -0.3975  0.2271
  695MPD2    C410277   1.161   3.583  13.359  0.4298  0.9491 -0.2153
  695MPD2    C510278   1.254   3.498  13.401 -0.4770  0.1936  0.4308
  695MPD2     H10279   1.055   3.688  13.657  1.2586  1.4423  1.2626
  695MPD2    H110280   1.165   3.611  13.254 -0.3153 -1.7454 -0.9530
  695MPD2    H210281   1.350   3.392  13.561 -1.8006 -0.2072  1.1884
  695MPD2    H310282   1.328   3.455  13.335 -1.0913  1.7182 -1.2228
  695MPD2     N10283   0.984   3.732  13.416  0.2881  0.1636 -0.6659
  695MPD2    H510284   0.933   3.780  13.490 -1.4889 -0.6944 -1.3508
  695MPD2    N110285   1.200   3.503  13.772 -0.0197  0.5030 -0.3520
  695MPD2    H710286   1.141   3.560  13.831 -0.0194 -1.4814  1.5868
  696TMC3    C110287   0.827   3.841  13.298 -0.1319  0.1426 -0.1097
  696TMC3    C210288   0.713   3.803  13.367  0.6220 -0.4651 -0.1382
  696TMC3    C310289   0.625   3.898  13.414 -1.1227 -0.6507  0.2783
  696TMC3    C410290   0.855   3.972  13.279 -0.4426  0.0038 -0.4222
  696TMC3    C510291   0.771   4.070  13.327 -0.7553 -0.1314  0.2335
  696TMC3    C610292   0.656   4.032  13.399  0.4819 -0.0530  0.8047
  696TMC3     C10293   0.942   3.754  13.287  0.4559 -0.7408  1.1493
  696TMC3     O10294   0.995   3.742  13.175  0.3314  0.0919  0.7839
  696TMC3     H10295   0.702   3.702  13.405  1.9325 -0.4372  0.3132
  696TMC3    H110296   0.949   3.994  13.230 -0.9807  1.7583 -0.6703
  696TMC3    H210297   0.589   4.106  13.443 -1.4245 -0.2334 -1.8028
  696TMC3    C710298   0.831   4.200  13.365  0.8935  0.0751 -0.0629
  696TMC3    C810299   0.534   3.864  13.524  0.3391  0.3509  0.4424
  696TMC3    O110300   0.930   4.232  13.303  0.0243 -0.0549 -0.2540
  696TMC3    O210301   0.452   3.778  13.508  0.5747 -0.5889 -0.1848
  697MPD2     C10302   0.787   0.917  15.468 -0.4317  0.1806 -0.0482
  697MPD2    C110303   0.731   0.847  15.367  0.4288 -0.1398 -0.4223
  697MPD2    C210304   0.716   0.911  15.240 -0.7469  0.1525  0.4365
  697MPD2    C310305   0.737   1.048  15.227 -0.2766  0.0404  0.3120
  697MPD2    C410306   0.769   1.122  15.337  0.0031  0.2015  0.6773
  697MPD2    C510307   0.800   1.053  15.453 -0.2231 -0.9574 -0.4943
  697MPD2     H10308   0.679   0.859  15.153  2.6952 -0.2034 -0.8067
  697MPD2    H110309   0.775   1.231  15.332  0.9436  0.1728  1.2404
  697MPD2    H210310   0.822   0.870  15.559  0.9642 -0.0942 -0.7249
  697MPD2    H310311   0.833   1.109  15.540 -2.0066 -1.9703  0.8544
  697MPD2     N10312   0.723   1.098  15.098  0.0884 -0.5971 -0.4054
  697MPD2    H510313   0.710   1.041  15.015 -0.6202 -1.3872  0.2488
  697MPD2    N110314   0.691   0.713  15.381 -0.1477 -0.3542  0.0477
  697MPD2    H710315   0.650   0.682  15.294 -0.9194  0.5864  0.0776
  698TMC3    C110316   0.701   1.254  14.932 -0.5201  0.3252 -0.2422
  698TMC3    C210317   0.679   1.390  14.898 -0.1710  0.3048 -0.0971
  698TMC3    C310318   0.609   1.409  14.786  0.0858  0.4070 -0.5056
  698TMC3    C410319   0.657   1.143  14.857  0.3372  0.7859  0.1170
  698TMC3    C510320   0.579   1.171  14.750 -0.1530  0.1063 -0.5865
  698TMC3    C610321   0.538   1.303  14.726  0.2584  0.5887  0.7991
  698TMC3     C10322   0.743   1.229  15.063 -0.5193  0.3027  0.3908
  698TMC3     O10323   0.795   1.319  15.124 -0.0436 -0.9312 -0.2485
  698TMC3     H10324   0.692   1.465  14.974  0.8330  0.1265 -0.0952
  698TMC3    H110325   0.684   1.038  14.867 -0.4127  0.7743  1.9383
  698TMC3    H210326   0.470   1.324  14.645 -1.4824  0.1514  2.1312
  698TMC3    C710327   0.525   1.065  14.668 -0.0656 -0.0367  0.2225
  698TMC3    C810328   0.604   1.542  14.734 -1.2830 -1.4797 -1.4416
  698TMC3    O110329   0.500   0.956  14.713  0.1474 -0.7422  0.6620
  698TMC3    O210330   0.528   1.561  14.640  0.4334 -0.1540 -0.0701
  699TMC3    C110331   0.374   3.632  13.188  0.1498 -0.0000 -0.0463
  699TMC3    C210332   0.466   3.566  13.263 -0.1353 -0.2006  0.3842
  699TMC3    C310333   0.433   3.459  13.338  0.0439 -0.3650 -0.1318
  699TMC3    C410334   0.246   3.592  13.190  0.9505 -0.1107  0.1870
  699TMC3    C510335   0.217   3.491  13.273  0.2310  0.1026 -0.6721
  699TMC3    C610336   0.306   3.415  13.344 -0.4068 -0.4719 -0.0738
  699TMC3     C10337   0.409   3.736  13.098 -0.1880  0.6147 -0.7476
  699TMC3     O10338   0.326   3.820  13.075  0.3809  0.1216 -0.2434
  699TMC3     H10339   0.567   3.605  13.260 -0.0300 -0.4822  0.2479
  699TMC3    H110340   0.173   3.653  13.137  0.4851 -1.7478 -1.0580
  699TMC3    H210341   0.272   3.334  13.408 -0.8982  0.4328  0.8042
  699TMC3    C710342   0.077   3.445  13.258 -0.4656  0.2636  0.7519
  699TMC3    C810343   0.522   3.420  13.445  0.0600 -0.4046  0.3889
  699TMC3    O110344   0.012   3.493  13.168 -0.1998 -0.2342 -0.0949
  699TMC3    O210345   0.465   3.388  13.552 -0.3056  0.2969  0.3566
  700TMC3    C110346   4.366   1.157  17.197 -0.0484  0.4264  0.8645
  700TMC3    C210347   4.442   1.043  17.189  0.1871  0.1192  0.1602
  700TMC3    C310348   4.525   1.004  17.290 -0.5000  0.3746 -0.4817
  700TMC3    C410349   4.367   1.232  17.312 -0.2386 -0.2380  0.8978
  700TMC3    C510350   4.446   1.181  17.416 -0.5919  0.2129 -0.0265
  700TMC3    C610351   4.533   1.070  17.405 -0.4799  0.0616 -0.4516
  700TMC3     C10352   4.292   1.196  17.082 -0.2345 -0.3656 -0.6126
  700TMC3     O10353   4.255   1.110  17.001  0.3834  0.5094 -0.1915
  700TMC3     H10354   4.443   0.992  17.093 -2.5877  0.9175 -0.2831
  700TMC3    H110355   4.312   1.325  17.313 -0.0484 -0.1872  4.6088
  700TMC3    H210356   4.589   1.047  17.495  0.4742 -0.3613 -1.1594
  700TMC3    C710357   4.465   1.281  17.521 -0.4080 -0.3490 -0.0833
  700TMC3    C810358   4.604   0.879  17.259 -0.7426 -0.0234 -0.2460
  700TMC3    O110359   4.563   1.258  17.589 -0.0323  0.2114  0.0746
  700TMC3    O210360   4.571   0.813  17.163  0.0060 -0.2304  0.2007
  701TMC3    C110361   4.650   0.267  15.557 -0.2324  0.0119 -0.6608
  701TMC3    C210362   4.634   0.257  15.420  0.4987  0.6899  0.0061
  701TMC3    C310363   0.026   0.245  15.351  0.8523  0.2606  1.2404
  701TMC3    C410364   0.044   0.286  15.622  0.0048 -0.2054 -0.3878
  701TMC3    C510365   0.155   0.284  15.548  0.5264  0.3617 -0.8163
  701TMC3    C610366   0.145   0.251  15.415  0.2509 -0.0782 -0.1928
  701TMC3     C10367   4.542   0.218  15.634 -1.4041 -0.2205 -0.4709
  701TMC3     O10368   4.569   0.135  15.722 -0.2473 -0.0696  0.2595
  701TMC3     H10369   4.533   0.245  15.384  0.6911  0.5014 -0.4683
  701TMC3    H110370   0.048   0.283  15.730  1.3309  1.3243 -0.4046
  701TMC3    H210371   0.242   0.257  15.365 -0.4191  1.6037 -1.3027
  701TMC3    C710372   0.210   0.418  15.560  0.6245  0.4236  0.3708
  701TMC3    C810373   0.033   0.234  15.210 -0.8009  0.0121 -0.2823
  701TMC3    O110374   0.226   0.468  15.452 -0.2863 -0.2897  0.0450
  701TMC3    O210375   0.129   0.275  15.147  0.2798  0.5721  0.1921
  702MPD2     C10376   4.023   2.560  10.247 -0.3115  0.1728 -0.3190
  702MPD2    C110377   3.995   2.616  10.371  0.0192 -0.2451 -0.5653
  702MPD2    C210378   4.041   2.741  10.404 -0.3814  0.5424 -0.7249
  702MPD2    C310379   4.119   2.813  10.314 -0.1299  0.3690 -0.0798
  702MPD2    C410380   4.155   2.752  10.199  0.0677  0.1995  0.1966
  702MPD2    C510381   4.114   2.624  10.166  0.3449 -0.3083 -0.2634
  702MPD2     H10382   3.996   2.785  10.492  1.6736 -1.6303  1.4315
  702MPD2    H110383   4.217   2.804  10.127  2.2953 -0.1473  1.8608
  702MPD2    H210384   3.995   2.459  10.218 -1.0104  0.1089  0.6043
  702MPD2    H310385   4.151   2.576  10.076  2.0735  0.0140  0.2628
  702MPD2     N10386   4.159   2.946  10.341 -0.5653 -0.2710 -0.1281
  702MPD2    H510387   4.181   3.007  10.263  2.2197  2.8668  3.1148
  702MPD2    N110388   3.899   2.565  10.461  0.5224 -0.1480  0.2570
  702MPD2    H710389   3.876   2.618  10.545 -0.7030  1.0887 -0.8636
  703TMC3    C110390   4.140   3.152  10.460 -0.3565 -0.1374 -0.0280
  703TMC3    C210391   4.066   3.210  10.560  0.6598 -0.7168 -0.2278
  703TMC3    C310392   4.102   3.333  10.606 -0.1211  0.5267 -0.0782
  703TMC3    C410393   4.255   3.206  10.416 -0.4552  0.0474 -0.0441
  703TMC3    C510394   4.280   3.333  10.462  0.1710  0.2869 -0.0570
  703TMC3    C610395   4.199   3.405  10.546  0.0733  0.9117  0.5683
  703TMC3     C10396   4.139   3.011  10.456  0.0019 -0.2277 -1.3250
  703TMC3     O10397   4.130   2.955  10.565 -0.7972  0.1177 -0.0894
  703TMC3     H10398   3.992   3.146  10.607  1.8408 -0.3647  2.0806
  703TMC3    H110399   4.323   3.152  10.352 -0.3445 -0.8788  0.8592
  703TMC3    H210400   4.214   3.500  10.595  1.6488  1.5111 -1.0898
  703TMC3    C710401   4.406   3.406  10.438 -0.4058  0.2885 -0.0453
  703TMC3    C810402   4.067   3.390  10.737  0.3903  0.3214  0.3261
  703TMC3    O110403   4.412   3.521  10.474  0.0434 -0.3618 -0.2977
  703TMC3    O210404   4.164   3.426  10.803  0.6707  0.1372 -0.0606
  704TMC3    C110405   1.291   0.669  13.141 -0.2312 -0.9711 -0.0047
  704TMC3    C210406   1.409   0.715  13.089 -0.3428 -0.4642 -0.8846
  704TMC3    C310407   1.521   0.646  13.128 -0.8199 -0.0633  0.4513
  704TMC3    C410408   1.288   0.572  13.243  0.1853 -0.2688 -0.5934
  704TMC3    C510409   1.396   0.488  13.252  0.1251  0.0335  0.1910
  704TMC3    C610410   1.520   0.528  13.202  0.9956 -0.2753 -0.2202
  704TMC3     C10411   1.185   0.641  13.049 -0.1539  0.0550  0.5265
  704TMC3     O10412   1.096   0.573  13.094 -0.6686  0.7144 -0.0026
  704TMC3     H10413   1.410   0.802  13.024  0.4832 -0.5701 -1.0093
  704TMC3    H110414   1.195   0.533  13.282  0.1846  1.2708  0.9648
  704TMC3    H210415   1.605   0.461  13.208  0.4590 -0.9219  0.0820
  704TMC3    C710416   1.373   0.350  13.206  1.1526 -0.5068  0.0360
  704TMC3    C810417   1.635   0.672  13.045 -0.0880  0.1663  0.1702
  704TMC3    O110418   1.445   0.316  13.113  1.0926  0.3549 -0.5249
  704TMC3    O210419   1.612   0.727  12.938 -0.4264  0.4205  0.0223
  705MPD2     C10420   1.320   3.513  16.814 -0.1396 -0.4860 -0.6829
  705MPD2    C110421   1.315   3.566  16.689 -1.0584  0.5144 -0.5683
  705MPD2    C210422   1.194   3.562  16.618  0.1052  0.0735  0.5703
  705MPD2    C310423   1.076   3.514  16.674 -0.3875  0.5377 -0.0747
  705MPD2    C410424   1.090   3.445  16.790  0.5507 -0.1520 -0.6312
  705MPD2    C510425   1.212   3.443  16.858  0.0825 -0.7523 -1.1477
  705MPD2     H10426   1.178   3.598  16.517  2.6757  0.8004  0.4250
  705MPD2    H110427   1.002   3.398  16.833  0.5061 -0.2945 -0.8819
  705MPD2    H210428   1.414   3.515  16.868 -0.5151  0.4104 -0.0700
  705MPD2    H310429   1.213   3.398  16.957  3.8385  1.4137 -0.1929
  705MPD2     N10430   0.956   3.543  16.610 -0.5312  0.0161 -0.2632
  705MPD2    H510431   0.946   3.601  16.528  0.9606  0.4809 -0.1157
  705MPD2    N110432   1.424   3.620  16.622  0.1324  0.5410  0.3144
  705MPD2    H710433   1.412   3.655  16.527  2.6157 -1.9491 -0.9285
  706TMC3    C110434   1.745   3.635  16.352 -0.0489 -0.5637 -0.3323
  706TMC3    C210435   1.768   3.765  16.323 -0.2685 -0.0846 -0.0085
  706TMC3    C310436   1.706   3.853  16.409 -0.5003  0.3190 -0.7893
  706TMC3    C410437   1.680   3.582  16.462 -0.2195  0.4661  0.8006
  706TMC3    C510438   1.634   3.676  16.550 -0.2660  0.2675  0.4009
  706TMC3    C610439   1.634   3.807  16.524 -0.3833  0.0980  0.3698
  706TMC3     C10440   1.796   3.530  16.270 -0.0169 -0.3200  0.3892
  706TMC3     O10441   1.860   3.436  16.325 -0.0837 -0.5892 -0.0708
  706TMC3     H10442   1.810   3.799  16.229 -0.4841 -3.2797 -1.2458
  706TMC3    H110443   1.681   3.477  16.487 -2.1168  0.1378 -0.4840
  706TMC3    H210444   1.569   3.867  16.587  0.2974  2.0977 -0.8589
  706TMC3    C710445   1.555   3.621  16.665  0.3088 -0.4963 -0.5236
  706TMC3    C810446   1.699   3.988  16.346 -0.5873 -0.1372  0.3938
  706TMC3    O110447   1.613   3.584  16.766 -0.1597  0.1397 -0.1223
  706TMC3    O210448   1.712   4.013  16.224  0.0415  0.1458 -0.4399
  707TMC3    C110449   3.141   2.519   1.501 -0.6921  0.5324 -0.0178
  707TMC3    C210450   3.166   2.425   1.609 -0.1739 -0.2598  0.4407
  707TMC3    C310451   3.054   2.371   1.664 -0.7353 -1.3574  0.6510
  707TMC3    C410452   3.011   2.557   1.471 -0.4948  0.0600  0.1332
  707TMC3    C510453   2.901   2.512   1.540  0.4335 -0.1384  0.8569
  707TMC3    C610454   2.926   2.418   1.641 -0.2358  0.8242 -0.1955
  707TMC3     C10455   3.243   2.551   1.409 -0.1674 -0.8544 -0.1138
  707TMC3     O10456   3.353   2.525   1.453  0.0639  0.1228  0.2630
  707TMC3     H10457   3.270   2.402   1.632 -0.5802 -0.9770  1.5899
  707TMC3    H110458   2.993   2.622   1.386 -0.3798  0.4722  0.4208
  707TMC3    H210459   2.840   2.376   1.690  2.0409 -2.3662  1.0540
  707TMC3    C710460   2.768   2.520   1.477  0.4470 -0.0909 -0.1482
  707TMC3    C810461   3.074   2.258   1.748 -0.8237  0.2565 -0.1801
  707TMC3    O110462   2.691   2.424   1.481 -0.4767 -0.0484 -0.8671
  707TMC3    O210463   2.992   2.220   1.830 -0.2933  0.4499 -0.3557
  708MPD2     C10464   4.677   2.272  13.641  0.1049  0.9225 -0.0474
  708MPD2    C110465   4.587   2.341  13.719 -0.2970 -0.0294  0.2760
  708MPD2    C210466   4.623   2.364  13.849  0.0551  0.3783 -0.1327
  708MPD2    C310467   0.013   2.309  13.905 -0.2592  0.1737 -0.6025
  708MPD2    C410468   0.099   2.236  13.831  0.0718 -0.4486 -0.3555
  708MPD2    C510469   0.063   2.225  13.698 -0.0801 -0.6186 -0.1255
  708MPD2     H10470   4.559   2.420  13.917  1.4545  0.8363  0.7905
  708MPD2    H110471   0.193   2.190  13.861 -0.1304 -0.0909  0.8408
  708MPD2    H210472   4.658   2.240  13.539  0.2103  1.5757 -0.2751
  708MPD2    H310473   0.129   2.178  13.626  2.9744  1.6080  1.2403
  708MPD2     N10474   0.023   2.313  14.043  0.1451  0.0501  0.5358
  708MPD2    H510475   4.669   2.338  14.103 -1.3959 -2.5111 -0.4066
  708MPD2    N110476   4.469   2.399  13.662  0.1415  0.1421  0.6445
  708MPD2    H710477   4.427   2.356  13.580  2.5377 -1.4945  0.2813
  709TMC3    C110478   4.251   2.477  13.706 -0.3326  0.3186 -1.2068
  709TMC3    C210479   4.219   2.428  13.585  0.6130 -0.2110  0.0239
  709TMC3    C310480   4.094   2.358  13.588  0.0131 -0.5665  0.0520
  709TMC3    C410481   4.184   2.461  13.824 -0.4420 -0.4584 -0.4971
  709TMC3    C510482   4.072   2.386  13.818 -0.2494 -0.4612  0.6026
  709TMC3    C610483   4.019   2.349  13.703 -0.1552  0.3229 -0.0672
  709TMC3     C10484   4.393   2.498  13.732 -0.5039 -0.1555  0.5574
  709TMC3     O10485   4.423   2.577  13.820  0.4539  0.1889 -0.2456
  709TMC3     H10486   4.289   2.446  13.504 -1.6126 -2.3771 -2.3792
  709TMC3    H110487   4.228   2.507  13.911 -3.2948  1.1790  0.0736
  709TMC3    H210488   3.926   2.293  13.696  1.3116 -2.1153  0.0937
  709TMC3    C710489   4.054   2.292  13.927  0.5069  0.3521  0.1136
  709TMC3    C810490   4.060   2.274  13.477 -0.0213  0.2039 -0.0430
  709TMC3    O110491   3.964   2.205  13.909 -0.2254 -0.2821 -0.1052
  709TMC3    O210492   3.972   2.191  13.491 -0.1652  0.2566 -0.5887
  710TMC3    C110493   1.392   3.290   0.152  0.5426  0.2076 -0.2867
  710TMC3    C210494   1.324   3.267   0.034 -0.0359 -0.1065  0.5222
  710TMC3    C310495   1.258   3.142   0.029  0.2055 -0.1839 -0.0996
  710TMC3    C410496   1.401   3.205   0.257  0.0981 -0.0355  0.0348
  710TMC3    C510497   1.360   3.078   0.228 -0.6244  0.8181  0.3171
  710TMC3    C610498   1.287   3.041   0.117  0.2160  0.2507 -0.6960
  710TMC3     C10499   1.435   3.429   0.178 -0.0631 -0.1572  0.0431
  710TMC3     O10500   1.481   3.498   0.088  0.0162  0.3500 -0.0705
  710TMC3     H10501   1.323   3.338  17.650  0.7444  0.4010  0.9651
  710TMC3    H110502   1.468   3.237   0.336  0.9110  0.6049 -0.9115
  710TMC3    H210503   1.251   2.940   0.105 -1.6810  1.0502 -1.8349
  710TMC3    C710504   1.366   2.998   0.349 -0.2602 -0.3164 -0.2805
  710TMC3    C810505   1.172   3.121  17.618  0.4027  0.6817 -0.0241
  710TMC3    O110506   1.425   3.054   0.440  0.8652  0.2307  0.1156
  710TMC3    O210507   1.145   3.218  17.553  0.0923 -0.1573 -0.3181
  711TMC3    C110508   0.601   4.451  15.051  0.2135 -0.7020  0.1505
  711TMC3    C210509   0.703   4.510  15.119 -0.6007 -0.4345 -0.3360
  711TMC3    C310510   0.830   4.480  15.099  0.7522 -0.1248 -0.9272
  711TMC3    C410511   0.618   4.330  15.002  0.1247  0.3933 -0.0480
  711TMC3    C510512   0.747   4.289  14.996  0.5168  0.3706 -0.2635
  711TMC3    C610513   0.859   4.360  15.038  0.1020 -0.0756 -0.2830
  711TMC3     C10514   0.459   4.477  15.080  0.5070  0.1744 -0.1980
  711TMC3     O10515   0.382   4.435  14.995 -0.1677  0.7558  0.3456
  711TMC3     H10516   0.682   4.606  15.166 -0.5593  0.0241 -1.2538
  711TMC3    H110517   0.535   4.267  14.974  0.5300  0.0666 -0.5072
  711TMC3    H210518   0.959   4.321  15.031 -0.9399 -2.7294 -0.4337
  711TMC3    C710519   0.761   4.148  15.030  0.3338 -0.2450  0.0112
  711TMC3    C810520   0.899   4.483  15.227  0.6340 -0.2095  0.7804
  711TMC3    O110521   0.838   4.124  15.120 -0.1532 -0.8260 -0.5660
  711TMC3    O210522   0.907   4.586  15.294 -0.0136 -0.3622  0.4247
  712MPD2     C10523   2.087   1.115  13.954 -0.1088 -0.7952  0.0819
  712MPD2    C110524   1.957   1.147  13.916 -0.4626 -0.5309  0.5577
  712MPD2    C210525   1.934   1.245  13.828  0.2248  0.9155 -0.2637
  712MPD2    C310526   2.041   1.311  13.766  0.3685 -0.4814 -0.4118
  712MPD2    C410527   2.168   1.270  13.793 -0.1467 -0.2091  0.1326
  712MPD2    C510528   2.189   1.179  13.894 -0.0910 -0.3370 -0.1398
  712MPD2     H10529   1.829   1.256  13.804 -0.5744  0.4435  3.1215
  712MPD2    H110530   2.251   1.300  13.729  0.1745 -1.9384 -0.2659
  712MPD2    H210531   2.115   1.042  14.030 -1.2497 -0.9597  0.3449
  712MPD2    H310532   2.289   1.150  13.925  0.2491  1.0868  0.0805
  712MPD2     N10533   2.021   1.401  13.661  0.4406 -0.3082 -0.0526
  712MPD2    H510534   2.101   1.447  13.619  0.3548 -1.2252 -1.1971
  712MPD2    N110535   1.843   1.076  13.955  0.2716  0.0362  0.4732
  712MPD2    H710536   1.756   1.108  13.914  0.5674  3.4163  2.4917
  713TMC3    C110537   1.897   1.577  13.548  0.4467 -0.0812 -0.1687
  713TMC3    C210538   2.012   1.621  13.497  0.2892 -0.5405  1.2679
  713TMC3    C310539   2.005   1.707  13.394 -0.0741  0.7818 -0.3308
  713TMC3    C410540   1.776   1.625  13.503  0.0961 -0.0545 -0.3240
  713TMC3    C510541   1.769   1.713  13.397 -0.2370  0.1453 -0.0044
  713TMC3    C610542   1.884   1.743  13.342 -0.9460 -0.2508 -0.3024
  713TMC3     C10543   1.899   1.475  13.648  0.0271  0.2247 -0.1999
  713TMC3     O10544   1.797   1.468  13.721  0.2306 -0.3908 -0.4974
  713TMC3     H10545   2.103   1.595  13.550  1.4060 -2.3890 -1.5626
  713TMC3    H110546   1.681   1.582  13.535 -0.8687  0.7080 -2.1746
  713TMC3    H210547   1.893   1.824  13.270 -2.8331  0.5090  0.3096
  713TMC3    C710548   1.642   1.727  13.333 -0.1974  0.8204 -0.4263
  713TMC3    C810549   2.121   1.744  13.312  0.2626 -0.1737 -0.2012
  713TMC3    O110550   1.543   1.716  13.401  0.5768 -0.4074  0.3350
  713TMC3    O210551   2.109   1.755  13.190 -0.1075 -0.1434  0.3224
  714MPD2     C10552   3.776   0.087   1.697 -0.0756 -0.6584  0.1494
  714MPD2    C110553   3.727   4.715   1.620 -0.3509 -0.0991  0.4498
  714MPD2    C210554   3.620   0.018   1.533 -0.0463  0.0089  0.2053
  714MPD2    C310555   3.574   0.147   1.520 -0.2201  0.4199 -0.0030
  714MPD2    C410556   3.623   0.238   1.611  0.2166  0.3196 -0.0669
  714MPD2    C510557   3.730   0.211   1.688 -0.5042  0.2319  0.1383
  714MPD2     H10558   3.579   4.666   1.467  0.5901 -0.1341 -0.0286
  714MPD2    H110559   3.584   0.338   1.625 -2.1246 -0.6970  0.6457
  714MPD2    H210560   3.854   0.073   1.771  0.5663  1.9780 -0.0407
  714MPD2    H310561   3.777   0.281   1.756  2.8331 -1.9353  0.0698
  714MPD2     N10562   3.471   0.179   1.423 -0.0109 -0.8274 -0.3200
  714MPD2    H510563   3.438   0.102   1.365 -0.7870  0.1579 -1.1963
  714MPD2    N110564   3.797   4.596   1.630  0.2507 -0.4246 -0.4683
  714MPD2    H710565   3.874   4.593   1.695 -1.1255 -0.3376  1.1764
  715TMC3    C110566   3.850   4.365   1.605  0.1767  0.2852  0.4015
  715TMC3    C210567   3.792   4.240   1.605  0.1935 -0.2486  0.4327
  715TMC3    C310568   3.867   4.132   1.625  0.5834 -0.2989  0.6489
  715TMC3    C410569   3.981   4.389   1.629  0.8657  0.2007  0.0871
  715TMC3    C510570   4.057   4.272   1.649 -0.0801 -0.2724  0.7787
  715TMC3    C610571   4.005   4.144   1.636 -0.2672 -0.3690  0.1933
  715TMC3     C10572   3.755   4.474   1.588 -0.5264 -0.3014  0.3094
  715TMC3     O10573   3.645   4.433   1.546  0.0222 -0.7288 -0.3268
  715TMC3     H10574   3.687   4.220   1.587  0.0876  0.6998  0.0223
  715TMC3    H110575   4.032   4.485   1.627 -1.0265  1.1986  0.2370
  715TMC3    H210576   4.064   4.054   1.648 -0.1547 -0.4447 -0.8955
  715TMC3    C710577   4.199   4.289   1.673 -0.0366  0.2283 -0.1287
  715TMC3    C810578   3.802   3.999   1.631 -0.3156  0.4028  0.6735
  715TMC3    O110579   4.274   4.201   1.634  0.5813  0.5118  0.0740
  715TMC3    O210580   3.692   3.980   1.675 -0.1074 -0.6329 -0.3743
  716MPD2     C10581   4.067   1.888   9.956  0.2657  0.0947 -0.2012
  716MPD2    C110582   3.993   1.887   9.843  0.7407  0.0703 -0.0186
  716MPD2    C210583   3.944   1.772   9.797 -0.2430 -0.2373 -0.1896
  716MPD2    C310584   3.968   1.648   9.858  0.3997  0.0816 -0.2963
  716MPD2    C410585   4.036   1.649   9.978  0.3711 -0.1795  0.3511
  716MPD2    C510586   4.075   1.770  10.026 -0.4495 -0.2940 -0.5639
  716MPD2     H10587   3.897   1.774   9.699  1.9587 -0.7661 -1.2474
  716MPD2    H110588   4.060   1.559  10.032  3.0724 -0.5514 -1.4367
  716MPD2    H210589   4.117   1.977   9.993  2.3997 -0.5625 -1.5152
  716MPD2    H310590   4.123   1.788  10.121 -1.6888  2.2611 -0.4390
  716MPD2     N10591   3.911   1.528   9.802  0.0698 -0.2220  0.0568
  716MPD2    H510592   3.868   1.538   9.710  1.3406  1.7714 -0.3312
  716MPD2    N110593   3.993   2.016   9.775 -0.4470 -0.3391  0.0057
  716MPD2    H710594   4.038   2.098   9.813  0.7496 -1.0221  0.0636
  717TMC3    C110595   3.848   1.310   9.790 -0.3348 -0.8630  0.1025
  717TMC3    C210596   3.782   1.346   9.672 -0.4502  0.0846 -0.5036
  717TMC3    C310597   3.700   1.247   9.619  0.3037  0.3190 -0.1217
  717TMC3    C410598   3.847   1.183   9.835 -0.0990  0.3788  0.0251
  717TMC3    C510599   3.762   1.084   9.781 -0.1214  0.2411 -1.3134
  717TMC3    C610600   3.687   1.122   9.673  0.5232 -0.6515  0.1883
  717TMC3     C10601   3.919   1.407   9.862 -0.0970 -0.1642  0.0863
  717TMC3     O10602   3.970   1.369   9.968 -0.1491 -0.0722  0.1386
  717TMC3     H10603   3.798   1.439   9.617 -2.6636  0.0098 -1.2706
  717TMC3    H110604   3.901   1.159   9.926  2.3536  0.5207 -1.4023
  717TMC3    H210605   3.612   1.054   9.637 -2.9916  2.6967  1.1956
  717TMC3    C710606   3.725   0.963   9.857 -0.3966 -0.4004 -0.0721
  717TMC3    C810607   3.632   1.275   9.496  1.1187 -0.7331  0.2513
  717TMC3    O110608   3.626   0.898   9.818 -0.4034  0.2356  0.7497
  717TMC3    O210609   3.606   1.395   9.481 -0.5633  0.6840 -0.0959
  718MPD2     C10610   2.736   1.372  12.349 -0.0069 -0.1377  0.7103
  718MPD2    C110611   2.654   1.276  12.408 -0.2696 -0.5793 -0.0769
  718MPD2    C210612   2.719   1.213  12.516  0.8895 -0.0675  0.8785
  718MPD2    C310613   2.845   1.241  12.561 -0.6048  0.2772 -0.4020
  718MPD2    C410614   2.907   1.347  12.508 -0.2996  0.3789  0.5108
  718MPD2    C510615   2.854   1.417  12.407  0.1832 -0.2856  0.4703
  718MPD2     H10616   2.658   1.136  12.562 -0.0081  0.8727  1.2658
  718MPD2    H110617   3.002   1.385  12.545 -0.2992  2.1626 -1.2843
  718MPD2    H210618   2.691   1.425  12.265 -1.7830  0.6700  2.1876
  718MPD2    H310619   2.907   1.504  12.370  0.3794 -1.1837 -1.3212
  718MPD2     N10620   2.891   1.154  12.658 -1.3094  0.5425  0.0360
  718MPD2    H510621   2.835   1.073  12.684  0.3743 -1.1654 -1.7021
  718MPD2    N110622   2.533   1.237  12.345 -0.3647  0.1876 -0.9989
  718MPD2    H710623   2.508   1.282  12.258  0.3602 -0.1008 -1.3584
  719TMC3    C110624   2.390   1.068  12.258 -0.3133  0.2052  0.7163
  719TMC3    C210625   2.411   0.937  12.271 -0.3276 -0.0801 -0.6606
  719TMC3    C310626   2.485   0.867  12.179  0.3142 -0.2778  0.0688
  719TMC3    C410627   2.428   1.131  12.143  0.4683  0.0704 -0.3646
  719TMC3    C510628   2.495   1.056  12.047  0.2004 -0.0553 -0.6498
  719TMC3    C610629   2.534   0.930  12.064  0.5377  0.1454  0.0856
  719TMC3     C10630   2.455   1.126  12.374 -0.3148 -0.1890  0.7456
  719TMC3     O10631   2.454   1.057  12.473 -0.2600 -0.1950 -0.1534
  719TMC3     H10632   2.389   0.886  12.364 -1.3777  2.7479  0.6508
  719TMC3    H110633   2.399   1.235  12.132  1.2391  0.1390 -1.6776
  719TMC3    H210634   2.578   0.873  11.983 -0.6987  0.2980 -0.6819
  719TMC3    C710635   2.607   1.115  11.977  0.1236  0.2782  0.3453
  719TMC3    C810636   2.604   0.797  12.239  0.3171 -0.0288 -0.1318
  719TMC3    O110637   2.709   1.048  11.955  0.4119  0.3676 -0.5810
  719TMC3    O210638   2.705   0.860  12.253  0.1219  0.3120  0.2668
  720MPD2     C10639   1.744   2.570  13.946 -0.2058 -0.2904 -0.1369
  720MPD2    C110640   1.809   2.683  13.894  0.2518  0.1112  0.4859
  720MPD2    C210641   1.903   2.756  13.969 -0.6024 -0.0370 -0.1720
  720MPD2    C310642   1.934   2.705  14.093 -0.2627 -0.1611 -0.7389
  720MPD2    C410643   1.892   2.575  14.133  0.4647 -0.3785 -0.7104
  720MPD2    C510644   1.797   2.513  14.060 -0.0676 -0.3179 -0.1585
  720MPD2     H10645   1.948   2.848  13.937  0.1299  0.2782  1.7646
  720MPD2    H110646   1.923   2.520  14.221  0.6576 -0.3842 -0.7823
  720MPD2    H210647   1.664   2.518  13.896 -0.4869  1.6454 -1.7148
  720MPD2    H310648   1.763   2.414  14.092 -0.5863  0.0230  0.3466
  720MPD2     N10649   2.042   2.766  14.166 -0.1136  0.4822 -0.0733
  720MPD2    H510650   2.102   2.835  14.122  1.5259 -1.4097 -0.7612
  720MPD2    N110651   1.775   2.724  13.766 -0.1860  0.8425 -0.1278
  720MPD2    H710652   1.822   2.810  13.740  1.9673 -1.1236 -2.7228
  721TMC3    C110653   2.186   2.811  14.334  0.0812 -0.0145 -0.0320
  721TMC3    C210654   2.211   2.825  14.466 -0.4283 -0.1195  0.1285
  721TMC3    C310655   2.339   2.844  14.517  0.4804  0.2521  0.0584
  721TMC3    C410656   2.296   2.811  14.249 -0.1534 -0.6251 -0.2437
  721TMC3    C510657   2.419   2.827  14.299 -0.1552  0.1763  0.1449
  721TMC3    C610658   2.446   2.855  14.430  0.6262 -1.1949  0.2424
  721TMC3     C10659   2.076   2.730  14.291 -0.3711 -0.2952  0.5547
  721TMC3     O10660   2.019   2.654  14.377  0.2379 -0.1741  0.1459
  721TMC3     H10661   2.126   2.834  14.532  0.8471 -0.8766  1.8681
  721TMC3    H110662   2.283   2.785  14.145 -2.4786 -0.5069 -0.0037
  721TMC3    H210663   2.546   2.875  14.467  0.2142  0.3150  0.5582
  721TMC3    C710664   2.538   2.808  14.219  0.0235 -0.2514 -0.3359
  721TMC3    C810665   2.360   2.926  14.641 -0.3608 -0.3677 -0.5911
  721TMC3    O110666   2.635   2.883  14.241 -0.2391  0.1857  0.4676
  721TMC3    O210667   2.447   3.009  14.633  0.5691 -0.4080  0.1206
  722MPD2     C10668   0.475   1.558  13.263 -0.7181 -0.1506  0.4705
  722MPD2    C110669   0.471   1.602  13.136 -0.4208  0.4068  0.2767
  722MPD2    C210670   0.349   1.583  13.070 -0.1549  0.1969  0.8821
  722MPD2    C310671   0.241   1.527  13.138  0.2526 -0.6677  0.1710
  722MPD2    C410672   0.263   1.465  13.260 -0.7200 -0.6590 -0.2416
  722MPD2    C510673   0.380   1.475  13.318 -0.4553 -0.4248 -0.7007
  722MPD2     H10674   0.334   1.631  12.974 -2.2497 -0.9003  0.6643
  722MPD2    H110675   0.187   1.414  13.319 -2.3835  0.2370 -1.5812
  722MPD2    H210676   0.556   1.575  13.333 -1.4805 -0.1419  1.3533
  722MPD2    H310677   0.396   1.432  13.417 -1.1528 -0.1998 -0.4900
  722MPD2     N10678   0.120   1.520  13.059 -0.0236  0.4712  0.1594
  722MPD2    H510679   0.119   1.582  12.979 -2.2461 -0.4652 -0.5493
  722MPD2    N110680   0.577   1.672  13.073  0.4178  0.4249  0.1696
  722MPD2    H710681   0.567   1.680  12.973 -0.0739  0.9425  0.2599
  723TMC3    C110682   4.618   1.469  13.000 -0.3152 -0.2142  0.3888
  723TMC3    C210683   4.520   1.380  12.983 -0.0972 -0.4543  0.3250
  723TMC3    C310684   4.412   1.407  12.904  0.2733  0.2642  0.3860
  723TMC3    C410685   4.615   1.592  12.935 -0.3852 -1.0674 -0.1809
  723TMC3    C510686   4.514   1.608  12.841  1.7350 -0.1867 -0.5350
  723TMC3    C610687   4.414   1.520  12.816  0.6035  0.4341  0.4828
  723TMC3     C10688   0.011   1.445  13.090 -0.2255 -0.1599 -0.1478
  723TMC3     O10689   0.006   1.361  13.177 -0.3381  0.0329 -0.2719
  723TMC3     H10690   4.532   1.301  13.056 -2.6785  0.4633  1.7451
  723TMC3    H110691   4.679   1.673  12.967 -0.8718 -1.5037  1.8777
  723TMC3    H210692   4.338   1.529  12.739 -0.3304  2.7869  1.6811
  723TMC3    C710693   4.493   1.727  12.771  0.5982 -0.6089  0.2175
  723TMC3    C810694   4.310   1.312  12.867  0.2435 -0.3191  0.2215
  723TMC3    O110695   4.420   1.716  12.672 -1.0053 -0.0377  0.6313
  723TMC3    O210696   4.229   1.346  12.784 -0.1945  0.2563  0.6828
  724TMC3    C110697   0.284   4.462  10.635 -0.3449 -0.5007  0.1566
  724TMC3    C210698   0.370   4.480  10.735  0.4838  0.3632 -0.3086
  724TMC3    C310699   0.487   4.544  10.711  0.1383  0.2650 -0.5047
  724TMC3    C410700   0.307   4.517  10.510 -0.1698  0.2140 -0.1098
  724TMC3    C510701   0.417   4.589  10.492 -0.0251 -0.8591 -0.3086
  724TMC3    C610702   0.513   4.604  10.591  0.6280 -0.0392  0.1170
  724TMC3     C10703   0.173   4.370  10.648 -0.0625 -0.1673  0.1980
  724TMC3     O10704   0.089   4.369  10.558 -0.1847 -0.0327 -0.3537
  724TMC3     H10705   0.343   4.459  10.838 -0.1114  1.3211 -0.2643
  724TMC3    H110706   0.244   4.496  10.425 -1.3757  2.8938  0.1074
  724TMC3    H210707   0.607   4.652  10.566  0.3242  0.8248  0.6392
  724TMC3    C710708   0.446   4.647  10.356 -0.0697 -0.0115 -1.0334
  724TMC3    C810709   0.557   4.606  10.825  0.1839  0.6819  0.4126
  724TMC3    O110710   0.562   4.676  10.332  0.5507  0.4545  0.5750
  724TMC3    O210711   0.546   4.552  10.932 -0.0460 -0.6464  0.8577
  725TMC3    C110712   2.396   3.058  12.936  0.0780  0.8159  0.6167
  725TMC3    C210713   2.263   3.054  12.906 -0.4437  0.3685  0.3148
  725TMC3    C310714   2.231   2.990  12.788  0.3456 -0.3094  0.1188
  725TMC3    C410715   2.499   3.025  12.849  0.2141 -0.8275 -0.3519
  725TMC3    C510716   2.456   2.953  12.738 -0.5271  0.1964  0.5078
  725TMC3    C610717   2.320   2.947  12.702 -0.2304 -0.7319  0.4354
  725TMC3     C10718   2.434   3.162  13.031 -0.7059 -0.5677 -0.0733
  725TMC3     O10719   2.533   3.226  12.990 -0.4343 -0.3869  0.3141
  725TMC3     H10720   2.194   3.120  12.957  1.7299  1.1187  2.2997
  725TMC3    H110721   2.603   3.023  12.877  0.3366 -1.1101 -0.8294
  725TMC3    H210722   2.289   2.876  12.626  1.4276 -0.8136 -0.1657
  725TMC3    C710723   2.536   2.957  12.615  0.6607 -0.2552  0.1519
  725TMC3    C810724   2.096   3.023  12.730 -0.2780 -0.0908  0.6739
  725TMC3    O110725   2.480   3.009  12.515  0.4857  0.3744  0.4211
  725TMC3    O210726   1.993   3.013  12.794  0.1641 -0.2786  0.4324
  726MPD2     C10727   0.059   0.260  11.214 -0.0358 -0.4262  0.0007
  726MPD2    C110728   4.675   0.247  11.128 -0.1222 -0.3237 -0.0533
  726MPD2    C210729   4.592   0.134  11.136 -0.2497  0.4355  0.2668
  726MPD2    C310730   4.600   0.042  11.239  0.2248 -0.3733 -0.0654
  726MPD2    C410731   4.704   0.056  11.322 -0.1515 -0.1839 -0.1945
  726MPD2    C510732   0.071   0.162  11.312 -0.5160  0.1173  0.5224
  726MPD2     H10733   4.513   0.115  11.065  0.3019 -0.1859 -0.1924
  726MPD2    H110734   4.704   4.707  11.402  0.8532 -1.4116 -1.3170
  726MPD2    H210735   0.131   0.340  11.211 -0.4377 -0.0032  1.8040
  726MPD2    H310736   0.150   0.169  11.386 -0.0934 -1.4675  0.2307
  726MPD2     N10737   4.513   4.645  11.238 -0.1954 -0.8628 -0.1102
  726MPD2    H510738   4.530   4.575  11.310 -0.9935 -0.6229  0.3098
  726MPD2    N110739   4.657   0.333  11.017 -0.0092 -0.3785  0.4768
  726MPD2    H710740   4.584   0.299  10.955 -0.5197  3.2247 -0.9093
  727TMC3    C110741   4.696   0.498  10.863 -0.1170 -0.1689  0.6938
  727TMC3    C210742   0.048   0.610  10.823  0.3042  0.0557  0.3560
  727TMC3    C310743   0.022   0.678  10.708  0.1856 -0.0521 -0.5278
  727TMC3    C410744   4.592   0.466  10.777  0.3526  0.5001 -0.3885
  727TMC3    C510745   4.562   0.537  10.666  0.3392  0.3203  0.0213
  727TMC3    C610746   4.636   0.648  10.626 -0.2789 -0.5520 -0.6068
  727TMC3     C10747   4.717   0.450  10.991  0.2261 -0.3598 -0.1214
  727TMC3     O10748   0.066   0.518  11.061  0.5016  0.0290 -0.6479
  727TMC3     H10749   0.126   0.655  10.883  0.6114  0.1019 -0.0787
  727TMC3    H110750   4.528   0.390  10.821 -0.6065  1.4886 -0.0555
  727TMC3    H210751   4.618   0.705  10.536  0.3294  0.7081  0.0670
  727TMC3    C710752   4.458   0.477  10.579 -0.3340 -0.4001  0.0721
  727TMC3    C810753   0.119   0.764  10.658 -0.1209 -0.7186  0.0832
  727TMC3    O110754   4.421   0.362  10.592  0.3862 -0.6696  0.1531
  727TMC3    O210755   0.231   0.750  10.707  0.8168  0.5707 -0.1930
  728TMC3    C110756   4.033   3.307  15.494 -0.9297  0.2518 -1.1903
  728TMC3    C210757   4.144   3.331  15.576 -0.8832 -0.1752  0.7931
  728TMC3    C310758   4.246   3.408  15.515 -0.2310 -0.5348 -0.3060
  728TMC3    C410759   4.019   3.351  15.368  0.3060  0.3395 -0.2833
  728TMC3    C510760   4.132   3.416  15.310 -0.0848 -0.9299  0.4168
  728TMC3    C610761   4.241   3.450  15.382  0.2841 -0.1427  0.0955
  728TMC3     C10762   3.916   3.244  15.556 -0.2035 -0.0265 -0.5263
  728TMC3     O10763   3.928   3.192  15.671 -0.0129  0.3717  0.8032
  728TMC3     H10764   4.139   3.292  15.677 -0.4294 -0.9214  0.5283
  728TMC3    H110765   3.930   3.336  15.308  1.2657  0.3084 -1.7192
  728TMC3    H210766   4.318   3.508  15.332  1.8567 -2.8482 -0.6233
  728TMC3    C710767   4.100   3.491  15.186  0.6870  0.1577  0.1977
  728TMC3    C810768   4.378   3.427  15.581 -0.0446 -0.1451 -0.2460
  728TMC3    O110769   4.007   3.454  15.118  0.1733  0.1022 -0.3931
  728TMC3    O210770   4.451   3.509  15.523  0.2528  0.4516 -0.1486
  729MPD2     C10771   2.048   3.683  16.576  0.0291 -0.4221 -0.2333
  729MPD2    C110772   2.050   3.823  16.608 -0.2442  0.5093 -0.0171
  729MPD2    C210773   2.015   3.857  16.735  0.0579  0.9066 -0.4441
  729MPD2    C310774   1.980   3.770  16.834  0.4026 -0.4464  0.1497
  729MPD2    C410775   1.992   3.636  16.801  0.4628 -0.2050 -0.5819
  729MPD2    C510776   2.016   3.591  16.673 -0.6084 -0.3970 -0.8493
  729MPD2     H10777   2.008   3.963  16.756 -0.7580  0.5154  1.2772
  729MPD2    H110778   1.960   3.567  16.877  1.6405  1.5180  1.4663
  729MPD2    H210779   2.067   3.643  16.477 -0.9156 -0.9748 -0.1882
  729MPD2    H310780   2.014   3.485  16.652  0.3236 -0.7963  1.0966
  729MPD2     N10781   1.928   3.808  16.962  0.2929  0.1265  0.6886
  729MPD2    H510782   1.919   3.745  17.041 -1.8415  1.2738  1.3616
  729MPD2    N110783   2.078   3.912  16.504  0.7014  0.1494 -0.1903
  729MPD2    H710784   2.113   3.876  16.416  0.3217  0.4560 -0.4702
  730TMC3    C110785   1.837   3.958  17.122 -0.3247 -0.5155  0.3682
  730TMC3    C210786   1.918   3.926  17.227  0.3964 -0.4881  0.5220
  730TMC3    C310787   1.900   3.999  17.348 -0.8045 -0.3358  0.2590
  730TMC3    C410788   1.734   4.047  17.135  0.3645  0.1824  0.1487
  730TMC3    C510789   1.726   4.121  17.253 -0.6434  0.3600 -0.0909
  730TMC3    C610790   1.807   4.092  17.362 -0.4153 -0.2436 -0.0597
  730TMC3     C10791   1.880   3.932  16.989  0.4224  0.1596 -0.0578
  730TMC3     O10792   1.836   4.006  16.905 -0.2935 -0.1399 -0.1770
  730TMC3     H10793   2.010   3.872  17.211  2.5205  2.0748  4.0858
  730TMC3    H110794   1.683   4.078  17.044 -2.1445  0.5841  1.6881
  730TMC3    H210795   1.804   4.145  17.457 -2.2655 -0.7567  0.1569
  730TMC3    C710796   1.685   4.259  17.233  0.6761  0.5442 -0.3329
  730TMC3    C810797   2.018   4.028  17.426 -0.3702 -0.4314 -0.3203
  730TMC3    O110798   1.673   4.292  17.117 -0.0766 -0.1033  0.1626
  730TMC3    O210799   2.081   3.934  17.466  0.2034 -0.0878  0.5063
  731MPD2     C10800   1.971   2.018  12.275 -0.3583 -0.5020 -0.1583
  731MPD2    C110801   2.060   2.126  12.265  0.6893 -0.5721 -0.3353
  731MPD2    C210802   2.065   2.215  12.370  0.2262 -0.0518  0.1291
  731MPD2    C310803   1.991   2.200  12.486  0.0578  0.2675  0.1605
  731MPD2    C410804   1.926   2.081  12.502 -0.1552  1.3823 -0.0623
  731MPD2    C510805   1.903   1.997  12.396 -0.7074  0.1231 -0.5378
  731MPD2     H10806   2.124   2.306  12.365  0.0987  0.1492  2.3045
  731MPD2    H110807   1.863   2.068  12.589 -2.2476 -2.1313 -2.0656
  731MPD2    H210808   1.946   1.951  12.194  0.2790  0.7434 -1.4038
  731MPD2    H310809   1.813   1.938  12.388 -0.2833 -0.6047 -0.0091
  731MPD2     N10810   2.017   2.289  12.593 -0.5465  0.1346  0.1666
  731MPD2    H510811   2.071   2.371  12.569 -1.8920  1.1211  0.5173
  731MPD2    N110812   2.119   2.155  12.143 -0.1690 -0.0505 -0.0328
  731MPD2    H710813   2.100   2.089  12.068 -0.9528  0.1883 -0.0487
  732TMC3    C110814   2.262   2.242  11.981  0.1293 -1.0108 -0.0977
  732TMC3    C210815   2.168   2.253  11.880 -0.5074  0.2107 -0.8114
  732TMC3    C310816   2.216   2.269  11.752  0.0709 -0.5701  0.8743
  732TMC3    C410817   2.392   2.285  11.955  0.0069  0.6929  0.3847
  732TMC3    C510818   2.436   2.302  11.825  0.2814 -0.2265 -0.0582
  732TMC3    C610819   2.343   2.301  11.726  0.5685  0.6213  0.7937
  732TMC3     C10820   2.217   2.249  12.117 -0.5630  0.0438  0.0240
  732TMC3     O10821   2.282   2.311  12.196 -0.5021  0.3133 -0.1023
  732TMC3     H10822   2.063   2.239  11.902 -0.9476  1.1820 -2.3246
  732TMC3    H110823   2.459   2.267  12.038  2.0145  0.9147 -1.1864
  732TMC3    H210824   2.371   2.325  11.623 -0.1032 -0.5595  0.3371
  732TMC3    C710825   2.552   2.387  11.806  0.2918 -0.4161  0.3226
  732TMC3    C810826   2.118   2.299  11.641  0.3347 -0.0253 -0.4514
  732TMC3    O110827   2.576   2.441  11.698 -1.1433  0.5412  0.4770
  732TMC3    O210828   2.148   2.254  11.534 -0.4311 -0.0590 -0.1202
  733TMC3    C110829   2.995   0.962  13.017  0.3079  0.0830  0.4190
  733TMC3    C210830   3.023   1.073  12.943  0.1618 -0.0734 -0.2682
  733TMC3    C310831   3.048   1.049  12.806  1.0027  1.1650  0.2664
  733TMC3    C410832   2.974   0.837  12.962  0.5412 -0.2553  0.4875
  733TMC3    C510833   2.986   0.823  12.828 -0.6833  0.4174  0.1796
  733TMC3    C610834   3.026   0.923  12.745  0.5081 -0.0010 -0.1523
  733TMC3     C10835   2.879   0.993  13.097 -0.5985 -0.8160  0.0978
  733TMC3     O10836   2.790   1.054  13.041 -0.2933 -0.2805 -0.0624
  733TMC3     H10837   3.009   1.172  12.983 -2.7441 -0.6099  0.0330
  733TMC3    H110838   2.918   0.768  13.024  1.0308 -2.6639 -1.7587
  733TMC3    H210839   3.026   0.919  12.637  0.0549  0.2217 -0.1581
  733TMC3    C710840   2.910   0.700  12.779  0.0340 -0.4042  0.0433
  733TMC3    C810841   3.011   1.168  12.728  0.0928  0.2261 -0.8205
  733TMC3    O110842   2.894   0.609  12.862 -0.1451  0.4298 -0.3354
  733TMC3    O210843   3.099   1.248  12.721  0.0798  0.3444  0.5762
  734MPD2     C10844   4.400   3.348  12.481 -0.2650 -0.1639  0.1161
  734MPD2    C110845   4.456   3.244  12.415  0.5260  0.2155  0.0698
  734MPD2    C210846   4.566   3.266  12.326 -0.3221 -0.3976 -0.4895
  734MPD2    C310847   4.626   3.398  12.321  0.5192  0.0079 -0.3923
  734MPD2    C410848   4.562   3.503  12.394  0.2282  0.3141 -0.7139
  734MPD2    C510849   4.443   3.477  12.461 -1.1478 -0.1384 -0.1618
  734MPD2     H10850   4.615   3.187  12.269  0.7886 -0.5937  0.7491
  734MPD2    H110851   4.590   3.608  12.392 -2.5556  1.0680 -0.2403
  734MPD2    H210852   4.315   3.338  12.547  0.0138 -0.5574  0.4186
  734MPD2    H310853   4.390   3.552  12.519  0.0466  0.5620  0.0059
  734MPD2     N10854   0.013   3.424  12.235  0.2868 -0.0211 -0.4070
  734MPD2    H510855   0.046   3.337  12.196 -1.0183  0.0190 -1.5972
  734MPD2    N110856   4.410   3.119  12.438 -0.6278  0.1221 -0.0930
  734MPD2    H710857   4.317   3.109  12.479  0.4129 -1.4895  1.8949
  735TMC3    C110858   4.408   2.890  12.439 -0.1311  0.7794 -0.6846
  735TMC3    C210859   4.366   2.867  12.313  0.2367  0.3844  0.2339
  735TMC3    C310860   4.390   2.752  12.246 -0.2490  0.5240 -0.3113
  735TMC3    C410861   4.469   2.792  12.509  0.4719 -0.5467  0.4352
  735TMC3    C510862   4.500   2.672  12.441 -0.1737  0.2457  0.3318
  735TMC3    C610863   4.450   2.651  12.314  0.0793 -0.1934 -0.2001
  735TMC3     C10864   4.488   3.005  12.420 -0.4518  0.8686 -0.2235
  735TMC3     O10865   4.607   2.988  12.386 -0.7345 -0.1491 -0.0648
  735TMC3     H10866   4.327   2.950  12.254  0.6188  0.3384 -0.0804
  735TMC3    H110867   4.523   2.814  12.600  1.1251 -0.1632 -0.0496
  735TMC3    H210868   4.475   2.564  12.254  1.9496  0.3415 -0.1810
  735TMC3    C710869   4.642   2.643  12.444  0.4700 -0.4456 -0.4067
  735TMC3    C810870   4.451   2.775  12.118 -0.1774 -0.7257 -0.2622
  735TMC3    O110871   4.705   2.631  12.338  0.0166  0.0327  0.2943
  735TMC3    O210872   4.411   2.708  12.025 -0.3793  0.4868 -0.2309
  736MPD2     C10873   0.146   2.619  12.731 -0.0251 -0.3257 -0.0926
  736MPD2    C110874   0.105   2.647  12.599 -0.1760  0.5939 -0.1220
  736MPD2    C210875   0.203   2.690  12.518  0.3364 -0.3787 -0.0203
  736MPD2    C310876   0.339   2.698  12.555  0.0120  0.9609 -0.1179
  736MPD2    C410877   0.375   2.656  12.675 -0.5570  0.8429  0.5563
  736MPD2    C510878   0.278   2.632  12.766 -0.0914 -0.6623  0.1407
  736MPD2     H10879   0.175   2.711  12.415  2.3107 -1.7025 -0.8357
  736MPD2    H110880   0.478   2.654  12.708 -0.2081  1.2102 -0.5073
  736MPD2    H210881   0.079   2.606  12.816  0.6932  0.0393  0.5314
  736MPD2    H310882   0.302   2.608  12.868  1.6602 -3.4542 -0.9440
  736MPD2     N10883   0.437   2.753  12.473 -0.3658 -0.3937  0.5878
  736MPD2    H510884   0.536   2.742  12.495  0.0008  0.6172 -0.5451
  736MPD2    N110885   4.687   2.642  12.572  0.1851 -0.3537  0.4787
  736MPD2    H710886   4.620   2.640  12.647 -0.5330  1.6840 -0.1181
  737TMC3    C110887   0.513   2.883  12.294 -0.6692  0.1051  0.2885
  737TMC3    C210888   0.491   2.981  12.200 -0.9429 -0.1299  0.3096
  737TMC3    C310889   0.554   2.977  12.083 -0.0710  0.2784  0.3155
  737TMC3    C410890   0.607   2.779  12.260  0.2913  0.0363  0.1491
  737TMC3    C510891   0.675   2.786  12.140 -0.4346 -0.8724  0.2501
  737TMC3    C610892   0.640   2.881  12.047 -0.4320  0.1296  0.3326
  737TMC3     C10893   0.400   2.849  12.377  0.2898 -0.0473  0.0231
  737TMC3     O10894   0.294   2.900  12.351 -0.1636 -0.2289  0.2377
  737TMC3     H10895   0.411   3.051  12.218 -0.7200  0.2957 -0.3278
  737TMC3    H110896   0.618   2.693  12.326  1.4207  0.7121  0.8376
  737TMC3    H210897   0.697   2.887  11.955  0.0249  2.3863  0.7563
  737TMC3    C710898   0.709   2.657  12.088 -0.3831 -0.9139  0.3907
  737TMC3    C810899   0.579   3.109  12.031 -0.6053 -0.5646 -0.6616
  737TMC3    O110900   0.669   2.564  12.155 -0.1586  0.3174  0.9536
  737TMC3    O210901   0.579   3.197  12.117  0.0399  0.4227  0.0179
  738MPD2     C10902   0.772   1.727  14.568  0.1071 -0.6207 -0.4122
  738MPD2    C110903   0.780   1.716  14.700 -0.3300 -0.1396  0.3959
  738MPD2    C210904   0.848   1.808  14.775 -0.1293 -0.2237  0.3205
  738MPD2    C310905   0.906   1.921  14.720  0.5610  0.1017 -0.0840
  738MPD2    C410906   0.891   1.939  14.585  0.2032 -0.1174  0.0914
  738MPD2    C510907   0.835   1.837  14.514  0.1623  0.6217  0.2200
  738MPD2     H10908   0.852   1.788  14.882  2.5504  0.2221  0.3158
  738MPD2    H110909   0.940   2.013  14.522 -0.0064 -1.0931 -1.2128
  738MPD2    H210910   0.724   1.657  14.501  1.1805 -1.5210 -0.2317
  738MPD2    H310911   0.836   1.832  14.406  2.3239 -0.2297  0.2701
  738MPD2     N10912   0.986   2.022  14.787 -0.2071 -0.1118  0.3493
  738MPD2    H510913   1.026   2.098  14.733 -1.2468 -0.1944 -0.5365
  738MPD2    N110914   0.711   1.617  14.774 -0.2407  0.3099  0.1842
  738MPD2    H710915   0.743   1.603  14.870  2.1412  2.8338 -0.2309
  739TMC3    C110916   1.114   2.123  14.954  0.0331 -0.2729 -0.1310
  739TMC3    C210917   1.153   2.220  14.864  0.2946  0.3425 -0.4001
  739TMC3    C310918   1.233   2.318  14.902 -0.0713 -0.1194 -0.8386
  739TMC3    C410919   1.159   2.128  15.087 -0.6544  0.2014 -0.9392
  739TMC3    C510920   1.240   2.229  15.126 -0.2173 -0.0978 -0.7997
  739TMC3    C610921   1.269   2.328  15.034  0.4518  1.2439  0.2098
  739TMC3     C10922   1.020   2.018  14.923 -0.0393  0.2494  0.0096
  739TMC3     O10923   0.988   1.942  15.017  0.7530  0.0951  0.0312
  739TMC3     H10924   1.132   2.215  14.758  0.4168  0.8682 -0.4516
  739TMC3    H110925   1.143   2.044  15.153  1.3398  0.5747  0.0333
  739TMC3    H210926   1.318   2.419  15.068 -1.4300  2.0552  0.7326
  739TMC3    C710927   1.301   2.229  15.260 -0.0397 -0.2017  0.0476
  739TMC3    C810928   1.291   2.394  14.798 -0.5080  0.4000  0.1171
  739TMC3    O110929   1.269   2.134  15.328 -0.5537 -0.2512  0.4609
  739TMC3    O210930   1.226   2.401  14.695  1.0903 -0.0880  0.1196
  740TMC3    C110931   1.628   3.122  14.549  0.2995  0.3810  0.4745
  740TMC3    C210932   1.665   3.050  14.661 -0.3077 -0.1190 -0.3562
  740TMC3    C310933   1.792   3.009  14.663 -0.3819  0.9238 -0.1775
  740TMC3    C410934   1.713   3.150  14.441 -0.5016 -0.6746 -0.0329
  740TMC3    C510935   1.833   3.084  14.449 -0.9157 -0.6284  0.2180
  740TMC3    C610936   1.880   3.031  14.567  0.3460 -0.4111 -0.6864
  740TMC3     C10937   1.516   3.212  14.569 -0.3847  1.1850  0.4225
  740TMC3     O10938   1.529   3.324  14.533  0.0868  0.0568 -0.2947
  740TMC3     H10939   1.600   3.047  14.748  2.9629  1.6062  2.1369
  740TMC3    H110940   1.684   3.198  14.348  0.2571 -0.7191 -0.2956
  740TMC3    H210941   1.971   2.974  14.554  1.2356  0.7980  0.2327
  740TMC3    C710942   1.930   3.092  14.348 -0.3986 -0.3184  0.2631
  740TMC3    C810943   1.836   2.921  14.771  0.0491 -0.5795 -0.0340
  740TMC3    O110944   2.046   3.089  14.380  0.3402 -0.2366 -0.8053
  740TMC3    O210945   1.921   2.834  14.734  0.0911  0.4287  0.2015
  741TMC3    C110946   0.861   2.409  14.833 -0.0085 -0.0393 -0.5433
  741TMC3    C210947   0.882   2.418  14.702 -0.4541 -0.2780  0.4458
  741TMC3    C310948   0.823   2.319  14.626 -0.1694  1.2652  0.1522
  741TMC3    C410949   0.783   2.312  14.889  0.5565  0.5119 -0.3178
  741TMC3    C510950   0.723   2.226  14.810 -0.0818 -0.0143  0.2882
  741TMC3    C610951   0.745   2.223  14.675  1.5568 -0.4445 -0.3896
  741TMC3     C10952   0.943   2.497  14.908 -0.1383  0.7418 -0.0842
  741TMC3     O10953   0.988   2.597  14.853  0.2089 -0.4619 -0.3168
  741TMC3     H10954   0.963   2.477  14.662 -0.2275 -0.4661  0.6276
  741TMC3    H110955   0.753   2.322  14.993  2.3394 -3.6382  0.6181
  741TMC3    H210956   0.717   2.141  14.609  0.2863 -0.9255  0.7342
  741TMC3    C710957   0.644   2.122  14.871 -0.1114  0.2440 -0.0107
  741TMC3    C810958   0.849   2.312  14.486 -0.0583  0.4925 -0.1933
  741TMC3    O110959   0.674   2.096  14.989 -0.1272 -0.3345  0.7213
  741TMC3    O210960   0.805   2.219  14.424 -0.3979  0.1938  0.3029
  742TMC3    C110961   1.136   1.358  15.124  0.4838  0.4741  0.8995
  742TMC3    C210962   1.116   1.354  14.996  0.1543 -0.8283  0.5391
  742TMC3    C310963   1.156   1.242  14.925  0.4716 -0.2263 -0.1913
  742TMC3    C410964   1.213   1.272  15.195 -0.2655 -0.0853  0.1826
  742TMC3    C510965   1.262   1.173  15.120 -0.1721 -0.0870 -0.7047
  742TMC3    C610966   1.235   1.153  14.987 -0.0260 -0.3954 -0.5380
  742TMC3     C10967   1.084   1.470  15.194  0.0167  0.2752  0.4909
  742TMC3     O10968   1.087   1.582  15.141 -0.2103  0.0633  0.3115
  742TMC3     H10969   1.042   1.419  14.951  1.9979  0.0222 -1.2396
  742TMC3    H110970   1.231   1.280  15.301  1.1406  0.2914 -0.0837
  742TMC3    H210971   1.252   1.061  14.932 -0.4684 -0.4687 -0.5470
  742TMC3    C710972   1.365   1.089  15.171 -0.2999 -0.0010  0.9510
  742TMC3    C810973   1.071   1.189  14.813  0.3945 -0.9545  0.3327
  742TMC3    O110974   1.420   1.032  15.077 -0.6699  0.5093  0.1960
  742TMC3    O210975   1.016   1.081  14.833 -0.6633 -0.3575  0.0285
  743MPD2     C10976   3.991   1.511   1.971 -0.1128 -0.1238  0.5440
  743MPD2    C110977   4.051   1.567   1.858 -0.7026  0.5245  0.1658
  743MPD2    C210978   4.188   1.558   1.851  0.5462 -0.3216 -0.1099
  743MPD2    C310979   4.266   1.508   1.954  0.0259 -0.2553 -0.2902
  743MPD2    C410980   4.209   1.474   2.076  0.6380 -0.7786 -0.3045
  743MPD2    C510981   4.070   1.477   2.080 -0.4922  0.4087 -0.0771
  743MPD2     H10982   4.239   1.593   1.762 -0.2262 -0.4016 -0.5856
  743MPD2    H110983   4.262   1.435   2.161  0.5494 -1.6327 -0.6307
  743MPD2    H210984   3.884   1.513   1.990 -0.4624 -0.6057 -1.3012
  743MPD2    H310985   4.018   1.462   2.173 -2.6077  0.2022 -1.2909
  743MPD2     N10986   4.406   1.500   1.935 -0.7579  0.0568 -0.1928
  743MPD2    H510987   4.424   1.538   1.843  0.9862  2.2783  1.0424
  743MPD2    N110988   3.962   1.623   1.764  0.6780 -0.5022  0.2943
  743MPD2    H710989   3.863   1.605   1.780  0.5138 -0.8793 -1.0941
  744TMC3    C110990   3.872   1.689   1.562  0.1325  0.2715  1.1643
  744TMC3    C210991   3.752   1.718   1.621 -0.5612  0.3226  0.1351
  744TMC3    C310992   3.639   1.722   1.542 -0.2077 -0.0482 -0.0186
  744TMC3    C410993   3.889   1.678   1.426  0.4540 -0.3843  0.2031
  744TMC3    C510994   3.770   1.679   1.357  0.4078 -0.0701 -0.2911
  744TMC3    C610995   3.642   1.690   1.411  0.0114 -0.0164  0.0193
  744TMC3     C10996   3.996   1.669   1.638  0.0439 -0.3979  0.0222
  744TMC3     O10997   4.105   1.683   1.587 -0.1474 -0.0599 -0.3796
  744TMC3     H10998   3.749   1.758   1.721  0.6019 -0.1492  0.3565
  744TMC3    H110999   3.984   1.662   1.376 -0.3691 -0.2416 -1.4023
  744TMC3    H211000   3.558   1.694   1.344  0.1660 -0.3691 -0.1960
  744TMC3    C711001   3.781   1.658   1.210  0.3759  0.2877  0.0152
  744TMC3    C811002   3.535   1.810   1.578  0.0420  0.3209 -0.2057
  744TMC3    O111003   3.894   1.653   1.164 -0.1534 -0.5590 -0.4851
  744TMC3    O211004   3.451   1.842   1.497  0.0155  0.2469  0.3722
  745TMC3    C111005   1.710   0.912  14.063  0.1201  0.4495 -0.3559
  745TMC3    C211006   1.649   0.983  14.157 -0.3531  0.3540 -0.2593
  745TMC3    C311007   1.513   1.004  14.133  0.0646  0.4787  0.9884
  745TMC3    C411008   1.649   0.877  13.950 -0.0262  0.0850  0.1194
  745TMC3    C511009   1.515   0.902  13.933 -0.1232 -0.8445  0.3736
  745TMC3    C611010   1.445   0.961  14.030 -0.3923 -0.1981 -0.3245
  745TMC3     C11011   1.844   0.962  14.032  0.2649  0.1967  0.2691
  745TMC3     O11012   1.929   0.924  14.116 -0.1842 -0.3057 -1.1445
  745TMC3     H11013   1.706   1.035  14.233 -0.1838  0.6167 -0.5644
  745TMC3    H111014   1.706   0.823  13.876  0.3989 -0.5425  0.8919
  745TMC3    H211015   1.339   0.982  14.020 -0.6784 -0.8668  1.2061
  745TMC3    C711016   1.458   0.920  13.801  0.4498  0.1330 -0.4816
  745TMC3    C811017   1.468   1.141  14.166  0.4947  0.3884  0.4407
  745TMC3    O111018   1.336   0.903  13.777  0.4393  0.1359  0.1517
  745TMC3    O211019   1.351   1.175  14.168 -0.7343 -0.3786 -0.3096
  746TMC3    C111020   3.704   2.466  10.799  0.3512  1.1449  0.2802
  746TMC3    C211021   3.786   2.499  10.692  0.1041 -0.0123 -0.1804
  746TMC3    C311022   3.773   2.417  10.581 -0.3168 -0.5032 -0.1635
  746TMC3    C411023   3.604   2.379  10.797 -0.0541  0.4093 -0.3570
  746TMC3    C511024   3.579   2.320  10.678 -0.7411  0.9045  0.6162
  746TMC3    C611025   3.661   2.334  10.570 -0.2192  0.8761  0.5204
  746TMC3     C11026   3.712   2.552  10.912  0.4868 -0.4253  1.1005
  746TMC3     O11027   3.685   2.505  11.020 -0.3317 -0.0786  0.5227
  746TMC3     H11028   3.879   2.552  10.711 -0.2926 -0.1764  2.1420
  746TMC3    H111029   3.546   2.360  10.887 -1.4158 -0.9511 -1.5202
  746TMC3    H211030   3.651   2.284  10.474  0.8659  2.4365 -0.4260
  746TMC3    C711031   3.459   2.253  10.651 -0.5271  0.0026 -0.3708
  746TMC3    C811032   3.852   2.436  10.460  0.3915 -0.1927 -0.4349
  746TMC3    O111033   3.406   2.266  10.546  0.0486  0.3059 -0.3563
  746TMC3    O211034   3.862   2.348  10.374  0.2789  0.6634  0.0880
  747TMC3    C111035   1.322   2.439  11.246  0.3641 -0.2434 -0.1012
  747TMC3    C211036   1.215   2.411  11.327  0.4942  0.1605  0.1930
  747TMC3    C311037   1.238   2.433  11.460  1.0415  0.1692  0.1478
  747TMC3    C411038   1.434   2.490  11.291 -0.6499  0.4889 -0.0962
  747TMC3    C511039   1.453   2.509  11.422 -0.7380 -0.4895  0.4813
  747TMC3    C611040   1.354   2.488  11.512 -0.0903 -0.0116 -0.2148
  747TMC3     C11041   1.291   2.479  11.112  0.0015 -0.0635 -0.0303
  747TMC3     O11042   1.362   2.560  11.058  0.3266  0.2532 -0.1528
  747TMC3     H11043   1.116   2.387  11.290  0.5588 -0.0004  0.1262
  747TMC3    H111044   1.512   2.522  11.223  1.7712  0.5437  2.6876
  747TMC3    H211045   1.377   2.514  11.614  0.6641  1.2534 -0.6972
  747TMC3    C711046   1.567   2.583  11.466  0.4340  0.6139 -0.0340
  747TMC3    C811047   1.134   2.393  11.551  0.0364 -0.1088  0.8678
  747TMC3    O111048   1.553   2.670  11.549  0.7488  0.1803 -0.4210
  747TMC3    O211049   1.071   2.295  11.517 -0.0157  0.2469 -0.4397
  748MPD2     C11050   2.438   3.664   1.117 -0.4413  0.4293  0.6075
  748MPD2    C111051   2.490   3.560   1.192  0.3457  0.1775 -0.2496
  748MPD2    C211052   2.626   3.527   1.200 -0.2117  0.5195 -0.3208
  748MPD2    C311053   2.713   3.593   1.114 -0.2492  0.5442  0.4563
  748MPD2    C411054   2.656   3.689   1.030 -0.2749 -0.4726  0.1389
  748MPD2    C511055   2.524   3.722   1.037  0.5256  0.1194 -0.9003
  748MPD2     H11056   2.662   3.456   1.274  0.1536 -2.2044 -3.1111
  748MPD2    H111057   2.712   3.750   0.960 -1.7437  1.1840  0.4185
  748MPD2    H211058   2.334   3.690   1.100 -0.2966  1.1753  0.8418
  748MPD2    H311059   2.489   3.797   0.967  1.6255 -0.8268 -2.4524
  748MPD2     N11060   2.845   3.550   1.109 -0.3079  0.0775 -0.1338
  748MPD2    H511061   2.876   3.480   1.176  1.8839 -0.7412 -1.9820
  748MPD2    N111062   2.393   3.500   1.270 -0.9173 -0.2690 -0.6187
  748MPD2    H711063   2.296   3.530   1.267 -0.7220  0.6282  1.4607
  749TMC3    C111064   3.058   3.515   1.016  0.3109 -0.2015 -0.5680
  749TMC3    C211065   3.077   3.413   1.106  0.3654 -0.1408  0.0568
  749TMC3    C311066   3.194   3.343   1.087  0.0177 -0.5673  0.3765
  749TMC3    C411067   3.140   3.539   0.907 -0.2827  0.4578  0.3878
  749TMC3    C511068   3.261   3.475   0.905 -0.7659  0.1878 -0.0482
  749TMC3    C611069   3.289   3.381   1.002  0.1017  0.4989 -0.1631
  749TMC3     C11070   2.941   3.603   1.031 -0.4293  0.1115  0.2844
  749TMC3     O11071   2.935   3.708   0.960 -0.2281  0.1862  0.0115
  749TMC3     H11072   3.008   3.369   1.177 -3.2714  1.0488 -2.7222
  749TMC3    H111073   3.108   3.615   0.837 -4.0547 -0.8459  0.7002
  749TMC3    H211074   3.381   3.322   0.997  1.0500  1.8689  1.1324
  749TMC3    C711075   3.377   3.552   0.861  0.6845  0.3725 -0.3104
  749TMC3    C811076   3.210   3.223   1.175 -0.3279 -0.7000 -0.2811
  749TMC3    O111077   3.347   3.672   0.845  0.4325  0.5864  0.4966
  749TMC3    O211078   3.141   3.222   1.276 -0.3115 -0.5301  0.1195
  750MPD2     C11079   3.970   4.582  11.979  0.4779 -0.3987  0.4919
  750MPD2    C111080   3.842   4.569  11.939  0.0829 -0.4204 -0.4705
  750MPD2    C211081   3.812   4.454  11.868 -0.7567  0.2418 -0.3706
  750MPD2    C311082   3.908   4.354  11.847  0.7529  0.0022  0.4028
  750MPD2    C411083   4.033   4.363  11.909 -0.0184 -0.6609 -0.2240
  750MPD2    C511084   4.063   4.483  11.970  0.1581 -0.1969  0.7777
  750MPD2     H11085   3.712   4.431  11.834 -1.2017 -0.6678  1.5456
  750MPD2    H111086   4.115   4.292  11.903  1.4584  1.0769 -0.9641
  750MPD2    H211087   3.995   4.675  12.028  1.6848  0.1063 -1.1227
  750MPD2    H311088   4.162   4.500  12.012 -0.9604  0.1268  3.2689
  750MPD2     N11089   3.887   4.236  11.774  0.3785  0.3653 -0.3335
  750MPD2    H511090   3.962   4.172  11.749  0.5812  0.4718 -0.0040
  750MPD2    N111091   3.756   4.678  11.941 -1.1305 -0.4262  0.3401
  750MPD2    H711092   3.787   0.046  11.970  0.3677 -0.9012  0.2138
  751TMC3    C111093   3.797   4.077  11.652 -0.2487  0.4397  0.3253
  751TMC3    C211094   3.681   4.012  11.633 -0.3202  0.4737  0.1509
  751TMC3    C311095   3.684   3.875  11.647 -0.4156  0.3286  0.1722
  751TMC3    C411096   3.918   4.007  11.667 -0.4593  0.4820  0.3592
  751TMC3    C511097   3.913   3.869  11.684  0.1235 -0.3593  0.5551
  751TMC3    C611098   3.791   3.804  11.690 -0.4276 -0.0838 -0.1121
  751TMC3     C11099   3.779   4.210  11.698 -0.2944  0.6574  0.2799
  751TMC3     O11100   3.667   4.265  11.694  0.0487 -0.0080 -0.0976
  751TMC3     H11101   3.593   4.062  11.595 -1.0020 -0.6517  0.2333
  751TMC3    H111102   4.018   4.048  11.667 -1.0003  1.7895  2.3288
  751TMC3    H211103   3.789   3.695  11.685 -1.1041 -0.1416  1.3904
  751TMC3    C711104   4.024   3.786  11.634  0.0102  0.9427  0.7824
  751TMC3    C811105   3.565   3.790  11.623  0.5363 -0.2125  0.3511
  751TMC3    O111106   4.077   3.826  11.531  0.0857 -0.5590 -0.6839
  751TMC3    O211107   3.528   3.781  11.508  0.3273 -0.5257 -0.2801
  752TMC3    C111108   2.852   4.195  17.001  0.3962  0.6182 -0.1883
  752TMC3    C211109   2.944   4.163  17.092 -1.0997 -0.1247  1.1067
  752TMC3    C311110   3.017   4.255  17.158 -0.5857  0.2455 -0.3689
  752TMC3    C411111   2.835   4.327  16.956  0.7695  0.4106 -0.3291
  752TMC3    C511112   2.914   4.416  17.023  0.2181 -0.5491 -0.1367
  752TMC3    C611113   2.992   4.385  17.127 -0.7534  0.2987  0.1161
  752TMC3     C11114   2.838   4.097  16.901 -0.4307  0.1256  0.0792
  752TMC3     O11115   2.933   4.023  16.883  0.5981 -0.5098 -0.7243
  752TMC3     H11116   2.984   4.062  17.101 -2.0969 -0.5873  0.4038
  752TMC3    H111117   2.785   4.348  16.862 -1.0774 -1.7229  0.2015
  752TMC3    H211118   3.046   4.466  17.174  1.1840  1.2003 -3.6396
  752TMC3    C711119   2.863   4.549  17.020  0.3368 -0.1109  0.5149
  752TMC3    C811120   3.115   4.229  17.264  0.0384  0.2824  0.2968
  752TMC3    O111121   2.751   4.556  16.973  0.0223 -0.2272  0.1786
  752TMC3    O211122   3.174   4.326  17.307  0.2940 -0.2221  0.4272
  753TMC3    C111123   3.974   0.687  13.361  0.6382  0.3835  0.3098
  753TMC3    C211124   4.039   0.711  13.483  0.0026  0.4567 -0.1368
  753TMC3    C311125   4.065   0.596  13.554  0.2276  0.0024  0.7558
  753TMC3    C411126   3.934   0.563  13.324 -0.7281 -0.5448  0.6477
  753TMC3    C511127   3.959   0.455  13.402  0.9335  0.1484  0.0249
  753TMC3    C611128   4.025   0.469  13.520 -0.2602  0.5295  0.2989
  753TMC3     C11129   3.941   0.792  13.264 -0.0769  0.4752 -0.1237
  753TMC3     O11130   3.864   0.763  13.172  0.0115 -0.0408  0.1822
  753TMC3     H11131   4.055   0.812  13.518  0.8666  0.8470 -1.6921
  753TMC3    H111132   3.899   0.546  13.223 -0.6776 -0.0026  0.5385
  753TMC3    H211133   4.059   0.377  13.567  0.5758  0.4369 -0.4893
  753TMC3    C711134   3.972   0.326  13.333 -0.0175 -0.4523 -0.0620
  753TMC3    C811135   4.141   0.614  13.676  1.0402  0.1565  0.1232
  753TMC3    O111136   4.019   0.327  13.218 -0.3872  0.5383  0.2502
  753TMC3    O211137   4.133   0.514  13.747  0.2464 -1.0567  0.4399
  754MPD2     C11138   3.457   4.139  13.099 -1.1477  0.0491  0.1522
  754MPD2    C111139   3.434   4.005  13.119 -0.1996  0.5657 -0.0604
  754MPD2    C211140   3.303   3.963  13.122  0.7682 -0.8883  0.4142
  754MPD2    C311141   3.200   4.049  13.132 -0.1657 -0.3888 -0.1564
  754MPD2    C411142   3.218   4.182  13.119  0.5708 -0.2057 -0.2217
  754MPD2    C511143   3.344   4.225  13.099 -0.0051  0.5262 -1.0034
  754MPD2     H11144   3.282   3.859  13.101 -0.8185 -0.2723 -1.0476
  754MPD2    H111145   3.139   4.256  13.114 -0.2532 -0.9637  1.5460
  754MPD2    H211146   3.558   4.177  13.094 -0.9972 -0.4510 -0.7000
  754MPD2    H311147   3.361   4.331  13.082  0.1164  0.2417 -2.6490
  754MPD2     N11148   3.065   3.996  13.146  0.1896  0.0487 -0.4403
  754MPD2    H511149   2.999   4.069  13.170 -0.5606 -0.5220 -0.7596
  754MPD2    N111150   3.546   3.917  13.113  0.5205  0.4338  0.6046
  754MPD2    H711151   3.630   3.969  13.090  0.4416  0.4113  0.2688
  755MPD2     C11152   2.389   4.513  13.242  0.1693  0.3797  0.8089
  755MPD2    C111153   2.415   4.445  13.358  0.7990  0.7930  0.2722
  755MPD2    C211154   2.493   4.329  13.352  0.0071  0.3196 -0.2133
  755MPD2    C311155   2.528   4.275  13.230  0.1949  0.1040 -0.6446
  755MPD2    C411156   2.493   4.337  13.120  0.6695  0.2256 -0.1113
  755MPD2    C511157   2.412   4.445  13.121  0.3523  0.0080 -0.0055
  755MPD2     H11158   2.520   4.283  13.446  3.5104  0.9818 -0.8942
  755MPD2    H111159   2.525   4.295  13.025  0.9564  0.7447 -0.2476
  755MPD2    H211160   2.340   4.609  13.238  0.9286  0.6838 -0.9326
  755MPD2    H311161   2.395   4.475  13.019  1.3703 -0.6787 -0.3809
  755MPD2     N11162   2.609   4.165  13.217  0.0270  0.8325  0.2520
  755MPD2    H511163   2.632   4.135  13.123  1.1897  0.1496  0.7518
  755MPD2    N111164   2.384   4.503  13.488  0.0598  0.2503  0.6519
  755MPD2    H711165   2.417   4.450  13.568 -0.4353 -1.7245 -0.4658
  756MPD2     C11166   3.275   4.713   9.828 -0.1393 -0.1919  0.2245
  756MPD2    C111167   3.199   0.110   9.847  0.5799 -0.3403 -0.2046
  756MPD2    C211168   3.073   0.117   9.790  0.0358 -1.5570  0.2547
  756MPD2    C311169   3.024   0.018   9.704  0.2393  0.4550 -0.1943
  756MPD2    C411170   3.108   4.629   9.686  0.0033 -0.2432 -0.6296
  756MPD2    C511171   3.218   4.613   9.758  0.2225 -0.7906 -0.4371
  756MPD2     H11172   3.005   0.197   9.815  1.3810  0.6043 -3.0752
  756MPD2    H111173   3.080   4.541   9.629  1.2737 -0.5357 -0.7808
  756MPD2    H211174   3.365   4.687   9.882  0.4831  0.5224 -0.4601
  756MPD2    H311175   3.271   4.518   9.759  0.3283 -0.7130  1.8079
  756MPD2     N11176   2.891   0.015   9.646  0.1536  0.1276 -0.1200
  756MPD2    H511177   2.860   4.651   9.607  2.1541 -0.6112 -0.0502
  756MPD2    N111178   3.237   0.208   9.944 -0.2114 -0.2099  0.3183
  756MPD2    H711179   3.174   0.285   9.964 -1.9928 -2.5047  3.6105
  757MPD2     C11180   2.471   4.059   9.731  0.3977  0.5524  0.7275
  757MPD2    C111181   2.596   4.109   9.721  0.3304  0.5381  0.3860
  757MPD2    C211182   2.603   4.242   9.668 -0.6063  0.1595  0.3196
  757MPD2    C311183   2.493   4.324   9.668  0.0203  0.5644 -0.5809
  757MPD2    C411184   2.367   4.275   9.692 -0.0106 -0.3401 -0.4268
  757MPD2    C511185   2.356   4.139   9.725  0.2044  0.0246  0.2666
  757MPD2     H11186   2.699   4.280   9.635 -1.4664  2.0612  0.0191
  757MPD2    H111187   2.274   4.331   9.687  0.4957  0.5166 -0.3349
  757MPD2    H211188   2.450   3.963   9.777 -0.5825  1.3421  1.9250
  757MPD2    H311189   2.259   4.092   9.734  1.2091 -1.8676  1.1410
  757MPD2     N11190   2.524   4.460   9.629 -0.9677 -0.3399  0.5203
  757MPD2    H511191   2.617   4.479   9.593 -0.8653 -2.8535 -0.5218
  757MPD2    N111192   2.708   4.029   9.739  0.2265  0.2726  0.0752
  757MPD2    H711193   2.686   3.937   9.775 -0.5547  0.6083  0.4427
  758MPD2     C11194   3.402   3.223  16.219 -0.1117  0.3597  0.0548
  758MPD2    C111195   3.472   3.294  16.318  0.7566 -0.0593  0.5357
  758MPD2    C211196   3.405   3.390  16.393 -0.1919  0.0481 -0.4561
  758MPD2    C311197   3.270   3.400  16.383 -0.3159 -0.3667 -0.4887
  758MPD2    C411198   3.206   3.342  16.278  0.4392  0.0424 -0.2801
  758MPD2    C511199   3.273   3.257  16.192 -0.1909  0.6228  0.4765
  758MPD2     H11200   3.449   3.448  16.474 -1.8924  0.9317 -0.1843
  758MPD2    H111201   3.107   3.381  16.254  0.6146  1.4344  1.2344
  758MPD2    H211202   3.450   3.154  16.151  0.5663 -0.4142  1.3027
  758MPD2    H311203   3.220   3.208  16.111  0.5529  0.9116 -0.1881
  758MPD2     N11204   3.198   3.487  16.465  0.1513  1.2155 -0.3401
  758MPD2    H511205   3.102   3.489  16.433  0.4292  0.2060 -1.2077
  758MPD2    N111206   3.613   3.277  16.334  0.3378  0.0678  0.3069
  758MPD2    H711207   3.668   3.223  16.268 -0.8590  0.0972 -0.7012
  759MPD2     C11208   2.336   2.702   9.987 -0.6175 -0.8203 -0.4581
  759MPD2    C111209   2.289   2.581   9.932 -0.4460 -0.2303  1.4001
  759MPD2    C211210   2.341   2.531   9.812 -0.7478  0.1694  0.0770
  759MPD2    C311211   2.430   2.611   9.731  0.1059 -0.0326  0.1908
  759MPD2    C411212   2.463   2.735   9.784 -0.1001  0.0794  0.3225
  759MPD2    C511213   2.418   2.777   9.906  0.1405 -0.3324 -0.1024
  759MPD2     H11214   2.317   2.429   9.784  1.9465 -0.4395 -0.0166
  759MPD2    H111215   2.532   2.798   9.729 -0.6575  1.4318  1.1812
  759MPD2    H211216   2.299   2.749  10.078  0.4702 -2.1094  0.6484
  759MPD2    H311217   2.455   2.869   9.949  0.9855 -0.0759 -1.3654
  759MPD2     N11218   2.475   2.563   9.608 -0.3620  0.2502  0.2142
  759MPD2    H511219   2.471   2.463   9.590  0.9232  0.2994 -0.3158
  759MPD2    N111220   2.187   2.507  10.004 -0.1399  0.5406 -0.7034
  759MPD2    H711221   2.176   2.418   9.958  0.1534  0.5559 -0.8049
  760MPD2     C11222   1.660   4.034  12.021  0.5308  0.1049 -0.1460
  760MPD2    C111223   1.774   4.050  11.941 -0.8100 -0.1073 -0.4393
  760MPD2    C211224   1.840   3.933  11.909  0.6849 -0.3308  0.1506
  760MPD2    C311225   1.810   3.812  11.966  0.2989 -0.1725 -0.3520
  760MPD2    C411226   1.713   3.806  12.063  0.3056  0.3672  0.0778
  760MPD2    C511227   1.634   3.916  12.082 -0.3785 -0.5512  0.1077
  760MPD2     H11228   1.933   3.949  11.855 -0.9985  2.0136 -2.0554
  760MPD2    H111229   1.679   3.714  12.109  0.0199 -0.2900 -1.4448
  760MPD2    H211230   1.596   4.115  12.053 -0.4052 -0.5898 -0.2389
  760MPD2    H311231   1.548   3.911  12.148  0.0812 -0.1995  0.7367
  760MPD2     N11232   1.894   3.693  11.955  0.6364  0.3326  0.8574
  760MPD2    H511233   1.879   3.634  12.035  2.9231  0.7191  1.5868
  760MPD2    N111234   1.817   4.175  11.900 -0.1591  0.8396 -0.7329
  760MPD2    H711235   1.892   4.174  11.833  2.2298 -1.5209  1.9340
  761MPD2     C11236   3.315   3.353  11.725 -0.2477 -0.1541 -0.5070
  761MPD2    C111237   3.340   3.412  11.601 -0.5685 -0.3196 -0.2960
  761MPD2    C211238   3.423   3.527  11.602  0.2329 -0.1732  0.0086
  761MPD2    C311239   3.461   3.592  11.724  0.6956 -0.2753 -0.5336
  761MPD2    C411240   3.418   3.534  11.838  0.0075 -0.2059  0.0746
  761MPD2    C511241   3.337   3.422  11.841 -0.5691 -0.7640  0.1549
  761MPD2     H11242   3.442   3.578  11.508 -0.4384  0.0454 -0.0127
  761MPD2    H111243   3.459   3.573  11.930 -0.3575  2.5265 -0.9060
  761MPD2    H211244   3.261   3.260  11.735  0.9522 -1.2010 -3.6894
  761MPD2    H311245   3.325   3.370  11.935  0.1776 -0.6279  0.3216
  761MPD2     N11246   3.536   3.707  11.735 -0.5147  0.5669  0.7446
  761MPD2    H511247   3.561   3.739  11.828 -2.9842 -0.0312  1.6228
  761MPD2    N111248   3.320   3.347  11.478 -0.4743  0.2304  0.0829
  761MPD2    H711249   3.362   3.389  11.395 -1.0260  0.3394 -0.1442
  762MPD2     C11250   3.774   3.466  11.129  0.8017  0.7342  0.1207
  762MPD2    C111251   3.714   3.361  11.057 -0.2830 -0.4883 -0.3441
  762MPD2    C211252   3.772   3.331  10.934 -0.1856 -0.1078  0.3553
  762MPD2    C311253   3.884   3.397  10.891  0.2021  0.6848  0.7138
  762MPD2    C411254   3.945   3.492  10.974  0.4832  0.0045  1.0120
  762MPD2    C511255   3.889   3.522  11.092 -0.0663 -0.5556  0.3322
  762MPD2     H11256   3.734   3.251  10.872 -2.1356  0.2647  1.0703
  762MPD2    H111257   4.034   3.549  10.949  1.1672 -1.1168  0.8929
  762MPD2    H211258   3.718   3.523  11.202  0.9842  3.4745 -1.8419
  762MPD2    H311259   3.935   3.596  11.156  0.5447 -0.6325 -0.0173
  762MPD2     N11260   3.939   3.368  10.767 -0.4614 -0.5163 -0.4939
  762MPD2    H511261   3.877   3.320  10.702 -0.9878 -0.4276 -0.0510
  762MPD2    N111262   3.597   3.308  11.111 -0.5620 -0.0870 -0.0761
  762MPD2    H711263   3.588   3.327  11.211 -0.2453 -0.1628 -0.0338
  763MPD2     C11264   0.840   3.804  16.287 -0.7377  0.4121  0.1646
  763MPD2    C111265   0.721   3.876  16.275  0.1419 -0.6905  0.3635
  763MPD2    C211266   0.718   4.013  16.313  0.1474  0.5836  0.5297
  763MPD2    C311267   0.827   4.071  16.371 -1.0394  0.5344  0.7882
  763MPD2    C411268   0.943   3.994  16.378  0.1264 -0.2395  0.8640
  763MPD2    C511269   0.952   3.864  16.342 -0.1032  0.2666 -0.2502
  763MPD2     H11270   0.632   4.074  16.289 -1.8046 -1.5812  1.9865
  763MPD2    H111271   1.035   4.032  16.420  1.7992 -1.7363 -1.4202
  763MPD2    H211272   0.853   3.699  16.265  0.7480  0.4768  0.7243
  763MPD2    H311273   1.050   3.818  16.345  0.8211  2.3228  1.2565
  763MPD2     N11274   0.835   4.203  16.415  0.0067 -0.3418  0.0456
  763MPD2    H511275   0.921   4.249  16.439 -1.0918  1.7171  0.0364
  763MPD2    N111276   0.598   3.824  16.227  0.1249  0.3074 -0.1505
  763MPD2    H711277   0.533   3.898  16.202 -1.1935  0.1099  2.6956
  764MPD2     C11278   3.507   0.353  17.305 -0.2216  0.0795 -0.0035
  764MPD2    C111279   3.387   0.398  17.270 -0.1009 -0.0276 -0.2227
  764MPD2    C211280   3.310   0.458  17.367 -0.3458  0.3272 -0.0644
  764MPD2    C311281   3.353   0.478  17.492 -0.4429 -0.1538 -0.4812
  764MPD2    C411282   3.484   0.436  17.533  0.5187 -0.1519  0.0902
  764MPD2    C511283   3.555   0.368  17.435  0.3294  0.3842 -0.4609
  764MPD2     H11284   3.216   0.503  17.336 -1.5533 -1.3971  1.1592
  764MPD2    H111285   3.525   0.432  17.633  1.3645 -0.9049 -0.2830
  764MPD2    H211286   3.569   0.297  17.236  0.5112  0.6255  0.2132
  764MPD2    H311287   3.655   0.337  17.464 -1.4549 -4.1866  0.6504
  764MPD2     N11288   3.272   0.549  17.583  0.1440 -0.1691 -0.0118
  764MPD2    H511289   3.182   0.578  17.545  0.3800 -1.6288 -1.7194
  764MPD2    N111290   3.332   0.388  17.138 -0.1617 -0.0937 -0.3479
  764MPD2    H711291   3.239   0.426  17.123  0.6331  2.2007  0.6397
  765MPD2     C11292   2.631   2.612  15.940 -0.0597 -0.3623  0.5010
  765MPD2    C111293   2.697   2.732  15.919 -0.1989 -0.0566  0.0549
  765MPD2    C211294   2.830   2.731  15.880 -0.6683  0.4737 -0.4426
  765MPD2    C311295   2.892   2.612  15.852 -0.1410  0.0961 -0.6500
  765MPD2    C411296   2.824   2.489  15.864  0.0505 -0.1924 -0.3416
  765MPD2    C511297   2.694   2.495  15.903  0.1516  0.0973 -0.4915
  765MPD2     H11298   2.883   2.823  15.860  1.8619 -0.5111  1.6659
  765MPD2    H111299   2.868   2.392  15.842 -0.1644 -0.3311 -0.1676
  765MPD2    H211300   2.531   2.606  15.982 -0.5732 -2.6533 -1.0362
  765MPD2    H311301   2.649   2.397  15.914  1.7798 -0.5110  0.7541
  765MPD2     N11302   3.029   2.618  15.814 -0.1330 -0.3738  0.2628
  765MPD2    H511303   3.067   2.712  15.815  0.2304 -0.5231  0.4024
  765MPD2    N111304   2.622   2.850  15.933  0.3546  0.5089  0.2994
  765MPD2    H711305   2.522   2.835  15.936  0.3983  0.6931  2.7818
  766MPD2     C11306   2.442   2.813  15.462  0.4854 -0.7008  0.3717
  766MPD2    C111307   2.474   2.939  15.502  0.2141 -0.0692  0.0719
  766MPD2    C211308   2.546   3.019  15.405 -0.0611 -0.1891  0.2299
  766MPD2    C311309   2.567   2.966  15.276  0.0181 -0.7575 -0.0487
  766MPD2    C411310   2.519   2.844  15.241 -0.5087  0.0108  0.3590
  766MPD2    C511311   2.454   2.768  15.337  0.6126  0.2697 -0.4503
  766MPD2     H11312   2.581   3.119  15.429 -0.7207  0.3443 -1.0150
  766MPD2    H111313   2.523   2.798  15.143  2.6513  2.6848 -0.7331
  766MPD2    H211314   2.390   2.741  15.524 -1.6830 -0.4312 -1.1397
  766MPD2    H311315   2.408   2.672  15.320 -0.4059  0.7896 -0.6209
  766MPD2     N11316   2.637   3.034  15.174 -0.0745 -0.1021 -0.0008
  766MPD2    H511317   2.661   2.986  15.088  1.3062  1.2476 -0.3611
  766MPD2    N111318   2.430   2.994  15.630 -0.0585 -0.0144 -0.1701
  766MPD2    H711319   2.377   2.933  15.691  0.7778  0.2317  0.7993
  767MPD2     C11320   2.238   3.540  15.145 -0.3496 -0.0224  0.0542
  767MPD2    C111321   2.359   3.575  15.086 -0.4871 -0.1717 -0.1101
  767MPD2    C211322   2.383   3.537  14.953  0.4147  0.0620 -0.3378
  767MPD2    C311323   2.285   3.481  14.875  0.0020  0.5325 -0.4395
  767MPD2    C411324   2.160   3.457  14.930  0.5606  0.1534  0.6900
  767MPD2    C511325   2.141   3.484  15.060 -0.5811 -0.2106 -0.3158
  767MPD2     H11326   2.478   3.566  14.908  0.0500 -1.7269 -2.2491
  767MPD2    H111327   2.068   3.433  14.877  1.4534 -0.5128 -0.5726
  767MPD2    H211328   2.211   3.574  15.245  1.5388 -0.8737  0.8479
  767MPD2    H311329   2.035   3.474  15.079 -0.7335  0.4321 -0.8166
  767MPD2     N11330   2.324   3.446  14.748  0.2037  0.4205  0.9382
  767MPD2    H511331   2.422   3.430  14.728  0.0436  2.5849 -1.5664
  767MPD2    N111332   2.466   3.612  15.172 -0.0735 -0.4172  0.5274
  767MPD2    H711333   2.444   3.633  15.269 -0.6243 -0.8736  0.4997
  768MPD2     C11334   3.368   2.016  10.277  0.4573 -0.3434 -0.1693
  768MPD2    C111335   3.289   1.936  10.352  0.2915 -0.9158  0.4516
  768MPD2    C211336   3.344   1.890  10.471  0.2443  0.5065 -0.0751
  768MPD2    C311337   3.474   1.909  10.512  0.5381  0.3680 -0.3948
  768MPD2    C411338   3.550   1.993  10.434 -0.0677 -0.4315 -0.1643
  768MPD2    C511339   3.499   2.042  10.317  0.0429  0.7949  0.0472
  768MPD2     H11340   3.275   1.834  10.533 -1.2785 -0.1045 -2.3327
  768MPD2    H111341   3.653   2.016  10.458 -0.0931 -0.5960  0.1145
  768MPD2    H211342   3.334   2.052  10.181 -0.7598  0.7449  0.6540
  768MPD2    H311343   3.564   2.115  10.270  0.9747  0.5723  0.9883
  768MPD2     N11344   3.526   1.870  10.639 -0.5280  0.7543  0.2375
  768MPD2    H511345   3.619   1.902  10.660 -0.8544  0.6259  1.8727
  768MPD2    N111346   3.155   1.901  10.323  0.5483  0.2032 -0.4897
  768MPD2    H711347   3.119   1.836  10.393  1.7491  0.6810  0.5776
  769MPD2     C11348   4.489   0.138  14.782  0.2954  0.6298  0.7594
  769MPD2    C111349   4.419   0.088  14.891  0.7090 -0.2231 -0.0031
  769MPD2    C211350   4.475   0.096  15.017  0.2800 -0.0858 -0.2022
  769MPD2    C311351   4.600   0.156  15.033  0.1540  0.3282  0.2829
  769MPD2    C411352   4.671   0.202  14.921 -0.0077 -0.6433 -0.8554
  769MPD2    C511353   4.608   0.197  14.802 -0.5975  0.6200 -0.1677
  769MPD2     H11354   4.409   0.083  15.102 -1.5138  0.9357 -1.4455
  769MPD2    H111355   0.032   0.270  14.930  0.6899 -1.4624 -1.3084
  769MPD2    H211356   4.436   0.152  14.689 -1.2947  0.4967  1.6419
  769MPD2    H311357   4.655   0.250  14.719 -0.3622 -1.0995 -1.1317
  769MPD2     N11358   4.635   0.183  15.164  0.2443  0.9533 -0.1211
  769MPD2    H511359   4.567   0.154  15.234  0.7206  1.6562  0.6319
  769MPD2    N111360   4.287   0.040  14.870  0.2392 -0.0708 -0.7528
  769MPD2    H711361   4.247   0.047  14.777 -0.9721  2.9478 -0.0028
  770MPD2     C11362   3.593   4.308  15.430 -0.4350 -0.3412  1.0336
  770MPD2    C111363   3.713   4.267  15.375 -0.6878  0.6828 -0.1395
  770MPD2    C211364   3.779   4.343  15.278  0.2226  0.7729  0.0564
  770MPD2    C311365   3.717   4.459  15.233  0.0641 -0.4480  0.0907
  770MPD2    C411366   3.599   4.497  15.286 -0.6026 -0.3175 -0.1191
  770MPD2    C511367   3.536   4.426  15.388  0.1532  0.7973 -0.3623
  770MPD2     H11368   3.873   4.327  15.226  0.9474 -0.9361  1.9008
  770MPD2    H111369   3.541   4.582  15.252 -0.2277 -0.2596 -0.6147
  770MPD2    H211370   3.545   4.242  15.501 -0.9148  0.1562  1.1744
  770MPD2    H311371   3.432   4.447  15.409  0.7208  1.9448  1.2896
  770MPD2     N11372   3.792   4.537  15.148  0.9534  0.3301 -0.0809
  770MPD2    H511373   3.881   4.499  15.118  0.6368  1.0850 -1.9645
  770MPD2    N111374   3.765   4.134  15.403  0.3916  0.3067  0.1028
  770MPD2    H711375   3.711   4.069  15.460  0.4707 -0.9726 -1.2857
  771MPD2     C11376   0.692   2.504  13.529 -0.3708 -0.6798 -0.6443
  771MPD2    C111377   0.584   2.583  13.572 -1.0469  0.0383 -0.3445
  771MPD2    C211378   0.462   2.583  13.506 -0.3036 -0.3113  0.3067
  771MPD2    C311379   0.440   2.499  13.399 -0.1714 -0.2511  0.7224
  771MPD2    C411380   0.548   2.429  13.348 -0.2082  0.7375 -0.0750
  771MPD2    C511381   0.671   2.429  13.415 -0.4852 -0.0902 -0.5374
  771MPD2     H11382   0.382   2.650  13.537  1.9940  3.3397 -1.7470
  771MPD2    H111383   0.546   2.376  13.253  0.7059 -1.1716  0.9489
  771MPD2    H211384   0.785   2.488  13.581  1.4694  3.9558 -2.5179
  771MPD2    H311385   0.759   2.381  13.374  0.7793  1.6442  0.1596
  771MPD2     N11386   0.314   2.511  13.336 -0.1213  0.3047 -0.1310
  771MPD2    H511387   0.235   2.554  13.383  1.3478  2.0111  0.7692
  771MPD2    N111388   0.593   2.678  13.676  0.6868 -0.0713 -0.3105
  771MPD2    H711389   0.508   2.731  13.690  1.7364  0.8266  2.6060
  772MPD2     C11390   0.205   3.213  13.794  0.4276  0.1935  0.3832
  772MPD2    C111391   0.215   3.092  13.864  0.0687  0.4557  0.3452
  772MPD2    C211392   0.099   3.032  13.900  0.7457  0.3624 -0.4677
  772MPD2    C311393   4.700   3.074  13.861  0.1729  0.2316 -0.2044
  772MPD2    C411394   4.697   3.188  13.782 -0.6650  0.6178  0.4884
  772MPD2    C511395   0.084   3.253  13.743 -0.0570  0.8199 -0.7992
  772MPD2     H11396   0.107   2.949  13.969 -2.3191 -0.1802 -0.7523
  772MPD2    H111397   4.601   3.228  13.750 -1.8077 -1.5430  1.1869
  772MPD2    H211398   0.294   3.273  13.785  0.3828  0.5387  2.2325
  772MPD2    H311399   0.080   3.354  13.704 -0.0945  0.0352 -2.8201
  772MPD2     N11400   4.576   3.027  13.905  0.0845 -0.3324  0.0628
  772MPD2    H511401   4.497   3.087  13.882  0.9876  1.0089  0.4775
  772MPD2    N111402   0.340   3.034  13.912 -0.2294  0.2488  0.2067
  772MPD2    H711403   0.326   2.954  13.972  1.1178 -0.3262 -0.2572
  773MPD2     C11404   4.422   3.624  17.536  0.2527  0.3097  0.6553
  773MPD2    C111405   4.316   3.543  17.574 -0.4420 -0.1565  0.4115
  773MPD2    C211406   4.342   3.421  17.632  0.1664 -0.8480  0.1467
  773MPD2    C311407   4.474   3.373  17.649  0.7100  0.5045  0.4379
  773MPD2    C411408   4.580   3.458  17.628 -0.5467 -0.7997 -0.2505
  773MPD2    C511409   4.550   3.586  17.576  0.0516 -0.5421 -0.2050
  773MPD2     H11410   4.262   3.356  17.665 -0.4274 -0.8450 -1.3208
  773MPD2    H111411   4.685   3.440  17.650 -0.0700  1.1524 -0.8916
  773MPD2    H211412   4.402   3.719  17.489 -0.1750 -0.4696 -0.7399
  773MPD2    H311413   4.631   3.656  17.562 -0.1212 -0.1538  0.7268
  773MPD2     N11414   4.492   3.247   0.014 -0.3903 -0.4295  0.6539
  773MPD2    H511415   4.419   3.176   0.003 -1.0141 -0.1025  2.6977
  773MPD2    N111416   4.179   3.577  17.555  0.2190 -0.1826  0.8653
  773MPD2    H711417   4.120   3.499  17.581 -0.3533  0.0051  0.1364
  774MPD2     C11418   3.193   2.930  13.500  0.6674  0.9296 -0.0774
  774MPD2    C111419   3.236   2.999  13.608  0.3044  0.4818  0.2532
  774MPD2    C211420   3.285   3.126  13.594 -0.1760  0.1175 -0.4296
  774MPD2    C311421   3.267   3.192  13.474  0.2246 -0.0347 -0.2538
  774MPD2    C411422   3.202   3.125  13.374  0.2078 -0.0064 -0.0414
  774MPD2    C511423   3.174   2.994  13.381 -0.1593  0.0820 -0.0016
  774MPD2     H11424   3.346   3.181  13.665 -1.2936  0.9302 -0.1028
  774MPD2    H111425   3.163   3.176  13.287 -0.2572 -0.6610 -0.2179
  774MPD2    H211426   3.153   2.829  13.508 -0.0676  1.1317 -1.1913
  774MPD2    H311427   3.143   2.949  13.287 -1.7700  1.3866 -0.0972
  774MPD2     N11428   3.316   3.327  13.464  0.4665  0.0283 -0.3036
  774MPD2    H511429   3.363   3.370  13.543 -0.8971 -1.1364  1.1592
  774MPD2    N111430   3.236   2.919  13.730 -0.6664 -0.2591 -0.0226
  774MPD2    H711431   3.206   2.823  13.721  0.7564 -0.8243  1.1534
  775MPD2     C11432   0.456   4.478  15.859 -0.0418  0.5978 -0.0436
  775MPD2    C111433   0.378   4.592  15.881 -0.2437 -0.5623 -0.2918
  775MPD2    C211434   0.423   4.710  15.829 -0.1789  0.2208 -0.0457
  775MPD2    C311435   0.547   4.706  15.761 -0.0777  0.6401 -0.4646
  775MPD2    C411436   0.623   4.599  15.747  0.8662 -0.0198  0.4315
  775MPD2    C511437   0.577   4.485  15.794 -0.4600  0.0191  0.0672
  775MPD2     H11438   0.373   0.082  15.841  1.6134  1.0076  1.0917
  775MPD2    H111439   0.726   4.598  15.711 -0.1957  1.1254 -2.6509
  775MPD2    H211440   0.434   4.383  15.906 -1.5012  0.7229 -0.4541
  775MPD2    H311441   0.642   4.398  15.798 -1.7750 -0.8574  2.0645
  775MPD2     N11442   0.594   0.095  15.689 -0.2681 -0.1676  0.3329
  775MPD2    H511443   0.675   0.081  15.630  0.1293  0.2559  0.7778
  775MPD2    N111444   0.248   4.582  15.950  0.5441 -0.2812  0.5447
  775MPD2    H711445   0.229   4.487  15.980  2.5589 -1.1258 -0.8707
  776MPD2     C11446   3.470   0.549  11.373 -0.4148  0.6868  0.1622
  776MPD2    C111447   3.551   0.528  11.482  0.1737 -0.4377 -0.2694
  776MPD2    C211448   3.657   0.614  11.505 -0.5040  0.0255  0.2644
  776MPD2    C311449   3.678   0.717  11.413 -0.1172  0.4944 -0.5582
  776MPD2    C411450   3.607   0.730  11.301 -0.0717  0.8798 -0.2271
  776MPD2    C511451   3.500   0.648  11.285  0.1840 -0.3089 -0.3208
  776MPD2     H11452   3.725   0.594  11.586  1.6296  0.1849 -1.4864
  776MPD2    H111453   3.615   0.815  11.233  1.2256  0.8540 -0.1122
  776MPD2    H211454   3.383   0.485  11.365  0.1914 -0.2945  1.4036
  776MPD2    H311455   3.437   0.668  11.199  0.7323  0.2542 -0.5935
  776MPD2     N11456   3.782   0.809  11.446  0.4441 -0.0472  0.4706
  776MPD2    H511457   3.834   0.805  11.534 -2.2302 -2.0863  1.9664
  776MPD2    N111458   3.523   0.410  11.555 -0.3923 -0.2355 -0.0047
  776MPD2    H711459   3.445   0.353  11.522 -1.6463  1.0829  0.6665
  777MPD2     C11460   4.328   2.421   0.686 -0.2361 -1.1782 -0.2465
  777MPD2    C111461   4.202   2.403   0.737  0.3120  0.4856 -0.5312
  777MPD2    C211462   4.130   2.284   0.695  0.6227  0.1864 -0.9294
  777MPD2    C311463   4.188   2.208   0.593 -0.1314  0.0987 -0.6984
  777MPD2    C411464   4.310   2.233   0.531  0.0255  0.2849  0.1564
  777MPD2    C511465   4.376   2.338   0.591 -0.0564 -0.2381  0.6190
  777MPD2     H11466   4.037   2.257   0.743  1.1885 -0.9673 -0.4822
  777MPD2    H111467   4.346   2.159   0.460  0.7785 -0.4618  1.3172
  777MPD2    H211468   4.378   2.511   0.720 -1.8248 -0.3138 -0.2161
  777MPD2    H311469   4.477   2.363   0.559 -0.7081  1.0558 -0.4524
  777MPD2     N11470   4.128   2.084   0.567 -0.2968  0.1684  0.5001
  777MPD2    H511471   4.045   2.068   0.623 -0.8715 -1.1731 -0.7372
  777MPD2    N111472   4.150   2.497   0.827  0.2851 -0.2811 -0.1323
  777MPD2    H711473   4.220   2.557   0.870  1.3710 -0.5676 -1.4997
  778MPD2     C11474   0.601   3.219  15.031  0.1086 -0.2104  0.0815
  778MPD2    C111475   0.600   3.097  14.964  0.0636  0.3406  0.3079
  778MPD2    C211476   0.703   3.080  14.870 -0.0643 -0.0814 -0.1576
  778MPD2    C311477   0.782   3.188  14.822  0.0863 -0.5142  0.7974
  778MPD2    C411478   0.771   3.309  14.889  0.7378 -0.2194 -0.8064
  778MPD2    C511479   0.690   3.313  15.004 -0.3187  0.0018  0.3983
  778MPD2     H11480   0.711   2.987  14.815 -2.4595  0.0251 -0.6883
  778MPD2    H111481   0.825   3.397  14.858  0.8773 -0.0653 -0.1311
  778MPD2    H211482   0.537   3.248  15.114  1.7674  1.7091  0.6777
  778MPD2    H311483   0.690   3.403  15.064  0.5672 -0.8231  1.6291
  778MPD2     N11484   0.858   3.168  14.706 -0.3477  0.1579  0.0254
  778MPD2    H511485   0.882   3.073  14.679 -0.0208 -0.0629  1.1015
  778MPD2    N111486   0.507   2.993  14.988 -0.5051  0.6834  0.3859
  778MPD2    H711487   0.516   2.916  14.921 -0.6468  1.5331 -0.6138
  779MPD2     C11488   0.610   1.393  13.580 -0.8457  0.9275 -0.0603
  779MPD2    C111489   0.522   1.447  13.676 -0.4632  0.5248  0.7797
  779MPD2    C211490   0.552   1.572  13.728 -0.3236  0.1181  0.9245
  779MPD2    C311491   0.665   1.642  13.682 -0.8861 -0.0049  0.7248
  779MPD2    C411492   0.748   1.586  13.585 -0.5129 -0.1705  0.5622
  779MPD2    C511493   0.722   1.463  13.539 -0.0532 -0.1325 -0.5730
  779MPD2     H11494   0.493   1.619  13.806 -1.2826 -0.1595  0.3542
  779MPD2    H111495   0.826   1.651  13.548 -0.8994  1.6203  2.8657
  779MPD2    H211496   0.597   1.295  13.536  0.6815  0.6954  0.0070
  779MPD2    H311497   0.785   1.418  13.462  1.0645  1.5893 -0.6587
  779MPD2     N11498   0.685   1.773  13.731  0.2488  0.2297 -0.1413
  779MPD2    H511499   0.609   1.829  13.769  0.5374 -0.2526  1.1299
  779MPD2    N111500   0.423   1.372  13.730  0.5213 -0.3617  0.2528
  779MPD2    H711501   0.376   1.416  13.808  0.8514 -1.2143  0.9266
  780MPD2     C11502   0.051   1.275   1.222  0.1950 -0.1011 -0.2698
  780MPD2    C111503   4.675   1.267   1.127 -0.3457 -0.5201  0.1884
  780MPD2    C211504   4.701   1.300   1.002 -0.5135 -0.0616  0.1889
  780MPD2    C311505   0.105   1.337   0.959  0.3102  0.5176  0.0053
  780MPD2    C411506   0.211   1.340   1.050  0.4065 -0.4650  0.3888
  780MPD2    C511507   0.175   1.311   1.181  0.9288 -0.4457 -0.7551
  780MPD2     H11508   4.623   1.296   0.926 -1.2998 -1.2534  1.0588
  780MPD2    H111509   0.314   1.363   1.026  0.5935  0.3303  1.9348
  780MPD2    H211510   0.030   1.252   1.326  0.7290 -1.9494 -0.5787
  780MPD2    H311511   0.251   1.320   1.258 -0.0960  2.7064 -0.1226
  780MPD2     N11512   0.115   1.361   0.823  0.1350 -0.9919  0.1983
  780MPD2    H511513   0.040   1.331   0.762  1.2999 -0.1759 -1.6499
  780MPD2    N111514   4.537   1.227   1.164  0.0338 -0.1151 -0.5693
  780MPD2    H711515   4.504   1.239   1.259  2.6340 -2.9575  0.6903
  781MPD2     C11516   1.441   3.592  11.946 -0.5798 -0.4870  0.4682
  781MPD2    C111517   1.546   3.515  11.996 -0.0581  0.0375 -0.3745
  781MPD2    C211518   1.646   3.473  11.907 -0.8086 -0.7612 -0.0775
  781MPD2    C311519   1.643   3.494  11.770  0.0962  0.0399 -0.9043
  781MPD2    C411520   1.534   3.577  11.730  0.6252  0.2123  0.0446
  781MPD2    C511521   1.440   3.621  11.816  0.4594  0.8416 -0.5432
  781MPD2     H11522   1.731   3.415  11.943 -1.1940 -0.9650  0.5018
  781MPD2    H111523   1.511   3.595  11.625  0.2432 -1.0845 -0.0889
  781MPD2    H211524   1.361   3.628  12.009 -1.3292 -1.7879  0.2635
  781MPD2    H311525   1.351   3.667  11.774 -1.4517 -1.8640  0.5053
  781MPD2     N11526   1.735   3.439  11.683 -0.3375 -0.7609  0.0052
  781MPD2    H511527   1.725   3.460  11.585  0.2723 -2.8280 -0.4947
  781MPD2    N111528   1.555   3.484  12.130  0.1870 -1.3316  0.2747
  781MPD2    H711529   1.474   3.507  12.187  1.8283  0.8211  1.7407
  782MPD2     C11530   4.299   3.843  10.746  0.3063 -0.9690  0.0389
  782MPD2    C111531   4.303   3.814  10.881  0.5626  0.3496 -0.4918
  782MPD2    C211532   4.269   3.913  10.973  0.0733  0.0180 -0.4572
  782MPD2    C311533   4.227   4.033  10.931  0.1114 -0.1414  0.5803
  782MPD2    C411534   4.210   4.063  10.798  0.3178 -0.7717  0.0614
  782MPD2    C511535   4.253   3.966  10.709 -0.0335 -0.0482 -0.7426
  782MPD2     H11536   4.287   3.901  11.080 -1.6912  0.6355 -0.0899
  782MPD2    H111537   4.189   4.164  10.765  0.7471 -0.6550  0.1392
  782MPD2    H211538   4.343   3.783  10.667  2.1353  1.8159 -1.0472
  782MPD2    H311539   4.269   4.005  10.609  1.8403  3.6860  1.0551
  782MPD2     N11540   4.203   4.130  11.028  0.6287 -0.3470  0.2382
  782MPD2    H511541   4.235   4.114  11.123 -1.4394  0.9729  1.1465
  782MPD2    N111542   4.366   3.696  10.917  0.1118  0.1349  0.7383
  782MPD2    H711543   4.420   3.639  10.852 -2.3079 -0.7284 -0.5031
  783MPD2     C11544   4.135   3.468  11.787  1.4944 -0.5261 -0.0298
  783MPD2    C111545   4.131   3.567  11.694 -0.0130 -0.7190  0.3610
  783MPD2    C211546   4.196   3.550  11.572  0.4855  0.3794  0.1606
  783MPD2    C311547   4.268   3.440  11.545  0.0537  0.4607  0.2533
  783MPD2    C411548   4.285   3.351  11.646 -0.1382  0.0079 -0.1397
  783MPD2    C511549   4.218   3.368  11.766  0.1505  0.9928  0.2003
  783MPD2     H11550   4.194   3.615  11.485  0.8878  1.7408  1.1680
  783MPD2    H111551   4.360   3.273  11.637  0.1961  0.5922 -2.6220
  783MPD2    H211552   4.067   3.462  11.871  1.5321  1.2560  0.1469
  783MPD2    H311553   4.248   3.299  11.844 -0.7299 -0.0275 -0.3644
  783MPD2     N11554   4.334   3.436  11.424 -0.8298  0.2272  0.4563
  783MPD2    H511555   4.313   3.511  11.359  0.8622 -0.0950 -0.4620
  783MPD2    N111556   4.040   3.670  11.711  0.0430 -1.0910  0.1244
  783MPD2    H711557   3.983   3.660  11.794  0.2846  1.3932  0.5906
  784MPD2     C11558   2.109   3.793   0.937 -0.0977 -0.6191 -0.2628
  784MPD2    C111559   2.164   3.919   0.952 -0.1146 -0.6849  0.0876
  784MPD2    C211560   2.168   4.010   0.851 -0.0723 -0.3663  0.0111
  784MPD2    C311561   2.112   3.977   0.728  0.2518  0.4218 -0.0170
  784MPD2    C411562   2.077   3.848   0.703  0.0935 -0.4233  0.1218
  784MPD2    C511563   2.082   3.761   0.809  0.8304  0.1963  0.7028
  784MPD2     H11564   2.216   4.106   0.864  1.1373 -0.9263 -0.3945
  784MPD2    H111565   2.051   3.819   0.601 -0.1782  1.1740 -0.2570
  784MPD2    H211566   2.104   3.717   1.014  1.4592  0.0991  0.5460
  784MPD2    H311567   2.052   3.659   0.787 -1.2214  1.2685 -1.5265
  784MPD2     N11568   2.111   4.074   0.630 -0.5051  0.2953  0.1586
  784MPD2    H511569   2.140   4.169   0.653  0.3529  0.6091 -2.2426
  784MPD2    N111570   2.221   3.962   1.081 -0.0334 -0.0030  0.2241
  784MPD2    H711571   2.273   4.048   1.074  0.3832 -0.4043 -1.6773
  785MPD2     C11572   1.577   2.501  10.669 -0.4162 -0.7539 -0.4414
  785MPD2    C111573   1.598   2.615  10.752  0.5401 -0.2835 -0.2109
  785MPD2    C211574   1.529   2.731  10.733 -0.0181 -0.2948 -0.4166
  785MPD2    C311575   1.421   2.741  10.648 -0.0267 -0.0882  0.0344
  785MPD2    C411576   1.395   2.627  10.569  0.9332 -0.4946 -0.2080
  785MPD2    C511577   1.466   2.511  10.588  0.0368 -0.3733 -0.4363
  785MPD2     H11578   1.544   2.811  10.804 -0.8691 -0.6239  0.1386
  785MPD2    H111579   1.313   2.617  10.499 -0.2812 -2.8999  1.5449
  785MPD2    H211580   1.612   2.402  10.697 -0.3972 -0.4692  0.5337
  785MPD2    H311581   1.422   2.424  10.542  0.1708 -1.8872  2.3223
  785MPD2     N11582   1.342   2.855  10.650 -0.3438  0.0633  0.2168
  785MPD2    H511583   1.376   2.936  10.702  0.5787  0.5526 -1.1515
  785MPD2    N111584   1.707   2.626  10.838 -0.0984  0.0181  0.2544
  785MPD2    H711585   1.722   2.716  10.882 -0.0881 -0.5965  1.5229
  786MPD2     C11586   0.807   1.250  14.381 -0.9590 -0.1826 -0.9446
  786MPD2    C111587   0.846   1.128  14.447  0.0036  0.1635  0.8525
  786MPD2    C211588   0.918   1.151  14.565  0.2073  0.6659 -0.9848
  786MPD2    C311589   0.956   1.273  14.604  0.7485 -0.4456  0.4141
  786MPD2    C411590   0.928   1.392  14.538 -0.3386 -0.6218  0.0721
  786MPD2    C511591   0.846   1.373  14.422 -0.0867 -0.2953 -0.2834
  786MPD2     H11592   0.935   1.060  14.622 -1.0485 -0.4227 -2.3650
  786MPD2    H111593   0.953   1.491  14.574  2.9817 -1.7094  0.7769
  786MPD2    H211594   0.760   1.245  14.284 -0.4173 -0.1312 -1.2087
  786MPD2    H311595   0.823   1.462  14.365 -1.0334  0.4567  1.2633
  786MPD2     N11596   1.043   1.287  14.719 -0.0797 -0.4806 -0.0660
  786MPD2    H511597   1.092   1.376  14.724 -0.6884 -0.2898  2.6893
  786MPD2    N111598   0.811   1.000  14.403 -0.4990 -0.9943  0.3782
  786MPD2    H711599   0.830   0.926  14.471  2.4828  0.3873  1.0617
  787MPD2     C11600   0.626   0.319  14.699  0.2871  0.0647  0.0265
  787MPD2    C111601   0.737   0.364  14.635 -0.1300 -0.6008  0.7631
  787MPD2    C211602   0.861   0.321  14.671 -0.2343  0.4035  0.4410
  787MPD2    C311603   0.876   0.221  14.766 -0.2411  0.0610  0.3818
  787MPD2    C411604   0.761   0.163  14.817  0.8604 -0.0638 -0.8924
  787MPD2    C511605   0.641   0.215  14.789 -0.0047 -0.2699 -0.4613
  787MPD2     H11606   0.953   0.348  14.620 -0.9703  1.4506 -0.3249
  787MPD2    H111607   0.760   0.073  14.878 -2.6784 -2.1388 -4.0408
  787MPD2    H211608   0.529   0.362  14.675  0.5435  1.2587  1.0896
  787MPD2    H311609   0.549   0.172  14.826 -0.3657 -1.3158 -2.5745
  787MPD2     N11610   1.004   0.167  14.793  0.0653  0.4880  0.3660
  787MPD2    H511611   1.082   0.213  14.746 -0.3001  0.9113  0.1767
  787MPD2    N111612   0.709   0.456  14.533 -0.1589  0.6047  0.4013
  787MPD2    H711613   0.612   0.458  14.503 -0.1157 -1.9723  0.0215
  788MPD2     C11614   2.910   2.828   1.103  0.8105  0.1032 -0.6590
  788MPD2    C111615   2.811   2.776   1.018 -0.1617 -0.0610  0.3124
  788MPD2    C211616   2.757   2.864   0.931  0.2260  0.2866  0.1797
  788MPD2    C311617   2.786   3.001   0.930 -0.3071  0.1568 -0.0860
  788MPD2    C411618   2.879   3.047   1.024 -0.2225  0.2935  0.8771
  788MPD2    C511619   2.949   2.959   1.104  0.1936  0.4576 -0.6217
  788MPD2     H11620   2.684   2.824   0.860  0.8400  0.7381 -0.6985
  788MPD2    H111621   2.911   3.150   1.030  1.0997 -0.0616 -0.1552
  788MPD2    H211622   2.958   2.769   1.180  0.3388 -0.7970 -1.0608
  788MPD2    H311623   3.018   2.984   1.184  0.1570 -0.6059 -0.2622
  788MPD2     N11624   2.726   3.097   0.843  0.4379  0.2133 -0.3166
  788MPD2    H511625   2.763   3.191   0.839 -0.5265  0.7208  2.3113
  788MPD2    N111626   2.779   2.636   1.002 -0.1893 -0.5072  0.5915
  788MPD2    H711627   2.712   2.605   0.932 -0.9712  0.6273  0.8162
  789MPD2     C11628   3.164   3.047  16.522 -0.3798 -0.2162  0.3963
  789MPD2    C111629   3.055   3.016  16.447 -0.0383 -0.3110 -0.2478
  789MPD2    C211630   2.941   3.093  16.473 -0.5054 -0.3231 -0.4881
  789MPD2    C311631   2.928   3.187  16.581  0.1132 -0.3663 -0.4405
  789MPD2    C411632   3.041   3.206  16.654  0.1213  0.4895  0.4507
  789MPD2    C511633   3.157   3.145  16.623  0.1645  0.7366 -0.2550
  789MPD2     H11634   2.856   3.071  16.411 -0.3114  1.2096 -1.2826
  789MPD2    H111635   3.040   3.259  16.748 -0.2596 -1.1299  1.3587
  789MPD2    H211636   3.253   2.985  16.516 -1.0753 -1.3563  1.8489
  789MPD2    H311637   3.238   3.176  16.688 -0.2680  1.6837 -0.1657
  789MPD2     N11638   2.802   3.238  16.619 -0.2020 -0.2299  0.6141
  789MPD2    H511639   2.804   3.279  16.711  0.9030 -1.4873  1.1429
  789MPD2    N111640   3.053   2.897  16.368 -0.1701  0.1337  0.0660
  789MPD2    H711641   2.965   2.857  16.338 -0.1910  0.6157 -0.5247
  790MPD2     C11642   3.591   4.617  13.825 -0.3802  0.7952  0.1858
  790MPD2    C111643   3.639   0.002  13.754  0.2451 -0.0467 -0.1271
  790MPD2    C211644   3.596   0.023  13.623 -0.6414  0.1274  0.7588
  790MPD2    C311645   3.511   4.656  13.569 -1.3515 -0.4018  0.0258
  790MPD2    C411646   3.463   4.540  13.640 -0.7579  0.0216 -0.2167
  790MPD2    C511647   3.499   4.531  13.774  0.6091  0.0579 -0.3065
  790MPD2     H11648   3.638   0.107  13.569 -1.5530 -0.1755 -0.4205
  790MPD2    H111649   3.398   4.468  13.593 -0.2230  1.2476 -2.8257
  790MPD2    H211650   3.631   4.595  13.923  0.3236  0.5127 -0.1680
  790MPD2    H311651   3.460   4.450  13.834  0.3683  0.9358  0.7138
  790MPD2     N11652   3.482   4.683  13.431 -0.0539  0.0524 -0.2160
  790MPD2    H511653   3.504   0.053  13.399 -0.4869  0.4787  0.7517
  790MPD2    N111654   3.715   0.091  13.829 -0.1610  0.0523 -0.0815
  790MPD2    H711655   3.705   0.092  13.930 -1.3073  1.5550 -0.2234
  791MPD2     C11656   2.916   0.071  12.751  0.5925  0.2380 -0.2156
  791MPD2    C111657   2.971   4.674  12.793  0.7269  0.6710 -0.0720
  791MPD2    C211658   2.914   4.558  12.755 -0.3595  0.2627  0.4263
  791MPD2    C311659   2.799   4.561  12.674  0.8532  0.3749 -0.4978
  791MPD2    C411660   2.768   4.677  12.603  0.0253  0.8623 -0.5721
  791MPD2    C511661   2.824   0.067  12.649 -0.1404  0.4620  0.8264
  791MPD2     H11662   2.941   4.457  12.785  1.1019  1.1419  2.0626
  791MPD2    H111663   2.699   4.680  12.520  0.9405 -1.1831 -1.3915
  791MPD2    H211664   2.949   0.160  12.803 -2.4510  0.4604  1.4008
  791MPD2    H311665   2.796   0.163  12.608  0.2910  0.5791  0.7977
  791MPD2     N11666   2.732   4.437  12.655  0.0870 -0.2216  0.2187
  791MPD2    H511667   2.768   4.365  12.717 -0.6712 -0.7135  0.0902
  791MPD2    N111668   3.079   4.678  12.886 -0.5451  0.4887 -0.2458
  791MPD2    H711669   3.128   0.043  12.893 -2.2146  1.5092 -1.6382
  792MPD2     C11670   3.857   0.093  11.538  0.3606  0.0080 -0.1392
  792MPD2    C111671   3.814   0.178  11.438  0.0207  0.0979 -1.2729
  792MPD2    C211672   3.681   0.163  11.395  0.6494 -0.1331  1.2560
  792MPD2    C311673   3.602   0.062  11.444  0.6217  0.0369 -0.0147
  792MPD2    C411674   3.657   4.691  11.531 -0.4685  0.4113  0.1975
  792MPD2    C511675   3.785   4.714  11.584 -0.5319  0.2047  0.2194
  792MPD2     H11676   3.639   0.238  11.328  0.5334 -0.1738  1.2840
  792MPD2    H111677   3.600   4.609  11.573 -3.0067  1.5034 -1.1335
  792MPD2    H211678   3.962   0.083  11.562 -0.7669 -0.6546  4.6079
  792MPD2    H311679   3.820   4.648  11.662  0.5536 -0.3707 -0.7570
  792MPD2     N11680   3.465   0.038  11.406 -0.2919 -0.2981  0.6745
  792MPD2    H511681   3.414   4.688  11.454 -1.7216  0.8389  0.9392
  792MPD2    N111682   3.895   0.288  11.405 -0.2739 -0.3201 -1.3801
  792MPD2    H711683   3.968   0.310  11.473 -0.7995 -0.3247 -0.8108
  793MPD2     C11684   2.961   0.398  10.594  0.0479  0.1793  0.0358
  793MPD2    C111685   3.092   0.357  10.605  0.1408  0.8383  0.6826
  793MPD2    C211686   3.133   0.295  10.730  0.0084 -0.4915 -0.4103
  793MPD2    C311687   3.032   0.271  10.821  0.0114  0.2386 -0.1643
  793MPD2    C411688   2.903   0.309  10.802  0.6995  0.3178  1.3251
  793MPD2    C511689   2.867   0.369  10.682  0.3655 -0.3684  0.6282
  793MPD2     H11690   3.237   0.267  10.743  0.5782  1.5612 -0.5308
  793MPD2    H111691   2.818   0.302  10.870 -1.7566 -2.4940 -2.0198
  793MPD2    H211692   2.932   0.464  10.513  1.3711 -1.8216 -2.0569
  793MPD2    H311693   2.767   0.409  10.670  0.3000 -0.8247 -0.3705
  793MPD2     N11694   3.084   0.204  10.939 -0.2200  0.2916  0.3066
  793MPD2    H511695   3.182   0.184  10.958 -1.0498 -1.6941  2.4814
  793MPD2    N111696   3.194   0.385  10.507  0.2820 -0.9239  0.5068
  793MPD2    H711697   3.291   0.384  10.538  0.8796  1.0179 -1.3683
  794MPD2     C11698   3.622   4.211  17.252 -0.2479 -1.1453 -0.6296
  794MPD2    C111699   3.593   4.084  17.220  0.6099  0.1519  0.1582
  794MPD2    C211700   3.499   4.053  17.120 -0.2957  0.3286  0.2359
  794MPD2    C311701   3.445   4.150  17.047  0.2667  0.5211  0.5224
  794MPD2    C411702   3.456   4.286  17.096  0.4691  0.0337 -0.2568
  794MPD2    C511703   3.557   4.313  17.189  0.1573  0.0400  0.2928
  794MPD2     H11704   3.480   3.950  17.090 -2.5829  0.5373  1.0041
  794MPD2    H111705   3.397   4.368  17.056  1.9708  0.7651 -0.9743
  794MPD2    H211706   3.688   4.249  17.329 -2.6018  1.6584  0.0014
  794MPD2    H311707   3.591   4.414  17.210 -0.2005  0.0688  0.7290
  794MPD2     N11708   3.355   4.128  16.941  0.8168  0.0771 -0.0876
  794MPD2    H511709   3.313   4.212  16.902  1.3360  0.9566  1.2429
  794MPD2    N111710   3.659   3.974  17.278  0.2148  0.9316 -0.1786
  794MPD2    H711711   3.641   3.881  17.241  1.8664  0.6912 -0.3649
  795MPD2     C11712   1.369   1.703  12.888 -0.4066  0.1825 -0.3098
  795MPD2    C111713   1.334   1.750  13.014 -0.0443 -0.2983 -0.2932
  795MPD2    C211714   1.423   1.742  13.121  0.3199  0.3559 -0.0070
  795MPD2    C311715   1.555   1.708  13.096  0.5185  0.3898 -0.3849
  795MPD2    C411716   1.593   1.687  12.967 -0.7659  1.0801  0.5132
  795MPD2    C511717   1.503   1.669  12.869  1.0970  0.4354 -0.5913
  795MPD2     H11718   1.390   1.772  13.220 -0.7897 -1.7898  0.2727
  795MPD2    H111719   1.700   1.681  12.952 -0.8944 -1.8371  0.7713
  795MPD2    H211720   1.299   1.700  12.805  0.8962 -2.6770 -1.3111
  795MPD2    H311721   1.536   1.651  12.768  2.3327  0.5371 -0.2053
  795MPD2     N11722   1.657   1.721  13.193 -0.2005 -0.3586  0.6185
  795MPD2    H511723   1.752   1.714  13.158 -0.2964 -0.8625  0.4603
  795MPD2    N111724   1.202   1.800  13.035 -0.1238  0.4260  0.2830
  795MPD2    H711725   1.181   1.826  13.131  1.2752 -0.0953  0.7468
  796MPD2     C11726   0.830   3.156  15.956  0.6297  0.2349 -0.0080
  796MPD2    C111727   0.858   3.202  16.076  0.0225 -0.0707  0.4209
  796MPD2    C211728   0.911   3.334  16.078 -0.1267  0.4606 -0.4166
  796MPD2    C311729   0.911   3.409  15.963 -0.5051  0.0540 -0.2790
  796MPD2    C411730   0.874   3.357  15.842  0.2195  0.0106  0.3811
  796MPD2    C511731   0.835   3.227  15.837  0.0350  0.1446 -0.3644
  796MPD2     H11732   0.917   3.392  16.169  0.2538 -0.1129 -0.0763
  796MPD2    H111733   0.871   3.411  15.748 -0.6932  3.0547  2.1823
  796MPD2    H211734   0.804   3.052  15.946  0.7341  0.3252 -1.2510
  796MPD2    H311735   0.805   3.185  15.741  1.5440 -0.5034 -0.5506
  796MPD2     N11736   0.940   3.547  15.982  0.1286 -0.0793  0.5480
  796MPD2    H511737   0.969   3.576  16.075  1.7963 -0.5124  0.1632
  796MPD2    N111738   0.822   3.129  16.190  0.3084 -0.2121 -0.3551
  796MPD2    H711739   0.758   3.050  16.178  0.3819 -0.2962 -0.1969
  797MPD2     C11740   1.593   2.592  17.388  0.3228 -0.6572  0.2304
  797MPD2    C111741   1.711   2.656  17.380 -0.3817  0.5057 -0.4416
  797MPD2    C211742   1.714   2.781  17.318 -0.5549 -0.9661  0.1635
  797MPD2    C311743   1.601   2.844  17.261 -0.3939  0.3239 -0.1966
  797MPD2    C411744   1.480   2.771  17.275 -0.2330  0.2673 -0.3761
  797MPD2    C511745   1.478   2.646  17.334  1.0714  0.0608 -0.1678
  797MPD2     H11746   1.815   2.819  17.305 -1.7379  2.3205  0.5915
  797MPD2    H111747   1.387   2.812  17.236 -0.1138  2.2734  1.4673
  797MPD2    H211748   1.590   2.494  17.436 -1.5479 -1.1738 -0.9401
  797MPD2    H311749   1.382   2.597  17.326  1.1451  0.0403 -0.9189
  797MPD2     N11750   1.603   2.970  17.199  0.2841 -0.2161  0.2719
  797MPD2    H511751   1.517   3.007  17.161  1.4248  0.0463 -2.0627
  797MPD2    N111752   1.836   2.616  17.434 -0.1314  0.0407  0.1456
  797MPD2    H711753   1.911   2.665  17.386 -0.1492 -1.2140 -1.1665
  798MPD2     C11754   2.297   3.072  17.129  0.0111 -0.2769  0.0790
  798MPD2    C111755   2.173   3.072  17.191 -0.0315  0.3449  0.0863
  798MPD2    C211756   2.149   2.985  17.299 -0.0591  0.7507  0.1425
  798MPD2    C311757   2.250   2.896  17.342  0.3694  0.5601 -0.7756
  798MPD2    C411758   2.373   2.902  17.274  0.5337 -0.3918  0.0084
  798MPD2    C511759   2.398   2.989  17.171 -0.7687 -0.1916 -0.7489
  798MPD2     H11760   2.052   2.979  17.347 -0.4662  2.6121 -0.4442
  798MPD2    H111761   2.459   2.840  17.297 -0.4079 -2.0283 -0.8583
  798MPD2    H211762   2.313   3.142  17.048 -1.0158  0.5166  0.5721
  798MPD2    H311763   2.496   2.990  17.124  0.5312 -0.0583  1.9649
  798MPD2     N11764   2.218   2.811  17.454  0.1549  1.2017 -0.6863
  798MPD2    H511765   2.126   2.823  17.496 -0.2911 -1.2812 -0.9523
  798MPD2    N111766   2.060   3.152  17.153  0.1017  0.0226 -0.1591
  798MPD2    H711767   1.968   3.129  17.191  0.7159  1.2633  2.0814
  799MPD2     C11768   0.844   4.457  14.703 -0.1181 -1.0082  0.1675
  799MPD2    C111769   0.778   4.357  14.634 -0.5401  0.3745  0.4792
  799MPD2    C211770   0.687   4.388  14.534  0.2880 -0.6089  0.3146
  799MPD2    C311771   0.662   4.523  14.502  0.2014 -0.2511  0.5265
  799MPD2    C411772   0.725   4.622  14.582  0.3976 -0.7333  0.1810
  799MPD2    C511773   0.814   4.584  14.677  0.1135  0.0450  0.0774
  799MPD2     H11774   0.642   4.311  14.472  2.0564 -0.5577 -1.0311
  799MPD2    H111775   0.705   0.003  14.561  1.5818 -1.0449 -2.5527
  799MPD2    H211776   0.920   4.435  14.777  0.8080  0.0645 -0.4676
  799MPD2    H311777   0.868   4.662  14.730 -0.3361 -0.5943  1.4575
  799MPD2     N11778   0.599   4.572  14.386 -0.3187  0.0422  0.7082
  799MPD2    H511779   0.619   4.668  14.358 -0.2353  0.0912  0.9337
  799MPD2    N111780   0.797   4.213  14.643 -0.0032  0.7579 -0.4189
  799MPD2    H711781   0.736   4.153  14.590 -0.9323  1.9552 -0.7130
  800MPD2     C11782   1.628   1.625  14.115 -0.0073  0.5508 -0.3691
  800MPD2    C111783   1.737   1.547  14.094  0.6252 -0.0118  0.2497
  800MPD2    C211784   1.717   1.409  14.104  0.1579 -0.2073  0.0264
  800MPD2    C311785   1.593   1.355  14.137  0.0384 -0.1038  0.0435
  800MPD2    C411786   1.487   1.436  14.151 -0.3530 -0.2660  0.6474
  800MPD2    C511787   1.511   1.569  14.157 -0.6665 -0.2487 -0.3692
  800MPD2     H11788   1.799   1.340  14.087  0.5414 -0.0901  1.3940
  800MPD2    H111789   1.390   1.397  14.180 -0.1511 -2.1163 -1.1868
  800MPD2    H211790   1.647   1.730  14.129  0.4364  0.3152  0.7762
  800MPD2    H311791   1.427   1.636  14.171 -0.3810  0.3299 -1.3925
  800MPD2     N11792   1.585   1.218  14.152 -0.3030 -0.6335  0.0170
  800MPD2    H511793   1.672   1.168  14.133 -3.0590 -3.9872 -3.8563
  800MPD2    N111794   1.855   1.610  14.052 -0.1430  0.3980 -0.1411
  800MPD2    H711795   1.858   1.711  14.039 -1.7462  0.4301 -0.2254
  801MPD2     C11796   2.088   2.141  14.336 -0.2474  0.3029  0.6876
  801MPD2    C111797   2.001   2.074  14.252  1.3910 -0.0326  0.7163
  801MPD2    C211798   1.864   2.094  14.260  0.1545 -0.3165 -0.1739
  801MPD2    C311799   1.807   2.179  14.358 -0.2216  0.3996 -0.2260
  801MPD2    C411800   1.891   2.255  14.440  0.6271  0.0507 -0.2902
  801MPD2    C511801   2.030   2.230  14.425  0.1521 -0.0830  0.2473
  801MPD2     H11802   1.798   2.040  14.192 -1.4391 -0.5083  1.5041
  801MPD2    H111803   1.863   2.325  14.517 -1.5837 -2.0508  0.8054
  801MPD2    H211804   2.195   2.122  14.336 -0.3141 -0.0418 -0.1195
  801MPD2    H311805   2.084   2.294  14.494 -1.9743  1.9731 -0.0066
  801MPD2     N11806   1.666   2.195  14.379 -0.1158 -0.0278  0.3918
  801MPD2    H511807   1.633   2.248  14.458 -0.8978 -0.0252  0.0676
  801MPD2    N111808   2.052   1.975  14.167  0.0983 -0.4831  0.0849
  801MPD2    H711809   1.973   1.928  14.123  0.5989 -1.1965 -0.0619
  802MPD2     C11810   1.122   2.170   0.285 -0.2394  0.6216 -0.0805
  802MPD2    C111811   0.996   2.137   0.243 -0.1229  0.5450 -0.6443
  802MPD2    C211812   0.972   2.038   0.147  0.1676  0.0939 -0.0361
  802MPD2    C311813   1.079   1.954   0.113 -0.3027  0.9671  0.3519
  802MPD2    C411814   1.208   1.980   0.162  0.6102 -0.0111 -0.0336
  802MPD2    C511815   1.228   2.092   0.240  0.2185 -0.7662 -0.3091
  802MPD2     H11816   0.876   2.028   0.099 -0.2281  0.0780  0.7505
  802MPD2    H111817   1.294   1.918   0.143 -1.3363 -1.9933 -2.3558
  802MPD2    H211818   1.140   2.247   0.360 -0.2453  0.8449 -0.3061
  802MPD2    H311819   1.327   2.112   0.278  1.1396  0.8450 -3.4959
  802MPD2     N11820   1.040   1.847   0.031 -0.1289 -0.2661  0.2512
  802MPD2    H511821   0.942   1.854   0.004 -0.1548 -2.2022 -0.1503
  802MPD2    N111822   0.887   2.216   0.285  0.1838  1.0169  0.4466
  802MPD2    H711823   0.793   2.191   0.256  0.2978 -0.1033  1.0504
  803MPD2     C11824   1.510   0.335  12.231  0.0706  0.4600  0.1397
  803MPD2    C111825   1.603   0.286  12.321  0.0463 -0.8989 -0.9029
  803MPD2    C211826   1.568   0.185  12.402  0.2684  0.0488  0.7134
  803MPD2    C311827   1.446   0.126  12.391  0.5264  0.3199 -0.3484
  803MPD2    C411828   1.350   0.177  12.309  1.1402 -0.4989 -0.2773
  803MPD2    C511829   1.388   0.279  12.227  0.1020 -0.1170 -0.2469
  803MPD2     H11830   1.643   0.141  12.467  0.2834  0.0773  0.7156
  803MPD2    H111831   1.254   0.128  12.310  1.4623 -1.1229 -0.0121
  803MPD2    H211832   1.541   0.413  12.162 -0.6444 -0.9348 -1.7322
  803MPD2    H311833   1.316   0.332  12.166  0.5580  0.2674 -0.4491
  803MPD2     N11834   1.408   0.019  12.474  0.2425  0.3594  0.5428
  803MPD2    H511835   1.309   4.722  12.482  0.4661 -1.4437 -1.1597
  803MPD2    N111836   1.727   0.349  12.337 -0.4337  0.2910  0.5238
  803MPD2    H711837   1.791   0.327  12.412 -0.7237  1.3619  1.0896
  804MPD2     C11838   1.310   1.157  17.044  0.6535 -0.1116 -0.2064
  804MPD2    C111839   1.312   1.130  17.181 -0.3843 -0.4318  0.1931
  804MPD2    C211840   1.376   1.215  17.270  0.4227  0.2513  0.3519
  804MPD2    C311841   1.439   1.325  17.226 -0.1486  0.1719  0.1513
  804MPD2    C411842   1.434   1.355  17.090 -0.3289 -0.4691  1.0374
  804MPD2    C511843   1.375   1.267  17.007  0.0267  0.3329  0.7601
  804MPD2     H11844   1.378   1.206  17.378 -0.3457 -1.3000  0.2330
  804MPD2    H111845   1.473   1.450  17.057 -1.1237 -0.0504  1.3168
  804MPD2    H211846   1.251   1.102  16.971 -1.3373  0.9745  0.5952
  804MPD2    H311847   1.379   1.284  16.900  2.2654  0.4550  0.8573
  804MPD2     N11848   1.499   1.421  17.312 -0.1688 -0.0155 -0.3024
  804MPD2    H511849   1.528   1.501  17.257  0.2914 -1.5133 -2.2697
  804MPD2    N111850   1.247   1.021  17.246  0.1299 -0.2151 -0.8574
  804MPD2    H711851   1.285   1.004  17.338 -0.0380 -0.2749 -0.8000
  805MPD2     C11852   0.880   4.189  15.436  0.2697  0.0936  1.1016
  805MPD2    C111853   0.932   4.308  15.402 -0.2461 -0.5116  0.4180
  805MPD2    C211854   1.020   4.374  15.485 -0.9238  0.8210  0.1724
  805MPD2    C311855   1.042   4.328  15.614 -0.3255  0.1356 -0.7365
  805MPD2    C411856   0.984   4.214  15.658 -0.4310  0.0999 -0.1978
  805MPD2    C511857   0.899   4.148  15.567  0.3340 -0.0409  0.3963
  805MPD2     H11858   1.070   4.462  15.445  0.2941  0.1644  0.2524
  805MPD2    H111859   1.006   4.169  15.754 -0.5098 -1.1313 -0.7507
  805MPD2    H211860   0.805   4.136  15.379  2.3839 -2.1060  0.3833
  805MPD2    H311861   0.845   4.060  15.601 -1.4005  0.4401 -1.1152
  805MPD2     N11862   1.126   4.411  15.695  0.7140  0.0301 -0.3806
  805MPD2    H511863   1.177   4.487  15.653  1.1644  0.0435  0.1948
  805MPD2    N111864   0.912   4.353  15.267  0.2756  0.4879  0.0850
  805MPD2    H711865   0.862   4.287  15.209 -0.0992  1.0169 -0.1924
  806MPD2     C11866   1.635   3.495   0.655  0.2584 -0.0183  0.0004
  806MPD2    C111867   1.662   3.631   0.675 -0.2239 -0.0254 -0.0160
  806MPD2    C211868   1.762   3.687   0.598  0.0454 -0.2511  0.3187
  806MPD2    C311869   1.834   3.609   0.509  0.1603 -0.6909 -0.1135
  806MPD2    C411870   1.801   3.473   0.495  0.3327 -0.5644  0.2059
  806MPD2    C511871   1.705   3.415   0.570  0.1163 -0.3773  0.1162
  806MPD2     H11872   1.795   3.790   0.606 -1.8599  0.3672  0.0921
  806MPD2    H111873   1.851   3.405   0.427 -0.2967 -1.0073  0.1804
  806MPD2    H211874   1.565   3.453   0.726 -1.6727  0.9826 -1.3022
  806MPD2    H311875   1.678   3.311   0.552 -0.5812 -0.0334 -0.8570
  806MPD2     N11876   1.934   3.673   0.430 -0.0253  0.0546 -0.5932
  806MPD2    H511877   1.928   3.774   0.438  0.2481  0.0820 -0.7355
  806MPD2    N111878   1.595   3.697   0.784 -0.4282 -0.1296 -0.3546
  806MPD2    H711879   1.518   3.652   0.833  0.6035 -0.7624  0.6701
  807MPD2     C11880   1.179   3.383   0.891  0.0788 -0.2026  0.3862
  807MPD2    C111881   1.147   3.474   0.988  0.1017 -0.5017  0.7139
  807MPD2    C211882   1.013   3.493   1.023  0.0994  0.2160  0.2533
  807MPD2    C311883   0.911   3.416   0.971  0.2434 -0.0136  1.0593
  807MPD2    C411884   0.947   3.316   0.884  0.3075 -0.4948 -0.5227
  807MPD2    C511885   1.077   3.295   0.857  0.8399  0.2145 -0.0532
  807MPD2     H11886   0.988   3.579   1.084 -3.4309  1.0012 -2.2864
  807MPD2    H111887   0.874   3.246   0.846 -1.8610  1.3309  0.2617
  807MPD2    H211888   1.277   3.360   0.850  0.2824  1.5814 -0.1242
  807MPD2    H311889   1.112   3.206   0.806  1.0082 -0.1339  0.6619
  807MPD2     N11890   0.781   3.451   1.002 -0.9341 -0.5465  0.2583
  807MPD2    H511891   0.754   3.520   1.072  0.4216  0.3670 -0.0959
  807MPD2    N111892   1.248   3.558   1.039  0.3574 -0.4846  0.4862
  807MPD2    H711893   1.225   3.625   1.111  0.5741  0.0978  0.0191
  808MPD2     C11894   1.242   0.895  10.288  0.1321 -0.5310  0.0159
  808MPD2    C111895   1.156   0.972  10.368  0.1081  0.1956 -0.3020
  808MPD2    C211896   1.163   1.108  10.351 -0.1625  0.3204  0.3897
  808MPD2    C311897   1.245   1.164  10.257 -0.5917 -0.3183 -0.5614
  808MPD2    C411898   1.327   1.085  10.177  0.2816 -0.4608  0.2397
  808MPD2    C511899   1.325   0.950  10.197  0.0770  0.2148 -0.1026
  808MPD2     H11900   1.099   1.167  10.414  1.5771  1.1668  1.3622
  808MPD2    H111901   1.403   1.123  10.109  1.4469  0.4107  2.0178
  808MPD2    H211902   1.236   0.788  10.300  1.1568 -0.6024 -0.1216
  808MPD2    H311903   1.399   0.894  10.140 -0.5891  0.0227 -0.7865
  808MPD2     N11904   1.247   1.304  10.222 -0.0751  0.0286  0.5357
  808MPD2    H511905   1.304   1.331  10.143 -1.2091 -0.5633 -0.4933
  808MPD2    N111906   1.078   0.913  10.476 -0.2881  0.0586  0.2006
  808MPD2    H711907   1.052   0.979  10.548  2.3063  0.7927  0.4530
  809MPD2     C11908   1.406   1.883   9.461 -0.5131 -0.4768  0.4481
  809MPD2    C111909   1.469   1.786   9.540  0.0613 -1.1009 -0.3154
  809MPD2    C211910   1.411   1.745   9.659 -0.9550  0.1049 -0.1871
  809MPD2    C311911   1.291   1.810   9.699 -0.5278  0.1173  0.1517
  809MPD2    C411912   1.235   1.904   9.615  0.7495  0.2847  0.2598
  809MPD2    C511913   1.281   1.936   9.495 -0.0690  0.7799 -0.1905
  809MPD2     H11914   1.460   1.669   9.720 -0.6143 -0.2289 -0.8813
  809MPD2    H111915   1.154   1.963   9.655 -0.8126 -2.0235  0.4977
  809MPD2    H211916   1.446   1.928   9.371 -0.8831  0.2926  0.6653
  809MPD2    H311917   1.240   2.018   9.439 -0.8118  0.4066 -0.1885
  809MPD2     N11918   1.232   1.756   9.819  0.1099  0.1643  0.3972
  809MPD2    H511919   1.164   1.824   9.851 -2.4607 -0.9732 -2.6089
  809MPD2    N111920   1.597   1.735   9.502 -0.8151  0.1305  0.9077
  809MPD2    H711921   1.639   1.668   9.566 -0.0074 -0.7374 -0.5550
  810MPD2     C11922   0.607   0.598  11.282  0.7525 -0.1653 -0.4451
  810MPD2    C111923   0.564   0.609  11.147  0.0621 -0.1108 -0.3099
  810MPD2    C211924   0.602   0.729  11.084 -0.1931 -0.2623 -0.0556
  810MPD2    C311925   0.662   0.832  11.153  0.1247  0.8061 -0.1547
  810MPD2    C411926   0.690   0.825  11.289 -0.0969  0.1544  0.2678
  810MPD2    C511927   0.662   0.701  11.344 -0.0780 -0.0381 -0.8820
  810MPD2     H11928   0.594   0.735  10.976  1.9381 -1.2740 -0.2715
  810MPD2    H111929   0.733   0.903  11.351 -0.6302  1.6851 -1.3122
  810MPD2    H211930   0.594   0.509  11.343  2.5600  1.1328  1.8568
  810MPD2    H311931   0.684   0.681  11.449  0.5184 -0.3815 -1.0743
  810MPD2     N11932   0.685   0.945  11.077 -0.2594  0.1971 -0.3017
  810MPD2    H511933   0.655   0.951  10.980  1.7162  0.7993 -0.8672
  810MPD2    N111934   0.489   0.507  11.087 -0.6468  0.5926  0.1550
  810MPD2    H711935   0.468   0.420  11.134  0.5149  1.0395  1.5216
  811MPD2     C11936   0.089   0.387  10.378  0.3134 -0.2794 -0.7538
  811MPD2    C111937   0.208   0.444  10.423  0.9329  0.4306 -0.2309
  811MPD2    C211938   0.241   0.577  10.393  1.5820 -0.3505  0.4395
  811MPD2    C311939   0.141   0.655  10.337 -0.7781 -0.1661  0.2811
  811MPD2    C411940   0.011   0.605  10.316  0.5438  0.1147 -0.2010
  811MPD2    C511941   4.719   0.470  10.326  0.3484 -0.2384  0.0919
  811MPD2     H11942   0.340   0.617  10.409  0.8407  1.6417  0.0450
  811MPD2    H111943   4.644   0.660  10.292  0.4769  0.4989  0.9246
  811MPD2    H211944   0.065   0.285  10.403 -0.9963 -0.0047 -0.9300
  811MPD2    H311945   4.620   0.430  10.306  0.5543  0.5094 -2.4482
  811MPD2     N11946   0.174   0.787  10.304 -0.3806 -0.0480 -0.2231
  811MPD2    H511947   0.272   0.810  10.313 -0.5574  1.2813 -1.4975
  811MPD2    N111948   0.290   0.382  10.524 -0.3743  0.1317  0.1683
  811MPD2    H711949   0.373   0.431  10.555 -1.1339  0.8842  1.0120
  812MPD2     C11950   4.610   0.549  12.493  0.7731  0.1432  0.3472
  812MPD2    C111951   4.493   0.525  12.568 -0.7191 -0.2142  0.6514
  812MPD2    C211952   4.480   0.408  12.635  0.2747  0.9036  0.3451
  812MPD2    C311953   4.573   0.314  12.620  0.4530  0.9293  0.1058
  812MPD2    C411954   4.686   0.334  12.551  0.6163  0.5651  0.2072
  812MPD2    C511955   4.708   0.455  12.499  0.6911 -1.1183 -0.1422
  812MPD2     H11956   4.392   0.385  12.693  0.4438  2.5935  1.2816
  812MPD2    H111957   0.038   0.258  12.534 -1.5200 -1.6243  0.4668
  812MPD2    H211958   4.634   0.638  12.437  0.4798 -0.2033 -0.3368
  812MPD2    H311959   0.075   0.463  12.440  1.0640  1.3496  0.7629
  812MPD2     N11960   4.549   0.187  12.667  0.3172  0.1521 -0.5791
  812MPD2    H511961   4.475   0.168  12.734  2.7252  0.9885  2.2781
  812MPD2    N111962   4.387   0.623  12.558 -0.2799  0.1605 -0.5720
  812MPD2    H711963   4.396   0.703  12.497  2.1019  0.2185 -0.1495
  813MPD2     C11964   4.061   2.039  12.527  0.0688 -0.2328  0.1101
  813MPD2    C111965   4.028   2.163  12.576  0.1594  0.4040 -0.4398
  813MPD2    C211966   3.940   2.172  12.680 -0.1860 -0.0645  0.8871
  813MPD2    C311967   3.882   2.058  12.740 -0.0791 -0.0953 -0.1349
  813MPD2    C411968   3.917   1.938  12.696  0.6159 -0.3729 -0.0779
  813MPD2    C511969   4.007   1.928  12.591 -0.4004  0.5378 -0.3414
  813MPD2     H11970   3.897   2.266  12.714 -0.3799 -0.2635  1.1875
  813MPD2    H111971   3.888   1.848  12.748  1.0543 -0.4762 -0.0086
  813MPD2    H211972   4.133   2.020  12.449 -1.3672  0.3749 -1.3530
  813MPD2    H311973   4.036   1.829  12.558  1.0749  1.8539 -2.9448
  813MPD2     N11974   3.798   2.082  12.854 -0.0647 -0.1316 -0.7474
  813MPD2    H511975   3.795   2.180  12.878 -1.6089 -0.1283 -0.9229
  813MPD2    N111976   4.109   2.279  12.542  0.6794 -0.1051  0.1233
  813MPD2    H711977   4.199   2.261  12.499 -0.7478 -1.1199 -2.4284
  814MPD2     C11978   3.709   3.379  12.641 -0.0338  0.0568 -0.0571
  814MPD2    C111979   3.838   3.357  12.596 -0.1610 -0.6445 -0.0479
  814MPD2    C211980   3.934   3.444  12.642 -0.1557 -0.8709  0.2197
  814MPD2    C311981   3.900   3.542  12.733 -0.1681  0.0412  0.5520
  814MPD2    C411982   3.772   3.552  12.783 -0.6125  0.1517 -0.1896
  814MPD2    C511983   3.674   3.475  12.731 -0.4949 -0.4601 -0.3711
  814MPD2     H11984   4.037   3.433  12.609 -0.1741  1.7137 -0.6581
  814MPD2    H111985   3.738   3.628  12.853 -0.0738 -0.9596  1.2866
  814MPD2    H211986   3.634   3.314  12.597  0.5836  0.0111 -1.0400
  814MPD2    H311987   3.570   3.498  12.749 -0.0588  1.7987 -0.7789
  814MPD2     N11988   3.997   3.632  12.788  0.0667  0.3827 -0.4594
  814MPD2    H511989   3.965   3.705  12.851  0.8695 -1.3816  2.0180
  814MPD2    N111990   3.876   3.258  12.510  0.1753  0.6304  0.0358
  814MPD2    H711991   3.968   3.267  12.466  0.2695 -2.0837 -0.3672
  815MPD2     C11992   3.919   2.018  11.967 -0.5360 -0.3562 -0.0660
  815MPD2    C111993   3.977   1.888  11.968  0.0170 -0.5986  0.2833
  815MPD2    C211994   3.889   1.773  11.986 -0.3246 -0.3819 -0.1418
  815MPD2    C311995   3.753   1.797  11.995 -1.1784  0.2417  0.8832
  815MPD2    C411996   3.700   1.929  12.002  0.5453 -0.1505  0.0310
  815MPD2    C511997   3.785   2.031  11.980 -0.0906 -1.2193 -0.1233
  815MPD2     H11998   3.936   1.675  11.995  0.8796  0.1492 -0.6398
  815MPD2    H111999   3.594   1.950  12.010  0.2475 -1.8702  0.6971
  815MPD2    H212000   3.978   2.105  11.939 -2.3250  0.2963 -1.8104
  815MPD2    H312001   3.755   2.135  11.983 -3.0081 -2.0593 -0.5605
  815MPD2     N12002   3.669   1.682  12.002  0.5524 -0.1620 -0.4003
  815MPD2    H512003   3.710   1.591  11.983  0.3497 -0.4946  0.7287
  815MPD2    N112004   4.114   1.876  11.940 -0.0951  0.6662  0.0497
  815MPD2    H712005   4.153   1.968  11.926 -0.2570  0.3088 -2.8233
  816MPD2     C12006   0.223   0.841  17.384 -0.4724  0.2174  0.0142
  816MPD2    C112007   0.117   0.814  17.305 -0.0888 -0.1073 -0.0225
  816MPD2    C212008   0.141   0.725  17.198  0.3876  0.5144  0.0352
  816MPD2    C312009   0.267   0.673  17.175 -0.0075  0.3033  0.5093
  816MPD2    C412010   0.376   0.719  17.255  0.1970 -0.3743 -0.3946
  816MPD2    C512011   0.349   0.794  17.360 -0.1390  0.0773  0.4409
  816MPD2     H12012   0.069   0.691  17.124 -0.8887  0.1815  1.4336
  816MPD2    H112013   0.472   0.678  17.224 -2.0967 -3.4923 -3.3642
  816MPD2    H212014   0.208   0.904  17.471 -2.6294  2.6442 -2.1329
  816MPD2    H312015   0.432   0.816  17.426  0.4641 -2.3943  0.5213
  816MPD2     N12016   0.272   0.589  17.064 -0.1261  0.0532  0.0678
  816MPD2    H512017   0.189   0.575  17.008  0.1416  0.3098 -0.3992
  816MPD2    N112018   4.719   0.879  17.339 -0.3817 -0.0192  0.5882
  816MPD2    H712019   0.014   0.942  17.416  0.1374  0.2965  0.2066
  817MPD2     C12020   4.613   3.221  10.079 -0.4033 -0.3810  0.5484
  817MPD2    C112021   4.504   3.157  10.022 -0.4071 -0.4748  0.4186
  817MPD2    C212022   4.411   3.236   9.970  0.1181  0.5474  0.0376
  817MPD2    C312023   4.415   3.373   9.983 -0.8780 -0.7930  0.5115
  817MPD2    C412024   4.521   3.437  10.041 -0.2418 -0.0355  0.5161
  817MPD2    C512025   4.625   3.362  10.091 -0.4004 -0.3642  0.0058
  817MPD2     H12026   4.319   3.191   9.935 -0.1479  0.3737  0.9656
  817MPD2    H112027   4.520   3.545  10.056  0.7621 -0.4229  3.3847
  817MPD2    H212028   4.702   3.167  10.108  0.5415  0.7349 -0.2763
  817MPD2    H312029   4.717   3.407  10.128  0.4329 -0.6907 -1.6695
  817MPD2     N12030   4.302   3.436   9.934 -0.3621 -0.1573  0.0242
  817MPD2    H512031   4.230   3.374   9.899 -0.8879  1.3755 -1.6336
  817MPD2    N112032   4.485   3.015  10.026  0.5218 -0.1289  0.6817
  817MPD2    H712033   4.398   2.976   9.992  0.3523  0.7625  0.0958
  818MPD2     C12034   3.185   2.811   9.669  0.6166  0.2268 -0.5143
  818MPD2    C112035   3.073   2.752   9.737 -0.6875 -0.1240 -0.1188
  818MPD2    C212036   3.021   2.640   9.685 -0.4257 -0.0959 -0.3641
  818MPD2    C312037   3.083   2.572   9.578 -0.1331  0.9477 -0.1242
  818MPD2    C412038   3.204   2.625   9.528  0.3272 -0.7458  0.2465
  818MPD2    C512039   3.249   2.745   9.570  0.0779 -0.2836 -0.3082
  818MPD2     H12040   2.932   2.596   9.729  0.7869 -1.0001  1.1698
  818MPD2    H112041   3.255   2.579   9.444  0.3577 -0.8780  0.3364
  818MPD2    H212042   3.230   2.902   9.705 -0.5921  0.7405 -0.2801
  818MPD2    H312043   3.330   2.802   9.526  0.0995  0.3352  0.5262
  818MPD2     N12044   3.043   2.444   9.534  0.0097 -0.6990  0.7309
  818MPD2    H512045   3.103   2.394   9.469 -1.4086 -0.9676 -0.3769
  818MPD2    N112046   2.998   2.815   9.837 -0.0830 -0.4185 -0.2595
  818MPD2    H712047   2.925   2.762   9.883 -0.4547  0.6891  0.4150
  819MPD2     C12048   1.259   4.005  15.670 -0.7656 -0.3503  0.1459
  819MPD2    C112049   1.287   3.873  15.684 -0.1381 -0.5108  0.5365
  819MPD2    C212050   1.412   3.832  15.718 -0.9206  0.4314  0.0397
  819MPD2    C312051   1.508   3.927  15.744  0.2631  0.0399  1.0061
  819MPD2    C412052   1.485   4.059  15.721  0.3523  0.5975  0.2260
  819MPD2    C512053   1.356   4.099  15.684  0.2022 -0.0087  0.2030
  819MPD2     H12054   1.430   3.725  15.717  0.7514  0.7141  0.4624
  819MPD2    H112055   1.573   4.121  15.734  2.5750 -2.5916  0.3148
  819MPD2    H212056   1.168   4.044  15.625 -0.0521  2.7095  1.3927
  819MPD2    H312057   1.341   4.204  15.662  2.5650 -0.0807 -1.7308
  819MPD2     N12058   1.641   3.891  15.775 -0.2365 -0.1343 -0.1785
  819MPD2    H512059   1.659   3.796  15.745 -0.5104  0.0306 -0.8840
  819MPD2    N112060   1.179   3.785  15.645  0.0079  0.5262  0.1411
  819MPD2    H712061   1.097   3.824  15.601 -0.3607 -1.1373 -0.6285
  820MPD2     C12062   0.545   3.862  14.943  0.5486  0.5898  0.1947
  820MPD2    C112063   0.645   3.929  15.012 -0.0166 -0.1119 -0.0020
  820MPD2    C212064   0.705   3.872  15.124  0.2577  0.3197  0.5027
  820MPD2    C312065   0.685   3.738  15.157  0.4265  0.1782 -0.1469
  820MPD2    C412066   0.591   3.666  15.076 -0.0040 -0.7114 -0.4658
  820MPD2    C512067   0.523   3.731  14.980 -0.1026  1.1891 -0.8878
  820MPD2     H12068   0.785   3.920  15.180  1.1163  1.2264 -1.5280
  820MPD2    H112069   0.573   3.563  15.103 -1.0181 -0.5664 -0.5748
  820MPD2    H212070   0.491   3.909  14.862  1.7387 -1.3915 -1.7371
  820MPD2    H312071   0.441   3.681  14.930  0.0341  0.8126 -0.7308
  820MPD2     N12072   0.754   3.673  15.260 -0.1468 -0.6188  0.7200
  820MPD2    H512073   0.748   3.571  15.266  1.1904 -0.8894 -2.3748
  820MPD2    N112074   0.672   4.063  14.971 -0.2076 -0.1199  0.2461
  820MPD2    H712075   0.616   4.105  14.898  0.0231 -0.6866 -0.2558
  821MPD2     C12076   1.414   0.977  13.512  0.6521  0.0965  0.0278
  821MPD2    C112077   1.542   0.959  13.573 -0.3075 -0.0116 -0.2353
  821MPD2    C212078   1.648   0.973  13.486  0.0035  0.1256 -1.1113
  821MPD2    C312079   1.642   0.990  13.349 -0.7128  0.1325  0.5480
  821MPD2    C412080   1.522   0.996  13.284  0.9196 -0.0258  0.6609
  821MPD2    C512081   1.412   0.998  13.371  0.6152  0.2265 -0.4126
  821MPD2     H12082   1.745   0.943  13.526 -1.3076  1.2564  2.9385
  821MPD2    H112083   1.510   1.012  13.178  1.7076 -0.4026  0.5186
  821MPD2    H212084   1.319   0.980  13.564  1.7490 -0.0505  2.0312
  821MPD2    H312085   1.321   1.034  13.324 -0.0681  1.0929  1.5776
  821MPD2     N12086   1.763   0.991  13.271 -0.1869 -0.3330 -0.5859
  821MPD2    H512087   1.755   1.005  13.171 -1.2283  3.2842  0.0363
  821MPD2    N112088   1.563   0.927  13.708  0.0567 -0.7378  0.3374
  821MPD2    H712089   1.655   0.937  13.749  0.5419  0.7062 -1.0951
  822MPD2     C12090   1.801   0.710  15.700 -0.2919 -0.3011  0.1494
  822MPD2    C112091   1.767   0.661  15.819  0.8353  0.3463  0.8212
  822MPD2    C212092   1.710   0.737  15.916  0.2172 -0.0218  0.5936
  822MPD2    C312093   1.701   0.873  15.908  0.8179  0.3327  0.2046
  822MPD2    C412094   1.732   0.927  15.784 -0.2485 -0.1917 -0.3452
  822MPD2    C512095   1.776   0.841  15.682 -0.5898  0.0777 -0.2639
  822MPD2     H12096   1.671   0.691  16.007 -2.8644 -0.9833 -1.2135
  822MPD2    H112097   1.734   1.034  15.763  1.1036 -0.4927 -1.7300
  822MPD2    H212098   1.833   0.644  15.620 -1.6547 -1.1215  0.2936
  822MPD2    H312099   1.810   0.880  15.586 -2.7153  0.7293 -0.7473
  822MPD2     N12100   1.672   0.945  16.025  0.2919 -0.2776 -0.1524
  822MPD2    H512101   1.661   0.893  16.111  2.5752 -0.4193  0.0440
  822MPD2    N112102   1.789   0.529  15.854 -0.6576  0.4332  0.0317
  822MPD2    H712103   1.776   0.501  15.951  2.8852 -0.1932  0.3378
  823MPD2     C12104   1.580   1.020  16.852  0.0986 -0.3392 -0.0110
  823MPD2    C112105   1.588   0.954  16.737  0.1670  0.0886  0.4010
  823MPD2    C212106   1.610   0.817  16.748  0.8057  0.2396  0.8071
  823MPD2    C312107   1.631   0.753  16.866 -0.3165  0.4912  0.3501
  823MPD2    C412108   1.612   0.822  16.982  0.2834 -0.4147  0.1693
  823MPD2    C512109   1.586   0.956  16.972 -0.4919 -0.6906 -0.1008
  823MPD2     H12110   1.621   0.766  16.652  1.4738 -2.1384  2.1372
  823MPD2    H112111   1.621   0.770  17.076 -0.1089 -0.7051  0.0472
  823MPD2    H212112   1.578   1.128  16.846  1.2263 -0.2762  0.8716
  823MPD2    H312113   1.575   1.007  17.067 -1.6350  2.2848 -1.8152
  823MPD2     N12114   1.667   0.615  16.883 -0.0550  0.0901  0.3007
  823MPD2    H512115   1.678   0.586  16.979  0.7123  0.9408  0.4700
  823MPD2    N112116   1.585   1.029  16.620  0.4469  0.1092 -0.6199
  823MPD2    H712117   1.609   1.127  16.631 -3.2131  1.1183 -1.7245
  824MPD2     C12118   2.121   4.483  15.641  0.2350 -0.2176 -0.3483
  824MPD2    C112119   2.193   4.549  15.742  0.1749  0.2533 -0.3060
  824MPD2    C212120   2.327   4.513  15.762  0.7826 -1.0554  0.1422
  824MPD2    C312121   2.388   4.418  15.688 -0.5499 -0.2697 -0.3333
  824MPD2    C412122   2.314   4.356  15.587  0.4798 -0.6801 -0.3776
  824MPD2    C512123   2.179   4.388  15.565 -0.8079 -0.2148 -0.1421
  824MPD2     H12124   2.396   4.572  15.821  2.1586 -0.6012 -1.9229
  824MPD2    H112125   2.361   4.286  15.518  0.0337 -2.0061  0.6688
  824MPD2    H212126   2.016   4.508  15.630 -0.1894 -1.7264  0.3483
  824MPD2    H312127   2.123   4.341  15.485 -2.0548  0.3995  0.3599
  824MPD2     N12128   2.527   4.386  15.710 -0.3654  0.3707  0.2207
  824MPD2    H512129   2.583   4.454  15.761  0.5905 -0.5385  0.3957
  824MPD2    N112130   2.140   4.657  15.818 -0.1974 -0.2978 -0.2797
  824MPD2    H712131   2.213   4.704  15.870 -1.6887  0.6940  0.9443
  825MPD2     C12132   3.187   4.435  15.267 -0.9647  0.2554 -0.8934
  825MPD2    C112133   3.151   4.493  15.388  0.1796 -1.2970 -0.4274
  825MPD2    C212134   3.190   4.627  15.406  0.5669  0.1631  0.4550
  825MPD2    C312135   3.257   4.695  15.305  0.1408 -0.0369 -0.0490
  825MPD2    C412136   3.274   4.641  15.182  1.5301  0.8746  0.3322
  825MPD2    C512137   3.248   4.507  15.173 -0.9271  0.0658 -0.5239
  825MPD2     H12138   3.165   4.675  15.501 -0.8895  0.5099 -0.0966
  825MPD2    H112139   3.312   4.692  15.094  1.6858 -0.1843 -0.2240
  825MPD2    H212140   3.172   4.331  15.242 -2.0444 -0.5495  2.9897
  825MPD2    H312141   3.283   4.457  15.084  1.3583  0.6204  0.0465
  825MPD2     N12142   3.277   0.110  15.319 -0.5904  0.3400 -0.7794
  825MPD2    H512143   3.318   0.156  15.239 -0.4047 -1.0081 -1.4508
  825MPD2    N112144   3.077   4.420  15.481  1.2139  0.4533 -0.0298
  825MPD2    H712145   3.066   4.320  15.469  0.8106  0.4245  0.5715
  826MPD2     C12146   2.885   0.149  13.781  0.3816  0.0287  0.3756
  826MPD2    C112147   2.768   0.121  13.708 -0.2697  0.2841 -0.0007
  826MPD2    C212148   2.648   0.178  13.746  0.0612  0.1588 -0.2941
  826MPD2    C312149   2.642   0.274  13.848 -1.1160 -0.0392  0.1417
  826MPD2    C412150   2.758   0.300  13.912 -0.6058  0.2104 -0.5233
  826MPD2    C512151   2.880   0.242  13.884 -0.0742 -0.3112 -0.3948
  826MPD2     H12152   2.555   0.157  13.694 -1.7995  3.0944  1.8568
  826MPD2    H112153   2.748   0.372  13.993 -1.9455 -0.2340 -0.2898
  826MPD2    H212154   2.981   0.104  13.759 -0.2944 -1.2827  0.1189
  826MPD2    H312155   2.965   0.264  13.947  0.7586 -2.2287 -0.8432
  826MPD2     N12156   2.522   0.338  13.893 -0.7365  0.7201 -0.0190
  826MPD2    H512157   2.534   0.400  13.972 -0.2276  2.4267 -1.4475
  826MPD2    N112158   2.793   0.038  13.593  0.2845  0.0092  0.4306
  826MPD2    H712159   2.886   0.006  13.569  0.9430  1.7279  0.6971
  827MPD2     C12160   3.560   1.377   9.946 -0.1785 -0.7318  0.5012
  827MPD2    C112161   3.510   1.270  10.018 -0.4975  0.3027 -0.2552
  827MPD2    C212162   3.400   1.199   9.977 -0.4629 -0.1857 -0.4910
  827MPD2    C312163   3.323   1.248   9.874  0.0784  0.0578 -0.3148
  827MPD2    C412164   3.370   1.354   9.797 -0.0634 -0.0356  0.0268
  827MPD2    C512165   3.486   1.413   9.838 -0.0909 -0.6411 -0.1029
  827MPD2     H12166   3.367   1.118  10.040 -1.0132  2.5969  2.8221
  827MPD2    H112167   3.323   1.391   9.706 -0.5635 -0.6331  0.0434
  827MPD2    H212168   3.643   1.441   9.974 -2.2366  1.9657  0.4548
  827MPD2    H312169   3.519   1.506   9.795 -1.0292 -0.5193 -0.5645
  827MPD2     N12170   3.202   1.184   9.845  0.2356  0.0315 -0.1756
  827MPD2    H512171   3.170   1.110   9.907 -0.1194  0.6364  0.3695
  827MPD2    N112172   3.567   1.236  10.143 -0.6706 -0.2723 -0.1599
  827MPD2    H712173   3.634   1.300  10.183 -1.0254  0.9010 -1.4600
  828MPD2     C12174   1.952   0.947  12.394  0.0371 -0.3042 -0.1525
  828MPD2    C112175   1.829   0.918  12.345  0.4217  0.4590  0.6430
  828MPD2    C212176   1.818   0.844  12.221 -0.4322  0.6653 -0.3762
  828MPD2    C312177   1.921   0.807  12.143  0.8907 -0.3704  0.3160
  828MPD2    C412178   2.044   0.841  12.193  0.2516 -0.1023  0.0891
  828MPD2    C512179   2.058   0.909  12.316  0.3729  0.5519  0.2425
  828MPD2     H12180   1.714   0.835  12.193 -0.3742  0.5634 -0.5598
  828MPD2    H112181   2.135   0.808  12.145  0.1623 -0.5307  0.2152
  828MPD2    H212182   1.973   0.999  12.487 -2.6261 -1.3651  1.0295
  828MPD2    H312183   2.158   0.912  12.358  1.2560  3.5864 -2.1022
  828MPD2     N12184   1.904   0.737  12.024  0.3475 -0.6554 -0.3053
  828MPD2    H512185   1.812   0.706  11.997  0.4338 -1.1762 -0.0112
  828MPD2    N112186   1.712   0.961  12.409 -0.3182 -0.2543  0.5863
  828MPD2    H712187   1.626   0.914  12.383  0.4655 -0.6876 -1.1808
  829MPD2     C12188   0.776   1.225  12.162 -0.0601  0.3003 -0.7413
  829MPD2    C112189   0.771   1.251  12.297  0.2629 -0.2869  0.4409
  829MPD2    C212190   0.887   1.226  12.372 -0.6876 -0.0194 -0.4203
  829MPD2    C312191   1.009   1.199  12.302  0.2850 -0.1729 -0.3880
  829MPD2    C412192   1.001   1.171  12.162  1.2761  0.1880  0.1427
  829MPD2    C512193   0.883   1.179  12.096 -0.6344  1.6290  0.0442
  829MPD2     H12194   0.902   1.239  12.479  0.4188  2.1706 -0.8404
  829MPD2    H112195   1.085   1.138  12.102  2.0589  3.1431 -0.4118
  829MPD2    H212196   0.690   1.232  12.097 -1.2133  0.8734  0.8580
  829MPD2    H312197   0.874   1.159  11.990 -0.3106  1.1347  0.1134
  829MPD2     N12198   1.123   1.195  12.383  0.3399  0.0950  0.0176
  829MPD2    H512199   1.105   1.209  12.482 -0.3798  0.2716 -0.1359
  829MPD2    N112200   0.650   1.303  12.343  0.0717 -0.2609 -0.1730
  829MPD2    H712201   0.590   1.346  12.273 -0.8480 -0.4677  0.4801
  830MPD2     C12202   1.970   3.784  15.266 -0.4104 -0.5920 -0.4938
  830MPD2    C112203   2.059   3.823  15.362 -0.0373 -0.4993  0.3580
  830MPD2    C212204   2.157   3.916  15.331 -0.7575 -0.1358 -0.4764
  830MPD2    C312205   2.170   3.964  15.205  0.3094 -0.3263  0.8473
  830MPD2    C412206   2.079   3.926  15.110 -0.0328 -0.1344 -0.3309
  830MPD2    C512207   1.981   3.826  15.134 -0.5055 -0.0497 -0.3466
  830MPD2     H12208   2.205   3.977  15.407  1.7046  0.7842 -2.7956
  830MPD2    H112209   2.078   3.959  15.006 -0.4961 -1.1247 -0.6431
  830MPD2    H212210   1.898   3.705  15.287 -1.3189 -0.7227 -4.0017
  830MPD2    H312211   1.918   3.788  15.054 -0.5713  0.4171 -0.5141
  830MPD2     N12212   2.256   4.067  15.163 -0.4142 -0.3448 -0.8312
  830MPD2    H512213   2.253   4.094  15.065 -0.4698  0.8893 -0.4952
  830MPD2    N112214   2.020   3.776  15.490 -0.0193  0.2862 -0.0339
  830MPD2    H712215   1.928   3.734  15.496 -1.6146  3.7442 -0.2809
  831MPD2     C12216   2.088   0.976  16.513  0.9962  0.2440  0.4612
  831MPD2    C112217   2.055   0.958  16.379 -0.4818  0.2720 -0.4406
  831MPD2    C212218   1.958   0.861  16.348 -0.2619 -0.2122  0.3862
  831MPD2    C312219   1.910   0.783  16.448 -0.0053 -0.5168  0.3591
  831MPD2    C412220   1.942   0.806  16.581  0.4274 -1.1300 -0.0018
  831MPD2    C512221   2.027   0.907  16.614 -1.0166 -1.0607  0.5744
  831MPD2     H12222   1.949   0.837  16.243  2.3551  0.7251 -0.0439
  831MPD2    H112223   1.899   0.756  16.667  0.5282 -1.2804 -0.0389
  831MPD2    H212224   2.159   1.052  16.542  1.0089  0.3755  0.0843
  831MPD2    H312225   2.041   0.930  16.719 -0.3412  0.9082  0.0572
  831MPD2     N12226   1.803   0.689  16.428  0.5440 -0.5256 -0.0681
  831MPD2    H512227   1.773   0.637  16.510 -0.5803 -1.4041 -1.0351
  831MPD2    N112228   2.130   1.025  16.282  0.3159  0.0127  0.0938
  831MPD2    H712229   2.209   1.085  16.305 -2.5735  3.4392  1.2015
  832MPD2     C12230   0.368   1.932  17.299  0.5241 -0.2632  0.1295
  832MPD2    C112231   0.359   2.042  17.218  0.0579 -0.4140 -0.3161
  832MPD2    C212232   0.237   2.070  17.153 -0.2479  0.1541 -0.2551
  832MPD2    C312233   0.126   1.999  17.173  0.2363  0.0548 -0.4081
  832MPD2    C412234   0.142   1.884  17.248  0.3942  0.1914  1.1469
  832MPD2    C512235   0.253   1.859  17.319  0.1845 -0.8672  0.0489
  832MPD2     H12236   0.232   2.165  17.102 -0.6490 -0.6657 -1.7707
  832MPD2    H112237   0.051   1.831  17.272  0.7018 -0.2714  1.2829
  832MPD2    H212238   0.453   1.899  17.358 -0.4982 -2.2907  0.4590
  832MPD2    H312239   0.257   1.774  17.387 -1.3630 -0.4433  0.6824
  832MPD2     N12240   0.001   2.035  17.125  0.2381  0.3400  0.5486
  832MPD2    H512241   4.650   1.968  17.140 -0.6684  0.9491 -1.2245
  832MPD2    N112242   0.474   2.126  17.209 -1.0528 -0.5936 -0.3223
  832MPD2    H712243   0.554   2.115  17.271 -1.9295  1.8670  1.2078
  833MPD2     C12244   2.520   3.667  12.444  0.0857  0.3765 -0.3862
  833MPD2    C112245   2.507   3.754  12.342  0.3371 -1.0357  0.5181
  833MPD2    C212246   2.589   3.726  12.233 -0.2182  0.1948 -0.7790
  833MPD2    C312247   2.671   3.618  12.219 -0.2348  0.0107 -0.1492
  833MPD2    C412248   2.679   3.526  12.322 -0.1023 -0.6746  1.0958
  833MPD2    C512249   2.601   3.551  12.433 -0.0255 -0.0295 -0.5524
  833MPD2     H12250   2.584   3.791  12.146  0.1109  2.6068  1.0301
  833MPD2    H112251   2.736   3.433  12.313  2.2491  0.9639 -1.1582
  833MPD2    H212252   2.470   3.677  12.539 -1.1153 -1.2902 -0.8368
  833MPD2    H312253   2.621   3.489  12.520 -1.3144  3.2963  2.1074
  833MPD2     N12254   2.745   3.581  12.106 -0.0192 -0.0448  0.4710
  833MPD2    H512255   2.782   3.487  12.106  1.2164  0.4418 -1.4697
  833MPD2    N112256   2.414   3.860  12.348  0.1745  0.1257 -0.0170
  833MPD2    H712257   2.354   3.853  12.429  0.6702 -0.6865  0.2746
  834MPD2     C12258   2.621   2.778  11.622 -0.9695  0.4722 -0.6766
  834MPD2    C112259   2.701   2.846  11.528  0.1842  0.0088  0.4356
  834MPD2    C212260   2.709   2.980  11.552 -0.7795  0.4520  0.7213
  834MPD2    C312261   2.657   3.039  11.667 -0.0895 -0.0981  0.4276
  834MPD2    C412262   2.592   2.968  11.760 -0.1847  0.1644 -0.2083
  834MPD2    C512263   2.564   2.838  11.734 -0.1747  0.0736  0.6631
  834MPD2     H12264   2.763   3.045  11.484  0.4714 -0.4781  0.8473
  834MPD2    H112265   2.544   3.013  11.846 -1.0373 -0.8756 -0.1416
  834MPD2    H212266   2.582   2.682  11.590 -1.5233  0.1505  0.9679
  834MPD2    H312267   2.491   2.785  11.794 -1.3009  1.5784  0.6021
  834MPD2     N12268   2.679   3.182  11.674  0.7216 -0.4789 -0.1366
  834MPD2    H512269   2.728   3.227  11.598  0.4003  0.6851  0.3397
  834MPD2    N112270   2.752   2.783  11.412  0.1738 -0.5394 -0.5302
  834MPD2    H712271   2.732   2.684  11.412  0.3059 -0.5655 -0.7692
  835MPD2     C12272   2.375   0.700  10.442  0.4647  0.4235 -0.7985
  835MPD2    C112273   2.269   0.720  10.524  1.1755 -0.0538 -0.5481
  835MPD2    C212274   2.300   0.774  10.651 -0.5714 -0.0470  0.0011
  835MPD2    C312275   2.429   0.816  10.687  0.1688 -0.3861  0.7138
  835MPD2    C412276   2.526   0.790  10.599 -0.5235  0.0079  0.4860
  835MPD2    C512277   2.505   0.737  10.478  0.1077  0.0666  0.0077
  835MPD2     H12278   2.222   0.798  10.722  0.8060  2.3803  0.6813
  835MPD2    H112279   2.626   0.829  10.616  0.1469 -0.9494 -1.2502
  835MPD2    H212280   2.355   0.657  10.344 -1.0691  2.8122 -1.5320
  835MPD2    H312281   2.587   0.718  10.410 -0.1403  0.9889 -0.5480
  835MPD2     N12282   2.456   0.874  10.815  0.0434 -0.7431 -0.2680
  835MPD2    H512283   2.554   0.891  10.837 -0.7993  1.3851  1.8474
  835MPD2    N112284   2.137   0.693  10.495  0.3882 -0.0872 -0.5161
  835MPD2    H712285   2.076   0.710  10.574  1.5821 -2.2622  0.8919
  836MPD2     C12286   1.929   0.882  11.383 -0.2144 -0.4448 -0.5443
  836MPD2    C112287   2.043   0.944  11.428  0.6974 -0.5024 -0.0048
  836MPD2    C212288   2.036   1.006  11.554  0.1993 -0.7468 -0.6231
  836MPD2    C312289   1.921   0.998  11.632  0.4546 -0.0974  0.0060
  836MPD2    C412290   1.812   0.924  11.583  0.2374 -0.0636  0.6585
  836MPD2    C512291   1.814   0.874  11.458  0.3971  0.1618  0.4852
  836MPD2     H12292   2.118   1.070  11.586  1.1583 -2.4072  0.2445
  836MPD2    H112293   1.732   0.898  11.652  0.2250 -3.0800 -0.5340
  836MPD2    H212294   1.922   0.831  11.288 -2.8016 -1.9407  0.4462
  836MPD2    H312295   1.732   0.813  11.421  0.2122  1.8627 -1.9793
  836MPD2     N12296   1.903   1.053  11.763 -0.0322  0.3074  0.3400
  836MPD2    H512297   1.813   1.041  11.809  1.7040  1.8195  4.1210
  836MPD2    N112298   2.156   0.942  11.336 -0.0458  0.3403  0.0519
  836MPD2    H712299   2.147   0.903  11.243 -4.0499  1.0853  0.1078
  837MPD2     C12300   0.619   1.153   9.779 -0.5734 -0.4291 -0.4208
  837MPD2    C112301   0.565   1.250   9.864  0.9012 -0.2345  0.4017
  837MPD2    C212302   0.564   1.377   9.816  0.6826 -0.0098 -0.1684
  837MPD2    C312303   0.604   1.415   9.691 -0.4746 -0.1515  0.6643
  837MPD2    C412304   0.663   1.315   9.613  0.2184 -0.1289  0.8639
  837MPD2    C512305   0.661   1.182   9.658 -0.4775  0.2484  0.0618
  837MPD2     H12306   0.519   1.451   9.881  1.3663  0.1705  0.0948
  837MPD2    H112307   0.674   1.331   9.506  0.2965 -1.3905  0.6778
  837MPD2    H212308   0.638   1.058   9.827  0.4771  0.5839  1.1924
  837MPD2    H312309   0.689   1.102   9.590  0.9289  0.9444 -0.1604
  837MPD2     N12310   0.583   1.548   9.653  0.1081 -0.2931 -0.0997
  837MPD2    H512311   0.542   1.605   9.726  1.0177 -0.4035  0.5050
  837MPD2    N112312   0.498   1.218   9.991 -0.1282 -0.1802  0.1335
  837MPD2    H712313   0.457   1.299  10.035 -1.1310  1.2605 -3.4310
  838MPD2     C12314   3.631   4.337  12.275  0.7013  0.0182 -0.0896
  838MPD2    C112315   3.613   4.194  12.258  0.6788  0.4183  0.7074
  838MPD2    C212316   3.487   4.145  12.259 -0.3461 -0.0598  0.0509
  838MPD2    C312317   3.378   4.229  12.274  0.4806  0.1321 -0.1984
  838MPD2    C412318   3.398   4.364  12.277  0.6015  0.3191  0.4325
  838MPD2    C512319   3.524   4.416  12.276 -0.2487 -0.1155 -0.0069
  838MPD2     H12320   3.468   4.038  12.255 -0.0930 -0.1320  0.7636
  838MPD2    H112321   3.321   4.435  12.306  0.2004  0.1355 -0.1752
  838MPD2    H212322   3.730   4.380  12.286  0.2039  1.2639 -0.4721
  838MPD2    H312323   3.543   4.520  12.301 -3.2254  0.8188 -1.6993
  838MPD2     N12324   3.247   4.168  12.281  0.2208  0.3791  0.2674
  838MPD2    H512325   3.247   4.070  12.254 -0.1096  0.7014 -0.8973
  838MPD2    N112326   3.720   4.105  12.241 -0.2328 -0.5274  0.2863
  838MPD2    H712327   3.686   4.011  12.222 -0.3321  0.2483 -3.3482
  839MPD2     C12328   3.589   3.254  12.130 -0.4991  0.4979  0.2057
  839MPD2    C112329   3.649   3.310  12.023 -0.3264  0.1906  0.4039
  839MPD2    C212330   3.719   3.432  12.024 -0.1705  0.1970  0.3105
  839MPD2    C312331   3.733   3.500  12.149 -0.1752  0.1329 -0.2182
  839MPD2    C412332   3.665   3.449  12.257 -0.4497 -0.2594 -0.0866
  839MPD2    C512333   3.604   3.326  12.248 -0.5808  0.3889 -0.0368
  839MPD2     H12334   3.757   3.465  11.928  3.1759 -0.9433  1.2526
  839MPD2    H112335   3.665   3.503  12.350 -0.2966 -2.1465  1.0068
  839MPD2    H212336   3.531   3.162  12.126  1.2808 -0.6823  1.1907
  839MPD2    H312337   3.557   3.282  12.335  0.8941 -0.7142  0.2020
  839MPD2     N12338   3.798   3.634  12.159  0.0497 -0.0422 -0.2915
  839MPD2    H512339   3.828   3.672  12.248  2.6156 -2.5102 -0.1102
  839MPD2    N112340   3.629   3.234  11.910 -0.0067  0.6277  0.6286
  839MPD2    H712341   3.573   3.150  11.918  2.2410 -0.7766  1.6525
  840MPD2     C12342   4.111   1.412  10.322  0.5711  0.4148  0.9567
  840MPD2    C112343   4.035   1.404  10.435 -0.5771  0.8103 -0.5478
  840MPD2    C212344   4.056   1.500  10.533 -0.0303  0.8632 -0.0531
  840MPD2    C312345   4.146   1.610  10.520  0.2452  0.1876 -0.6565
  840MPD2    C412346   4.219   1.611  10.406 -0.1093 -0.6929 -0.3981
  840MPD2    C512347   4.204   1.512  10.308 -0.3495 -0.0915 -0.7663
  840MPD2     H12348   3.991   1.502  10.619  0.8679 -1.7656  0.7072
  840MPD2    H112349   4.302   1.680  10.395  0.5616 -0.9916  2.9316
  840MPD2    H212350   4.092   1.338  10.246 -0.0542  0.4076  1.1161
  840MPD2    H312351   4.276   1.505  10.227  1.8021  0.9704  1.0572
  840MPD2     N12352   4.153   1.716  10.616  0.3566 -0.6242 -0.6094
  840MPD2    H512353   4.218   1.782  10.576 -0.3004  1.5754  1.9472
  840MPD2    N112354   3.948   1.293  10.448  0.1906 -0.0975 -0.5474
  840MPD2    H712355   3.964   1.223  10.377  2.6739  0.0883 -0.1589
  841MPD2     C12356   4.349   1.705  13.968 -0.2547  0.3753 -0.2228
  841MPD2    C112357   4.286   1.634  14.071 -0.2986 -0.0610  0.1923
  841MPD2    C212358   4.344   1.636  14.199  0.7477  0.0812 -0.4506
  841MPD2    C312359   4.467   1.702  14.228  0.3168  0.5561  0.2621
  841MPD2    C412360   4.530   1.762  14.126  0.2122  0.3719 -0.7735
  841MPD2    C512361   4.475   1.768  13.998  0.3648  0.7664  0.4743
  841MPD2     H12362   4.300   1.588  14.286  0.2406 -1.0337 -1.3328
  841MPD2    H112363   4.623   1.818  14.130 -0.5292  1.4039  1.8944
  841MPD2    H212364   4.313   1.714  13.866  1.0816 -0.3611 -0.7651
  841MPD2    H312365   4.520   1.829  13.920 -1.5270 -1.2941 -2.2431
  841MPD2     N12366   4.513   1.698  14.365  0.4696 -0.4799  0.4442
  841MPD2    H512367   4.473   1.629  14.428 -1.9770 -0.9494 -1.5879
  841MPD2    N112368   4.164   1.574  14.050 -0.0564 -0.6573 -0.1124
  841MPD2    H712369   4.121   1.540  14.136 -0.0315 -1.0163 -0.2407
  842MPD2     C12370   3.914   1.773  16.377  0.1193  0.5882 -0.3280
  842MPD2    C112371   3.962   1.900  16.391  0.1157  0.1835  0.1939
  842MPD2    C212372   4.007   1.936  16.515  0.1609 -0.2687  1.1677
  842MPD2    C312373   3.987   1.856  16.629 -1.1926  0.0908 -0.3333
  842MPD2    C412374   3.954   1.724  16.613 -0.1959  1.4023  0.2065
  842MPD2    C512375   3.921   1.687  16.485 -0.2685  0.0536 -0.1885
  842MPD2     H12376   4.040   2.037  16.534  0.1098 -0.0633  0.1858
  842MPD2    H112377   3.935   1.651  16.691  1.4696 -1.0277 -1.6686
  842MPD2    H212378   3.903   1.731  16.277  1.1388  2.6691 -1.3206
  842MPD2    H312379   3.878   1.588  16.475  1.9670 -0.5634 -3.4349
  842MPD2     N12380   3.977   1.909  16.761  0.0768 -0.7476  0.0938
  842MPD2    H512381   3.952   1.850  16.840 -0.7851  0.7321  0.9349
  842MPD2    N112382   3.957   1.983  16.280  0.4193 -0.1345 -0.0471
  842MPD2    H712383   3.903   1.943  16.204  2.1367 -0.9168 -0.8436
  843MPD2     C12384   1.935   1.728   0.553  0.1647 -0.3508 -0.4028
  843MPD2    C112385   2.045   1.785   0.624  0.8057  0.0295 -0.3192
  843MPD2    C212386   2.135   1.852   0.547 -0.6226  0.1292 -0.2191
  843MPD2    C312387   2.114   1.888   0.415  0.8723  0.1058  0.1594
  843MPD2    C412388   1.998   1.840   0.360 -0.0922 -0.8146 -0.7238
  843MPD2    C512389   1.913   1.757   0.422 -0.0662 -0.2189  0.1560
  843MPD2     H12390   2.228   1.890   0.589  0.5794 -1.0869 -1.7740
  843MPD2    H112391   1.975   1.869   0.257 -0.4680 -1.5449 -0.8426
  843MPD2    H212392   1.859   1.673   0.606  0.8120 -2.1494 -1.3325
  843MPD2    H312393   1.829   1.711   0.370  0.4480 -1.7690  0.7057
  843MPD2     N12394   2.203   1.976   0.353 -0.2502  0.1363 -0.4741
  843MPD2    H512395   2.291   1.989   0.401  0.8812  1.6071 -2.9662
  843MPD2    N112396   2.040   1.770   0.765 -0.2729  0.0043 -0.1862
  843MPD2    H712397   1.972   1.715   0.817  1.1224 -2.2560 -0.8028
  844MPD2     C12398   4.584   1.273  16.804 -0.2487 -0.0826  0.1253
  844MPD2    C112399   4.550   1.370  16.709  0.0326 -0.3368  0.0035
  844MPD2    C212400   4.578   1.504  16.736 -0.3216  0.0817 -0.7100
  844MPD2    C312401   4.651   1.542  16.843  0.0587  0.0057  0.5791
  844MPD2    C412402   4.665   1.446  16.935  0.1965  0.2433 -0.5917
  844MPD2    C512403   4.638   1.316  16.920  0.7476  0.0799 -0.3122
  844MPD2     H12404   4.575   1.572  16.652 -1.3760  0.4793 -0.3514
  844MPD2    H112405   4.693   1.472  17.037  0.7973  0.3971 -0.7956
  844MPD2    H212406   4.550   1.171  16.791 -1.9156  0.5215 -0.2884
  844MPD2    H312407   4.644   1.242  16.999 -0.1116  1.3998  0.9817
  844MPD2     N12408   4.716   1.667  16.863  1.0087 -0.3009  0.0877
  844MPD2    H512409   0.063   1.673  16.936  0.7015 -1.9248  0.5123
  844MPD2    N112410   4.498   1.338  16.584  1.0866  0.1453 -1.4777
  844MPD2    H712411   4.468   1.418  16.529  0.9656  2.9679  2.6231
  845MPD2     C12412   0.253   2.714  16.755 -0.4101 -0.8051  0.0722
  845MPD2    C112413   0.322   2.652  16.859 -0.1076  0.1795  0.6138
  845MPD2    C212414   0.313   2.511  16.868  0.5148  0.4070  0.4015
  845MPD2    C312415   0.238   2.441  16.776 -0.7337  0.4927 -0.1197
  845MPD2    C412416   0.162   2.509  16.673 -0.4751 -0.0382 -0.1372
  845MPD2    C512417   0.178   2.644  16.662 -0.8688  0.1885  0.3596
  845MPD2     H12418   0.358   2.457  16.951  0.0944 -2.1067 -1.0265
  845MPD2    H112419   0.109   2.462  16.590  1.5788  0.6285 -1.8319
  845MPD2    H212420   0.246   2.822  16.748  0.8308 -0.7393 -0.2020
  845MPD2    H312421   0.134   2.710  16.588 -1.7341 -0.3466  0.4043
  845MPD2     N12422   0.240   2.306  16.786 -0.4244 -0.4781  0.6297
  845MPD2    H512423   0.298   2.262  16.857 -0.5741 -1.6992 -0.0181
  845MPD2    N112424   0.375   2.743  16.958 -0.0475  0.2699  0.1403
  845MPD2    H712425   0.334   2.835  16.949  0.6680  0.8586  2.9116
  846MPD2     C12426   2.101   3.071  13.862  0.1606 -0.1300  0.5682
  846MPD2    C112427   1.969   3.115  13.855  0.4787 -0.7045  0.0746
  846MPD2    C212428   1.901   3.128  13.973  0.3585  0.6553 -0.1445
  846MPD2    C312429   1.960   3.107  14.095 -0.3723  0.7812 -0.0241
  846MPD2    C412430   2.093   3.078  14.099  0.7645 -0.4781  0.0473
  846MPD2    C512431   2.156   3.052  13.983 -0.3000  0.3137 -0.1589
  846MPD2     H12432   1.797   3.160  13.972  0.1134 -0.1102  3.8294
  846MPD2    H112433   2.157   3.072  14.187  1.9817  0.6205 -0.7652
  846MPD2    H212434   2.164   3.073  13.773 -0.9325  2.9231 -0.1254
  846MPD2    H312435   2.263   3.033  13.992  0.3257  3.6279 -0.5925
  846MPD2     N12436   1.878   3.109  14.216  0.6229  0.4271 -0.0045
  846MPD2    H512437   1.777   3.110  14.213  0.6887  0.5028 -1.7270
  846MPD2    N112438   1.909   3.165  13.741 -0.2136  0.2407 -0.1320
  846MPD2    H712439   1.827   3.224  13.747  0.6322  1.3486  0.3477
  847MPD2     C12440   2.129   4.222  14.029 -0.5345  0.2684  0.1147
  847MPD2    C112441   2.210   4.260  14.130 -0.9074 -0.6357  0.2340
  847MPD2    C212442   2.284   4.164  14.197 -0.7131  0.2202 -0.5826
  847MPD2    C312443   2.267   4.029  14.180  0.6819  0.1291 -0.1333
  847MPD2    C412444   2.188   3.989  14.077  0.4896 -0.2316  0.0987
  847MPD2    C512445   2.118   4.084  14.003 -0.4680  0.0453 -0.2141
  847MPD2     H12446   2.347   4.207  14.274  0.7720 -1.2833 -0.9711
  847MPD2    H112447   2.183   3.885  14.046  2.7177 -0.5694  0.8460
  847MPD2    H212448   2.057   4.289  13.983  0.1676  0.3354 -0.8747
  847MPD2    H312449   2.051   4.055  13.923 -0.8903 -0.6105  0.3768
  847MPD2     N12450   2.339   3.946  14.268  0.7290 -0.0387 -0.0574
  847MPD2    H512451   2.397   4.001  14.331  0.1280 -0.0342  0.4930
  847MPD2    N112452   2.241   4.392  14.164 -0.8905  0.3007  0.2627
  847MPD2    H712453   2.325   4.406  14.219  0.4142  0.8613 -1.8691
  848MPD2     C12454   4.392   2.295  16.402 -0.7290  0.5348 -0.4636
  848MPD2    C112455   4.471   2.352  16.506 -0.4078  0.3803 -0.4696
  848MPD2    C212456   4.533   2.479  16.484 -0.3851  0.7440  0.7068
  848MPD2    C312457   4.524   2.530  16.356 -0.0275 -0.5115 -0.2503
  848MPD2    C412458   4.462   2.472  16.253  0.1357  0.1297 -0.5236
  848MPD2    C512459   4.380   2.361  16.282 -0.0951 -0.5429  0.2985
  848MPD2     H12460   4.589   2.525  16.565 -0.8635  0.4616  1.2009
  848MPD2    H112461   4.452   2.525  16.159  0.3145  0.8208 -0.1585
  848MPD2    H212462   4.324   2.211  16.410  0.9668 -0.8320 -0.3409
  848MPD2    H312463   4.311   2.323  16.208 -0.3338 -0.5821  0.5407
  848MPD2     N12464   4.553   2.670  16.331  0.2549  0.7364  0.1501
  848MPD2    H512465   4.576   2.694  16.235  2.6868  2.7327  1.1987
  848MPD2    N112466   4.474   2.302  16.634 -0.2776 -0.1903  0.2084
  848MPD2    H712467   4.524   2.357  16.702 -1.5430  0.1434  0.8744
  849MPD2     C12468   4.121   2.066  14.106  0.2304 -0.3973  0.1061
  849MPD2    C112469   4.178   2.193  14.112  1.0631 -0.0470 -0.2690
  849MPD2    C212470   4.282   2.215  14.206 -0.4829  0.3898 -0.5172
  849MPD2    C312471   4.339   2.112  14.282 -0.0158  0.3912  0.3182
  849MPD2    C412472   4.280   1.985  14.271 -0.2316  0.0905  0.5979
  849MPD2    C512473   4.176   1.963  14.180  0.0709 -0.7908  0.1510
  849MPD2     H12474   4.331   2.312  14.213 -2.7787  1.4877  0.4711
  849MPD2    H112475   4.304   1.907  14.342  0.0782  0.4948  0.9360
  849MPD2    H212476   4.057   2.035  14.024 -2.8395  0.9833  1.9282
  849MPD2    H312477   4.126   1.867  14.177 -0.8161 -0.2865 -0.9732
  849MPD2     N12478   4.461   2.125  14.356 -0.3682 -0.6285 -0.4894
  849MPD2    H512479   4.514   2.039  14.368  2.2192  0.8083 -1.5674
  849MPD2    N112480   4.162   2.290  14.012 -0.0030 -0.7776 -0.5447
  849MPD2    H712481   4.219   2.374  14.018  0.8487 -1.3490 -0.5668
  850MPD2     C12482   1.951   0.112  14.754  0.1172 -0.1711  0.5749
  850MPD2    C112483   1.932   0.215  14.843  0.1369  0.0388  0.6783
  850MPD2    C212484   2.045   0.258  14.911  0.1869 -0.4370 -0.4750
  850MPD2    C312485   2.162   0.188  14.914 -0.6105 -0.4092  0.5240
  850MPD2    C412486   2.177   0.088  14.820  0.7269  0.3829  0.7354
  850MPD2    C512487   2.074   0.063  14.743 -0.5440 -0.0085  0.0665
  850MPD2     H12488   2.037   0.345  14.976  3.2772  0.6118 -1.5026
  850MPD2    H112489   2.265   0.024  14.819  0.4191 -0.0232 -1.4164
  850MPD2    H212490   1.865   0.080  14.697  0.1772  1.3246 -0.3564
  850MPD2    H312491   2.079   4.702  14.676  0.0680 -0.0115  0.1250
  850MPD2     N12492   2.275   0.217  14.996  0.5374  0.3238 -0.4298
  850MPD2    H512493   2.367   0.181  14.972  1.0496  1.9560 -0.9034
  850MPD2    N112494   1.806   0.265  14.864  0.4145  0.2735  0.1060
  850MPD2    H712495   1.746   0.221  14.795 -0.6393  0.9560  0.5892
  851MPD2     C12496   2.237   0.191  15.576 -0.2867 -0.1155 -0.3677
  851MPD2    C112497   2.157   0.133  15.476 -0.2377  0.0488 -0.3543
  851MPD2    C212498   2.208   0.026  15.399  0.3747  1.1166  0.1505
  851MPD2    C312499   2.336   4.704  15.430 -1.0469  0.7597 -0.5749
  851MPD2    C412500   2.411   0.040  15.528 -0.6215 -0.0234  0.1976
  851MPD2    C512501   2.354   0.140  15.600  0.3697  0.1989  0.2116
  851MPD2     H12502   2.158   4.698  15.318  1.7064 -0.1169  0.1155
  851MPD2    H112503   2.518   0.021  15.538 -0.7658 -0.9947 -0.1243
  851MPD2    H212504   2.197   0.266  15.644 -1.1286  1.2515 -2.3753
  851MPD2    H312505   2.415   0.202  15.665 -1.0251  0.3172  1.4130
  851MPD2     N12506   2.390   4.611  15.337  0.2942  0.0916  0.0901
  851MPD2    H512507   2.329   4.587  15.259 -1.3772 -2.7753  2.2595
  851MPD2    N112508   2.035   0.200  15.446  0.2864 -0.2929 -0.4604
  851MPD2    H712509   2.024   0.293  15.486  3.0526 -0.3805  0.5065
  852MPD2     C12510   1.544   3.492  10.310 -0.1940  0.2835  0.6997
  852MPD2    C112511   1.587   3.381  10.378  0.0462  0.1843 -0.2313
  852MPD2    C212512   1.720   3.351  10.385  0.2590 -0.1895  0.0369
  852MPD2    C312513   1.815   3.429  10.333 -0.4231 -0.0867  0.6677
  852MPD2    C412514   1.772   3.545  10.274  0.7435 -0.7379 -0.0618
  852MPD2    C512515   1.640   3.570  10.261  0.3262  0.2988  0.0531
  852MPD2     H12516   1.736   3.262  10.445  4.3853  0.9454  0.6037
  852MPD2    H112517   1.837   3.616  10.223  0.0622  0.5721  0.8862
  852MPD2    H212518   1.438   3.516  10.302  0.4671  2.9307  0.1202
  852MPD2    H312519   1.611   3.648  10.192 -0.6479  1.1101  1.3804
  852MPD2     N12520   1.951   3.386  10.354  0.1906 -0.3183 -0.1158
  852MPD2    H512521   1.967   3.302  10.408 -0.3244  0.3071  1.0216
  852MPD2    N112522   1.501   3.289  10.451 -0.0163  0.0177  0.9151
  852MPD2    H712523   1.550   3.238  10.524  0.4295 -1.7600 -0.6233
  853MPD2     C12524   3.775   2.612  12.369  0.3255  0.9425  0.2499
  853MPD2    C112525   3.641   2.643  12.368  0.4502 -0.3737  0.4359
  853MPD2    C212526   3.564   2.610  12.256  0.4488  0.5423  0.1202
  853MPD2    C312527   3.620   2.532  12.158 -0.3442  0.3034  0.1518
  853MPD2    C412528   3.756   2.505  12.158  0.2695 -0.0423  0.3784
  853MPD2    C512529   3.831   2.547  12.260  0.8899  0.6075 -0.0514
  853MPD2     H12530   3.462   2.644  12.239  0.7138  0.1544 -2.3520
  853MPD2    H112531   3.797   2.447  12.076  0.7010 -1.5634  1.6670
  853MPD2    H212532   3.835   2.648  12.452 -2.6168  1.2041  2.2940
  853MPD2    H312533   3.934   2.516  12.261  0.7676  0.2550  2.6425
  853MPD2     N12534   3.556   2.484  12.039 -0.3462 -0.1302  0.1264
  853MPD2    H512535   3.612   2.439  11.968 -0.6216  0.9575 -0.7774
  853MPD2    N112536   3.582   2.716  12.470  0.0411 -0.2376 -0.4584
  853MPD2    H712537   3.639   2.729  12.552  1.0195  0.0358 -1.1924
  854MPD2     C12538   0.457   2.847  13.065  0.3267 -0.4564 -0.9347
  854MPD2    C112539   0.509   2.883  12.946 -0.0667  0.0416 -0.0206
  854MPD2    C212540   0.641   2.876  12.937  0.6442  0.8146  0.1893
  854MPD2    C312541   0.725   2.822  13.035  0.2231 -0.5836 -0.3890
  854MPD2    C412542   0.669   2.760  13.147  0.6026  0.9945  0.2836
  854MPD2    C512543   0.530   2.780  13.158 -0.7762 -0.1044 -0.2376
  854MPD2     H12544   0.690   2.914  12.847  4.8163  0.1632  2.1911
  854MPD2    H112545   0.731   2.706  13.217 -2.4487 -0.4896  1.8384
  854MPD2    H212546   0.353   2.857  13.093  0.2693 -0.1935 -1.2407
  854MPD2    H312547   0.480   2.747  13.249  0.8489  0.7791  0.9660
  854MPD2     N12548   0.867   2.818  13.020 -0.0437  0.2432 -0.0338
  854MPD2    H512549   0.924   2.779  13.093 -0.3556 -0.2088 -0.0359
  854MPD2    N112550   0.419   2.940  12.851  0.3628  0.1609 -0.2463
  854MPD2    H712551   0.321   2.938  12.876  0.3451  1.1807 -0.2372
  855MPD2     C12552   1.304   2.927  13.705  0.0646  0.1626 -0.4670
  855MPD2    C112553   1.329   2.804  13.662  1.0270  0.0784  0.5579
  855MPD2    C212554   1.332   2.775  13.529 -0.6825 -0.4427 -0.3221
  855MPD2    C312555   1.287   2.867  13.442 -0.4539  0.5205 -0.0010
  855MPD2    C412556   1.252   2.992  13.491  0.3082  0.9131  0.6130
  855MPD2    C512557   1.267   3.025  13.618 -0.1082 -0.2511 -0.2360
  855MPD2     H12558   1.342   2.669  13.508  0.1040 -0.5344  0.5667
  855MPD2    H112559   1.223   3.071  13.423 -2.6113  2.2394  3.4149
  855MPD2    H212560   1.328   2.964  13.804  3.2960  4.2555 -2.7291
  855MPD2    H312561   1.249   3.128  13.647  0.8657 -0.2893  0.5228
  855MPD2     N12562   1.244   2.847  13.307  0.6621  0.5956  0.0392
  855MPD2    H512563   1.218   2.925  13.247  0.2585  0.0751 -0.4701
  855MPD2    N112564   1.352   2.695  13.749 -0.0328  0.3864  0.3118
  855MPD2    H712565   1.387   2.610  13.706 -0.4555 -0.1382  0.9956
  856MPD2     C12566   3.063   3.536  14.192 -0.0147 -0.6485  0.7179
  856MPD2    C112567   3.102   3.669  14.173  0.2441 -0.6829 -0.4495
  856MPD2    C212568   3.010   3.749  14.118 -0.6259  0.3595  0.1855
  856MPD2    C312569   2.885   3.704  14.087 -0.1193  0.1069 -0.5036
  856MPD2    C412570   2.852   3.573  14.100 -0.8492  0.2152 -0.3143
  856MPD2    C512571   2.942   3.485  14.154  0.5320  0.2617 -0.1260
  856MPD2     H12572   3.034   3.853  14.096  0.6685  0.2013  0.8789
  856MPD2    H112573   2.753   3.537  14.074 -0.5713  0.9420 -2.3279
  856MPD2    H212574   3.127   3.460  14.234 -0.5136 -2.5866 -2.0898
  856MPD2    H312575   2.902   3.385  14.165  1.3868 -0.0751 -0.0526
  856MPD2     N12576   2.775   3.790  14.047 -0.1669 -0.1416  0.1674
  856MPD2    H512577   2.684   3.745  14.048 -0.8589  1.2238 -1.2036
  856MPD2    N112578   3.221   3.717  14.222  0.0169 -0.1697  0.2713
  856MPD2    H712579   3.233   3.817  14.205  0.2854 -0.0142  1.3770
  857MPD2     C12580   4.090   0.860  12.849 -0.1178  0.1213 -0.0404
  857MPD2    C112581   4.195   0.853  12.944 -0.0997  0.5457 -0.2285
  857MPD2    C212582   4.261   0.971  12.981 -0.4439  0.3673  0.3883
  857MPD2    C312583   4.224   1.087  12.921  0.7643 -0.0301 -0.3046
  857MPD2    C412584   4.115   1.097  12.829 -0.7821 -0.1746  0.5532
  857MPD2    C512585   4.055   0.983  12.794 -0.9418  0.3184  0.0176
  857MPD2     H12586   4.346   0.968  13.047 -0.1781  1.2551  0.0826
  857MPD2    H112587   4.076   1.189  12.788 -1.4175 -0.5262  0.3698
  857MPD2    H212588   4.024   0.781  12.817  1.3798 -1.2110  0.1453
  857MPD2    H312589   3.973   0.982  12.723 -1.0725  0.2791  0.1675
  857MPD2     N12590   4.311   1.196  12.939 -0.1897 -0.2500 -0.0387
  857MPD2    H512591   4.392   1.183  13.000 -0.4319 -1.1717  0.0811
  857MPD2    N112592   4.234   0.726  12.988  0.4479 -0.8574  0.3370
  857MPD2    H712593   4.190   0.649  12.939  2.6708 -1.1288 -1.2125
  858MPD2     C12594   0.582   4.721  16.982  0.4007 -0.0393 -0.1664
  858MPD2    C112595   0.697   4.647  16.987 -0.6562 -0.0643 -0.7764
  858MPD2    C212596   0.777   4.657  17.105 -0.1600  0.0377  0.6175
  858MPD2    C312597   0.747   0.020  17.208  0.9008  0.7968 -0.3202
  858MPD2    C412598   0.636   0.101  17.188 -0.4352 -0.0286 -0.2296
  858MPD2    C512599   0.548   0.082  17.086 -0.1005  0.5367 -0.0488
  858MPD2     H12600   0.869   4.598  17.109 -0.1667  0.0735  1.3453
  858MPD2    H112601   0.605   0.179  17.257 -0.5083 -0.2941  0.0378
  858MPD2    H212602   0.510   4.708  16.903  0.8511 -0.4065 -0.5190
  858MPD2    H312603   0.463   0.150  17.089 -1.4114 -1.0874 -0.2442
  858MPD2     N12604   0.833   0.040  17.318 -0.0177 -0.8623  0.0395
  858MPD2    H512605   0.822   0.128  17.368 -1.9073  0.0328 -1.9426
  858MPD2    N112606   0.721   4.559  16.882  0.2922 -0.3578  0.3709
  858MPD2    H712607   0.653   4.559  16.806  2.3395 -0.0748 -1.4600
  859MPD2     C12608   3.673   2.150  15.581 -0.2177 -0.0740  0.1598
  859MPD2    C112609   3.788   2.138  15.516  0.4048 -0.1188  0.0924
  859MPD2    C212610   3.859   2.020  15.529  0.0702 -0.2700 -0.1388
  859MPD2    C312611   3.816   1.905  15.595 -0.7813  0.5010  0.6747
  859MPD2    C412612   3.681   1.922  15.649  0.0363  0.0338  0.1607
  859MPD2    C512613   3.632   2.049  15.660 -0.2820  0.8642  0.5856
  859MPD2     H12614   3.961   2.005  15.496  0.3595  0.1330  0.5765
  859MPD2    H112615   3.632   1.838  15.696  1.9198 -1.1336  0.0250
  859MPD2    H212616   3.607   2.236  15.575 -0.4076 -0.2062  0.3375
  859MPD2    H312617   3.544   2.073  15.717 -0.8995 -0.5303  0.2227
  859MPD2     N12618   3.882   1.779  15.613  0.3419  0.2324 -0.3387
  859MPD2    H512619   3.834   1.705  15.663  0.7651  1.3928  1.8185
  859MPD2    N112620   3.829   2.251  15.446 -0.4601  0.1250  0.5666
  859MPD2    H712621   3.778   2.338  15.450 -1.7848 -0.6103 -0.4216
  860MPD2     C12622   1.847   2.252  11.526 -0.6799  0.7580 -0.2447
  860MPD2    C112623   1.873   2.316  11.646  0.7961 -0.1399 -0.2168
  860MPD2    C212624   1.764   2.346  11.729  0.1690  0.6915 -0.3566
  860MPD2    C312625   1.626   2.315  11.701 -0.1893 -0.6261 -0.1640
  860MPD2    C412626   1.609   2.249  11.578  0.1504  0.2405 -0.4185
  860MPD2    C512627   1.716   2.211  11.495 -0.0384  0.6998 -0.1546
  860MPD2     H12628   1.783   2.411  11.814  1.2130  1.2349 -1.0099
  860MPD2    H112629   1.510   2.228  11.540  0.8680  0.3079 -2.3267
  860MPD2    H212630   1.927   2.200  11.475 -1.1759  0.4546 -0.7261
  860MPD2    H312631   1.704   2.146  11.409  1.4867  0.6112 -0.2968
  860MPD2     N12632   1.521   2.344  11.787  0.2806  0.2542 -0.3462
  860MPD2    H512633   1.545   2.402  11.866 -0.3059 -0.6764  0.5088
  860MPD2    N112634   2.000   2.338  11.697  0.1039  0.2178 -0.4012
  860MPD2    H712635   2.001   2.380  11.789 -1.7084  1.2974 -0.8875
  861MPD2     C12636   0.424   0.946  11.541  0.4230 -0.8331 -0.1238
  861MPD2    C112637   0.296   0.919  11.568 -0.2419 -0.1623  0.0342
  861MPD2    C212638   0.205   0.947  11.466  0.2121  0.2757 -0.4014
  861MPD2    C312639   0.243   1.001  11.340 -0.5657 -0.7713 -0.3916
  861MPD2    C412640   0.378   1.033  11.330 -0.3975  0.0019  0.0265
  861MPD2    C512641   0.465   1.011  11.429 -0.2372  0.1590  0.0834
  861MPD2     H12642   0.101   0.930  11.492  0.5487 -2.3132 -0.7205
  861MPD2    H112643   0.424   1.091  11.251  0.6524 -0.2621  0.4455
  861MPD2    H212644   0.505   0.927  11.611  0.4388  2.0259  0.6503
  861MPD2    H312645   0.570   1.038  11.422  0.2228 -1.9063 -0.8682
  861MPD2     N12646   0.162   1.034  11.228  0.3510 -0.1253  0.2761
  861MPD2    H512647   0.208   1.079  11.150 -0.4083 -1.0391 -0.7057
  861MPD2    N112648   0.252   0.877  11.693 -0.6561 -0.2064  0.1168
  861MPD2    H712649   0.154   0.860  11.710 -0.0974 -1.8388  1.7097
  862MPD2     C12650   4.262   0.827  10.712  0.5587  0.3166 -0.1999
  862MPD2    C112651   4.325   0.788  10.824 -0.3242 -0.9772  0.5332
  862MPD2    C212652   4.295   0.669  10.879  0.3882  0.0706 -0.1230
  862MPD2    C312653   4.202   0.586  10.820 -0.1067 -0.6029  0.6152
  862MPD2    C412654   4.140   0.620  10.707  0.4503 -1.0779 -0.2559
  862MPD2    C512655   4.172   0.741  10.654  0.2235 -0.4267  0.0411
  862MPD2     H12656   4.343   0.645  10.973  1.2666  2.0377 -0.0587
  862MPD2    H112657   4.077   0.550  10.652 -0.3429 -0.0683 -0.6287
  862MPD2    H212658   4.272   0.927  10.670 -0.6522  0.2545 -0.6234
  862MPD2    H312659   4.123   0.771  10.562 -1.1992 -0.4604  0.7901
  862MPD2     N12660   4.167   0.458  10.866 -0.2221 -0.7778 -0.1652
  862MPD2    H512661   4.084   0.417  10.823  0.8792 -3.3809  0.2210
  862MPD2    N112662   4.424   0.867  10.890 -0.1508  0.1893 -0.7744
  862MPD2    H712663   4.444   0.848  10.987  0.4211 -0.2281 -0.9715
  863MPD2     C12664   3.241   3.574  17.258 -0.8729  0.3189 -0.4630
  863MPD2    C112665   3.315   3.647  17.169  0.4843  0.5567 -0.1281
  863MPD2    C212666   3.452   3.654  17.185 -0.4604  0.2912 -0.2883
  863MPD2    C312667   3.516   3.553  17.254  0.2823 -0.3324 -0.3268
  863MPD2    C412668   3.447   3.466  17.332 -0.3934  0.0945  0.1111
  863MPD2    C512669   3.315   3.487  17.340  0.9964  0.6838  0.4179
  863MPD2     H12670   3.506   3.718  17.116 -1.5478  0.1617 -1.2585
  863MPD2    H112671   3.483   3.395  17.406 -0.3173 -0.7254 -0.7152
  863MPD2    H212672   3.134   3.585  17.274 -0.8969 -0.5840 -0.0423
  863MPD2    H312673   3.256   3.433  17.413  0.9138  0.1055 -0.0777
  863MPD2     N12674   3.652   3.533  17.244 -0.3474  0.2454 -0.6861
  863MPD2    H512675   3.684   3.448  17.288  2.7075  1.1729 -1.0916
  863MPD2    N112676   3.252   3.713  17.061  0.1757  0.2211  0.0689
  863MPD2    H712677   3.311   3.758  16.992  1.6563 -1.6919  0.0946
  864MPD2     C12678   3.793   0.362  16.793 -0.4301  0.0766 -0.1924
  864MPD2    C112679   3.916   0.325  16.845 -0.2239  0.0446  0.3972
  864MPD2    C212680   4.017   0.418  16.844  0.2349  0.0145  0.0301
  864MPD2    C312681   4.010   0.543  16.788  0.0247 -0.0253 -0.8120
  864MPD2    C412682   3.889   0.579  16.736 -0.2574 -0.4315 -0.0117
  864MPD2    C512683   3.781   0.489  16.740  0.0126 -0.5645 -0.2785
  864MPD2     H12684   4.110   0.386  16.890  0.1203  1.0126  0.9601
  864MPD2    H112685   3.878   0.669  16.676  1.5118  0.4461  0.9754
  864MPD2    H212686   3.711   0.292  16.805 -0.1079 -0.1557  0.6177
  864MPD2    H312687   3.687   0.514  16.690  0.9318  2.7712 -0.3126
  864MPD2     N12688   4.124   0.625  16.774  0.1890 -0.3085 -0.2617
  864MPD2    H512689   4.129   0.700  16.707  4.5632 -0.8348 -0.5336
  864MPD2    N112690   3.931   0.197  16.893  0.5063  0.1189 -0.2908
  864MPD2    H712691   3.847   0.141  16.900  1.1398 -0.5875  1.6955
  865MPD2     C12692   4.356   0.419  15.959 -0.4361  0.4503 -0.4717
  865MPD2    C112693   4.393   0.321  16.052  0.3700  0.8534  0.3673
  865MPD2    C212694   4.404   0.373  16.182 -0.2263  0.7756 -0.1809
  865MPD2    C312695   4.370   0.505  16.222  0.4600 -0.0947 -0.2619
  865MPD2    C412696   4.331   0.596  16.127 -0.1272 -0.2640  0.7281
  865MPD2    C512697   4.333   0.550  16.001  0.4376 -0.4997  0.3577
  865MPD2     H12698   4.430   0.304  16.261  2.6232  1.7618 -0.2729
  865MPD2    H112699   4.302   0.699  16.143 -1.4609 -0.7266  1.2917
  865MPD2    H212700   4.355   0.385  15.856 -1.1308  2.3116 -1.0917
  865MPD2    H312701   4.297   0.614  15.921 -0.1794 -3.2302 -1.5640
  865MPD2     N12702   4.382   0.547  16.353  0.5929 -0.2200  0.7808
  865MPD2    H512703   4.359   0.645  16.367  3.1775  0.5115 -0.1462
  865MPD2    N112704   4.440   0.191  16.015 -0.7081 -1.1280 -0.2644
  865MPD2    H712705   4.464   0.171  15.918  1.7090  0.2408  0.0566
  866MPD2     C12706   0.511   1.051  12.042 -0.3941  0.3541  0.3342
  866MPD2    C112707   0.518   1.101  11.917 -0.5390 -0.2906 -0.1743
  866MPD2    C212708   0.440   1.205  11.879 -0.0206 -0.6138 -0.0107
  866MPD2    C312709   0.367   1.275  11.966  0.1756  0.7005  0.1735
  866MPD2    C412710   0.375   1.235  12.094 -0.2848  0.8948 -0.1001
  866MPD2    C512711   0.443   1.123  12.134 -0.3747  0.1577  0.1232
  866MPD2     H12712   0.439   1.235  11.775  1.0156 -0.5978 -0.0202
  866MPD2    H112713   0.314   1.282  12.170  0.3074  0.3983  0.6780
  866MPD2    H212714   0.569   0.968  12.082 -0.1479  0.5879  0.4611
  866MPD2    H312715   0.459   1.105  12.239  0.7642  0.5748  0.0211
  866MPD2     N12716   0.297   1.399  11.939  0.1793  0.2953  0.6320
  866MPD2    H512717   0.296   1.461  12.020 -0.9164 -0.1504  0.9622
  866MPD2    N112718   0.614   1.043  11.833 -0.3908  0.7998  0.0883
  866MPD2    H712719   0.664   0.960  11.865 -0.6436  0.6705  0.1437
  867MPD2     C12720   2.995   4.487  16.304 -0.1004 -0.6145  0.7646
  867MPD2    C112721   3.027   4.457  16.438  0.1796 -0.5520  0.6430
  867MPD2    C212722   3.061   4.563  16.524 -0.6032  0.2178 -0.1954
  867MPD2    C312723   3.065   4.690  16.477 -0.5770 -0.3810  0.1537
  867MPD2    C412724   3.017   4.721  16.353 -0.4995 -0.1890  0.1437
  867MPD2    C512725   2.990   4.622  16.265 -0.0055 -0.0312 -0.1350
  867MPD2     H12726   3.081   4.545  16.629  1.3533 -1.9719 -0.9463
  867MPD2    H112727   2.991   0.097  16.322 -3.8265 -1.1903 -0.2599
  867MPD2    H212728   2.958   4.411  16.236  0.0455  0.0466 -0.0423
  867MPD2    H312729   2.949   4.640  16.166  1.0117  1.2996 -0.3122
  867MPD2     N12730   3.098   0.085  16.556  0.2125 -0.2890  0.7535
  867MPD2    H512731   3.101   0.173  16.505 -0.5260 -0.0050  1.2086
  867MPD2    N112732   3.038   4.320  16.471 -0.0671  0.2979 -0.3555
  867MPD2    H712733   3.045   4.257  16.392  0.7266 -0.4547  0.3152
  868MPD2     C12734   4.656   3.160  13.410 -0.9891 -0.6943  0.6737
  868MPD2    C112735   4.647   3.280  13.357  0.4897  0.3613  0.9385
  868MPD2    C212736   4.531   3.326  13.296 -0.3266 -0.2069  0.0430
  868MPD2    C312737   4.421   3.242  13.289  0.0064 -0.8391  0.0457
  868MPD2    C412738   4.432   3.115  13.342 -0.0958  1.2302 -0.0445
  868MPD2    C512739   4.551   3.082  13.406  0.3684 -0.3017  0.2178
  868MPD2     H12740   4.533   3.424  13.250 -0.4490  1.1638  2.9784
  868MPD2    H112741   4.356   3.038  13.329  1.9109 -0.7955  0.2007
  868MPD2    H212742   0.027   3.120  13.444 -0.6200  0.4667  1.0030
  868MPD2    H312743   4.556   2.988  13.459 -1.1261 -0.1967  0.5593
  868MPD2     N12744   4.309   3.295  13.221  0.7319 -0.3327  0.2642
  868MPD2    H512745   4.317   3.391  13.189 -0.8279 -1.4293 -3.3801
  868MPD2    N112746   0.046   3.354  13.350 -0.0149 -0.0697 -0.4033
  868MPD2    H712747   0.121   3.337  13.417 -2.3785  1.0779  2.5700
  869MPD2     C12748   1.308   2.613   2.238  0.1671  0.3482  0.5714
  869MPD2    C112749   1.348   2.515   2.146 -0.0437  0.9622  0.4568
  869MPD2    C212750   1.473   2.510   2.095 -0.1289 -0.0665 -0.4140
  869MPD2    C312751   1.560   2.615   2.119  0.6134 -0.8654 -0.5270
  869MPD2    C412752   1.520   2.715   2.203  0.5400 -0.5385  0.4620
  869MPD2    C512753   1.392   2.718   2.252 -0.0269  0.8586 -0.2270
  869MPD2     H12754   1.492   2.436   2.017 -0.6834  0.4568 -1.0473
  869MPD2    H112755   1.584   2.793   2.243 -1.9284  1.4807  0.4305
  869MPD2    H212756   1.214   2.614   2.291  0.2965 -1.3517  0.8507
  869MPD2    H312757   1.372   2.791   2.330  1.8211  1.1554 -0.0411
  869MPD2     N12758   1.685   2.631   2.055  0.3273  0.0711 -0.3169
  869MPD2    H512759   1.728   2.723   2.059 -0.1348  0.3372 -1.4928
  869MPD2    N112760   1.254   2.416   2.121  0.2077  0.3268 -0.2643
  869MPD2    H712761   1.166   2.419   2.172 -0.8565 -0.4153 -2.0628
  870MPD2     C12762   0.233   0.820   1.888 -0.7460  0.0854  0.1301
  870MPD2    C112763   0.366   0.791   1.862 -0.7308 -0.4471 -0.5900
  870MPD2    C212764   0.396   0.731   1.745  0.2737  0.2559  0.0250
  870MPD2    C312765   0.303   0.715   1.648  0.0336 -0.8350 -0.0434
  870MPD2    C412766   0.173   0.758   1.673  0.8402  0.7082 -0.2774
  870MPD2    C512767   0.132   0.801   1.797  0.0638 -0.5528  0.2510
  870MPD2     H12768   0.502   0.726   1.723  0.3495  4.3398 -0.5773
  870MPD2    H112769   0.085   0.749   1.610 -0.0998 -2.6181  1.4882
  870MPD2    H212770   0.208   0.850   1.990 -0.5310  1.7228 -0.3052
  870MPD2    H312771   0.026   0.812   1.816  0.0136 -0.2262 -0.2097
  870MPD2     N12772   0.343   0.676   1.526 -0.0661 -0.5007 -0.5084
  870MPD2    H512773   0.439   0.648   1.512  0.7010  2.3418 -0.8181
  870MPD2    N112774   0.454   0.814   1.971 -0.3892  0.1500  0.3019
  870MPD2    H712775   0.433   0.871   2.053  0.6052  2.5129 -1.0929
  871MPD2     C12776   1.786   0.115  16.307 -0.1579  0.0715 -0.1411
  871MPD2    C112777   1.830   0.059  16.427 -0.3349 -0.8136  0.5289
  871MPD2    C212778   1.885   4.658  16.418 -0.3246 -0.2259 -0.1309
  871MPD2    C312779   1.927   4.600  16.301 -0.3745 -0.2049 -0.5067
  871MPD2    C412780   1.883   4.657  16.181 -0.1201 -1.0623 -0.0617
  871MPD2    C512781   1.798   0.045  16.195  0.8331 -1.1810  0.5858
  871MPD2     H12782   1.921   4.612  16.509 -2.5187  1.0091  1.3476
  871MPD2    H112783   1.901   4.609  16.085 -3.3499 -1.3059 -0.5465
  871MPD2    H212784   1.723   0.203  16.312  0.5759  0.6809 -1.9605
  871MPD2    H312785   1.749   0.077  16.104  0.9572 -2.8240 -0.0564
  871MPD2     N12786   2.008   4.485  16.304  0.3032 -0.2370 -0.1493
  871MPD2    H512787   2.022   4.448  16.397 -1.2014  0.8703  0.5155
  871MPD2    N112788   1.807   0.127  16.546 -0.0391  0.4303 -0.5715
  871MPD2    H712789   1.756   0.215  16.538  0.9236  1.0545  0.2178
  872MPD2     C12790   2.839   2.453  13.989  0.8314  0.7515 -0.3007
  872MPD2    C112791   2.863   2.568  14.060  0.3215  0.3062 -0.3024
  872MPD2    C212792   2.765   2.647  14.110 -0.6449 -0.0779  0.4699
  872MPD2    C312793   2.626   2.610  14.103 -0.4676  0.0150  0.1318
  872MPD2    C412794   2.607   2.495  14.038  0.2307  0.7938  0.8066
  872MPD2    C512795   2.704   2.421  13.983 -0.2926 -0.0305 -0.0850
  872MPD2     H12796   2.793   2.734  14.168  1.5451 -0.6897  0.3026
  872MPD2    H112797   2.504   2.467  14.014  0.2460  0.9923  0.5044
  872MPD2    H212798   2.920   2.386  13.962 -0.0274 -0.5281  0.2574
  872MPD2    H312799   2.670   2.325  13.945 -0.2397  0.0924 -0.4456
  872MPD2     N12800   2.523   2.693  14.151 -0.1140  0.0034 -0.7839
  872MPD2    H512801   2.429   2.660  14.132 -1.0131  1.1106  1.8370
  872MPD2    N112802   2.996   2.618  14.068 -0.2369  0.0503  0.8854
  872MPD2    H712803   3.008   2.718  14.081 -1.7590  0.4783 -0.9724
  873MPD2     C12804   0.582   2.529   0.766 -0.3611  0.2545 -0.9122
  873MPD2    C112805   0.446   2.527   0.797 -0.0309 -0.5023  0.5821
  873MPD2    C212806   0.387   2.407   0.824  0.1807  0.0582 -0.3452
  873MPD2    C312807   0.453   2.283   0.818 -0.6435 -0.0791 -0.0851
  873MPD2    C412808   0.587   2.290   0.785  0.5082  0.1654 -0.2664
  873MPD2    C512809   0.652   2.409   0.763 -0.2976 -0.1697 -0.2127
  873MPD2     H12810   0.280   2.405   0.843  0.2361  0.3110 -0.0109
  873MPD2    H112811   0.625   2.193   0.757  1.8871  0.5454  0.2833
  873MPD2    H212812   0.639   2.618   0.746 -0.6266  0.2144 -1.8342
  873MPD2    H312813   0.753   2.410   0.725 -0.6757 -0.8443 -1.2096
  873MPD2     N12814   0.399   2.153   0.832  0.4566  0.9373 -0.4588
  873MPD2    H512815   0.466   2.078   0.818  0.6218  0.7267  1.5599
  873MPD2    N112816   0.381   2.655   0.798 -0.3366 -0.2004  0.8256
  873MPD2    H712817   0.443   2.734   0.781  0.2796 -0.6687  0.9194
  874MPD2     C12818   3.957   2.846  15.968 -0.7856  0.0655 -0.0944
  874MPD2    C112819   4.039   2.752  16.018  0.0223  0.5606 -0.4034
  874MPD2    C212820   4.171   2.788  16.059 -0.8848 -0.1846  0.7856
  874MPD2    C312821   4.209   2.921  16.045  0.2806 -1.1513 -0.4330
  874MPD2    C412822   4.127   3.015  15.996 -0.0499 -0.3686  0.3113
  874MPD2    C512823   4.004   2.976  15.956  0.0371 -0.4709  0.3958
  874MPD2     H12824   4.245   2.717  16.095  0.1687  0.0035 -0.9931
  874MPD2    H112825   4.148   3.119  15.976 -1.2631 -0.3503 -0.9465
  874MPD2    H212826   3.857   2.822  15.933  0.1890 -1.3989 -1.9068
  874MPD2    H312827   3.935   3.049  15.916  1.3071  0.6096  0.1876
  874MPD2     N12828   4.337   2.956  16.096  0.3185  0.0241 -0.5195
  874MPD2    H512829   4.398   2.878  16.116 -1.8536 -1.2383  1.2413
  874MPD2    N112830   3.980   2.624  16.028 -0.3199 -0.5086  0.2096
  874MPD2    H712831   3.883   2.612  15.999 -0.1460  0.4974 -0.7766
  875MPD2     C12832   0.275   0.944  14.251 -0.1229  0.4324  0.5144
  875MPD2    C112833   0.301   1.076  14.246 -0.3195  0.9564  0.0160
  875MPD2    C212834   0.385   1.125  14.340 -0.1725 -0.2075 -0.2483
  875MPD2    C312835   0.429   1.045  14.439  0.3710 -0.4080 -0.3785
  875MPD2    C412836   0.408   0.909  14.439 -0.2983  0.4298  0.2604
  875MPD2    C512837   0.329   0.857  14.341 -0.6447  0.0465  0.2337
  875MPD2     H12838   0.407   1.231  14.333  0.8896 -0.2284  2.7158
  875MPD2    H112839   0.442   0.836  14.511 -1.7320  1.3131  1.8231
  875MPD2    H212840   0.214   0.898  14.174  1.6457 -0.4614 -0.3606
  875MPD2    H312841   0.303   0.752  14.343 -0.5401  0.0323  0.8931
  875MPD2     N12842   0.500   1.109  14.541 -0.1362 -0.5491  0.2752
  875MPD2    H512843   0.540   1.200  14.518 -1.5587 -0.2573 -1.0287
  875MPD2    N112844   0.241   1.157  14.148  0.3679  0.3662  0.4468
  875MPD2    H712845   0.262   1.256  14.137 -3.1504  0.8897 -1.8062
  876MPD2     C12846   4.100   2.416  15.728  0.1582  0.6795 -0.1946
  876MPD2    C112847   4.230   2.414  15.776  0.8800  0.6289  0.4200
  876MPD2    C212848   4.289   2.294  15.799  0.2120 -0.1376  0.0210
  876MPD2    C312849   4.222   2.175  15.779 -0.4876  0.2425 -0.1192
  876MPD2    C412850   4.095   2.175  15.729  0.3901 -0.3436 -0.1504
  876MPD2    C512851   4.036   2.299  15.699  0.0866 -0.3065 -0.3643
  876MPD2     H12852   4.388   2.297  15.842 -1.0611  2.3548  2.8089
  876MPD2    H112853   4.030   2.088  15.730 -1.5203  1.0851  0.0919
  876MPD2    H212854   4.029   2.498  15.721  0.3048  0.9680  1.7127
  876MPD2    H312855   3.928   2.309  15.689  0.1496  1.5659  0.7046
  876MPD2     N12856   4.290   2.056  15.809 -0.1622  0.3362 -0.0868
  876MPD2    H512857   4.388   2.049  15.832 -0.8976 -1.8410  2.5242
  876MPD2    N112858   4.288   2.543  15.777 -0.1578 -0.0830 -0.0420
  876MPD2    H712859   4.238   2.617  15.730  0.6833 -1.0989 -2.5383
  877MPD2     C12860   4.183   3.044  15.321  0.0387  0.4643  0.3041
  877MPD2    C112861   4.314   3.068  15.344 -0.7401  0.2475 -0.1896
  877MPD2    C212862   4.388   3.123  15.238 -0.0580 -0.1114 -0.8053
  877MPD2    C312863   4.328   3.154  15.123  0.4221  0.1561  0.6283
  877MPD2    C412864   4.189   3.145  15.107 -1.0207  0.1512  1.0799
  877MPD2    C512865   4.121   3.078  15.206  0.3781 -0.0942  0.8589
  877MPD2     H12866   4.494   3.145  15.249  0.1668 -1.4883 -0.2979
  877MPD2    H112867   4.137   3.165  15.014 -1.2736 -0.9229  0.9865
  877MPD2    H212868   4.114   3.001  15.394  0.7619  0.7313  1.1451
  877MPD2    H312869   4.015   3.070  15.187  0.5145  1.0364 -0.3547
  877MPD2     N12870   4.398   3.201  15.009 -0.1346 -0.0908 -0.2651
  877MPD2    H512871   4.344   3.223  14.926 -1.7251  2.2516  1.3774
  877MPD2    N112872   4.372   3.039  15.468 -0.7449 -0.2717 -0.4757
  877MPD2    H712873   4.471   3.018  15.467 -0.3601  1.3767  2.3867
  878MPD2     C12874   4.156   2.150  12.994 -0.0845  0.7902 -0.3693
  878MPD2    C112875   4.199   2.280  13.010  0.0402  0.0650  1.3015
  878MPD2    C212876   4.183   2.339  13.134  0.5415  0.8521  0.4997
  878MPD2    C312877   4.123   2.265  13.234 -0.2702  0.6541  0.0504
  878MPD2    C412878   4.075   2.143  13.213 -0.0110 -0.6358  0.0114
  878MPD2    C512879   4.096   2.084  13.097 -0.0459 -0.2309 -0.1082
  878MPD2     H12880   4.239   2.428  13.157 -1.0858  2.0440 -0.1264
  878MPD2    H112881   4.032   2.089  13.296  0.6033  0.3308  0.9572
  878MPD2    H212882   4.141   2.103  12.898 -0.0732  1.3109 -0.6261
  878MPD2    H312883   4.050   1.985  13.091 -1.4909  0.5121 -1.3617
  878MPD2     N12884   4.126   2.329  13.365  0.2449  0.0167 -0.4520
  878MPD2    H512885   4.167   2.422  13.369  0.3677 -0.1110  1.3519
  878MPD2    N112886   4.261   2.355  12.904  0.4172 -0.1082 -0.0217
  878MPD2    H712887   4.261   2.315  12.811 -0.2817 -1.5076  0.5741
  879MPD2     C12888   0.447   3.300  17.564  0.2918  0.4639 -0.1713
  879MPD2    C112889   0.429   3.163  17.549 -1.5416 -0.6618  0.3158
  879MPD2    C212890   0.304   3.112  17.512  0.0701  0.1221  0.0997
  879MPD2    C312891   0.198   3.197  17.486  0.2751  0.1928  0.3249
  879MPD2    C412892   0.215   3.334  17.502 -0.2876 -0.1664  0.1774
  879MPD2    C512893   0.334   3.384  17.545  0.1606  0.0162  0.0875
  879MPD2     H12894   0.280   3.009  17.489 -2.8472  0.8564 -0.1116
  879MPD2    H112895   0.139   3.409  17.479 -0.4897 -1.0541 -2.0917
  879MPD2    H212896   0.546   3.340  17.580 -0.3143  3.0147 -2.9832
  879MPD2    H312897   0.351   3.490  17.562 -0.2230 -0.1546  1.5604
  879MPD2     N12898   0.079   3.147  17.434 -0.2858  0.4312  0.6625
  879MPD2    H512899   0.068   3.046  17.424  0.7021  0.4605 -0.7230
  879MPD2    N112900   0.540   3.082  17.580 -0.3904  0.2882 -0.8956
  879MPD2    H712901   0.629   3.131  17.589 -1.2732  1.0866  3.2940
  880MPD2     C12902   1.442   4.700   0.923 -0.1253  0.3265  0.2342
  880MPD2    C112903   1.490   0.049   0.817 -0.2697 -0.5175 -1.0378
  880MPD2    C212904   1.594   4.713   0.737 -0.6165 -0.2319  0.4749
  880MPD2    C312905   1.638   4.583   0.762 -0.1417 -0.2869 -0.0350
  880MPD2    C412906   1.579   4.515   0.863  0.3595 -0.0482 -0.4657
  880MPD2    C512907   1.482   4.574   0.945  0.3232 -0.2433  0.2756
  880MPD2     H12908   1.645   0.038   0.655 -1.1063  2.0683  1.5377
  880MPD2    H112909   1.606   4.411   0.875  0.1969  0.3434  3.3198
  880MPD2    H212910   1.367   0.017   0.990 -2.0831 -1.8605 -0.6256
  880MPD2    H312911   1.439   4.516   1.026  0.4272 -0.4714  0.1669
  880MPD2     N12912   1.734   4.530   0.669 -0.0531 -0.1997  0.2751
  880MPD2    H512913   1.775   4.598   0.605 -1.1959  1.7430  1.5899
  880MPD2    N112914   1.437   0.178   0.800  0.1051  0.3898  0.2331
  880MPD2    H712915   1.359   0.192   0.863  1.1635  1.6540  1.2709
  881MPD2     C12916   1.129   0.960   0.118  0.3440  0.0544 -0.4671
  881MPD2    C112917   1.147   0.827   0.093 -0.1188 -0.4324  0.4613
  881MPD2    C212918   1.174   0.741   0.190  0.0148 -0.6378 -0.1266
  881MPD2    C312919   1.170   0.785   0.320 -0.4659 -0.1270 -0.1350
  881MPD2    C412920   1.132   0.916   0.349 -0.0603  0.3827 -0.6731
  881MPD2    C512921   1.111   1.005   0.250 -0.1683  0.2919 -0.4369
  881MPD2     H12922   1.194   0.637   0.166  1.1008 -0.1275 -1.4112
  881MPD2    H112923   1.143   0.955   0.450 -0.3208  1.3063 -1.0023
  881MPD2    H212924   1.097   1.031   0.042 -3.3532  0.6733  1.6306
  881MPD2    H312925   1.086   1.107   0.277  0.4254  0.7286 -1.5570
  881MPD2     N12926   1.208   0.702   0.433 -0.4668 -0.5313 -0.0637
  881MPD2    H512927   1.192   0.744   0.524  0.4043  0.9879 -0.6025
  881MPD2    N112928   1.174   0.795  17.654 -0.0290 -0.1295 -0.4333
  881MPD2    H712929   1.184   0.873  17.590 -0.9360  0.4525  0.1385
  882MPD2     C12930   4.447   2.820  14.477 -0.0530 -0.3069 -0.5944
  882MPD2    C112931   4.369   2.929  14.503  0.0572  0.2660  0.0763
  882MPD2    C212932   4.231   2.912  14.514  0.8158 -0.0620  0.1215
  882MPD2    C312933   4.175   2.784  14.502 -0.9975  0.4166 -0.4080
  882MPD2    C412934   4.263   2.679  14.484 -0.2463 -0.7108  0.0555
  882MPD2    C512935   4.389   2.696  14.475 -0.4406  0.3448  0.3596
  882MPD2     H12936   4.162   2.992  14.538  1.1895 -0.2419  1.7716
  882MPD2    H112937   4.238   2.576  14.461  2.8692 -1.6358  0.8922
  882MPD2    H212938   4.555   2.826  14.468 -0.1318 -0.8583 -1.8307
  882MPD2    H312939   4.447   2.607  14.455 -0.1402  0.5027  0.5448
  882MPD2     N12940   4.036   2.754  14.531 -0.5861 -0.1032 -0.0159
  882MPD2    H512941   4.012   2.655  14.533  0.2836 -0.3544 -2.0855
  882MPD2    N112942   4.434   3.052  14.520 -0.2644  0.1838 -0.5365
  882MPD2    H712943   4.535   3.046  14.505  0.1675  2.7006  1.5638
  883MPD2     C12944   1.443   2.833  16.736  0.1249 -0.3501  0.4456
  883MPD2    C112945   1.511   2.809  16.621 -0.2126  0.6127  0.6254
  883MPD2    C212946   1.650   2.811  16.624 -0.3689 -0.1805 -0.0260
  883MPD2    C312947   1.714   2.818  16.748 -0.2633  0.2640  0.3325
  883MPD2    C412948   1.635   2.840  16.861  0.1487 -0.6769  0.9765
  883MPD2    C512949   1.500   2.838  16.859  0.7103  1.2122 -0.1442
  883MPD2     H12950   1.702   2.781  16.533 -0.8972  2.2210 -1.1052
  883MPD2    H112951   1.686   2.845  16.957  1.0690  1.0561  0.4000
  883MPD2    H212952   1.334   2.840  16.731  0.2326  1.2903  0.5764
  883MPD2    H312953   1.425   2.848  16.936  0.3907  1.7878 -0.5266
  883MPD2     N12954   1.853   2.813  16.748  0.0870 -0.8835 -0.0585
  883MPD2    H512955   1.887   2.790  16.655  0.5418 -0.3214 -0.0306
  883MPD2    N112956   1.450   2.814  16.495  0.0570  0.1213  0.2467
  883MPD2    H712957   1.508   2.832  16.414 -1.7841 -1.5791 -1.4633
  884MPD2     C12958   3.557   3.489  15.198  0.1122 -0.0980 -0.0503
  884MPD2    C112959   3.535   3.608  15.269  0.3541  0.5332  0.2766
  884MPD2    C212960   3.405   3.656  15.287  0.1957 -0.2993 -0.1096
  884MPD2    C312961   3.289   3.587  15.249 -0.4998 -0.3312  0.3869
  884MPD2    C412962   3.317   3.466  15.193  0.4150 -0.4308  0.3331
  884MPD2    C512963   3.443   3.423  15.164 -0.0423 -0.3747  0.3998
  884MPD2     H12964   3.394   3.755  15.331 -3.2448  0.5153 -2.7527
  884MPD2    H112965   3.239   3.395  15.170  1.4971 -2.0457  1.7100
  884MPD2    H212966   3.654   3.451  15.171  0.0502 -0.0996 -0.2700
  884MPD2    H312967   3.451   3.324  15.121  1.5848 -0.3535  0.6613
  884MPD2     N12968   3.162   3.639  15.277  1.1700  0.1613  0.6237
  884MPD2    H512969   3.163   3.725  15.332  0.0503 -0.0891  1.0492
  884MPD2    N112970   3.640   3.686  15.322  0.9059 -0.1762  0.7837
  884MPD2    H712971   3.618   3.782  15.346 -0.7794 -0.6887  1.3075
  885MPD2     C12972   1.628   2.880   0.059  0.4950 -0.3751 -0.7594
  885MPD2    C112973   1.691   2.987   0.126 -0.6260 -0.2211 -0.1075
  885MPD2    C212974   1.681   3.110   0.065 -0.4757 -0.2405  0.0923
  885MPD2    C312975   1.617   3.130  17.647  0.2226 -0.0854 -0.1719
  885MPD2    C412976   1.555   3.024  17.577  0.1605  0.5186 -0.2937
  885MPD2    C512977   1.555   2.903  17.639 -0.3518 -0.6230  0.6992
  885MPD2     H12978   1.721   3.204   0.102 -0.5402 -0.2283  0.1325
  885MPD2    H112979   1.512   3.034  17.478 -2.6171  0.3109  0.8858
  885MPD2    H212980   1.641   2.776   0.089  0.5388  0.3013  1.6132
  885MPD2    H312981   1.522   2.810  17.594  1.9949 -1.4514  0.6978
  885MPD2     N12982   1.633   3.256  17.581  0.2286  0.6861  0.5730
  885MPD2    H512983   1.699   3.321  17.623  0.0572  1.5895 -0.5708
  885MPD2    N112984   1.759   2.957   0.247  0.0699 -0.2278 -0.2282
  885MPD2    H712985   1.758   2.862   0.282  2.0851 -0.2329 -0.2318
  886MPD2     C12986   2.830   2.078  15.582  0.5210 -0.3746 -0.2413
  886MPD2    C112987   2.845   2.083  15.441 -0.3154 -0.1851  0.3592
  886MPD2    C212988   2.830   2.203  15.371 -0.6147 -0.2122 -0.3254
  886MPD2    C312989   2.798   2.321  15.435 -0.0261 -0.0965  0.4530
  886MPD2    C412990   2.787   2.310  15.579  0.0401 -0.1053 -0.4073
  886MPD2    C512991   2.798   2.192  15.641 -0.3799  0.3567 -0.3246
  886MPD2     H12992   2.843   2.207  15.263  0.5016  0.0321 -0.1821
  886MPD2    H112993   2.761   2.402  15.631  0.8135  1.5323 -2.9551
  886MPD2    H212994   2.822   1.989  15.643  0.5141 -1.8137 -2.3104
  886MPD2    H312995   2.788   2.192  15.749  1.9190 -0.6785 -0.1053
  886MPD2     N12996   2.804   2.447  15.379 -0.0791 -0.1083 -0.0666
  886MPD2    H512997   2.822   2.527  15.438 -0.0744  0.0558 -0.2885
  886MPD2    N112998   2.886   1.964  15.373  0.1532  0.0903  0.1641
  886MPD2    H712999   2.895   1.965  15.272 -0.3440 -1.7652  0.1049
  887MPD2     C13000   3.476   2.017  15.157 -0.0526  1.0809  0.4458
  887MPD2    C113001   3.360   2.020  15.229  0.1497  0.4759  0.4867
  887MPD2    C213002   3.336   2.112  15.325 -0.0909 -0.0687  0.1416
  887MPD2    C313003   3.432   2.214  15.343 -0.3527 -0.0434  0.5706
  887MPD2    C413004   3.551   2.217  15.265 -0.4583  0.2433  0.0327
  887MPD2    C513005   3.566   2.122  15.173  0.3165 -0.1526  0.0507
  887MPD2     H13006   3.244   2.106  15.382 -0.6367 -1.2686 -0.8622
  887MPD2    H113007   3.631   2.289  15.278  0.4362 -1.1469  2.2687
  887MPD2    H213008   3.514   1.941  15.089 -2.1482  0.2681  0.1844
  887MPD2    H313009   3.662   2.117  15.124 -0.2520  2.2097 -1.3086
  887MPD2     N13010   3.395   2.319  15.432  0.3971  0.3684  0.0401
  887MPD2    H513011   3.300   2.316  15.467 -0.1380  1.6160 -1.3324
  887MPD2    N113012   3.265   1.917  15.218  0.5843  0.4814  0.1756
  887MPD2    H713013   3.184   1.921  15.278  0.3597  1.7692 -0.2259
  888MPD2     C13014   0.369   2.319  14.973  0.4482  0.4273 -0.0117
  888MPD2    C113015   0.433   2.309  15.096 -0.1936  0.3764 -0.1624
  888MPD2    C213016   0.509   2.418  15.141  0.3953  0.1884  0.3698
  888MPD2    C313017   0.536   2.522  15.054 -0.6344 -0.1127  0.6789
  888MPD2    C413018   0.496   2.518  14.922  0.1999 -0.8164 -0.0085
  888MPD2    C513019   0.402   2.424  14.888 -0.1219  0.0436  0.0646
  888MPD2     H13020   0.534   2.427  15.245 -1.6253  0.9011  0.7961
  888MPD2    H113021   0.533   2.591  14.850  0.7717 -0.4087  0.6973
  888MPD2    H213022   0.313   2.242  14.921 -1.7103  2.2059 -0.3669
  888MPD2    H313023   0.362   2.417  14.788 -0.9070 -2.4568  0.5703
  888MPD2     N13024   0.631   2.619  15.105  0.0832 -0.7567 -0.0689
  888MPD2    H513025   0.666   2.600  15.199  1.0249 -0.7287 -0.4106
  888MPD2    N113026   0.414   2.195  15.176 -0.8631 -0.1971 -0.2722
  888MPD2    H713027   0.343   2.124  15.162 -1.7104  0.5639  0.1634
  889MPD2     C13028   4.474   2.010  12.677 -0.9013  0.1423  0.0568
  889MPD2    C113029   4.542   1.971  12.790 -0.1493  0.3475  0.6645
  889MPD2    C213030   4.591   2.066  12.879 -0.1729  0.3664  0.4789
  889MPD2    C313031   4.599   2.199  12.841 -0.3851  0.0600  0.6388
  889MPD2    C413032   4.537   2.239  12.720 -0.1099  0.4556 -0.3808
  889MPD2    C513033   4.466   2.145  12.647  0.1935  0.2637 -0.6760
  889MPD2     H13034   4.639   2.040  12.972  0.0239 -1.6978 -0.1993
  889MPD2    H113035   4.544   2.336  12.672  1.3889  0.0649 -0.9429
  889MPD2    H213036   4.417   1.950  12.606  0.6963 -3.1127  1.5194
  889MPD2    H313037   4.413   2.169  12.556 -0.0394 -1.0875 -0.8933
  889MPD2     N13038   4.665   2.289  12.916  0.1153 -0.2025  0.6043
  889MPD2    H513039   4.714   2.256  12.998 -0.6838 -0.8328  0.8251
  889MPD2    N113040   4.545   1.833  12.840 -0.5051 -0.5865 -0.0019
  889MPD2    H713041   4.594   1.817  12.927  1.5688 -0.6718 -1.1789
  890MPD2     C13042   3.960   3.949  15.004 -0.0322 -0.6876  0.4129
  890MPD2    C113043   4.079   3.961  15.067  0.1186 -0.2744  0.1172
  890MPD2    C213044   4.132   3.846  15.130 -0.3609 -0.9900 -0.3014
  890MPD2    C313045   4.075   3.723  15.127  0.0437  0.1082 -0.0877
  890MPD2    C413046   3.948   3.717  15.069  0.4677  0.2473 -0.1728
  890MPD2    C513047   3.890   3.829  15.013 -0.5636  0.5011 -0.4060
  890MPD2     H13048   4.225   3.860  15.183  0.4966  1.3316 -2.4182
  890MPD2    H113049   3.879   3.633  15.064 -1.3637  1.8426 -1.7040
  890MPD2    H213050   3.919   4.036  14.955  1.8782  0.0034  0.0407
  890MPD2    H313051   3.788   3.819  14.980 -0.2546  1.6811 -1.7188
  890MPD2     N13052   4.148   3.619  15.192 -0.2618 -0.2431 -0.2275
  890MPD2    H513053   4.221   3.658  15.252 -0.9144 -0.8153  0.9333
  890MPD2    N113054   4.144   4.084  15.066  0.2906 -0.1868 -0.8955
  890MPD2    H713055   4.102   4.159  15.012  1.7119  2.6463  1.9831
  891MPD2     C13056   2.193   1.303  16.751 -0.0051 -0.4123  0.3737
  891MPD2    C113057   2.146   1.383  16.848  0.1195  0.3976 -0.7936
  891MPD2    C213058   2.235   1.467  16.915 -0.4592 -0.5799 -0.6289
  891MPD2    C313059   2.369   1.461  16.888  0.1083  0.3149 -0.2513
  891MPD2    C413060   2.414   1.376  16.793  0.9812 -0.1215  0.0196
  891MPD2    C513061   2.327   1.295  16.729  0.2285  0.2905  0.5988
  891MPD2     H13062   2.207   1.552  16.976 -2.7210 -1.0789 -0.9718
  891MPD2    H113063   2.519   1.370  16.766  0.4301 -1.8949 -1.6904
  891MPD2    H213064   2.125   1.246  16.690 -1.7420  1.5362  0.5042
  891MPD2    H313065   2.342   1.234  16.641  1.5028  1.2842  0.1216
  891MPD2     N13066   2.453   1.557  16.949 -0.3129 -0.3868  0.0415
  891MPD2    H513067   2.406   1.609  17.023 -2.2907 -0.8382 -0.9106
  891MPD2    N113068   2.003   1.397  16.873 -0.3770  0.3179  0.4531
  891MPD2    H713069   1.948   1.329  16.821 -0.6665  0.5121  0.5014
  892MPD2     C13070   3.389   3.423  14.849 -0.1777  0.6412  0.4499
  892MPD2    C113071   3.313   3.305  14.862 -0.0195  0.2810 -0.4211
  892MPD2    C213072   3.375   3.181  14.847 -0.2054  0.0128 -0.2825
  892MPD2    C313073   3.507   3.172  14.809 -0.3441  0.2305  0.5056
  892MPD2    C413074   3.586   3.284  14.811 -0.2538  0.2956  0.4169
  892MPD2    C513075   3.526   3.405  14.822 -0.0567  0.0722 -0.5895
  892MPD2     H13076   3.318   3.089  14.840 -2.2611  1.2803 -0.1736
  892MPD2    H113077   3.690   3.274  14.785 -0.3150  0.8785 -0.0730
  892MPD2    H213078   3.348   3.524  14.855  0.9492  1.3177 -2.6923
  892MPD2    H313079   3.591   3.492  14.820  1.4014 -1.0357 -1.1136
  892MPD2     N13080   3.574   3.051  14.775  0.2051  0.0356  0.9729
  892MPD2    H513081   3.675   3.056  14.770  0.0414  0.7034 -1.7409
  892MPD2    N113082   3.178   3.311  14.897  0.1753  0.0112  0.4223
  892MPD2    H713083   3.128   3.397  14.882  1.6304  0.3360 -2.5530
  893MPD2     C13084   0.224   1.014   1.454  0.2188 -0.2822  0.5754
  893MPD2    C113085   0.239   1.073   1.578 -0.6194 -0.2583  0.0794
  893MPD2    C213086   0.118   1.095   1.643  0.1000 -0.3027 -0.2089
  893MPD2    C313087   4.718   1.067   1.584 -0.1192  0.6485  0.5864
  893MPD2    C413088   4.711   1.020   1.456 -0.2156 -0.0165  0.9027
  893MPD2    C513089   0.103   0.996   1.393 -0.0303  0.2009 -0.5995
  893MPD2     H13090   0.121   1.128   1.746  1.0006 -1.9074  0.2660
  893MPD2    H113091   4.618   0.983   1.414  0.7627  1.4198 -2.5491
  893MPD2    H213092   0.314   0.997   1.396 -0.7081 -0.5416 -0.7972
  893MPD2    H313093   0.092   0.945   1.298  0.3408 -1.3297  0.1807
  893MPD2     N13094   4.598   1.076   1.652  0.3141  0.0511  0.6261
  893MPD2    H513095   4.508   1.067   1.606  0.2859  2.5777  0.1944
  893MPD2    N113096   0.361   1.101   1.634  0.0998 -0.4022 -0.2439
  893MPD2    H713097   0.446   1.056   1.601 -0.5404 -3.6483  2.6181
  894MPD2     C13098   3.057   4.347   0.970 -1.2637  0.2814 -0.3358
  894MPD2    C113099   3.182   4.349   1.028 -0.4184  0.1357  0.7178
  894MPD2    C213100   3.250   4.471   1.043 -0.3854  0.3341 -0.0093
  894MPD2    C313101   3.188   4.588   1.010 -0.6648 -0.5480 -0.0324
  894MPD2    C413102   3.066   4.582   0.957  0.1919 -0.2272 -0.1366
  894MPD2    C513103   3.004   4.464   0.923 -1.0871  0.3554  0.1847
  894MPD2     H13104   3.347   4.466   1.092 -1.2281  0.2761  1.6661
  894MPD2    H113105   3.012   4.674   0.937  0.6405  0.1918  0.5882
  894MPD2    H213106   3.013   4.252   0.941 -1.8492  0.7441 -0.9775
  894MPD2    H313107   2.919   4.460   0.856  0.3788  0.7845 -1.7081
  894MPD2     N13108   3.245   4.711   1.049  0.2377  0.5123  0.0630
  894MPD2    H513109   3.330   4.699   1.103 -0.9465 -0.7636  1.6416
  894MPD2    N113110   3.255   4.233   1.069 -0.1706  0.1196  0.5654
  894MPD2    H713111   3.354   4.250   1.085  0.2669 -0.6722 -1.2950
  895MPD2     C13112   2.829   2.533  13.566  0.3342  0.3652 -0.3231
  895MPD2    C113113   2.704   2.550  13.511  0.3871 -0.1974 -0.4299
  895MPD2    C213114   2.676   2.514  13.377 -0.1573  0.6220 -0.2975
  895MPD2    C313115   2.769   2.442  13.304  0.0963  0.7356 -0.0950
  895MPD2    C413116   2.896   2.421  13.361 -0.1933  0.1189  0.7380
  895MPD2    C513117   2.925   2.472  13.487 -0.1140 -0.2206 -0.0178
  895MPD2     H13118   2.572   2.523  13.347 -0.5906  4.0962  2.3140
  895MPD2    H113119   2.965   2.354  13.310 -0.6181  0.8225 -0.7469
  895MPD2    H213120   2.853   2.563  13.667 -1.0115 -1.7051  0.6041
  895MPD2    H313121   3.015   2.447  13.541  1.5717  2.4059 -1.6528
  895MPD2     N13122   2.732   2.398  13.173 -0.3617  0.8443  0.0359
  895MPD2    H513123   2.632   2.393  13.156 -0.1322  1.1320 -1.3688
  895MPD2    N113124   2.596   2.599  13.586 -0.1920 -0.1406 -0.2077
  895MPD2    H713125   2.501   2.587  13.551  0.7061 -1.4289 -2.1431
  896MPD2     C13126   0.688   4.619   1.840 -0.5584 -0.4804  0.4076
  896MPD2    C113127   0.662   4.670   1.713  0.1899  0.3201  0.0752
  896MPD2    C213128   0.533   4.690   1.664  0.1847  0.0863  0.2464
  896MPD2    C313129   0.424   4.685   1.752 -0.1652 -0.5290  0.4746
  896MPD2    C413130   0.439   4.631   1.881  0.0140  0.5233  0.4513
  896MPD2    C513131   0.570   4.601   1.917 -0.5225  0.8711 -0.0319
  896MPD2     H13132   0.511   0.007   1.566  2.5226  1.2087  0.1844
  896MPD2    H113133   0.360   4.618   1.954  0.6285 -1.4115  0.7535
  896MPD2    H213134   0.783   4.591   1.884 -1.3000 -1.8475  1.1750
  896MPD2    H313135   0.576   4.562   2.018 -0.7775 -0.3270 -0.4772
  896MPD2     N13136   0.302   0.005   1.694 -0.2667 -0.4993  0.5291
  896MPD2    H513137   0.286   0.024   1.595 -0.9280 -4.6133 -0.1676
  896MPD2    N113138   0.783   4.682   1.639 -0.4804 -0.9790 -0.3826
  896MPD2    H713139   0.872   4.659   1.681 -0.8032  0.9262  1.3531
  897MPD2     C13140   0.893   1.677  11.131 -0.2341 -0.4346 -0.1064
  897MPD2    C113141   0.794   1.711  11.047 -0.1480  0.2706 -0.0791
  897MPD2    C213142   0.668   1.729  11.103  0.4350  0.2604  0.8017
  897MPD2    C313143   0.642   1.714  11.235  0.7276  0.9945  0.5861
  897MPD2    C413144   0.747   1.674  11.318  0.1374  0.2443  0.1272
  897MPD2    C513145   0.873   1.662  11.266  0.2131  0.1460 -0.5849
  897MPD2     H13146   0.588   1.757  11.034  1.4442  2.0907  0.3554
  897MPD2    H113147   0.731   1.676  11.425  1.3967  1.3091  0.3032
  897MPD2    H213148   0.996   1.654  11.107  0.3631  0.8175  1.2244
  897MPD2    H313149   0.952   1.629  11.332  0.4780  1.6128 -0.1619
  897MPD2     N13150   0.514   1.744  11.284  0.1709  0.0583  0.2016
  897MPD2    H513151   0.450   1.781  11.215  2.6784 -1.8907 -3.1343
  897MPD2    N113152   0.822   1.726  10.914 -0.1784  0.0298  0.0953
  897MPD2    H713153   0.922   1.731  10.895  0.1025  2.2652  2.0649
  898MPD2     C13154   3.088   2.418   0.103  0.3545  0.1414 -0.3532
  898MPD2    C113155   3.161   2.424  17.679 -0.3324 -0.4696 -0.0914
  898MPD2    C213156   3.130   2.536  17.601  0.3957 -0.0198  0.2014
  898MPD2    C313157   3.032   2.625  17.630  0.4287 -0.1689 -0.4432
  898MPD2    C413158   2.955   2.604   0.050  0.0958 -0.6590 -0.4746
  898MPD2    C513159   2.985   2.503   0.135  0.4032 -0.5522 -0.4186
  898MPD2     H13160   3.184   2.562  17.510  0.0408 -0.1129 -0.0375
  898MPD2    H113161   2.880   2.673   0.088 -1.5849 -1.7345 -1.8545
  898MPD2    H213162   3.117   2.342   0.175 -0.6993 -0.1931 -0.2819
  898MPD2    H313163   2.922   2.486   0.221  0.4683  1.4811  0.0289
  898MPD2     N13164   3.014   2.737  17.548  0.2069  0.5824  0.3127
  898MPD2    H513165   3.065   2.736  17.461 -0.3838  1.5161 -0.0385
  898MPD2    N113166   3.261   2.337  17.639  0.2561 -0.0563 -0.6819
  898MPD2    H713167   3.302   2.355  17.548 -0.2253  1.3499 -0.6133
  899MPD2     C13168   4.003   2.922  17.083  1.0511  0.2711  0.1562
  899MPD2    C113169   4.019   3.018  17.177 -0.8396  0.3720 -0.4771
  899MPD2    C213170   4.010   2.976  17.309 -0.0956  0.3320 -0.4263
  899MPD2    C313171   3.979   2.846  17.342 -0.4379 -0.7096  0.2524
  899MPD2    C413172   3.947   2.750  17.240 -0.3010 -0.4622 -0.5027
  899MPD2    C513173   3.962   2.791  17.108 -0.2252  0.2815  0.4146
  899MPD2     H13174   4.025   3.047  17.389 -0.4282 -0.1801  0.0952
  899MPD2    H113175   3.912   2.651  17.267  2.8978 -1.6420 -0.6988
  899MPD2    H213176   4.000   2.948  16.978  0.6374  0.2752  0.1675
  899MPD2    H313177   3.948   2.713  17.034 -1.3083 -0.4074  1.3368
  899MPD2     N13178   3.971   2.787  17.475 -0.2167  0.4042  0.5351
  899MPD2    H513179   3.966   2.686  17.480 -1.1595  0.4834  1.2127
  899MPD2    N113180   4.039   3.151  17.137 -0.4038  0.4725  0.0458
  899MPD2    H713181   4.038   3.177  17.039 -0.2840  0.2456 -0.0137
  900MPD2     C13182   3.410   0.135  12.563 -0.4740 -0.0282 -0.2522
  900MPD2    C113183   3.305   0.056  12.540 -0.4461  0.1282 -0.4578
  900MPD2    C213184   3.197   0.106  12.476 -0.0579 -0.7322  0.0391
  900MPD2    C313185   3.189   0.238  12.435  0.0324 -0.2246  0.0033
  900MPD2    C413186   3.301   0.315  12.458 -0.2195  0.5050  0.5330
  900MPD2    C513187   3.406   0.262  12.527  0.1280 -0.1482  0.9183
  900MPD2     H13188   3.117   0.037  12.451 -1.1442  0.6155 -0.2251
  900MPD2    H113189   3.307   0.421  12.436  0.8396  0.4393  0.4931
  900MPD2    H213190   3.495   0.099  12.619 -1.3901  0.4042  1.4163
  900MPD2    H313191   3.493   0.322  12.552  1.8365 -0.9838 -2.9414
  900MPD2     N13192   3.068   0.279  12.366  0.6942 -0.4617 -0.6052
  900MPD2    H513193   3.003   0.202  12.354  1.1092 -1.1880  1.8366
  900MPD2    N113194   3.323   4.645  12.579  0.0913  0.6507 -0.4741
  900MPD2    H713195   3.412   4.629  12.623 -1.0400 -1.3326  1.0976
  901MPD2     C13196   2.901   3.664  12.793 -0.1386  0.5796  0.1135
  901MPD2    C113197   3.041   3.649  12.783  0.2630  0.4039  0.5644
  901MPD2    C213198   3.104   3.769  12.757 -0.0864 -0.0022 -0.1347
  901MPD2    C313199   3.041   3.894  12.761  0.0337 -0.2045  0.2303
  901MPD2    C413200   2.901   3.899  12.765  0.7496  0.5190 -0.8587
  901MPD2    C513201   2.834   3.780  12.785 -0.2266  0.0726 -0.2502
  901MPD2     H13202   3.210   3.771  12.733 -0.1375 -1.1121 -0.4909
  901MPD2    H113203   2.840   3.987  12.752  0.2750  0.2790 -0.2725
  901MPD2    H213204   2.844   3.572  12.808  1.3651 -0.2997  0.4693
  901MPD2    H313205   2.726   3.775  12.781 -0.0770 -1.6896 -2.1820
  901MPD2     N13206   3.121   4.013  12.748  0.0326 -0.0291  0.6725
  901MPD2    H513207   3.221   4.003  12.733 -0.3086 -1.8225 -0.4556
  901MPD2    N113208   3.101   3.525  12.792  0.0993 -0.2913  0.3781
  901MPD2    H713209   3.038   3.445  12.787 -0.1781 -0.0007 -0.9289
  902MPD2     C13210   2.725   2.905  12.389 -0.4175 -1.0481  0.0888
  902MPD2    C113211   2.746   2.860  12.519 -0.3317  0.6657 -0.2825
  902MPD2    C213212   2.850   2.777  12.543 -0.6635 -0.5434  0.4450
  902MPD2    C313213   2.941   2.739  12.442  0.5884  0.3441 -0.2247
  902MPD2    C413214   2.932   2.801  12.322 -0.4885  0.2549  0.7450
  902MPD2    C513215   2.815   2.863  12.291  0.1887  0.0173  0.4115
  902MPD2     H13216   2.858   2.749  12.647 -0.7706  3.1860  1.4363
  902MPD2    H113217   3.001   2.770  12.244 -3.7655 -1.5349 -1.4798
  902MPD2    H213218   2.632   2.956  12.367  0.6470  0.2556 -1.4005
  902MPD2    H313219   2.800   2.906  12.192  1.6059  0.6050  0.4678
  902MPD2     N13220   3.048   2.645  12.461 -0.4979 -0.9602 -0.5982
  902MPD2    H513221   3.127   2.643  12.397  0.3038  1.2907  0.2999
  902MPD2    N113222   2.657   2.891  12.625 -0.5267 -0.5132  0.0212
  902MPD2    H713223   2.692   2.866  12.717 -0.9047  0.7616  0.5105
  903MPD2     C13224   2.964   2.602  12.010  0.7169 -0.5063  0.4400
  903MPD2    C113225   2.958   2.471  12.060 -0.3326 -0.7878 -0.3291
  903MPD2    C213226   2.852   2.392  12.021  0.2630  0.8943 -0.7708
  903MPD2    C313227   2.754   2.442  11.943 -0.0509 -0.6570 -0.9791
  903MPD2    C413228   2.766   2.571  11.893  0.4942  0.6410  0.1304
  903MPD2    C513229   2.873   2.649  11.919 -0.0997 -0.3236  0.6961
  903MPD2     H13230   2.840   2.296  12.068 -0.2828  0.9725 -0.7497
  903MPD2    H113231   2.683   2.610  11.835  0.8403 -1.1016 -1.5209
  903MPD2    H213232   3.042   2.672  12.039  0.2882 -0.3738  1.2768
  903MPD2    H313233   2.872   2.747  11.873  0.3791 -1.1414 -1.0590
  903MPD2     N13234   2.644   2.365  11.909 -1.1086  0.2547  0.1517
  903MPD2    H513235   2.615   2.281  11.959 -0.0846 -0.8210 -1.0484
  903MPD2    N113236   3.062   2.431  12.144  0.1595  0.2694 -0.6773
  903MPD2    H713237   3.134   2.502  12.155  1.3009 -0.7543 -1.4940
  904MPD2     C13238   2.465   1.528  13.793 -0.6293  0.1728  0.2202
  904MPD2    C113239   2.530   1.643  13.756  0.2439  0.0784 -0.0438
  904MPD2    C213240   2.672   1.647  13.747 -0.4630 -0.4150 -0.5488
  904MPD2    C313241   2.749   1.543  13.781 -0.3238 -0.4846 -0.1662
  904MPD2    C413242   2.685   1.434  13.829 -0.2987 -0.0479  0.3057
  904MPD2    C513243   2.549   1.424  13.824  0.0776  0.1420  0.0729
  904MPD2     H13244   2.718   1.732  13.698 -0.1046  1.0247  2.2611
  904MPD2    H113245   2.736   1.343  13.858  2.2209  0.6660 -1.8368
  904MPD2    H213246   2.358   1.518  13.798 -0.4049 -2.0169  0.9494
  904MPD2    H313247   2.497   1.337  13.865  0.4224 -1.4401 -2.8021
  904MPD2     N13248   2.889   1.550  13.771 -0.1631 -0.2883  0.3067
  904MPD2    H513249   2.930   1.621  13.711  0.2801 -0.9119 -0.1238
  904MPD2    N113250   2.467   1.764  13.738  0.8013 -1.1303  0.3103
  904MPD2    H713251   2.523   1.848  13.729 -1.3215 -0.0317 -2.7925
  905MPD2     C13252   1.995   2.091  13.234  0.7247  0.1970  0.3000
  905MPD2    C113253   2.118   2.128  13.290 -0.5022  0.2381  0.1564
  905MPD2    C213254   2.221   2.170  13.205  0.7712 -0.0352  1.0765
  905MPD2    C313255   2.197   2.177  13.068  0.3911 -0.5251  0.1273
  905MPD2    C413256   2.075   2.132  13.016  0.5285  0.5055  0.2951
  905MPD2    C513257   1.969   2.092  13.100 -0.1444  0.0184  0.1823
  905MPD2     H13258   2.308   2.207  13.258  0.6112  0.8636  0.7210
  905MPD2    H113259   2.054   2.122  12.910  2.8937  0.2597 -0.1534
  905MPD2    H213260   1.914   2.062  13.301  0.0417  2.6231  0.5331
  905MPD2    H313261   1.869   2.077  13.060 -0.0269  1.3877 -0.6467
  905MPD2     N13262   2.297   2.222  12.983  0.2943 -0.1485 -0.2321
  905MPD2    H513263   2.292   2.198  12.884 -0.5045  1.8807 -0.6820
  905MPD2    N113264   2.120   2.124  13.429 -0.0611  0.1899  0.2111
  905MPD2    H713265   2.048   2.064  13.468  0.2000 -0.4063 -0.2230
  906MPD2     C13266   3.977   1.900  11.442  0.9289  0.5564 -0.6617
  906MPD2    C113267   3.977   1.810  11.341 -0.2912  0.4282  1.1909
  906MPD2    C213268   3.926   1.686  11.369 -0.2290  0.2411  1.1927
  906MPD2    C313269   3.880   1.648  11.495  0.1577 -0.5346 -0.7131
  906MPD2    C413270   3.877   1.744  11.594 -0.2219 -0.9913 -0.4696
  906MPD2    C513271   3.926   1.868  11.564 -0.3980  0.1053  0.1975
  906MPD2     H13272   3.934   1.605  11.298  1.0739  0.2278  1.3605
  906MPD2    H113273   3.854   1.723  11.698  0.5998  0.2525 -0.0357
  906MPD2    H213274   4.030   1.995  11.446  1.8759 -0.1619  3.5886
  906MPD2    H313275   3.926   1.941  11.644  5.3589  0.3121  0.0178
  906MPD2     N13276   3.830   1.517  11.507 -0.2932 -0.1183  0.2513
  906MPD2    H513277   3.822   1.467  11.420  0.7820 -0.3044  0.2555
  906MPD2    N113278   4.019   1.829  11.211 -0.6491 -0.1985 -0.0588
  906MPD2    H713279   4.030   1.745  11.154  0.4788  1.3170 -2.0521
  907MPD2     C13280   3.464   0.794  15.820  0.1678 -0.0196 -0.0275
  907MPD2    C113281   3.491   0.661  15.783  0.7284 -0.9829 -0.5884
  907MPD2    C213282   3.593   0.585  15.841 -0.7789 -0.2067 -0.4067
  907MPD2    C313283   3.673   0.648  15.942  0.2865  0.3028 -0.8050
  907MPD2    C413284   3.639   0.780  15.986 -0.1615  0.1879  0.1972
  907MPD2    C513285   3.536   0.850  15.923  1.1925  0.7447 -0.4811
  907MPD2     H13286   3.611   0.482  15.814 -2.8279 -0.5595 -0.4064
  907MPD2    H113287   3.692   0.837  16.062  0.1543  0.3910 -0.1755
  907MPD2    H213288   3.384   0.849  15.773  0.2024 -0.6382 -0.8040
  907MPD2    H313289   3.516   0.955  15.940  0.0047  0.5152 -0.4722
  907MPD2     N13290   3.773   0.564  15.994 -0.4280  0.5081 -0.1366
  907MPD2    H513291   3.773   0.465  15.974  1.3890  0.2312  1.2844
  907MPD2    N113292   3.423   0.598  15.676 -0.2626 -0.2000 -0.2140
  907MPD2    H713293   3.448   0.501  15.659  2.1205  0.3610  0.1283
  908MPD2     C13294   0.889   1.376   9.958 -0.0134 -0.3915 -0.3523
  908MPD2    C113295   0.859   1.304  10.076 -0.5133  0.5461  0.4812
  908MPD2    C213296   0.829   1.385  10.183  0.3717  0.8076 -0.4031
  908MPD2    C313297   0.831   1.521  10.180  0.8971 -0.4031  0.1388
  908MPD2    C413298   0.851   1.582  10.060 -0.5504 -0.2247 -0.3280
  908MPD2    C513299   0.876   1.513   9.943 -0.6485  0.7437 -0.3821
  908MPD2     H13300   0.813   1.341  10.280  2.8329 -0.4599 -0.5678
  908MPD2    H113301   0.852   1.690  10.052  0.6610 -0.2523 -0.5057
  908MPD2    H213302   0.918   1.323   9.868  0.1928 -2.1587  0.7642
  908MPD2    H313303   0.889   1.564   9.849 -0.3916  2.1530  0.4125
  908MPD2     N13304   0.820   1.587  10.305  0.5980 -0.7362 -0.8937
  908MPD2    H513305   0.815   1.542  10.396  1.8719  0.1415 -0.3928
  908MPD2    N113306   0.872   1.169  10.087  0.0099  0.4436  0.5644
  908MPD2    H713307   0.909   1.122  10.005 -1.5698 -1.5581  1.0040
  909MPD2     C13308   1.054   4.224  12.516 -0.0108  0.1154  0.5086
  909MPD2    C113309   1.042   4.347  12.444  0.0807 -0.4011  0.2498
  909MPD2    C213310   0.957   4.447  12.497  0.4728  0.2622 -0.1591
  909MPD2    C313311   0.902   4.432  12.617 -0.3920 -0.1396  0.2370
  909MPD2    C413312   0.913   4.314  12.684  0.6376  0.2373  0.8629
  909MPD2    C513313   0.986   4.211  12.631 -0.1786  0.1877  0.0266
  909MPD2     H13314   0.949   4.545  12.451 -1.5466 -0.3500 -1.1245
  909MPD2    H113315   0.880   4.297  12.786 -0.1176 -0.7712  0.4395
  909MPD2    H213316   1.112   4.140  12.481  0.3572  0.2091  0.8898
  909MPD2    H313317   1.012   4.126  12.694 -2.7187 -1.3151 -0.9339
  909MPD2     N13318   0.846   4.551  12.674  0.1551 -0.2898  0.8527
  909MPD2    H513319   0.874   4.637  12.627  1.7233  0.4981  3.1818
  909MPD2    N113320   1.096   4.366  12.316 -0.6530  0.1187 -0.4521
  909MPD2    H713321   1.084   4.460  12.278  0.1312  0.1462 -0.6308
  910MPD2     C13322   2.619   1.283  16.036 -0.5325  0.3961 -0.4003
  910MPD2    C113323   2.689   1.232  15.936 -0.5741 -0.5645 -0.1200
  910MPD2    C213324   2.641   1.226  15.809 -0.1307 -0.4468  0.8534
  910MPD2    C313325   2.511   1.272  15.780 -0.0646  0.3480  0.0316
  910MPD2    C413326   2.442   1.327  15.885  0.0402  0.0598 -0.3171
  910MPD2    C513327   2.494   1.328  16.013 -1.1384  0.5532 -0.1086
  910MPD2     H13328   2.709   1.198  15.729 -0.0778 -1.9541  1.4249
  910MPD2    H113329   2.349   1.384  15.881 -0.5061 -0.8208 -0.2535
  910MPD2    H213330   2.653   1.295  16.138  1.6539  1.1727 -1.2355
  910MPD2    H313331   2.443   1.370  16.098 -4.4732 -1.9726 -0.8700
  910MPD2     N13332   2.453   1.279  15.649  0.4871 -0.1037 -0.0470
  910MPD2    H513333   2.368   1.334  15.639  1.2924  1.4380  1.4294
  910MPD2    N113334   2.815   1.169  15.965 -0.2474 -0.4376 -0.1638
  910MPD2    H713335   2.846   1.109  15.889  0.3037  1.8777 -1.7912
  911MPD2     C13336   0.202   1.544  16.541 -0.0750  0.3878  0.7868
  911MPD2    C113337   0.286   1.652  16.549  0.1459  0.2512 -0.5787
  911MPD2    C213338   0.242   1.771  16.509  0.7147 -0.1662  0.0203
  911MPD2    C313339   0.116   1.788  16.463 -0.1514 -0.1234 -0.8316
  911MPD2    C413340   0.029   1.682  16.462 -0.4191  0.5553  0.0080
  911MPD2    C513341   0.073   1.561  16.506 -0.5778  0.7517 -0.0402
  911MPD2     H13342   0.312   1.854  16.508 -0.1679  0.5856  0.6547
  911MPD2    H113343   4.648   1.701  16.442 -0.3045 -0.5575 -1.5825
  911MPD2    H213344   0.230   1.441  16.555  1.5338  0.5470 -1.3426
  911MPD2    H313345   0.001   1.480  16.511  1.8454 -1.4442 -0.4326
  911MPD2     N13346   0.072   1.915  16.425  0.2657 -0.1880 -0.5352
  911MPD2    H513347   4.700   1.926  16.392  0.0261  2.5146  1.0427
  911MPD2    N113348   0.416   1.619  16.582  0.1018  0.5441  0.0686
  911MPD2    H713349   0.432   1.521  16.604 -0.0888  0.7334  1.0502
  912MPD2     C13350   4.724   1.808  15.892 -0.1381 -0.0600 -0.0204
  912MPD2    C113351   4.657   1.832  16.011 -0.4809 -0.1989  0.0653
  912MPD2    C213352   4.623   1.729  16.093 -0.5961  0.2171 -0.5213
  912MPD2    C313353   4.657   1.602  16.058  0.4700  1.0669  0.5236
  912MPD2    C413354   0.006   1.579  15.944 -0.8091  0.0516  0.1029
  912MPD2    C513355   0.040   1.678  15.858  0.1398 -0.1485  1.0117
  912MPD2     H13356   4.565   1.741  16.184 -0.3126  2.3941 -0.6228
  912MPD2    H113357   0.051   1.485  15.914  0.4985  0.7292 -0.0666
  912MPD2    H213358   0.022   1.881  15.815 -0.2875  0.0022 -0.0049
  912MPD2    H313359   0.088   1.650  15.764 -1.4828  0.7465 -0.0866
  912MPD2     N13360   4.600   1.496  16.137 -0.3478  1.1260 -0.5523
  912MPD2    H513361   4.547   1.519  16.220  1.2294  1.4896  0.3454
  912MPD2    N113362   4.636   1.966  16.043  0.8173 -0.8870  0.0584
  912MPD2    H713363   4.685   2.028  15.980  1.8293  0.2468  1.9586
  913MPD2     C13364   0.584   2.909  10.724 -0.2963 -0.2066  0.6585
  913MPD2    C113365   0.692   2.976  10.776  0.3626 -0.1933  0.2573
  913MPD2    C213366   0.716   3.111  10.735  0.3364 -0.0090 -0.2028
  913MPD2    C313367   0.649   3.169  10.637 -0.2413 -0.1930 -0.2159
  913MPD2    C413368   0.554   3.095  10.573 -0.6017 -0.1787  0.4823
  913MPD2    C513369   0.518   2.971  10.616  0.4629  0.4471  0.2749
  913MPD2     H13370   0.799   3.170  10.772 -0.3988  1.1156 -0.3332
  913MPD2    H113371   0.494   3.153  10.504 -0.4568 -1.8880 -1.1017
  913MPD2    H213372   0.556   2.809  10.755  0.7468 -0.6794  0.0759
  913MPD2    H313373   0.438   2.919  10.565 -0.8807  0.5439  2.2755
  913MPD2     N13374   0.679   3.299  10.591  0.4074  0.4943  0.0179
  913MPD2    H513375   0.617   3.335  10.518 -1.0965 -0.6258  0.7423
  913MPD2    N113376   0.767   2.905  10.870 -0.6203 -0.3472 -0.5373
  913MPD2    H713377   0.737   2.809  10.884 -0.2801  0.0421  2.8641
  914MPD2     C13378   3.083   3.457  12.020  0.2703 -0.1127 -0.4483
  914MPD2    C113379   3.126   3.553  12.112  0.0858  0.2072  0.0922
  914MPD2    C213380   3.183   3.513  12.229  0.2276 -0.2787 -0.3175
  914MPD2    C313381   3.212   3.386  12.261  0.4250 -0.6407 -0.1206
  914MPD2    C413382   3.159   3.289  12.172  0.8216  0.8640 -0.1870
  914MPD2    C513383   3.096   3.327  12.056 -0.0468  0.4304 -0.8252
  914MPD2     H13384   3.213   3.582  12.307 -1.3119 -0.8642  0.7829
  914MPD2    H113385   3.175   3.183  12.189 -2.3558  0.6046  1.1891
  914MPD2    H213386   3.027   3.471  11.928 -0.2535 -0.6074 -0.2088
  914MPD2    H313387   3.062   3.255  11.982 -1.5624  0.2280  0.0722
  914MPD2     N13388   3.278   3.356  12.381  0.6282  0.6766  0.3576
  914MPD2    H513389   3.289   3.441  12.436  2.0035  0.5033  0.3521
  914MPD2    N113390   3.107   3.682  12.071  0.1224 -0.2771 -0.4690
  914MPD2    H713391   3.058   3.704  11.985 -0.7237 -0.4976 -0.0518
  915MPD2     C13392   1.988   3.371  15.834  0.2823 -0.1969 -0.3634
  915MPD2    C113393   1.876   3.449  15.804 -0.6581 -0.4101  0.0888
  915MPD2    C213394   1.817   3.519  15.910 -0.3878 -0.1119 -0.0942
  915MPD2    C313395   1.870   3.505  16.039  0.3743 -0.4811  0.0930
  915MPD2    C413396   1.980   3.426  16.069  0.3999  0.3941 -0.2422
  915MPD2    C513397   2.046   3.373  15.957  0.1820 -0.0319  0.3422
  915MPD2     H13398   1.732   3.586  15.900  1.6803  2.7194  1.2881
  915MPD2    H113399   2.021   3.425  16.170  2.9278  4.7847 -1.2239
  915MPD2    H213400   2.042   3.321  15.754  1.0232  0.7011 -0.4286
  915MPD2    H313401   2.133   3.313  15.979  1.0838  0.6585 -1.3094
  915MPD2     N13402   1.792   3.561  16.145 -0.0747 -0.4193  0.1363
  915MPD2    H513403   1.728   3.630  16.109 -1.6216 -1.6368  0.5768
  915MPD2    N113404   1.845   3.459  15.664  0.1395  0.0189 -0.2723
  915MPD2    H713405   1.898   3.407  15.594 -0.5596 -1.1009  0.0244
  916MPD2     C13406   4.637   1.757  15.370 -0.3673 -0.2118  0.3116
  916MPD2    C113407   4.633   1.667  15.471 -0.2414  1.1820 -0.0537
  916MPD2    C213408   4.722   1.562  15.460 -0.3336 -0.5264 -1.0148
  916MPD2    C313409   0.084   1.540  15.354  0.6654 -0.5995 -0.4987
  916MPD2    C413410   0.088   1.632  15.262 -0.5061 -0.0239  0.1222
  916MPD2    C513411   0.009   1.748  15.270 -0.0029 -0.7882  0.0721
  916MPD2     H13412   0.010   1.485  15.535  1.2196  0.5469 -0.1431
  916MPD2    H113413   0.144   1.631  15.169 -2.2136 -1.0856 -0.8868
  916MPD2    H213414   4.575   1.846  15.355  1.0053  0.5850 -0.6328
  916MPD2    H313415   0.009   1.811  15.182 -0.7072 -2.1665 -0.9152
  916MPD2     N13416   0.172   1.430  15.355  0.0630  0.0117 -0.1250
  916MPD2    H513417   0.159   1.356  15.423  1.2334 -0.6900 -0.6706
  916MPD2    N113418   4.535   1.676  15.571 -0.4942  0.5504 -0.1433
  916MPD2    H713419   4.478   1.760  15.572  1.0463  1.5792  1.2646
  917MPD2     C13420   0.120   3.950  11.659  0.0938  0.4307 -0.7104
  917MPD2    C113421   0.110   4.021  11.782 -0.8682  0.4898  0.0386
  917MPD2    C213422   0.125   4.157  11.780 -0.0609  0.0764  1.0006
  917MPD2    C313423   0.149   4.231  11.664  0.3467  0.8340 -0.3484
  917MPD2    C413424   0.151   4.159  11.549  1.1822  0.0026  0.2539
  917MPD2    C513425   0.140   4.022  11.547 -0.7100 -0.0409 -0.7517
  917MPD2     H13426   0.116   4.214  11.872  0.8276  0.4192  0.8754
  917MPD2    H113427   0.164   4.216  11.457 -1.4419  0.5031  0.1838
  917MPD2    H213428   0.103   3.843  11.658  0.4381  0.3666  1.1602
  917MPD2    H313429   0.144   3.957  11.460 -0.0716  1.1557 -1.5980
  917MPD2     N13430   0.169   4.372  11.663 -0.6156 -0.5792  0.2882
  917MPD2    H513431   0.174   4.413  11.570  0.5921  0.7411  0.9259
  917MPD2    N113432   0.061   3.957  11.897 -0.2544  0.2330  0.5168
  917MPD2    H713433   0.052   3.856  11.895  0.1531  0.1925  0.8381
  918MPD2     C13434   4.592   4.329  12.844 -0.6878 -0.1352  0.6401
  918MPD2    C113435   4.695   4.332  12.750 -0.3307 -0.1157  0.1470
  918MPD2    C213436   4.695   4.247  12.642  0.1746 -0.0419 -0.5258
  918MPD2    C313437   4.591   4.164  12.615  0.8048  0.0990 -0.4900
  918MPD2    C413438   4.484   4.174  12.702 -0.5030  0.0296 -0.2263
  918MPD2    C513439   4.486   4.248  12.812  0.3616  0.0561  0.4663
  918MPD2     H13440   0.058   4.238  12.577 -0.0441 -1.1977 -0.6690
  918MPD2    H113441   4.404   4.102  12.691  0.0068 -0.6179  0.3201
  918MPD2    H213442   4.594   4.392  12.932 -1.2508 -0.5471  0.9435
  918MPD2    H313443   4.398   4.255  12.875  0.3432  0.4056  0.4023
  918MPD2     N13444   4.609   4.080  12.504  0.3418  0.3924  0.3539
  918MPD2    H513445   4.698   4.081  12.455  1.8760 -2.3385  3.0590
  918MPD2    N113446   0.075   4.419  12.755  0.1974 -0.3792  0.0260
  918MPD2    H713447   0.150   4.402  12.689 -0.2932  1.7865 -1.0803
  919MPD2     C13448   0.663   3.341  11.879  0.1841  0.1788  0.4688
  919MPD2    C113449   0.626   3.221  11.819 -0.1689 -0.5432 -0.0744
  919MPD2    C213450   0.611   3.219  11.682 -0.3333  0.3270  0.5562
  919MPD2    C313451   0.652   3.332  11.603  0.2277  0.1536 -0.1386
  919MPD2    C413452   0.697   3.446  11.661  0.1881  0.6196  0.1869
  919MPD2    C513453   0.691   3.451  11.799  0.4549 -0.6733 -0.2560
  919MPD2     H13454   0.567   3.136  11.627  4.8963 -2.1946  0.2171
  919MPD2    H113455   0.738   3.526  11.602  0.8064 -0.1402 -0.4121
  919MPD2    H213456   0.680   3.347  11.986  2.4359  0.4964  0.1086
  919MPD2    H313457   0.725   3.541  11.849  1.2451 -1.8211  1.2364
  919MPD2     N13458   0.643   3.341  11.469  0.4218 -0.7213  0.2230
  919MPD2    H513459   0.673   3.430  11.431 -0.4121 -1.0159 -1.1181
  919MPD2    N113460   0.594   3.108  11.895  0.3502  0.2724 -0.1624
  919MPD2    H713461   0.578   3.019  11.850  0.8964  0.5585 -0.9196
  920MPD2     C13462   0.693   3.977  10.790  0.3253 -0.5937  0.2268
  920MPD2    C113463   0.599   3.891  10.749  0.7327  0.4390  0.1639
  920MPD2    C213464   0.607   3.764  10.796  0.3468 -0.3136 -0.0535
  920MPD2    C313465   0.700   3.728  10.885 -0.1408  0.3084 -0.7315
  920MPD2    C413466   0.782   3.824  10.940 -0.0861 -0.2511 -0.5063
  920MPD2    C513467   0.780   3.945  10.884 -0.8444 -0.2610 -0.2988
  920MPD2     H13468   0.534   3.692  10.760 -0.6135 -0.3126  1.9103
  920MPD2    H113469   0.839   3.808  11.031  1.9004  3.0500 -1.2074
  920MPD2    H213470   0.691   4.084  10.770 -3.1606 -0.9757 -1.4045
  920MPD2    H313471   0.848   4.024  10.914  0.8344 -3.0228  3.0808
  920MPD2     N13472   0.677   3.602  10.935  0.8281 -0.2810 -0.2659
  920MPD2    H513473   0.601   3.548  10.895 -0.3982  3.4000 -2.8950
  920MPD2    N113474   0.495   3.911  10.654 -0.2548  0.2966 -0.4724
  920MPD2    H713475   0.426   3.837  10.647  0.7774 -0.6435 -0.8739
  921MPD2     C13476   1.255   1.700  17.126 -0.8512  1.0356 -0.3149
  921MPD2    C113477   1.284   1.758  17.006  0.1819  0.4186  0.4670
  921MPD2    C213478   1.189   1.781  16.910 -0.4494 -0.2280  0.1947
  921MPD2    C313479   1.057   1.740  16.929 -0.2963 -0.5690  0.1119
  921MPD2    C413480   1.029   1.678  17.050  0.1567 -0.0591 -1.0081
  921MPD2    C513481   1.124   1.666  17.149  0.1212 -0.2573  0.9999
  921MPD2     H13482   1.215   1.840  16.823  2.3739 -1.4780  0.2107
  921MPD2    H113483   0.924   1.653  17.063  0.8641 -3.4647 -1.7582
  921MPD2    H213484   1.330   1.696  17.204  0.2618  2.0858 -1.3359
  921MPD2    H313485   1.103   1.619  17.245 -0.9897  0.3887  1.0669
  921MPD2     N13486   0.954   1.748  16.832 -0.0901 -0.0972  0.8812
  921MPD2    H513487   0.874   1.689  16.851 -0.8190  0.5994 -0.0435
  921MPD2    N113488   1.412   1.756  16.958 -0.1295  0.1555  0.2294
  921MPD2    H713489   1.428   1.785  16.862 -0.2363  2.9763  1.0627
  922MPD2     C13490   2.386   4.335  17.585  0.0393  0.0791 -0.0525
  922MPD2    C113491   2.325   4.391  17.477  0.3808  0.4152  0.4144
  922MPD2    C213492   2.224   4.323  17.427  0.0207 -0.8754 -0.2878
  922MPD2    C313493   2.174   4.205  17.475  1.0391  0.2052 -0.4234
  922MPD2    C413494   2.239   4.146  17.575 -0.3089  0.3022 -1.0175
  922MPD2    C513495   2.341   4.215  17.635 -0.6648 -0.4474 -0.2810
  922MPD2     H13496   2.171   4.363  17.341  0.8295 -0.4913 -0.6034
  922MPD2    H113497   2.202   4.051  17.613 -0.6457  1.2795  1.0496
  922MPD2    H213498   2.479   4.378  17.618 -0.1240 -1.4391  2.3797
  922MPD2    H313499   2.391   4.158   0.016  1.4402  0.3984 -1.0035
  922MPD2     N13500   2.061   4.158  17.409  0.4127 -0.2576 -0.4169
  922MPD2    H513501   2.024   4.214  17.333  0.4414 -1.2360 -1.1526
  922MPD2    N113502   2.380   4.500  17.415  0.4708  0.3935  0.9079
  922MPD2    H713503   2.448   4.545  17.476  0.9415  1.4183 -0.3820
  923MPD2     C13504   3.409   1.172   9.050 -0.1148 -0.1137  0.2799
  923MPD2    C113505   3.436   1.292   9.113 -0.0702 -0.3482 -0.0989
  923MPD2    C213506   3.507   1.284   9.229  0.1203  0.2172 -0.5418
  923MPD2    C313507   3.556   1.167   9.284  0.7639  0.6561 -0.0080
  923MPD2    C413508   3.547   1.052   9.211 -0.0034  0.2226 -0.0380
  923MPD2    C513509   3.470   1.057   9.093 -0.8883 -0.1336 -0.3273
  923MPD2     H13510   3.523   1.382   9.272 -1.8522 -0.8104  2.5036
  923MPD2    H113511   3.582   0.954   9.243  0.7346  0.4606 -0.1189
  923MPD2    H213512   3.355   1.175   8.956 -0.3843 -1.8706  0.3718
  923MPD2    H313513   3.449   0.962   9.046 -2.1714 -0.3228  0.6171
  923MPD2     N13514   3.617   1.167   9.414  0.1736  0.2084 -0.9707
  923MPD2    H513515   3.653   1.076   9.440 -0.2811  0.1527 -0.5352
  923MPD2    N113516   3.391   1.409   9.053 -0.0536  0.7533 -0.7203
  923MPD2    H713517   3.348   1.401   8.961  0.2085 -2.4476 -0.5615
  924MPD2     C13518   3.908   4.468  16.335 -0.0831  0.1013 -0.1677
  924MPD2    C113519   3.831   4.551  16.251 -0.3368 -0.0923 -0.2563
  924MPD2    C213520   3.893   4.653  16.175  0.4651  0.0449  0.5532
  924MPD2    C313521   4.029   4.672  16.190 -0.3542  0.6401 -0.2244
  924MPD2    C413522   4.102   4.581  16.255 -0.4748  0.2565  0.5239
  924MPD2    C513523   4.047   4.479  16.323  0.2290 -0.0418  0.6991
  924MPD2     H13524   3.836   0.004  16.122  0.8987 -0.3233 -0.4329
  924MPD2    H113525   4.208   4.598  16.267 -0.5211  0.2061  1.0063
  924MPD2    H213526   3.862   4.390  16.396 -4.3247  2.0041 -0.9044
  924MPD2    H313527   4.112   4.423  16.390  0.0339 -1.7683 -0.5376
  924MPD2     N13528   4.095   0.067  16.152  0.7429 -0.0050 -0.3358
  924MPD2    H513529   4.191   0.084  16.181  1.6303 -1.3752 -2.4979
  924MPD2    N113530   3.697   4.528  16.239 -0.2832 -0.6427 -0.6073
  924MPD2    H713531   3.653   4.460  16.300 -1.3279  0.4310 -0.1690
  925MPD2     C13532   2.346   3.068  14.899  0.0315 -0.3505 -0.4918
  925MPD2    C113533   2.287   2.948  14.875 -0.2131  0.1442 -0.0809
  925MPD2    C213534   2.231   2.880  14.977 -0.2223  0.0232  0.7622
  925MPD2    C313535   2.215   2.927  15.110 -0.1732  0.2294  0.3845
  925MPD2    C413536   2.283   3.048  15.130 -0.3378  0.3398  0.4982
  925MPD2    C513537   2.340   3.118  15.028  0.5567  0.6687  0.4530
  925MPD2     H13538   2.189   2.786  14.944  0.0265  0.1262  0.1645
  925MPD2    H113539   2.265   3.101  15.222  1.5298  2.1269 -0.1835
  925MPD2    H213540   2.387   3.132  14.823 -3.3194  0.4439 -1.6109
  925MPD2    H313541   2.376   3.218  15.049  0.1997  0.8784  0.0667
  925MPD2     N13542   2.144   2.859  15.209  0.2454 -0.1786  0.3937
  925MPD2    H513543   2.132   2.761  15.188  0.2143  0.0626 -0.7511
  925MPD2    N113544   2.286   2.885  14.747  0.5569 -0.0791  0.1235
  925MPD2    H713545   2.224   2.806  14.736  0.5809 -0.2614  1.4069
  926MPD2     C13546   1.759   1.304  13.394  0.0454 -0.2643  0.1836
  926MPD2    C113547   1.660   1.356  13.314 -0.7221 -0.0429  0.2039
  926MPD2    C213548   1.687   1.389  13.181  0.6736  0.4613 -0.0645
  926MPD2    C313549   1.818   1.368  13.127  0.1129 -0.8685  0.7608
  926MPD2    C413550   1.913   1.330  13.212  0.2252 -0.3703 -0.2400
  926MPD2    C513551   1.885   1.303  13.345  0.6727  0.2627 -0.9374
  926MPD2     H13552   1.609   1.432  13.119  0.5294 -0.4534 -0.5156
  926MPD2    H113553   2.015   1.306  13.185  0.1019 -0.9275 -0.1915
  926MPD2    H213554   1.735   1.273  13.495  0.1327  2.6783  1.1119
  926MPD2    H313555   1.957   1.257  13.412  0.3142  0.7361 -0.2313
  926MPD2     N13556   1.860   1.383  12.996  0.5263 -0.2357  0.1372
  926MPD2    H513557   1.958   1.398  12.972  0.7294  0.5819  1.4656
  926MPD2    N113558   1.528   1.386  13.360  0.6435 -0.7923  0.4482
  926MPD2    H713559   1.459   1.414  13.291  1.2364  0.3322  0.3106
  927MPD2     C13560   1.015   2.824  17.469  0.5668 -0.4673  0.9697
  927MPD2    C113561   1.038   2.957  17.494 -0.4458 -0.3235  0.2062
  927MPD2    C213562   0.956   3.048  17.424 -0.0869  0.1240 -0.2604
  927MPD2    C313563   0.874   3.018  17.321  0.2197 -0.0768  0.1739
  927MPD2    C413564   0.856   2.885  17.296 -0.3721 -0.7039  0.3486
  927MPD2    C513565   0.931   2.791  17.367  0.3119 -0.5475 -0.4670
  927MPD2     H13566   0.966   3.151  17.454  1.7332 -0.2339  0.3812
  927MPD2    H113567   0.782   2.845  17.228 -1.3055  3.3355 -1.0340
  927MPD2    H213568   1.074   2.743  17.510  1.4707 -0.2950  0.0298
  927MPD2    H313569   0.923   2.686  17.340 -2.2144 -0.3200 -0.5420
  927MPD2     N13570   0.810   3.122  17.258 -0.1529  0.2560 -0.1886
  927MPD2    H513571   0.823   3.214  17.299  0.4100 -1.5444  3.7058
  927MPD2    N113572   1.127   3.000  17.598  0.4262  0.1232 -0.5706
  927MPD2    H713573   1.149   2.921  17.658 -0.9328  1.3653  1.5503
  928MPD2     C13574   3.534   1.508   0.983 -0.8585 -0.0968 -0.4610
  928MPD2    C113575   3.652   1.574   1.016 -0.9528 -0.2593 -0.1683
  928MPD2    C213576   3.748   1.595   0.920  0.2475 -0.0202 -0.6424
  928MPD2    C313577   3.716   1.561   0.787 -0.0619 -0.3130 -0.3379
  928MPD2    C413578   3.599   1.497   0.757  0.2299  0.0580 -0.0740
  928MPD2    C513579   3.510   1.461   0.855 -0.0587  0.2926  0.6236
  928MPD2     H13580   3.835   1.655   0.943 -1.1955  1.5867  0.6409
  928MPD2    H113581   3.576   1.473   0.654 -2.9390  5.3222 -0.6072
  928MPD2    H213582   3.463   1.489   1.062 -1.2769 -0.0243 -0.8151
  928MPD2    H313583   3.416   1.409   0.838 -0.6491  2.1122 -1.7234
  928MPD2     N13584   3.795   1.601   0.687  0.0190  0.2172  0.0486
  928MPD2    H513585   3.761   1.584   0.593  0.9642  2.6297 -0.7463
  928MPD2    N113586   3.660   1.619   1.153  0.3599 -0.5200 -0.5028
  928MPD2    H713587   3.577   1.606   1.210  1.7538  0.4269  1.7542
  929MPD2     C13588   3.486   1.820   9.889 -0.3854  0.1424  0.1101
  929MPD2    C113589   3.360   1.795   9.929 -0.0636 -0.1989  0.6340
  929MPD2    C213590   3.251   1.864   9.872 -0.4728  0.2595 -0.5465
  929MPD2    C313591   3.270   1.944   9.764 -0.2833 -0.0399  0.3271
  929MPD2    C413592   3.400   1.965   9.726  0.9970  0.3455 -0.2319
  929MPD2    C513593   3.507   1.900   9.786  0.5138 -0.9187 -0.3002
  929MPD2     H13594   3.152   1.835   9.905 -0.1585  2.8535  2.6343
  929MPD2    H113595   3.421   2.037   9.647  1.3796 -0.6445 -1.0259
  929MPD2    H213596   3.573   1.773   9.932 -1.6336 -0.8733  1.5196
  929MPD2    H313597   3.609   1.924   9.760 -1.0401  2.0693 -3.6018
  929MPD2     N13598   3.164   2.000   9.687  0.2263 -0.2409  0.1737
  929MPD2    H513599   3.187   2.061   9.609 -1.1768 -0.4291 -0.3705
  929MPD2    N113600   3.337   1.700  10.029  0.1456 -0.0016  0.0691
  929MPD2    H713601   3.422   1.668  10.075 -0.2681 -0.2646  0.6453
  930MPD2     C13602   0.399   4.077  13.970 -1.0977 -0.1796 -0.3199
  930MPD2    C113603   0.530   4.103  13.947 -0.0775 -0.2709  0.1474
  930MPD2    C213604   0.587   4.045  13.833  0.0423  0.4830  0.3011
  930MPD2    C313605   0.507   3.970  13.751 -0.1361 -0.4253  0.0849
  930MPD2    C413606   0.382   3.939  13.777  0.3411 -0.0465  0.3674
  930MPD2    C513607   0.330   3.990  13.894 -0.0469  0.7054  0.2968
  930MPD2     H13608   0.687   4.057  13.793 -0.2633  1.8754 -0.0609
  930MPD2    H113609   0.331   3.869  13.712  0.3069  2.4048 -2.2867
  930MPD2    H213610   0.347   4.115  14.057  0.4288 -1.0521  0.9620
  930MPD2    H313611   0.229   3.970  13.930  0.4345 -0.8361  0.7976
  930MPD2     N13612   0.574   3.945  13.627  0.0364  0.3808  0.4302
  930MPD2    H513613   0.667   3.983  13.618 -0.3981  1.0940 -1.0250
  930MPD2    N113614   0.601   4.203  14.030 -0.2191 -0.0961  0.3786
  930MPD2    H713615   0.563   4.240  14.116  2.8721  1.9915  0.8209
  931MPD2     C13616   1.176   2.712   0.459 -0.0281 -0.0222 -0.0947
  931MPD2    C113617   1.237   2.833   0.473  0.0229  0.2169 -0.7448
  931MPD2    C213618   1.267   2.886   0.603  0.3741 -0.5964 -0.4709
  931MPD2    C313619   1.211   2.824   0.714  0.0461 -0.3618  0.5419
  931MPD2    C413620   1.144   2.707   0.697  0.0011  0.7017 -0.6491
  931MPD2    C513621   1.137   2.653   0.573  0.5413 -1.0693  0.1035
  931MPD2     H13622   1.298   2.990   0.614 -0.9326 -0.5711  2.9216
  931MPD2    H113623   1.099   2.643   0.772 -0.7261  1.9361 -0.0200
  931MPD2    H213624   1.147   2.669   0.364 -0.1893 -0.6604  0.2432
  931MPD2    H313625   1.093   2.554   0.569 -0.0414 -0.7385 -1.7573
  931MPD2     N13626   1.226   2.880   0.846  0.1712 -0.5006 -0.5493
  931MPD2    H513627   1.176   2.830   0.919 -0.2825  1.4855  0.4873
  931MPD2    N113628   1.284   2.891   0.350 -0.3154  0.1425  0.1735
  931MPD2    H713629   1.237   2.865   0.264 -0.7348  0.3338  0.3422
  932MPD2     C13630   2.480   2.195  11.087  0.3852 -0.2385  0.0306
  932MPD2    C113631   2.556   2.255  11.184  0.3106  0.3522  0.0671
  932MPD2    C213632   2.568   2.195  11.311  0.0087  0.3123 -0.4042
  932MPD2    C313633   2.505   2.071  11.334  0.0126 -0.5336  0.5016
  932MPD2    C413634   2.438   2.011  11.232  0.1901 -0.3655  0.6303
  932MPD2    C513635   2.428   2.068  11.108 -0.5113  0.4562  0.6634
  932MPD2     H13636   2.635   2.245  11.380 -0.3333  1.0822 -0.6352
  932MPD2    H113637   2.401   1.910  11.248 -0.5585 -0.1058  0.5313
  932MPD2    H213638   2.452   2.242  10.994 -0.7022  0.3505  0.6569
  932MPD2    H313639   2.368   2.014  11.036 -0.0898  0.5074  0.2685
  932MPD2     N13640   2.505   2.007  11.464 -0.1032  0.2000  0.4343
  932MPD2    H513641   2.467   1.914  11.479  0.8290 -0.2847 -0.2276
  932MPD2    N113642   2.617   2.381  11.163  0.1672  0.5257 -0.1109
  932MPD2    H713643   2.670   2.418  11.242 -0.6293 -0.8928  1.0710
  933MPD2     C13644   3.376   1.860   1.894 -0.3346  0.5487 -0.8285
  933MPD2    C113645   3.414   1.897   1.772 -0.0777 -0.1021  1.0636
  933MPD2    C213646   3.356   2.009   1.711  0.6284  0.0953  0.2600
  933MPD2    C313647   3.251   2.078   1.771 -0.1604  0.9970  0.5023
  933MPD2    C413648   3.203   2.019   1.883 -0.5834 -0.0804 -0.1872
  933MPD2    C513649   3.264   1.911   1.942 -0.6325  0.3308  0.2278
  933MPD2     H13650   3.395   2.029   1.612  0.9346  1.2197  0.6154
  933MPD2    H113651   3.123   2.068   1.937  1.0512 -0.2445  2.3521
  933MPD2    H213652   3.424   1.776   1.942 -0.9535 -0.0378 -1.2406
  933MPD2    H313653   3.222   1.875   2.035 -2.1089  2.9343  0.5508
  933MPD2     N13654   3.191   2.188   1.707  0.4504 -0.1635  0.0549
  933MPD2    H513655   3.243   2.224   1.627 -0.1917 -0.3851 -0.4654
  933MPD2    N113656   3.516   1.823   1.710  0.0668  0.3608  0.1965
  933MPD2    H713657   3.581   1.770   1.768 -0.2497 -1.4183 -1.0641
  934MPD2     C13658   4.611   4.500   1.891 -0.0074 -0.5058  0.0363
  934MPD2    C113659   4.597   4.381   1.821 -0.6796  0.1563  0.1082
  934MPD2    C213660   4.474   4.355   1.769  0.1833  0.3861 -0.2837
  934MPD2    C313661   4.366   4.430   1.795  0.2598 -0.3410  0.8955
  934MPD2    C413662   4.374   4.545   1.872  0.0833 -0.0972  0.4461
  934MPD2    C513663   4.499   4.576   1.924  0.8695 -0.5205  0.7298
  934MPD2     H13664   4.460   4.267   1.707 -0.9144 -0.1044  0.6508
  934MPD2    H113665   4.287   4.605   1.894 -0.8093 -0.6022 -1.6886
  934MPD2    H213666   4.709   4.530   1.929 -0.2416  0.8594 -0.4351
  934MPD2    H313667   4.507   4.667   1.982  0.6873  0.9569 -1.5407
  934MPD2     N13668   4.233   4.400   1.747  0.1148  0.2007 -1.0432
  934MPD2    H513669   4.164   4.472   1.767 -0.3888 -0.8054  0.8238
  934MPD2    N113670   4.703   4.294   1.794  0.1177  0.3534  0.3415
  934MPD2    H713671   4.683   4.223   1.725 -0.7063  0.6666  0.2567
  935MPD2     C13672   3.800   3.512   1.456  0.3935  0.0012 -0.2143
  935MPD2    C113673   3.922   3.570   1.418  0.0392  0.3943 -0.1985
  935MPD2    C213674   3.938   3.703   1.454  0.3716  0.4742  0.0477
  935MPD2    C313675   3.852   3.774   1.539  0.2091  0.2718 -0.4551
  935MPD2    C413676   3.742   3.705   1.597  0.3485 -1.1670  0.0302
  935MPD2    C513677   3.716   3.582   1.546 -0.4921  0.2942 -0.2499
  935MPD2     H13678   4.030   3.745   1.416  0.6635 -0.4709 -0.2617
  935MPD2    H113679   3.677   3.752   1.670 -1.1182 -1.5662 -1.0177
  935MPD2    H213680   3.774   3.411   1.424 -0.1394  0.0568  0.0480
  935MPD2    H313681   3.626   3.526   1.567  0.9656 -1.7264  0.5240
  935MPD2     N13682   3.886   3.912   1.559 -0.5104  0.0353  1.3689
  935MPD2    H513683   3.967   3.956   1.517 -1.4937 -0.3185 -0.9521
  935MPD2    N113684   4.009   3.525   1.313  0.0349  0.0953  0.0016
  935MPD2    H713685   4.087   3.581   1.281 -0.7043  0.7638 -0.6169
  936MPD2     C13686   2.697   0.521  12.647  0.0960  0.1558 -0.3960
  936MPD2    C113687   2.767   0.627  12.585 -0.2965 -0.8885 -0.1153
  936MPD2    C213688   2.720   0.677  12.471  0.0722 -0.6160  0.1482
  936MPD2    C313689   2.608   0.625  12.410 -0.0318 -0.0490  0.0926
  936MPD2    C413690   2.548   0.510  12.462 -0.1660  0.3717  0.5665
  936MPD2    C513691   2.594   0.460  12.579 -0.0000 -0.3385  0.6058
  936MPD2     H13692   2.775   0.759  12.425 -0.5212 -0.4270 -0.2351
  936MPD2    H113693   2.461   0.470  12.411  0.8090  0.7425 -1.3779
  936MPD2    H213694   2.725   0.469  12.738 -0.8073  0.5218  0.0867
  936MPD2    H313695   2.544   0.378  12.629 -0.5188 -0.2244  0.2639
  936MPD2     N13696   2.551   0.684  12.300 -0.2215  0.2534  0.3412
  936MPD2    H513697   2.465   0.644  12.264 -0.0073  0.9278 -0.9404
  936MPD2    N113698   2.859   0.715  12.650  0.4810 -0.3957 -0.3034
  936MPD2    H713699   2.879   0.797  12.593 -1.7368 -0.0689 -0.6156
  937MPD2     C13700   0.793   2.427  11.928  0.1080 -0.0781  0.2284
  937MPD2    C113701   0.866   2.542  11.933  0.0386  0.8345  0.0794
  937MPD2    C213702   0.970   2.557  11.846 -0.2723 -0.2635  0.2932
  937MPD2    C313703   0.999   2.456  11.752 -0.2516  0.4457 -0.4698
  937MPD2    C413704   0.929   2.337  11.760 -0.1494  0.1050 -0.3514
  937MPD2    C513705   0.825   2.319  11.847  0.4726 -0.0209  0.2573
  937MPD2     H13706   1.022   2.651  11.835 -2.0296  0.6671 -0.0085
  937MPD2    H113707   0.953   2.249  11.701  2.3947  1.0539 -0.7501
  937MPD2    H213708   0.700   2.412  11.981 -0.7606 -0.7177 -1.4795
  937MPD2    H313709   0.775   2.223  11.837 -1.0018  0.8768 -1.1237
  937MPD2     N13710   1.101   2.480  11.657  0.4467  0.0973 -0.6765
  937MPD2    H513711   1.151   2.568  11.662 -0.4915  0.6678 -1.3976
  937MPD2    N113712   0.805   2.661  11.992  0.0594  0.1848 -0.5560
  937MPD2    H713713   0.844   2.752  11.969  0.3202 -0.0163 -0.9130
  938MPD2     C13714   3.856   3.692   0.802  0.6803 -0.4230  0.4224
  938MPD2    C113715   3.756   3.747   0.872  0.3178 -0.3446 -0.2180
  938MPD2    C213716   3.634   3.689   0.894  0.0069 -0.7856 -0.2623
  938MPD2    C313717   3.617   3.559   0.855  0.3895 -0.0923 -0.4571
  938MPD2    C413718   3.723   3.502   0.789 -0.0056  0.0894 -0.0685
  938MPD2    C513719   3.842   3.566   0.763  0.0196  0.0502  0.2719
  938MPD2     H13720   3.555   3.749   0.938  0.5682  2.5072 -3.7966
  938MPD2    H113721   3.723   3.400   0.753  1.1078  0.2782 -0.6253
  938MPD2    H213722   3.948   3.742   0.773 -0.3965  0.0999 -2.0788
  938MPD2    H313723   3.927   3.524   0.709 -0.4181 -2.1629  1.3108
  938MPD2     N13724   3.498   3.488   0.865 -0.3980 -0.5208  0.2235
  938MPD2    H513725   3.488   3.387   0.857 -0.1667 -0.5560  0.3829
  938MPD2    N113726   3.767   3.881   0.921  0.3207 -0.0749 -0.0480
  938MPD2    H713727   3.685   3.925   0.961  1.2509  1.0685  0.6152
  939MPD2     C13728   0.527   0.360   1.657  0.1259  0.3841  0.4951
  939MPD2    C113729   0.404   0.344   1.602  0.0523 -0.6471  0.5703
  939MPD2    C213730   0.392   0.316   1.464  0.1082  0.2647  0.7456
  939MPD2    C313731   0.503   0.297   1.390 -0.2639 -0.1632  0.3857
  939MPD2    C413732   0.630   0.307   1.455  0.2699  0.3341  0.1717
  939MPD2    C513733   0.638   0.339   1.585  0.4675 -0.3487  0.7347
  939MPD2     H13734   0.297   0.307   1.413 -0.1580 -0.2171  1.3243
  939MPD2    H113735   0.724   0.298   1.401 -0.1344 -0.5452 -0.3875
  939MPD2    H213736   0.551   0.400   1.755 -1.7151  0.9334  0.7331
  939MPD2    H313737   0.734   0.341   1.635 -0.1400  0.2652  1.8805
  939MPD2     N13738   0.500   0.269   1.247 -0.0450 -0.0825 -0.8285
  939MPD2    H513739   0.409   0.286   1.205 -0.9364  0.8108  1.4554
  939MPD2    N113740   0.296   0.356   1.692  0.3947  0.4340 -0.1160
  939MPD2    H713741   0.315   0.403   1.780  0.2606  0.2885 -0.0093
  940MPD2     C13742   3.427   1.121  13.192  0.3564 -0.0900  0.7754
  940MPD2    C113743   3.455   1.004  13.129  0.3165 -0.3055  0.7713
  940MPD2    C213744   3.440   0.989  12.990  0.2279 -0.5870  0.1464
  940MPD2    C313745   3.395   1.101  12.920  0.0535 -0.4389 -0.4006
  940MPD2    C413746   3.366   1.223  12.978 -0.1898  0.4279  0.7133
  940MPD2    C513747   3.385   1.228  13.116  0.3856  0.5355  0.2598
  940MPD2     H13748   3.475   0.894  12.953 -1.4708 -0.7720 -0.9734
  940MPD2    H113749   3.332   1.312  12.926  0.3033  0.0472 -0.2512
  940MPD2    H213750   3.441   1.125  13.299 -1.0376 -0.3824  0.9780
  940MPD2    H313751   3.379   1.328  13.158  2.0197  1.2630 -1.2045
  940MPD2     N13752   3.366   1.096  12.783  0.3424 -0.4575  0.0277
  940MPD2    H513753   3.317   1.178  12.748  1.0487  1.5791  3.8864
  940MPD2    N113754   3.485   0.892  13.217  0.1047  0.3224 -0.2586
  940MPD2    H713755   3.504   0.915  13.313  1.0564  0.4104 -0.4721
  941MPD2     C13756   2.391   0.415   9.813 -0.1423  0.5591  0.6996
  941MPD2    C113757   2.514   0.345   9.822 -0.1056 -0.0185 -0.5295
  941MPD2    C213758   2.520   0.211   9.859  0.5275  0.2432 -0.3938
  941MPD2    C313759   2.397   0.146   9.889  0.1086  0.0653  0.3462
  941MPD2    C413760   2.277   0.214   9.872  0.4142 -0.9603  0.0673
  941MPD2    C513761   2.281   0.348   9.841 -1.0022  0.7410 -0.3597
  941MPD2     H13762   2.620   0.170   9.859  0.5557  0.2942  1.2185
  941MPD2    H113763   2.182   0.165   9.886 -0.2523  0.6651  1.2235
  941MPD2    H213764   2.380   0.512   9.765  0.3096  0.3941  0.2559
  941MPD2    H313765   2.189   0.402   9.816 -1.7306 -0.9468 -1.3512
  941MPD2     N13766   2.387   0.004   9.918  0.2118 -0.2980  0.4562
  941MPD2    H513767   2.296   4.686   9.932 -1.1193  2.0440 -1.3328
  941MPD2    N113768   2.645   0.399   9.784 -0.3533 -0.0153 -0.0569
  941MPD2    H713769   2.725   0.337   9.777  0.5047  1.0507  0.4044
  942MPD2     C13770   1.386   2.130   9.850 -0.2748  0.2483  0.1119
  942MPD2    C113771   1.405   2.186   9.723  0.1925 -1.3068  0.0094
  942MPD2    C213772   1.524   2.151   9.658 -0.2871  0.3740  0.0168
  942MPD2    C313773   1.619   2.074   9.716  0.2048 -0.0133 -0.2744
  942MPD2    C413774   1.595   2.021   9.837  0.1187 -0.1294  0.4223
  942MPD2    C513775   1.486   2.051   9.904  0.1683  0.3533 -0.4311
  942MPD2     H13776   1.537   2.201   9.562 -0.2503  2.3414  1.0397
  942MPD2    H113777   1.674   1.964   9.884 -0.7910 -0.5877  1.3967
  942MPD2    H213778   1.295   2.138   9.907 -1.0618  2.0426 -1.3825
  942MPD2    H313779   1.477   2.043  10.012  0.2934  0.0405 -0.4435
  942MPD2     N13780   1.738   2.051   9.645 -0.4822  0.6272 -0.9209
  942MPD2    H513781   1.730   2.091   9.552 -0.7112  0.8342 -0.8086
  942MPD2    N113782   1.309   2.273   9.663  0.2445 -0.2333 -0.0822
  942MPD2    H713783   1.335   2.330   9.583  3.7416  0.3139  1.4331
  943MPD2     C13784   1.482   0.225  10.097 -1.1821  0.1424  0.4891
  943MPD2    C113785   1.377   0.127  10.091  0.0318  0.1528 -0.1861
  943MPD2    C213786   1.258   0.165  10.026 -0.2299 -0.0722 -0.2495
  943MPD2    C313787   1.249   0.286   9.958  0.1930  0.4637  0.3059
  943MPD2    C413788   1.358   0.379   9.960 -0.4858 -0.1225 -0.6417
  943MPD2    C513789   1.463   0.348  10.039 -0.2802  0.2566  0.1830
  943MPD2     H13790   1.179   0.093  10.012 -0.5187  0.4890 -1.4134
  943MPD2    H113791   1.346   0.474   9.911 -1.0427 -1.0076 -2.2106
  943MPD2    H213792   1.566   0.206  10.163  0.8269 -0.2256 -2.1733
  943MPD2    H313793   1.538   0.423  10.062 -1.1554  0.8620  1.0813
  943MPD2     N13794   1.135   0.320   9.879 -0.1003  0.1401  0.3503
  943MPD2    H513795   1.152   0.398   9.816  1.0148  0.0487  0.5358
  943MPD2    N113796   1.398   4.719  10.150  0.2558 -0.3751 -0.5541
  943MPD2    H713797   1.482   4.706  10.206 -0.4198 -0.2253  0.5004
  944MPD2     C13798   1.211   3.354  11.946  0.2652  0.6938  0.1983
  944MPD2    C113799   1.197   3.419  11.826  0.6203 -0.2756 -0.6218
  944MPD2    C213800   1.099   3.516  11.819  0.2134 -0.1675 -0.7748
  944MPD2    C313801   1.029   3.556  11.930 -1.1567  0.8087  0.1722
  944MPD2    C413802   1.048   3.500  12.054  0.6236 -0.1816  0.7453
  944MPD2    C513803   1.140   3.396  12.059 -1.0144  1.0991 -0.9472
  944MPD2     H13804   1.081   3.581  11.734 -2.7220  0.7370  0.5701
  944MPD2    H113805   1.011   3.539  12.148 -2.6125 -3.7023  0.9522
  944MPD2    H213806   1.280   3.270  11.948 -0.8337 -0.2116 -0.3192
  944MPD2    H313807   1.151   3.344  12.154  1.6814 -0.9976 -2.3792
  944MPD2     N13808   0.953   3.676  11.910  0.3606 -0.5885 -0.1307
  944MPD2    H513809   0.958   3.723  11.819 -2.0263  2.2603  1.2117
  944MPD2    N113810   1.276   3.379  11.719 -0.9884  0.2567 -0.5738
  944MPD2    H713811   1.352   3.315  11.738 -2.3606 -1.6003 -1.2886
    1TCq1    O113812   3.957   0.049  15.436 -0.6139  0.0081 -0.0520
    1TCq1    C113813   3.892   0.165  15.413 -0.3758 -1.0002 -1.4889
    1TCq1    O213814   3.776   0.190  15.436 -0.3618  0.1640 -0.4222
    1TCq1    C213815   3.937   0.206  15.285 -0.0933 -0.5673 -0.2097
    1TCq1    C313816   3.837   0.236  15.190 -0.2421  0.2814  0.0005
    1TCq1    C413817   3.875   0.294  15.069 -0.6544  0.0669 -0.1290
    1TCq1    C513818   4.010   0.336  15.061  0.1560 -0.1602  0.2793
    1TCq1    C613819   4.100   0.323  15.160 -0.1570 -0.7453 -0.3333
    1TCq1    C713820   4.070   0.241  15.269  0.3219  0.1358 -0.6221
    1TCq1    C813821   4.233   0.378  15.159  0.1835 -0.1569 -0.2373
    1TCq1    O413822   4.310   0.355  15.252  0.2999  0.4419  0.5112
    1TCq1    C913823   3.789   0.335  14.964 -0.0239  0.8119 -0.2792
    1TCq1    O513824   3.845   0.405  14.879 -0.1910  0.5970 -0.6139
    1TCq1    O613825   3.667   0.324  14.988 -0.0803  0.6573  0.3568
    1TCq1    H113826   4.050   0.040  15.408 -0.7524 -0.9703 -0.1982
    1TCq1    H213827   3.731   0.217  15.203 -0.4865  2.5513  1.2997
    1TCq1    H313828   4.049   0.384  14.972  0.3789  0.9350  0.9628
    1TCq1    H413829   4.129   0.243  15.359  1.5502 -0.4579 -1.4182
    2MPD2     C13830   4.588   0.689  14.960 -0.4189  0.2785  0.1763
    2MPD2    C113831   4.477   0.699  14.882  0.3047 -0.3956 -0.3390
    2MPD2    C213832   4.367   0.621  14.917  0.4177 -0.3571 -0.0127
    2MPD2    C313833   4.371   0.522  15.015  0.1833 -0.0566 -0.3569
    2MPD2    C413834   4.491   0.511  15.086  0.8266 -0.2424  0.1221
    2MPD2    C513835   4.597   0.588  15.055 -0.4301 -0.0445 -1.3149
    2MPD2     H13836   4.278   0.626  14.856  0.2902  1.5822  0.3421
    2MPD2    H113837   4.510   0.433  15.159 -0.4280 -1.2635 -0.6422
    2MPD2    H213838   4.674   0.751  14.936  0.3571 -0.7916  0.1802
    2MPD2    H313839   4.681   0.573  15.121 -1.2555  0.4875 -0.1368
    2MPD2     N13840   4.250   0.460  15.052  0.4199  0.3140  0.1834
    2MPD2    H513841   4.169   0.463  14.991 -0.7950  0.8442  1.8307
    2MPD2    N113842   4.477   0.800  14.780  0.2067 -0.1121 -0.4009
    2MPD2    H713843   4.563   0.854  14.778 -0.1130  0.5302  2.4784
    3TMC2    C113844   4.402   0.904  14.586 -0.1475 -0.3474  0.0174
    3TMC2    C213845   4.480   1.015  14.629  0.0482 -0.9135  0.4136
    3TMC2    C313846   4.479   1.117  14.537  0.1039  0.6767  0.3926
    3TMC2    C413847   4.339   0.897  14.464  0.4003  0.5935 -0.3525
    3TMC2    C513848   4.350   1.000  14.377  0.4716 -0.6182  0.1446
    3TMC2    C613849   4.422   1.111  14.410  0.5124  0.4347  0.6558
    3TMC2     C13850   4.382   0.797  14.681 -0.2664  0.1604  0.2131
    3TMC2     O13851   4.287   0.722  14.661  0.2396  0.3574 -0.1245
    3TMC2     H13852   4.494   1.029  14.736  1.2254 -1.1008  0.2783
    3TMC2    H113853   4.282   0.809  14.438  0.6291  0.4658 -0.4265
    3TMC2    H213854   4.441   1.199  14.350 -1.0664 -1.0234 -2.0098
    3TMC2    C713855   4.291   0.990  14.243  0.3502  0.1015  1.0862
    3TMC2    C813856   4.552   1.232  14.572 -0.2923 -0.4330  0.4671
    3TMC2    O113857   4.190   0.918  14.235 -0.5382 -0.2578  0.2144
    3TMC2    O213858   4.528   1.340  14.528  0.3155 -0.1082 -0.1254
    3TMC2    O513859   4.666   1.192  14.632 -0.0827 -0.0398  0.4838
    3TMC2    H513860   4.695   1.101  14.610  1.0747  0.8149 -1.5274
    4MPD2     C13861   4.054   1.701  12.995 -0.3043 -0.1080 -1.0249
    4MPD2    C113862   3.999   1.653  13.113  0.2833  0.2948  0.0027
    4MPD2    C213863   4.082   1.625  13.219  0.0267 -0.0512  0.3410
    4MPD2    C313864   4.222   1.625  13.197  0.6373 -1.1307 -0.4716
    4MPD2    C413865   4.276   1.674  13.078 -0.4924 -0.5544  0.0674
    4MPD2    C513866   4.191   1.716  12.978 -0.4350  0.1970  0.6324
    4MPD2     H13867   4.040   1.591  13.314 -0.9067  2.6864  0.8828
    4MPD2    H113868   4.382   1.666  13.057 -0.8445  2.5505 -2.8595
    4MPD2    H213869   3.984   1.738  12.921 -0.7273 -0.6387 -0.8849
    4MPD2    H313870   4.225   1.767  12.889 -1.0829 -1.5617 -0.6116
    4MPD2     N13871   4.301   1.577  13.302 -0.0310 -0.3774 -0.1929
    4MPD2    H513872   4.255   1.558  13.390  0.6827  3.1483  0.9333
    4MPD2    N113873   3.858   1.644  13.116 -0.5292 -0.4288 -0.2262
    4MPD2    H713874   3.810   1.687  13.037  0.1139 -0.2130 -0.4983
    5TCq2    C113875   4.439   1.599  13.313  0.5724 -0.1682 -0.0124
    5TCq2    O213876   4.497   1.683  13.246 -0.8062  0.2001  0.0762
    5TCq2    C213877   4.508   1.545  13.429 -0.1006  0.0409 -0.2013
    5TCq2    C313878   4.620   1.616  13.466  0.0154 -0.8503  0.4250
    5TCq2    C413879   4.662   1.637  13.594  0.6789 -0.1434  0.2576
    5TCq2    C513880   4.593   1.576  13.695 -0.2273 -0.1638  0.2915
    5TCq2    C613881   4.496   1.483  13.658  0.6110 -0.5727 -0.0336
    5TCq2    C713882   4.440   1.472  13.528 -0.1163 -0.2775 -0.0744
    5TCq2    C813883   4.443   1.410  13.773  0.1843  0.4515  0.4184
    5TCq2    O413884   4.508   1.407  13.874 -0.5169  0.5802  0.7392
    5TCq2    C913885   0.051   1.724  13.622 -0.7029 -0.1220  0.5539
    5TCq2    O513886   0.079   1.754  13.741  0.1078  0.0637  0.2658
    5TCq2    O613887   0.102   1.783  13.521 -0.2869  0.2065 -0.4653
    5TCq2    H213888   4.666   1.681  13.392 -2.5019  0.3858 -0.0480
    5TCq2    H313889   4.631   1.594  13.795 -0.0205 -1.2604  0.4063
    5TCq2    H413890   4.357   1.405  13.509 -0.7636  0.3271  0.6032
    6MPD1     C13891   2.730   3.057  13.390 -0.1815 -0.0944  0.1157
    6MPD1    C113892   2.774   3.059  13.267 -0.2875  0.4119 -1.2772
    6MPD1    C213893   2.860   2.964  13.221 -0.3092  0.2556  0.2680
    6MPD1    C313894   2.893   2.850  13.306 -0.4786 -0.1243  0.5619
    6MPD1    C413895   2.857   2.851  13.433  0.5433  0.1837  0.2154
    6MPD1    C513896   2.780   2.958  13.480 -0.1220  0.2722 -0.3361
    6MPD1     H13897   2.904   2.984  13.124  1.1303  0.0820  0.8964
    6MPD1    H113898   2.880   2.775  13.507  2.6286 -1.0036 -1.6692
    6MPD1    H213899   2.649   3.120  13.426  1.1138  0.3007  2.3339
    6MPD1    H313900   2.755   2.956  13.586 -1.2183 -0.0826 -0.6103
    6MPD1     N13901   2.982   2.745  13.274  0.6358 -0.2049  0.0981
    6MPD1    H513902   3.001   2.678  13.348  3.6045  1.2001  0.5891
    6MPD1    N113903   2.748   3.168  13.189  0.6004 -0.5281  0.0157
    6MPD1    H613904   2.770   3.136  13.095  2.0856  0.5924 -0.0181
    6MPD1    H713905   2.655   3.209  13.194  1.9478  2.3825  1.1013
    7MPD2     C13906   3.325   2.124  13.547  0.4813  0.3685 -0.4209
    7MPD2    C113907   3.315   2.123  13.405 -0.4922 -0.3638  0.6559
    7MPD2    C213908   3.317   2.003  13.336 -0.0910 -0.2482  0.1423
    7MPD2    C313909   3.333   1.884  13.409 -0.4675  0.9818  0.2719
    7MPD2    C413910   3.333   1.881  13.547  0.4833 -0.2712  0.6924
    7MPD2    C513911   3.332   2.000  13.615 -0.1556  0.1808  0.2520
    7MPD2     H13912   3.326   1.992  13.229  0.9521 -0.4773  0.2560
    7MPD2    H113913   3.332   1.794  13.612 -0.2510 -0.5595  0.2963
    7MPD2    H213914   3.320   2.219  13.599  5.5736  0.0362  0.6354
    7MPD2    H313915   3.342   2.003  13.723 -1.0415 -0.2964  0.3427
    7MPD2     N13916   3.340   1.771  13.327  0.1326 -0.1451 -0.5016
    7MPD2    H513917   3.330   1.781  13.226  0.3126 -0.0416 -0.5097
    7MPD2    N113918   3.295   2.241  13.327 -0.7130  0.1322 -0.7428
    7MPD2    H713919   3.280   2.228  13.228  1.9291 -1.3006 -0.9417
    8TMC3    C113920   3.427   1.570  13.268 -0.0092 -0.6443 -0.6032
    8TMC3    C213921   3.559   1.542  13.269  0.0760  0.4840 -0.4206
    8TMC3    C313922   3.636   1.585  13.170  0.2889  0.4272 -0.3714
    8TMC3    C413923   3.376   1.620  13.157 -1.1522  0.5110 -0.4452
    8TMC3    C513924   3.453   1.651  13.049  0.7494  0.5372 -0.4013
    8TMC3    C613925   3.590   1.629  13.049  0.0479 -0.3129 -0.2060
    8TMC3     C13926   3.386   1.653  13.379 -0.8202 -0.5287  0.8862
    8TMC3     O13927   3.418   1.615  13.492 -0.0186 -0.1090  0.6184
    8TMC3     H13928   3.598   1.517  13.367  1.0753  0.2422 -0.8723
    8TMC3    H113929   3.269   1.633  13.148 -1.5521 -1.8011  0.8647
    8TMC3    H213930   3.654   1.644  12.962  2.3839  0.4432  1.6322
    8TMC3    C713931   3.392   1.756  12.971  0.0924 -0.0048 -0.1993
    8TMC3    C813932   3.778   1.573  13.200  0.6450 -0.1863  0.6761
    8TMC3    O113933   3.302   1.810  13.032 -0.1064 -0.5067 -0.1601
    8TMC3    O213934   3.816   1.509  13.296  0.8923 -0.3665 -0.2357
    9TMC3    C113935   3.124   2.615  13.138 -0.1598 -0.3382  0.1221
    9TMC3    C213936   3.157   2.573  13.011 -0.1730  0.0191  0.1503
    9TMC3    C313937   3.247   2.469  13.014 -0.1392  0.5554 -0.1781
    9TMC3    C413938   3.160   2.555  13.254  0.1000  0.2684 -0.7900
    9TMC3    C513939   3.252   2.458  13.248 -0.5445 -0.4422  0.8095
    9TMC3    C613940   3.293   2.413  13.128 -0.2871  0.5647 -0.1806
    9TMC3     C13941   3.042   2.733  13.154 -0.3778 -0.2106 -0.3819
    9TMC3     O13942   3.036   2.809  13.057  0.3002 -0.0062 -0.9262
    9TMC3     H13943   3.132   2.628  12.921 -3.2928 -0.8966  0.4713
    9TMC3    H113944   3.130   2.596  13.349  1.7771 -1.0544  0.3063
    9TMC3    H213945   3.380   2.349  13.117 -0.9429 -0.3177 -0.1626
    9TMC3    C713946   3.267   2.368  13.363 -0.2559 -0.3322 -0.1323
    9TMC3    C813947   3.291   2.405  12.886 -0.2934 -0.5862  0.1204
    9TMC3    O113948   3.236   2.409  13.473  0.4187  0.1495 -0.4625
    9TMC3    O213949   3.304   2.469  12.784  0.0149 -0.1125 -0.3414
   10MPD2     C13950   3.510   1.973  12.702 -0.8448  0.2184 -0.5736
   10MPD2    C113951   3.440   1.940  12.812  0.3025 -0.0777  0.3291
   10MPD2    C213952   3.370   2.045  12.878 -0.5702  0.1586 -0.7156
   10MPD2    C313953   3.366   2.171  12.826  0.5727 -0.3181 -0.2810
   10MPD2    C413954   3.432   2.198  12.713  0.4019 -0.0251 -0.3568
   10MPD2    C513955   3.509   2.101  12.658 -0.6569 -0.3095 -0.4078
   10MPD2     H13956   3.338   2.021  12.979 -0.6539  0.0142 -0.7757
   10MPD2    H113957   3.437   2.296  12.667  1.6029 -0.2030 -0.5992
   10MPD2    H213958   3.579   1.906  12.651 -0.0654  1.8548 -1.6537
   10MPD2    H313959   3.556   2.121  12.562 -0.5507 -0.8696 -0.4724
   10MPD2     N13960   3.303   2.270  12.902  0.0902 -0.4013 -0.2172
   10MPD2    H513961   3.257   2.243  12.988  1.2594  0.3166  0.6267
   10MPD2    N113962   3.466   1.811  12.871  1.0363 -0.7402 -0.0853
   10MPD2    H713963   3.519   1.746  12.815  1.1640 -2.1271  1.6389
   11MPD2     C13964   4.193   1.004  13.962  0.4326 -0.3688  0.3073
   11MPD2    C113965   4.288   1.093  14.020 -0.1843  0.7731  0.2120
   11MPD2    C213966   4.330   1.198  13.951 -1.3193 -0.8238 -0.0701
   11MPD2    C313967   4.292   1.211  13.818 -1.0279 -0.7059  0.6479
   11MPD2    C413968   4.203   1.122  13.764 -0.5682  0.0216 -0.1132
   11MPD2    C513969   4.149   1.022  13.834 -0.5346 -0.6677  0.1854
   11MPD2     H13970   4.403   1.265  13.996 -0.2122 -1.6341 -0.6755
   11MPD2    H113971   4.176   1.143  13.661  0.1604  2.0455  0.1120
   11MPD2    H213972   4.173   0.903  13.997 -2.7562  0.8107  1.9304
   11MPD2    H313973   4.081   0.956  13.782  1.0225  0.3061 -3.1179
   11MPD2     N13974   4.346   1.310  13.741  0.2383  0.5015 -0.0545
   11MPD2    H513975   4.318   1.305  13.643 -2.1501  2.2065  0.5242
   11MPD2    N113976   4.337   1.079  14.151  0.2161 -0.1042 -0.0456
   11MPD2    H713977   4.405   1.146  14.185 -3.2966  3.8993 -0.9490
    1MPD1     C13978   1.277   1.989  17.442 -0.0066 -0.5118  0.0694
    1MPD1    C113979   1.185   2.055  17.365  0.1583  0.1090  0.0068
    1MPD1    C213980   1.224   2.085  17.238 -0.1928  0.1021  0.3757
    1MPD1    C313981   1.350   2.055  17.190 -1.0327  0.3436  0.4758
    1MPD1    C413982   1.438   1.984  17.267  0.4206 -0.1177  0.6350
    1MPD1    C513983   1.395   1.957  17.393 -0.0592 -0.2533 -0.3974
    1MPD1     H13984   1.156   2.126  17.164 -2.2962 -1.0917  1.6635
    1MPD1    H113985   1.538   1.956  17.236  0.1568 -0.4319  0.0646
    1MPD1    H213986   1.253   1.943  17.537  0.5742  0.4644  0.6849
    1MPD1    H313987   1.447   1.894  17.464 -1.6494  1.2319  2.0985
    1MPD1     N13988   1.401   2.087  17.063 -0.1479 -0.5197  0.4233
    1MPD1    H513989   1.499   2.066  17.048 -0.0881  0.4093 -0.5826
    1MPD1    N113990   1.046   2.062  17.406  0.2600  0.0672 -0.1701
    1MPD1    H613991   1.006   2.145  17.364  0.3741  0.2636  0.1130
    1MPD1    H713992   1.032   2.071  17.506 -0.7485 -1.6183 -0.1589
    2MPD1     C13993   2.129   2.567  17.027  0.1227  0.0899  0.5869
    2MPD1    C113994   2.011   2.617  17.076 -0.1401 -0.1994 -0.5343
    2MPD1    C213995   1.892   2.567  17.030  0.7078  0.0269 -0.3956
    2MPD1    C313996   1.888   2.461  16.935 -0.8140  0.4690 -0.0726
    2MPD1    C413997   2.008   2.413  16.881  0.3707  0.6452  0.0335
    2MPD1    C513998   2.122   2.471  16.932 -0.1312 -0.3551  0.0645
    2MPD1     H13999   1.801   2.606  17.075 -0.4930  0.2504 -3.0563
    2MPD1    H114000   2.004   2.330  16.813 -1.5789  1.2447 -0.5853
    2MPD1    H214001   2.224   2.605  17.065  0.2552 -1.8016  2.1203
    2MPD1    H314002   2.214   2.428  16.893 -1.6361 -1.2018 -2.5040
    2MPD1     N14003   1.767   2.411  16.898 -0.4889 -0.3966 -0.2190
    2MPD1    H514004   1.687   2.443  16.951  0.5159  0.5704  0.7003
    2MPD1    N114005   2.016   2.712  17.180  0.1397 -0.0442 -0.2611
    2MPD1    H614006   1.939   2.778  17.171  0.2714  0.0317 -0.8696
    2MPD1    H714007   2.101   2.769  17.176 -0.4368  0.8738  0.8044
    3TMC3    C114008   1.606   2.307  16.763  0.2291 -0.3587  0.4793
    3TMC3    C214009   1.547   2.313  16.639 -0.0689 -0.1327  0.4120
    3TMC3    C314010   1.414   2.276  16.626  0.1169  0.0086 -0.3838
    3TMC3    C414011   1.535   2.251  16.872 -0.4133 -0.8388 -0.4396
    3TMC3    C514012   1.407   2.199  16.852  0.2224  0.6572  0.0023
    3TMC3    C614013   1.337   2.216  16.727  0.1203 -0.0288 -0.5225
    3TMC3     C14014   1.739   2.364  16.775 -0.5672  0.3876  0.0592
    3TMC3     O14015   1.808   2.376  16.676  0.1383  0.2460  0.0758
    3TMC3     H14016   1.612   2.322  16.553 -0.0596 -0.8551  0.3510
    3TMC3    H114017   1.574   2.248  16.973 -1.4497  1.3131  0.0310
    3TMC3    H214018   1.229   2.201  16.725 -0.0946  1.3333  0.6539
    3TMC3    C714019   1.326   2.152  16.967 -0.7516 -0.0994  0.1762
    3TMC3    C814020   1.351   2.284  16.497  0.5379  0.6099 -0.0849
    3TMC3    O114021   1.213   2.196  16.959 -0.2330 -0.1509  0.1815
    3TMC3    O214022   1.267   2.197  16.474  0.1919 -0.3561 -0.5200
    4MPD1     C14023   1.277   2.515  16.047 -0.3078  0.0188  0.0922
    4MPD1    C114024   1.394   2.564  16.105  0.0597  0.0317 -0.0349
    4MPD1    C214025   1.411   2.543  16.235  0.3025  0.2963 -0.4623
    4MPD1    C314026   1.349   2.439  16.302  0.2811  0.0462  0.3711
    4MPD1    C414027   1.237   2.385  16.241 -0.1290  0.3846 -0.1289
    4MPD1    C514028   1.196   2.439  16.118  0.3240 -0.6661  0.3571
    4MPD1     H14029   1.504   2.578  16.278  1.9091 -0.0815 -3.5890
    4MPD1    H114030   1.181   2.315  16.302  1.9608 -0.0688  1.2574
    4MPD1    H214031   1.247   2.553  15.950 -1.6933  1.1357  0.9615
    4MPD1    H314032   1.105   2.403  16.071 -0.2850  3.2036 -1.3584
    4MPD1     N14033   1.401   2.390  16.423 -0.0686  0.4728 -0.8135
    4MPD1    H514034   1.480   2.439  16.463  0.6236  0.6925 -2.4669
    4MPD1    N114035   1.466   2.662  16.041  0.2970  0.0506 -0.1095
    4MPD1    H614036   1.564   2.664  16.069  0.9935  2.5186 -2.7331
    4MPD1    H714037   1.470   2.646  15.940  2.4523  0.3028 -0.0655
    1TCq1    O114038   3.605   2.523  11.261  0.2021  0.6172  0.2509
    1TCq1    C114039   3.483   2.502  11.311  1.2813 -0.0128 -0.0775
    1TCq1    O214040   3.451   2.510  11.429  0.4587  0.4597 -0.1740
    1TCq1    C214041   3.406   2.413  11.217  0.1633 -0.1826  1.0271
    1TCq1    C314042   3.326   2.308  11.265  0.1588 -0.6128  0.8719
    1TCq1    C414043   3.264   2.233  11.173  0.5005 -0.5361 -0.7904
    1TCq1    C514044   3.229   2.280  11.049  0.2462 -0.7259  0.2494
    1TCq1    C614045   3.288   2.402  11.015 -0.1212 -0.0506 -1.0231
    1TCq1    C714046   3.388   2.460  11.089  0.2612  0.4234  0.3904
    1TCq1    C814047   3.253   2.463  10.891  0.4183  0.2257  0.1108
    1TCq1    O414048   3.340   2.537  10.846  0.3356  0.0994  0.4479
    1TCq1    C914049   3.178   2.132  11.221  0.0646  0.4015  0.3641
    1TCq1    O514050   3.069   2.123  11.158 -0.1168  0.0154  0.3941
    1TCq1    O614051   3.225   2.042  11.289  0.1723  0.0968  0.1007
    1TCq1    H114052   3.621   2.483  11.173  2.5821  1.4008  0.3282
    1TCq1    H214053   3.369   2.265  11.355  1.5841 -0.3346  0.3350
    1TCq1    H314054   3.150   2.231  10.992 -0.2994  0.9502 -0.4581
    1TCq1    H414055   3.439   2.552  11.063 -1.0998  1.0770  0.0519
    2MPD1     C14056   2.911   2.581  10.516  0.6567 -0.0355 -0.8066
    2MPD1    C114057   2.860   2.480  10.593  0.0309  1.5715 -0.2554
    2MPD1    C214058   2.930   2.446  10.708 -0.1048  0.0866 -0.2383
    2MPD1    C314059   3.053   2.500  10.740  0.3122 -0.2210  0.0434
    2MPD1    C414060   3.105   2.599  10.664 -0.0218 -0.2829  0.0264
    2MPD1    C514061   3.031   2.638  10.552  0.5868 -0.2327 -1.0554
    2MPD1     H14062   2.903   2.356  10.763  0.4965  0.0419 -0.0129
    2MPD1    H114063   3.198   2.648  10.687  0.2673 -0.4795 -0.7237
    2MPD1    H214064   2.859   2.631  10.435 -2.8231 -1.9859  0.2515
    2MPD1    H314065   3.077   2.721  10.500  1.7712  0.4666  1.0909
    2MPD1     N14066   3.125   2.438  10.850  0.1788  0.0843  0.0873
    2MPD1    H514067   3.069   2.390  10.920 -0.5117  2.6969  1.3249
    2MPD1    N114068   2.753   2.399  10.544 -0.7497  0.2314  1.0022
    2MPD1    H614069   2.694   2.362  10.618 -0.5090 -2.4909 -0.1655
    2MPD1    H714070   2.695   2.445  10.474 -2.0600 -1.0817  1.2132
    1TCq1    O114071   2.820   4.118   1.368 -1.0375 -0.7852 -0.1765
    1TCq1    C114072   2.806   4.219   1.278 -0.7522  0.0290  0.6313
    1TCq1    O214073   2.708   4.225   1.202  0.4355  0.4740 -0.9509
    1TCq1    C214074   2.892   4.323   1.324 -0.0674  0.2075  0.2635
    1TCq1    C314075   3.015   4.299   1.375  0.3426 -0.2103  0.0623
    1TCq1    C414076   3.102   4.404   1.387  0.6651  0.6207 -0.2399
    1TCq1    C514077   3.066   4.524   1.337 -0.3482  0.0492  0.0194
    1TCq1    C614078   2.939   4.546   1.302  0.3604 -0.3602  0.5952
    1TCq1    C714079   2.847   4.449   1.292 -0.0557  0.4731  0.3340
    1TCq1    C814080   2.900   4.676   1.259 -0.6382 -0.2923  0.2300
    1TCq1    O414081   2.826   4.670   1.159  0.2651  0.3828 -0.8113
    1TCq1    C914082   3.240   4.372   1.389  0.3222 -0.4503  0.5135
    1TCq1    O514083   3.285   4.257   1.412  0.4083 -0.3687 -0.2733
    1TCq1    O614084   3.322   4.467   1.381  0.2767 -0.3356 -0.3771
    1TCq1    H114085   2.877   4.144   1.443 -0.2159 -0.3009 -0.9625
    1TCq1    H214086   3.048   4.196   1.371  1.3073  0.1300 -0.9319
    1TCq1    H314087   3.146   4.596   1.323 -0.9392  0.6070 -0.5099
    1TCq1    H414088   2.746   4.476   1.264  0.4539 -0.1978 -2.1265
    2MPD1     C14089   2.936   0.475   1.291  0.5586 -0.0694  0.0847
    2MPD1    C114090   2.988   0.416   1.407 -0.1390 -0.3988  0.3896
    2MPD1    C214091   2.995   0.273   1.417 -0.2269 -0.1997  0.7191
    2MPD1    C314092   2.944   0.195   1.317  0.2775  0.2333  0.6963
    2MPD1    C414093   2.888   0.254   1.208 -0.4473 -0.3833 -0.6040
    2MPD1    C514094   2.881   0.393   1.196  0.2376  0.5754 -0.4829
    2MPD1     H14095   3.012   0.229   1.514 -2.9948  0.8591  1.6711
    2MPD1    H114096   2.839   0.194   1.132 -0.3414 -0.7997 -0.3440
    2MPD1    H214097   2.932   0.583   1.282  0.8712  0.0077  0.9058
    2MPD1    H314098   2.841   0.436   1.105 -4.1323 -0.1092  1.0824
    2MPD1     N14099   2.947   0.057   1.337 -0.5757 -0.6207 -0.4020
    2MPD1    H514100   2.998   0.031   1.421 -0.9900 -0.6928 -0.1744
    2MPD1    N114101   3.011   0.505   1.515  0.5558  0.5825  0.3651
    2MPD1    H614102   3.097   0.483   1.564  0.4102 -0.7141  0.0379
    2MPD1    H714103   3.029   0.595   1.472  1.9642 -0.3333 -0.9228
    1MPD1     C14104   0.927   1.541  12.283 -0.3274 -0.1782  0.4156
    1MPD1    C114105   0.920   1.556  12.149  0.6020  0.0295 -0.8896
    1MPD1    C214106   0.818   1.639  12.098  0.1287  0.0552 -0.3828
    1MPD1    C314107   0.718   1.694  12.187  0.4174 -0.1297  0.2388
    1MPD1    C414108   0.727   1.665  12.324  0.4067  0.2549  0.1264
    1MPD1    C514109   0.838   1.597  12.364 -0.8708 -0.1093  0.0340
    1MPD1     H14110   0.814   1.658  11.991  0.4639  1.9959 -0.0576
    1MPD1    H114111   0.659   1.716  12.392  1.5052 -0.6330  1.8822
    1MPD1    H214112   1.006   1.478  12.323 -0.5436 -0.1819  0.8429
    1MPD1    H314113   0.855   1.587  12.471 -1.0501  1.8832  0.2469
    1MPD1     N14114   0.623   1.775  12.128  0.5903  0.3171 -0.3643
    1MPD1    H514115   0.617   1.779  12.027  0.5682 -1.9528 -0.4548
    1MPD1    N114116   1.024   1.511  12.069  1.1316  0.5694 -0.1622
    1MPD1    H614117   0.979   1.493  11.980 -2.6609  2.1074  1.4357
    1MPD1    H714118   1.058   1.420  12.098 -1.8821 -0.6564 -0.5399
    2MPD1     C14119   3.989   3.012  11.720 -0.1624  0.0756 -0.2440
    2MPD1    C114120   3.955   2.887  11.678  0.8791 -0.5189  0.3940
    2MPD1    C214121   4.023   2.839  11.566 -0.2297  0.0835 -0.3154
    2MPD1    C314122   4.114   2.917  11.492 -0.7662  0.3178 -0.0928
    2MPD1    C414123   4.136   3.045  11.538  0.4473 -0.1526 -0.2306
    2MPD1    C514124   4.071   3.097  11.652 -0.0630  0.2500  0.0209
    2MPD1     H14125   3.994   2.738  11.539 -1.4664  0.2408  0.4161
    2MPD1    H114126   4.206   3.110  11.486 -0.8220  1.0657 -0.4129
    2MPD1    H214127   3.959   3.062  11.812  0.4147 -1.8222  0.9612
    2MPD1    H314128   4.083   3.200  11.686  0.7039  0.3740 -0.6437
    2MPD1     N14129   4.180   2.875  11.379 -0.7294 -0.1308 -0.2702
    2MPD1    H514130   4.239   2.941  11.328 -0.8813  0.7912  0.7518
    2MPD1    N114131   3.885   2.800  11.761  0.3210 -0.0117  1.1662
    2MPD1    H614132   3.822   2.740  11.709  1.8094  0.5483 -1.2792
    2MPD1    H714133   3.830   2.853  11.828 -0.7388  0.9207 -0.4372
    3MPD1     C14134   4.088   2.202  10.587  0.0771  0.1201  0.1378
    3MPD1    C114135   4.017   2.189  10.703 -0.4201  0.7255 -0.6189
    3MPD1    C214136   4.040   2.295  10.794 -0.5507  0.4259  0.3283
    3MPD1    C314137   4.119   2.404  10.764 -0.0859 -0.4140  0.4341
    3MPD1    C414138   4.192   2.406  10.648 -0.0275  0.1314 -0.4244
    3MPD1    C514139   4.177   2.301  10.565  0.3588  1.0458  0.2153
    3MPD1     H14140   3.994   2.296  10.892  0.0804 -0.0522  0.6313
    3MPD1    H114141   4.249   2.492  10.615  3.0513 -1.6464  0.2504
    3MPD1    H214142   4.070   2.134  10.504  2.4304  0.9798 -1.0679
    3MPD1    H314143   4.221   2.304  10.465 -1.6781 -1.1760 -0.7585
    3MPD1     N14144   4.147   2.503  10.862 -0.2097  0.2734 -0.4972
    3MPD1    H514145   4.098   2.496  10.950 -0.4640  0.3269 -0.6338
    3MPD1    N114146   3.905   2.109  10.725  0.1800  0.1879  0.1118
    3MPD1    H614147   3.886   2.096  10.824  0.9779 -1.5187  0.0306
    3MPD1    H714148   3.902   2.024  10.669 -0.2224  0.5352 -0.3927
    4MPD2     C14149   0.330   2.564  12.061  0.1216  0.2373 -0.3253
    4MPD2    C114150   0.364   2.469  11.970 -0.2405 -0.1813 -0.1880
    4MPD2    C214151   0.421   2.514  11.856  0.0147  0.4501  0.1430
    4MPD2    C314152   0.428   2.649  11.827 -0.0529  0.5959 -0.1585
    4MPD2    C414153   0.370   2.743  11.915 -0.1854 -0.1825  0.3142
    4MPD2    C514154   0.326   2.701  12.037 -0.2247 -1.0501 -0.1065
    4MPD2     H14155   0.471   2.439  11.795 -0.0694  1.0087 -0.6104
    4MPD2    H114156   0.372   2.849  11.897 -1.9320 -0.3217 -0.7628
    4MPD2    H214157   0.277   2.529  12.149  0.8885 -1.5251 -0.5525
    4MPD2    H314158   0.271   2.769  12.101  0.0640 -1.5237  0.6437
    4MPD2     N14159   0.493   2.680  11.705 -0.4336  0.3416  0.4344
    4MPD2    H514160   0.527   2.599  11.654  1.3836 -0.0183  2.2225
    4MPD2    N114161   0.353   2.327  11.983  0.1991  0.2291  0.3918
    4MPD2    H714162   0.380   2.281  11.897 -2.4996  0.3975 -0.5417
    5TMC3    C114163   0.297   2.113  12.060 -0.6223 -0.3874 -0.0406
    5TMC3    C214164   0.375   2.039  12.149 -1.0747  0.4282  0.1921
    5TMC3    C314165   0.463   1.949  12.101  0.1188 -0.0610  0.5385
    5TMC3    C414166   0.310   2.095  11.922  0.3266  0.1641 -0.1041
    5TMC3    C514167   0.409   2.015  11.881 -0.0730  0.0667  0.5222
    5TMC3    C614168   0.493   1.961  11.969 -0.7569 -0.2667 -0.0291
    5TMC3     C14169   0.308   2.258  12.091  0.3921 -0.7179 -0.0407
    5TMC3     O14170   0.284   2.311  12.201 -0.1608 -0.0450  0.1320
    5TMC3     H14171   0.366   2.058  12.256 -1.2190 -0.2615  0.3056
    5TMC3    H114172   0.241   2.139  11.851 -0.3604 -1.2436 -0.3116
    5TMC3    H214173   0.575   1.906  11.924 -2.3347 -3.3035  0.8239
    5TMC3    C714174   0.472   2.068  11.761 -0.1928 -0.3749 -0.0171
    5TMC3    C814175   0.544   1.868  12.192 -0.3159 -0.0674  0.4691
    5TMC3    O114176   0.421   2.174  11.722  0.5082  0.1302 -0.2143
    5TMC3    O214177   0.529   1.874  12.315  1.0855 -0.4992 -0.1653
    6TMC3    C114178   4.231   2.752  11.191  0.2121  0.2195  0.2931
    6TMC3    C214179   4.183   2.691  11.073 -0.2592  0.6801 -0.0139
    6TMC3    C314180   4.279   2.658  10.980  0.7122  0.2846 -0.3737
    6TMC3    C414181   4.363   2.746  11.226 -0.3845  0.1307  0.0064
    6TMC3    C514182   4.455   2.718  11.127 -0.5180  0.1869 -0.1090
    6TMC3    C614183   4.414   2.682  11.002  0.4502  0.0374  0.5770
    6TMC3     C14184   4.144   2.762  11.309 -0.3366  0.2109  0.1193
    6TMC3     O14185   4.048   2.684  11.326  0.0176  0.2112 -0.5198
    6TMC3     H14186   4.076   2.680  11.062 -0.2808 -0.7844  1.6829
    6TMC3    H114187   4.387   2.771  11.328 -1.1949 -1.3631  0.5587
    6TMC3    H214188   4.485   2.654  10.925 -0.0570 -1.1662  0.5520
    6TMC3    C714189   4.592   2.765  11.156  0.1689 -0.6001 -0.9208
    6TMC3    C814190   4.246   2.592  10.853 -0.9206  0.1360  0.0316
    6TMC3    O114191   4.637   2.747  11.272 -0.3148 -0.0080  0.0157
    6TMC3    O214192   4.339   2.604  10.770 -0.0176 -0.6224  0.2443
    7MPD2     C14193   0.822   2.136  11.402  0.0008 -0.5838  0.6157
    7MPD2    C114194   0.734   2.225  11.459 -0.2951  0.3158 -0.5447
    7MPD2    C214195   0.659   2.181  11.566  0.1540  0.6085 -0.2391
    7MPD2    C314196   0.654   2.044  11.595  0.1865 -0.4638  0.2211
    7MPD2    C414197   0.741   1.961  11.531 -0.2578  0.1803  0.0534
    7MPD2    C514198   0.820   2.004  11.428  0.8361  0.3413 -0.3684
    7MPD2     H14199   0.599   2.246  11.629  1.0814 -1.1709  2.5043
    7MPD2    H114200   0.745   1.855  11.553  2.3014  0.1686 -0.4470
    7MPD2    H214201   0.894   2.172  11.329  0.1290  0.3833  1.2226
    7MPD2    H314202   0.873   1.936  11.363 -0.7765 -0.9214 -0.3586
    7MPD2     N14203   0.572   1.997  11.703  0.1947 -0.0395  0.7916
    7MPD2    H514204   0.591   1.906  11.743 -0.2289  0.8344  2.9776
    7MPD2    N114205   0.753   2.363  11.420 -0.6437  0.2364 -0.3348
    7MPD2    H714206   0.812   2.394  11.343  0.5281 -3.5456 -0.9694
    8TMC3    C114207   0.726   2.596  11.444 -0.5086 -0.1712  0.5355
    8TMC3    C214208   0.671   2.644  11.330 -0.2380  0.4140 -1.1670
    8TMC3    C314209   0.612   2.768  11.331 -0.6571  0.2242 -0.7127
    8TMC3    C414210   0.705   2.671  11.561 -0.5359  0.0548 -0.4183
    8TMC3    C514211   0.628   2.783  11.556 -0.3356  0.1725 -0.2271
    8TMC3    C614212   0.584   2.839  11.442  0.4308 -0.6963  0.4527
    8TMC3     C14213   0.677   2.464  11.473  0.4865  0.2533  0.3289
    8TMC3     O14214   0.588   2.459  11.554  0.1648 -0.4026  0.3559
    8TMC3     H14215   0.672   2.577  11.245  0.9138  0.0042 -0.8329
    8TMC3    H114216   0.754   2.646  11.655 -2.6513 -4.3968 -0.4811
    8TMC3    H214217   0.527   2.931  11.445 -0.3814 -1.1845  0.0612
    8TMC3    C714218   0.543   2.800  11.668 -0.4734  0.1936  0.2159
    8TMC3    C814219   0.532   2.783  11.215  0.0599  0.1767 -0.3526
    8TMC3    O114220   0.529   2.916  11.702 -0.0272 -0.3370  0.0659
    8TMC3    O214221   0.597   2.744  11.115 -0.0750 -0.1394  0.0346
    9MPD2     C14222   0.348   2.840  10.994 -0.0938  0.7209  0.1206
    9MPD2    C114223   0.303   2.807  11.117  0.7798 -0.1480  0.6707
    9MPD2    C214224   0.165   2.787  11.133 -0.0657  0.5649 -0.2741
    9MPD2    C314225   0.074   2.790  11.030 -0.1491 -0.5998  0.2055
    9MPD2    C414226   0.129   2.813  10.900 -0.0277  0.2286  0.1165
    9MPD2    C514227   0.258   2.859  10.891 -0.2864  0.1053  0.3472
    9MPD2     H14228   0.123   2.788  11.233  1.4486 -1.5504  0.3950
    9MPD2    H114229   0.067   2.815  10.811 -0.5808 -1.6506  0.4427
    9MPD2    H214230   0.450   2.864  10.966 -0.5801 -0.6530 -2.8507
    9MPD2    H314231   0.305   2.897  10.801  1.2817 -0.2618  1.0065
    9MPD2     N14232   4.662   2.796  11.048  0.1513  0.2663  0.1705
    9MPD2    H514233   4.615   2.820  10.961 -0.0191 -0.0404  0.1750
    9MPD2    N114234   0.394   2.802  11.227 -0.2820  0.4463  0.0642
    9MPD2    H714235   0.353   2.782  11.318  1.4356 -1.2087  0.4821
    1MPD1     C14236   4.597   2.037  17.488 -0.3123  0.3011 -0.3564
    1MPD1    C114237   4.466   2.079  17.462 -0.4518  0.5537 -0.0308
    1MPD1    C214238   4.367   1.986  17.428 -0.1252  0.1588  0.3234
    1MPD1    C314239   4.394   1.852  17.416 -0.5894 -1.5548 -0.2950
    1MPD1    C414240   4.523   1.812  17.456  0.1618  0.1767  0.2540
    1MPD1    C514241   4.623   1.901  17.478  0.0915 -0.5460 -0.3952
    1MPD1     H14242   4.269   2.019  17.395  0.9262  2.1136 -0.8391
    1MPD1    H114243   4.540   1.705  17.457 -0.4164  0.0805 -0.2317
    1MPD1    H214244   4.682   2.102  17.509 -1.7252  1.8467  0.6224
    1MPD1    H314245   0.001   1.865  17.489  0.2964  0.3930  0.7850
    1MPD1     N14246   4.296   1.749  17.389 -0.1990 -0.2969 -0.1561
    1MPD1    H514247   4.329   1.653  17.396  0.5932 -0.0934 -1.1211
    1MPD1    N114248   4.437   2.215  17.472 -0.1450 -0.3880 -0.6570
    1MPD1    H614249   4.513   2.282  17.467 -0.8050  0.4135  0.0537
    1MPD1    H714250   4.358   2.237  17.412 -0.7170 -1.4186 -0.2855
    2MPD1     C14251   3.492   1.528  16.668  0.1828 -0.3268 -0.4786
    2MPD1    C114252   3.496   1.416  16.751 -0.4522 -0.0912  0.0355
    2MPD1    C214253   3.586   1.410  16.852 -0.5230  0.0696 -0.5133
    2MPD1    C314254   3.671   1.520  16.881 -0.1580  0.1168  0.0807
    2MPD1    C414255   3.648   1.639  16.810 -0.0763  0.0452 -0.2678
    2MPD1    C514256   3.563   1.644  16.705 -0.8760 -0.2570  0.5313
    2MPD1     H14257   3.608   1.316  16.902 -2.8215  0.2787  0.8908
    2MPD1    H114258   3.694   1.731  16.845 -2.6822  1.5111 -0.7493
    2MPD1    H214259   3.432   1.533  16.578 -0.5656 -1.5563 -0.0489
    2MPD1    H314260   3.539   1.735  16.652 -0.4985 -1.1154 -1.1171
    2MPD1     N14261   3.775   1.503  16.978 -0.1433 -0.1478 -0.1022
    2MPD1    H514262   3.771   1.419  17.034 -2.7387  0.5354  0.7152
    2MPD1    N114263   3.427   1.298  16.712 -0.0667  0.1027  0.3020
    2MPD1    H614264   3.340   1.313  16.661 -1.2859 -1.1221  1.9960
    2MPD1    H714265   3.385   1.259  16.797 -1.8292  1.6950  0.1755
    3TCq2    C114266   3.884   1.590  16.984  0.8424 -0.5276 -0.2006
    3TCq2    O214267   3.913   1.687  16.915 -0.1985 -0.5127 -0.6161
    3TCq2    C214268   3.973   1.555  17.100  0.5145  0.8120  0.0164
    3TCq2    C314269   3.945   1.453  17.182  0.6107 -0.4080  0.0496
    3TCq2    C414270   4.016   1.443  17.301 -0.0068  0.6610  0.7236
    3TCq2    C514271   4.108   1.541  17.339 -0.1546  0.3909 -0.0743
    3TCq2    C614272   4.118   1.652  17.264  0.0258  0.4759 -0.0536
    3TCq2    C714273   4.054   1.658  17.142  0.4839  0.0907  0.7248
    3TCq2    C814274   4.184   1.769  17.317 -0.1569 -0.5002 -0.0884
    3TCq2    O414275   4.160   1.863  17.241  0.0698 -0.2861 -0.1168
    3TCq2    C914276   4.003   1.327  17.379 -0.0424 -0.4211  0.2443
    3TCq2    O514277   4.106   1.287  17.430  0.3186 -0.2493 -0.0485
    3TCq2    O614278   3.893   1.268  17.364  0.0350 -0.7950 -0.0900
    3TCq2    H214279   3.874   1.377  17.154  1.2743 -0.8137 -0.5343
    3TCq2    H314280   4.171   1.529  17.427  1.3689 -1.6545 -1.4434
    3TCq2    H414281   4.080   1.741  17.077 -0.1507 -0.9411 -0.8493
    1TCq1    O114282   2.495   4.635  12.798  0.6762  0.2744  0.4596
    1TCq1    C114283   2.416   0.016  12.768 -0.5992  0.3644  0.4580
    1TCq1    O214284   2.307   0.008  12.720  0.0725  0.0819  0.3780
    1TCq1    C214285   2.432   0.096  12.885  0.1626 -0.2926  0.3040
    1TCq1    C314286   2.327   0.111  12.980 -0.3070 -0.0717  0.0178
    1TCq1    C414287   2.341   0.197  13.083 -0.0512 -0.2935 -0.3438
    1TCq1    C514288   2.457   0.269  13.095  0.1656  0.1303 -0.6905
    1TCq1    C614289   2.557   0.258  13.006 -0.3752  0.0862  0.3907
    1TCq1    C714290   2.547   0.170  12.898 -0.1742  0.3967 -0.4037
    1TCq1    C814291   2.680   0.333  13.043 -0.3392 -0.1516 -0.3318
    1TCq1    O414292   2.762   0.355  12.953 -0.0155 -0.4947  0.3713
    1TCq1    C914293   2.238   0.195  13.178 -0.4668 -0.3096  0.4367
    1TCq1    O514294   2.262   0.253  13.288  0.1611 -0.2670 -0.4986
    1TCq1    O614295   2.136   0.128  13.166 -0.6685 -0.1604  0.3453
    1TCq1    H114296   2.558   4.645  12.873  0.3470  0.2384  0.7438
    1TCq1    H214297   2.253   0.032  12.973  0.4597 -1.0869  3.2316
    1TCq1    H314298   2.457   0.343  13.174 -0.2865 -0.0728 -0.5047
    1TCq1    H414299   2.628   0.159  12.827  2.1168  0.6623  2.1868
    2MPD2     C14300   2.918   0.475  13.169 -0.0939  0.7048  0.4687
    2MPD2    C114301   2.811   0.420  13.236  0.4764  0.4077 -0.5379
    2MPD2    C214302   2.804   0.443  13.374  0.4545  0.2060  0.7737
    2MPD2    C314303   2.897   0.520  13.439 -0.9348 -0.1368 -0.0277
    2MPD2    C414304   3.008   0.565  13.368 -0.6452 -0.3764 -0.2175
    2MPD2    C514305   3.011   0.547  13.235 -0.0621 -0.0815  1.0697
    2MPD2     H14306   2.716   0.411  13.429  1.3329 -0.9807  1.4792
    2MPD2    H114307   3.075   0.634  13.417  0.2356 -2.4779  1.5208
    2MPD2    H214308   2.938   0.444  13.067  0.5449  1.1416  0.4616
    2MPD2    H314309   3.098   0.596  13.193 -0.5026  1.0560  1.4827
    2MPD2     N14310   2.882   0.539  13.578 -0.4949  0.2202  0.6894
    2MPD2    H514311   2.792   0.537  13.624 -0.5520  1.8058  0.6404
    2MPD2    N114312   2.699   0.355  13.178  0.0914 -0.2740  0.0295
    2MPD2    H714313   2.629   0.324  13.244  0.5409 -1.5585 -0.1015
    3TCq1    O114314   2.645   0.798  14.064 -0.0504  0.0630  0.1961
    3TCq1    C114315   2.678   0.672  14.016 -0.0428 -0.4794 -0.3893
    3TCq1    O214316   2.600   0.601  13.948  0.1222 -0.2552  0.4734
    3TCq1    C214317   2.823   0.683  13.982  0.5268 -0.2438  0.6039
    3TCq1    C314318   2.907   0.629  14.066  0.3076  0.5036 -0.2360
    3TCq1    C414319   3.025   0.579  14.019  0.3052  0.0930  0.3695
    3TCq1    C514320   3.056   0.578  13.887  0.1235  0.7477 -0.1427
    3TCq1    C614321   2.950   0.611  13.803  0.3147  0.2916 -0.2445
    3TCq1    C714322   2.843   0.684  13.852  0.5066 -0.3150 -0.0676
    3TCq1    C814323   2.980   0.599  13.658 -0.0542 -0.0333 -0.4564
    3TCq1    O414324   3.101   0.594  13.633  0.5428  0.3733  0.2132
    3TCq1    C914325   3.108   0.492  14.106  0.0745  0.1063  0.2304
    3TCq1    O514326   3.193   0.417  14.054 -0.4974  0.1758 -0.0617
    3TCq1    O614327   3.062   0.485  14.222 -0.2943  0.1322 -1.1179
    3TCq1    H114328   2.720   0.847  14.104  2.7551 -3.1488 -1.1649
    3TCq1    H214329   2.878   0.622  14.170  1.9465 -0.2887  0.1692
    3TCq1    H314330   3.149   0.532  13.856 -1.8442 -1.1729 -3.2312
    3TCq1    H414331   2.765   0.728  13.792  2.0361  1.1296 -1.0094
    1MPD2     C14332   2.513   1.383  14.664  0.2262  0.0907  0.6185
    1MPD2    C114333   2.416   1.288  14.665 -0.3550  0.1777 -0.7980
    1MPD2    C214334   2.427   1.186  14.759 -0.8021 -0.2988 -0.3758
    1MPD2    C314335   2.532   1.191  14.852 -0.2907  0.0645  0.0277
    1MPD2    C414336   2.625   1.293  14.843 -0.3533 -0.0112 -0.3730
    1MPD2    C514337   2.610   1.387  14.752  0.0665  1.1362 -0.0159
    1MPD2     H14338   2.363   1.099  14.772 -2.2454  0.8384  0.0964
    1MPD2    H114339   2.711   1.295  14.909 -0.5582  1.7829 -0.1654
    1MPD2    H214340   2.518   1.449  14.578  0.0653 -0.1025  0.4599
    1MPD2    H314341   2.678   1.471  14.745  1.0654  0.2369 -1.1175
    1MPD2     N14342   2.523   1.090  14.943 -0.8249  0.5861  0.0965
    1MPD2    H514343   2.442   1.030  14.941  0.0298 -0.5833  0.6279
    1MPD2    N114344   2.314   1.292  14.556  0.2651  0.1999  0.0968
    1MPD2    H714345   2.316   1.375  14.497  1.1422  1.1009  1.3980
    2TMC3    C114346   2.143   1.226  14.416 -0.8512 -0.6562 -0.6065
    2TMC3    C214347   2.069   1.113  14.398 -0.3254 -0.3800  0.4949
    2TMC3    C314348   1.930   1.110  14.400 -0.0742  0.3526  0.5017
    2TMC3    C414349   2.084   1.351  14.422  0.6289 -0.0084  0.2120
    2TMC3    C514350   1.948   1.349  14.415 -0.4021 -0.8024 -0.3364
    2TMC3    C614351   1.874   1.235  14.406 -0.3393  0.1225 -0.4408
    2TMC3     C14352   2.226   1.201  14.530  0.8490 -0.7597  0.2537
    2TMC3     O14353   2.209   1.088  14.577 -0.0659 -0.2166 -0.6373
    2TMC3     H14354   2.122   1.020  14.378 -1.0633 -1.2656  2.5893
    2TMC3    H114355   2.149   1.435  14.443 -0.6318  0.4431  2.3982
    2TMC3    H214356   1.767   1.240  14.425  0.5263  1.7349  4.0018
    2TMC3    C714357   1.880   1.475  14.420  0.1151 -0.7509 -0.5537
    2TMC3    C814358   1.867   1.010  14.477  1.0499  0.0153 -0.6374
    2TMC3    O114359   1.761   1.465  14.448  0.1686  0.2932 -0.4842
    2TMC3    O214360   1.763   0.963  14.446 -0.5122 -0.1031 -0.6007
    3TCq1    O114361   2.246   2.514  15.003 -0.6628 -0.1669 -0.1802
    3TCq1    C114362   2.303   2.493  14.883  0.6303  0.0351  0.3452
    3TCq1    O214363   2.370   2.577  14.825  0.0737  0.0246 -0.5355
    3TCq1    C214364   2.297   2.349  14.861  0.4031  0.2197 -0.3433
    3TCq1    C314365   2.412   2.276  14.881  0.3019  0.4899 -0.4685
    3TCq1    C414366   2.397   2.136  14.859  0.0765  0.3064 -0.7940
    3TCq1    C514367   2.276   2.083  14.827 -0.0819 -0.5029 -0.0047
    3TCq1    C614368   2.170   2.168  14.806 -0.2159  0.3775 -0.2159
    3TCq1    C714369   2.178   2.302  14.826  0.6262  0.1461  0.1812
    3TCq1    C814370   2.054   2.127  14.728 -0.5037  0.0287  0.2664
    3TCq1    O414371   1.956   2.194  14.739  0.0253 -0.5047 -0.0829
    3TCq1    C914372   2.510   2.051  14.880  0.5418  0.0115  0.2650
    3TCq1    O514373   2.607   2.095  14.948  0.4271 -0.2171 -0.5794
    3TCq1    O614374   2.498   1.925  14.859  0.2213  0.7764 -0.3205
    3TCq1    H114375   2.225   2.428  15.046 -0.9517  1.1428  2.2524
    3TCq1    H214376   2.503   2.320  14.919  1.3150 -0.5225 -1.7357
    3TCq1    H314377   2.262   1.976  14.824 -1.3870 -0.2724 -2.1392
    3TCq1    H414378   2.098   2.368  14.794  0.9508  0.1137 -0.6922
    4MPD2     C14379   1.833   1.947  14.613 -0.0485 -0.0374 -0.1252
    4MPD2    C114380   1.971   1.923  14.607  1.2525  0.2658 -0.4994
    4MPD2    C214381   2.009   1.800  14.546  0.6564  0.3792  0.0558
    4MPD2    C314382   1.917   1.710  14.488 -0.1307 -0.6927  0.2107
    4MPD2    C414383   1.783   1.759  14.473  0.4148 -1.0460  0.4098
    4MPD2    C514384   1.750   1.872  14.536  0.8496 -0.0694  0.3303
    4MPD2     H14385   2.113   1.772  14.541  0.5649 -0.0187  0.4366
    4MPD2    H114386   1.703   1.706  14.422 -0.6280 -0.8938  1.9005
    4MPD2    H214387   1.795   2.033  14.666  1.0275 -0.0242  0.6312
    4MPD2    H314388   1.647   1.904  14.533  0.5967 -0.9781 -0.7106
    4MPD2     N14389   1.962   1.583  14.440 -0.1198  0.0029  0.4430
    4MPD2    H514390   2.061   1.564  14.448  0.2540  0.7733 -2.5208
    4MPD2    N114391   2.071   2.000  14.678  0.2691  0.3345  0.7770
    4MPD2    H714392   2.164   1.960  14.684 -0.4858 -1.0099  3.4295
    5TMC2    C114393   2.322   0.864  15.103 -0.0562  0.2625  0.2431
    5TMC2    C214394   2.380   0.742  15.111 -0.4582 -0.4315  0.1616
    5TMC2    C314395   2.514   0.740  15.131 -0.2214  0.4931  0.0912
    5TMC2    C414396   2.402   0.979  15.133 -0.4937  0.2517 -0.5135
    5TMC2    C514397   2.540   0.974  15.132  0.6314  0.5624  0.3684
    5TMC2    C614398   2.595   0.849  15.133 -0.0532 -0.0196  0.0485
    5TMC2     C14399   2.209   0.888  15.016  0.0478  0.1137 -0.2207
    5TMC2     O14400   2.211   1.001  14.968  0.1885 -0.3943  0.2058
    5TMC2     H14401   2.335   0.653  15.069 -0.1615 -0.2749 -0.4834
    5TMC2    H114402   2.346   1.070  15.124 -1.2532 -0.2337 -0.6628
    5TMC2    H214403   2.698   0.824  15.107 -0.2749 -0.9908  0.1327
    5TMC2    C714404   2.613   1.069  15.041  0.2982  0.2055  0.4437
    5TMC2    C814405   2.584   0.623  15.103  0.1506  0.4667 -0.5524
    5TMC2    O114406   2.709   1.132  15.082  0.6614 -0.2546  0.4303
    5TMC2    O214407   2.541   0.552  15.016 -0.0873 -0.2085  0.3577
    5TMC2    O514408   2.654   0.583  15.212 -0.1445  0.0247  0.3438
    5TMC2    H514409   2.656   0.644  15.289 -2.6071  1.4675 -0.7210
    6MPD2     C14410   1.845   0.800  14.681 -0.0060 -0.1408  0.2655
    6MPD2    C114411   1.949   0.886  14.674 -0.3849  0.2256 -0.0111
    6MPD2    C214412   2.049   0.880  14.769 -0.3423 -0.3667 -0.0811
    6MPD2    C314413   2.040   0.789  14.875 -0.0485  0.9945 -0.2657
    6MPD2    C414414   1.937   0.694  14.873 -0.5534 -0.2252 -0.1302
    6MPD2    C514415   1.845   0.703  14.777  0.3569  0.0997  0.0463
    6MPD2     H14416   2.120   0.962  14.762 -1.8694  0.9908  0.4849
    6MPD2    H114417   1.929   0.628  14.959 -2.4775 -0.7940 -0.7375
    6MPD2    H214418   1.766   0.808  14.607 -0.3659  0.9230  0.7657
    6MPD2    H314419   1.762   0.636  14.794  1.0882 -1.0771 -1.0284
    6MPD2     N14420   2.137   0.777  14.977 -0.1167  0.1158  0.2657
    6MPD2    H514421   2.128   0.700  15.042 -0.9907  0.8953  1.0619
    6MPD2    N114422   1.960   0.987  14.577  0.0101  0.0526 -0.2229
    6MPD2    H714423   2.048   1.037  14.567 -0.5489  0.9655 -0.6000
  945NH4     N114424   1.114   1.670   0.471 -0.2255  0.6168  0.4983
  945NH4     H214425   1.144   1.769   0.471 -0.3057  0.6346 -0.6678
  945NH4     H314426   1.172   1.617   0.403  0.8444  0.0950  1.7872
  945NH4     H414427   1.014   1.660   0.446 -0.4365  0.4318  1.4145
  945NH4     H514428   1.118   1.634   0.569 -1.8196 -0.4039  0.1856
  946SOD     NA14429   1.283   1.008  11.340  0.2065 -0.2725  0.1811
  947SOD     NA14430   3.148   0.323  14.340  0.0252  0.1455  0.1468
  948SOD     NA14431   3.109   1.510   9.555 -0.1103  0.4037 -0.4055
  949SOD     NA14432   3.396   0.428  14.033  0.1979  0.0328  0.1833
  950SOD     NA14433   0.264   2.515   1.252 -0.0836 -0.0709  0.4968
  951SOD     NA14434   3.551   3.189   1.706 -0.1637 -0.5130 -0.1744
  952SOD     NA14435   3.643   1.384  14.618  0.0704 -0.6075  0.3206
  953SOD     NA14436   0.991   1.129  13.872  0.2312  0.2405  0.5657
  954SOD     NA14437   1.470   3.639   2.202  0.2102 -0.4933  0.1773
  955SOD     NA14438   1.803   4.017  10.976 -0.1789  0.4850 -0.4207
  956SOD     NA14439   3.948   3.158  14.420  0.4644 -0.0479 -0.3014
  957SOD     NA14440   2.972   1.931  11.214  0.0585  0.3282  0.1228
  958SOD     NA14441   1.906   1.639  15.190 -0.3516  0.1460  0.5582
  959SOD     NA14442   4.043   4.419   0.247 -0.3816 -0.2515  0.2678
  960SOD     NA14443   1.965   0.145  13.045 -0.4125  0.3012 -0.4856
  961SOD     NA14444   0.357   0.858  14.834 -0.3921 -0.2913 -0.1373
  962SOD     NA14445   0.577   0.563   7.015 -0.1442  0.1439 -0.3290
  963SOD     NA14446   4.436   0.707   0.984  0.0313  0.3286  0.3401
  964SOD     NA14447   3.270   1.957  11.490  0.0605  0.6031  0.0974
  965SOD     NA14448   3.064   4.559  12.285 -0.0960 -0.1873  0.2464
  966SOD     NA14449   3.375   2.789  17.223  0.1112  0.3148 -0.1173
  967SOD     NA14450   4.486   3.676   0.741 -0.2647  0.9192  0.3102
  968SOD     NA14451   0.854   3.261   2.290  0.1220  0.3376  0.1280
  969SOD     NA14452   3.075   1.751  12.995  0.5500 -0.3359 -0.0366
  970SOD     NA14453   4.653   1.280  15.770 -0.3721  0.1856 -0.2626
  971SOD     NA14454   2.827   4.011   6.548  0.0910  0.3810 -0.6752
  972SOD     NA14455   3.821   0.347  14.476  0.2804  0.3416  0.3179
  973SOD     NA14456   1.930   4.218  10.112  0.2616 -0.0411  0.1857
  974SOD     NA14457   1.177   0.482  10.419  0.1407  0.0367  0.8316
  975SOD     NA14458   3.919   4.398  10.790  0.3010  0.6212 -0.6543
  976SOD     NA14459   0.306   0.453  11.674  0.2269 -0.4646 -0.6577
  977SOD     NA14460   4.692   3.922   8.588  0.5710 -0.2760  0.2769
  978SOD     NA14461   2.610   4.602  12.036 -0.3254  0.1324 -0.8087
  979SOD     NA14462   1.941   4.556  10.158  0.2346 -0.1457 -0.0403
  980SOD     NA14463   3.407   1.592  14.228  0.0853  0.1676 -0.5401
  981SOD     NA14464   1.414   2.061   2.982 -0.1055 -0.0218  0.0577
  982SOD     NA14465   4.522   0.747   0.436 -0.0070 -0.0224  0.7044
  983SOD     NA14466   2.391   4.127  10.522  0.2412  0.1658 -0.5236
  984SOD     NA14467   2.378   1.055   2.370 -0.4586 -0.0960 -0.1171
  985SOD     NA14468   2.224   4.181  10.804 -0.3816 -0.4675 -0.4052
  986SOD     NA14469   1.664   4.206  14.027 -0.1696 -0.0732 -0.1123
  987SOD     NA14470   0.113   1.349  14.717  0.1541 -0.2058  0.4107
  988SOD     NA14471   4.187   4.073   2.151 -0.1986 -0.6649  0.1773
  989SOD     NA14472   1.033   1.411  11.451 -0.0699 -0.2077  0.0344
  990SOD     NA14473   2.578   0.650  11.748  0.3139  0.3223  0.2455
  991SOD     NA14474   4.682   3.651   0.998 -0.1830 -0.3512  0.3115
  992SOD     NA14475   0.545   4.416  13.228 -0.0745 -0.1299 -0.4724
  993SOD     NA14476   3.474   0.384  14.889  0.4472 -0.1704  0.4512
  994SOD     NA14477   1.049   2.782  14.718 -0.3326 -0.0077 -0.1123
  995SOD     NA14478   2.364   0.822   0.117  0.2338 -0.0995 -0.0629
  996SOD     NA14479   2.080   0.116  13.389  0.1901 -0.0901  0.0338
  997SOD     NA14480   1.973   3.746   1.390  0.3971 -0.2617  0.1944
  998SOD     NA14481   1.693   4.036  10.169  0.0558  0.2504 -0.3578
  999SOD     NA14482   1.319   1.266  11.582  0.1843  0.1976 -0.2756
 1000SOD     NA14483   2.416   0.492  11.949  0.1728 -0.0874 -0.4380
 1001SOD     NA14484   2.543   1.740  14.958 -0.3058  0.1547 -0.3018
 1002SOD     NA14485   4.232   4.158  17.176  0.4521  0.1396  0.1820
 1003SOD     NA14486   2.098   3.994   9.999  0.5287 -0.0404 -0.5297
 1004SOD     NA14487   3.070   4.588  17.605  0.2085 -0.0489  0.4249
 1005SOD     NA14488   0.262   1.918  13.437 -0.1614  0.4158 -0.3077
 1006SOD     NA14489   0.528   0.496   2.379 -0.0895  0.4508  0.0767
 1007SOD     NA14490   3.497   4.344   1.381  0.3565 -0.0659  0.1660
 1008SOD     NA14491   0.737   0.924   9.269  0.7895  0.1214  0.0632
 1009SOD     NA14492   4.135   1.214  10.997  0.1158 -0.5575  0.5013
 1010SOD     NA14493   2.584   2.259   4.395 -0.1797  0.3743 -0.0911
 1011SOL     OW14494   1.707   3.839   9.632 -0.2028 -0.0603  0.0175
 1011SOL    HW114495   1.785   3.833   9.576 -1.3534 -0.9508 -1.4711
 1011SOL    HW214496   1.696   3.746   9.654 -0.2152  0.0511  0.4852
 1012SOL     OW14497   4.524   3.836   3.203 -0.5372 -0.1404  0.1887
 1012SOL    HW114498   4.523   3.795   3.117  2.6177 -3.6567  1.8438
 1012SOL    HW214499   4.595   3.793   3.249 -0.4765  1.1906  1.3480
 1013SOL     OW14500   2.337   1.301  11.840 -0.1047 -0.1483 -0.1056
 1013SOL    HW114501   2.303   1.389  11.858  2.3162  0.6777  0.4101
 1013SOL    HW214502   2.251   1.258  11.836 -0.6264  0.8666  0.2659
 1014SOL     OW14503   3.823   3.432   0.390  0.5141 -0.3750  0.7015
 1014SOL    HW114504   3.800   3.341   0.373  0.4708 -0.2951  0.3440
 1014SOL    HW214505   3.913   3.431   0.422  0.1016  3.1437  1.9750
 1015SOL     OW14506   0.133   3.020   3.052  0.6315  0.0460  0.1488
 1015SOL    HW114507   0.095   3.098   3.091  0.8219 -0.3912  1.2141
 1015SOL    HW214508   0.133   2.968   3.133 -5.0172  1.3542  0.9477
 1016SOL     OW14509   4.267   4.103   4.628 -0.1727 -0.6845 -0.0453
 1016SOL    HW114510   4.259   4.125   4.535  2.5134  1.2495  0.1983
 1016SOL    HW214511   4.203   4.168   4.656  0.1827 -0.5461  0.4367
 1017SOL     OW14512   4.537   3.787   8.734 -0.3248  0.4684 -0.4466
 1017SOL    HW114513   4.502   3.704   8.702 -0.2552 -0.0929  0.9614
 1017SOL    HW214514   4.529   3.791   8.829  0.2899 -1.5728 -0.3172
 1018SOL     OW14515   0.312   1.966   3.465 -0.1300  0.0803  0.2043
 1018SOL    HW114516   0.373   2.000   3.398  0.4318 -2.5961 -0.6369
 1018SOL    HW214517   0.327   2.028   3.536  0.7912 -0.3374  0.3749
 1019SOL     OW14518   4.721   4.155  14.982 -0.0567 -0.2689 -0.4696
 1019SOL    HW114519   4.631   4.132  14.958  0.4144 -1.6021 -0.9949
 1019SOL    HW214520   0.011   4.098  15.057  0.8062 -1.1131 -1.2649
 1020SOL     OW14521   0.464   1.795   6.391 -0.3247  0.3493  0.1003
 1020SOL    HW114522   0.540   1.748   6.427 -1.4136 -1.0625  0.5782
 1020SOL    HW214523   0.493   1.803   6.300  1.5118  0.4025  0.6804
 1021SOL     OW14524   4.270   2.249   2.985 -0.7035 -0.1920 -0.2123
 1021SOL    HW114525   4.325   2.200   2.924 -2.2019 -1.6996 -0.3316
 1021SOL    HW214526   4.304   2.216   3.068 -0.9833  1.9190  0.7373
 1022SOL     OW14527   1.022   0.085   6.357  0.3477  0.1281  0.7496
 1022SOL    HW114528   1.095   0.027   6.378  0.0199 -0.0602  1.3765
 1022SOL    HW214529   0.949   0.046   6.404 -2.3631 -0.2419 -3.7485
 1023SOL     OW14530   4.569   3.636   7.328 -0.4517 -0.2308 -0.2502
 1023SOL    HW114531   4.566   3.585   7.409 -0.0723  3.1121  1.8767
 1023SOL    HW214532   4.628   3.583   7.274 -0.5055 -0.1244 -0.4156
 1024SOL     OW14533   1.761   3.513   6.285 -1.1491  0.5671 -1.2744
 1024SOL    HW114534   1.676   3.557   6.284 -0.5535  1.7392  0.2350
 1024SOL    HW214535   1.805   3.567   6.351 -3.2644  0.5200  0.1658
 1025SOL     OW14536   3.248   0.742   3.967  0.6745 -0.0204  0.6543
 1025SOL    HW114537   3.174   0.707   4.017  0.4197  0.2157  0.4459
 1025SOL    HW214538   3.323   0.737   4.027  0.8805  0.0637  0.4058
 1026SOL     OW14539   1.955   4.156   6.815 -0.0255  0.6889 -0.2679
 1026SOL    HW114540   1.884   4.106   6.854 -0.0861  0.7287 -0.3283
 1026SOL    HW214541   2.026   4.120   6.869 -0.1325 -0.2141 -0.7289
 1027SOL     OW14542   2.373   3.979   8.058 -0.5356  0.0573  0.2780
 1027SOL    HW114543   2.325   3.897   8.047 -0.6558  0.0953  0.5256
 1027SOL    HW214544   2.457   3.965   8.014 -0.1887  0.7879  0.7099
 1028SOL     OW14545   4.406   3.095   7.521  0.0148 -0.4958  0.2694
 1028SOL    HW114546   4.386   3.182   7.485  1.5363 -0.7458 -1.1631
 1028SOL    HW214547   4.477   3.072   7.461  0.3023  1.5090 -0.1682
 1029SOL     OW14548   1.631   2.005  11.823 -0.2965 -0.0474  0.1288
 1029SOL    HW114549   1.634   2.097  11.794 -2.3525 -0.5962 -1.7655
 1029SOL    HW214550   1.709   1.974  11.776  0.7216 -0.4717  2.1268
 1030SOL     OW14551   1.760   1.394  10.813  0.6918 -0.4335  0.3866
 1030SOL    HW114552   1.715   1.377  10.730 -0.0143  0.8410  0.5107
 1030SOL    HW214553   1.851   1.389  10.784  0.4598 -1.3584 -0.1839
 1031SOL     OW14554   2.012   4.094   7.165  0.1875  0.7420 -0.0705
 1031SOL    HW114555   1.935   4.040   7.183  0.9240 -0.0998  0.5571
 1031SOL    HW214556   2.081   4.035   7.133  1.8697  2.6975 -0.0036
 1032SOL     OW14557   1.095   0.886   4.347 -0.2138  0.1423 -0.2248
 1032SOL    HW114558   1.021   0.937   4.381  0.6709  0.6248  0.9825
 1032SOL    HW214559   1.090   0.808   4.402  0.1296  0.3815  0.1393
 1033SOL     OW14560   3.511   4.211   0.187  0.1320  0.2594 -0.2310
 1033SOL    HW114561   3.535   4.303   0.204 -0.5005  0.8370 -2.4911
 1033SOL    HW214562   3.434   4.225   0.132  1.2501  1.3315 -1.5238
 1034SOL     OW14563   4.270   1.086   0.577 -0.1302 -0.1340  0.4142
 1034SOL    HW114564   4.246   1.179   0.576 -1.3483 -0.4390  0.8965
 1034SOL    HW214565   4.361   1.080   0.604  0.2991  3.1780 -0.2166
 1035SOL     OW14566   4.634   4.421   3.659  0.1702 -0.0910 -0.3938
 1035SOL    HW114567   4.612   4.388   3.746  5.3000  2.4017  1.8154
 1035SOL    HW214568   4.585   4.365   3.598 -0.6953 -0.4699  0.6574
 1036SOL     OW14569   2.478   1.699   3.793 -0.9110  0.0608  0.2994
 1036SOL    HW114570   2.500   1.617   3.748 -1.8259  0.8697 -1.5981
 1036SOL    HW214571   2.480   1.676   3.886  0.0105  0.7523  0.4519
 1037SOL     OW14572   4.089   4.506   5.953  0.6507  0.1766  0.0225
 1037SOL    HW114573   4.000   4.516   5.918  1.1355  1.4368 -0.8571
 1037SOL    HW214574   4.148   4.527   5.880  1.7180 -1.1355  0.5121
 1038SOL     OW14575   0.036   4.073  15.908  0.9980 -0.3551  0.3952
 1038SOL    HW114576   0.114   4.033  15.869  0.7912 -0.9790  0.6167
 1038SOL    HW214577   4.687   4.027  15.866  2.3842 -1.2841 -0.9897
 1039SOL     OW14578   0.053   2.827   6.417 -0.0293  0.2439 -0.0426
 1039SOL    HW114579   0.126   2.829   6.355  1.1890 -0.0432  1.3844
 1039SOL    HW214580   0.015   2.907   6.382  0.4968  0.6618  0.3434
 1040SOL     OW14581   3.511   0.524  14.505  0.0472 -0.2907 -0.0238
 1040SOL    HW114582   3.549   0.546  14.590  0.7543 -1.3318 -0.0697
 1040SOL    HW214583   3.589   0.502  14.454 -0.2876  0.7204 -0.9457
 1041SOL     OW14584   4.337   0.609   5.843 -0.0120  0.7057  0.1001
 1041SOL    HW114585   4.323   0.687   5.790 -0.7480 -0.6592 -1.7049
 1041SOL    HW214586   4.419   0.583   5.802 -0.0179 -1.3273  1.3546
 1042SOL     OW14587   3.171   2.090  15.663  1.2481  0.0082  0.0635
 1042SOL    HW114588   3.151   2.152  15.592  4.0440  1.5170  0.6281
 1042SOL    HW214589   3.181   2.007  15.617 -0.6720 -2.0973  3.4152
 1043SOL     OW14590   2.335   2.433   2.708  0.0558  0.3036 -0.1082
 1043SOL    HW114591   2.255   2.402   2.750  0.2857  1.4591  1.1745
 1043SOL    HW214592   2.310   2.509   2.655 -0.0674 -0.0391 -0.5401
 1044SOL     OW14593   1.131   2.241   3.701  0.4370 -0.1287 -0.0846
 1044SOL    HW114594   1.058   2.226   3.761 -0.3751  2.3796 -0.4756
 1044SOL    HW214595   1.205   2.223   3.760 -0.3189 -0.6708  0.7024
 1045SOL     OW14596   1.735   1.693   1.925  0.1159 -0.0352  0.7703
 1045SOL    HW114597   1.694   1.699   1.838  1.9028  0.3496 -0.0356
 1045SOL    HW214598   1.702   1.769   1.972  0.4561  1.7163 -1.8306
 1046SOL     OW14599   0.374   0.015  11.353 -0.0677  0.0480 -0.3476
 1046SOL    HW114600   0.353   0.019  11.260 -2.1080  0.4332  0.1213
 1046SOL    HW214601   0.392   0.105  11.383 -2.8412  0.4069  0.2521
 1047SOL     OW14602   3.001   2.902  14.169 -0.6221  0.7422 -0.1953
 1047SOL    HW114603   2.985   2.911  14.075 -1.2238  1.4909 -0.0178
 1047SOL    HW214604   2.940   2.968  14.202 -0.5849  0.6602  0.0374
 1048SOL     OW14605   4.205   3.364  13.997  0.2102  0.1307  0.2443
 1048SOL    HW114606   4.235   3.313  14.071 -0.5222 -1.5920 -0.6459
 1048SOL    HW214607   4.110   3.354  14.003  0.1288  0.8389  0.1097
 1049SOL     OW14608   0.510   4.714  16.391 -0.4820 -0.1983  0.5838
 1049SOL    HW114609   0.472   0.030  16.312  1.0655 -0.3789 -0.2727
 1049SOL    HW214610   0.494   0.060  16.454  1.2017 -0.7511  1.6411
 1050SOL     OW14611   4.004   2.759  16.432 -0.1541 -0.3620  0.5597
 1050SOL    HW114612   4.055   2.678  16.425 -1.3595 -1.0707  0.0125
 1050SOL    HW214613   3.918   2.732  16.464  0.4977 -2.3960  0.6144
 1051SOL     OW14614   0.609   0.654   8.170 -0.4891  0.0792  0.4071
 1051SOL    HW114615   0.553   0.656   8.248 -1.2183  2.1032 -0.1721
 1051SOL    HW214616   0.646   0.566   8.174  0.0067  0.2353 -0.6860
 1052SOL     OW14617   1.981   3.900   3.921 -0.0267 -0.0539 -0.0001
 1052SOL    HW114618   1.949   3.814   3.948  0.9869 -0.1371  0.9159
 1052SOL    HW214619   2.048   3.920   3.987  0.5406 -0.1756 -0.5436
 1053SOL     OW14620   2.237   4.225   3.408  0.6326  0.3804 -0.2886
 1053SOL    HW114621   2.319   4.176   3.414 -1.0014 -2.1858  1.5404
 1053SOL    HW214622   2.205   4.186   3.490 -0.3206  0.6549 -0.5355
 1054SOL     OW14623   3.857   1.298  14.544 -0.1316 -0.6867 -0.4254
 1054SOL    HW114624   3.855   1.207  14.574 -0.4636 -0.1025  1.3737
 1054SOL    HW214625   3.945   1.304  14.508  0.8354 -1.2570  1.8328
 1055SOL     OW14626   1.169   2.447   7.566 -0.0881  0.3326  0.1106
 1055SOL    HW114627   1.112   2.390   7.616 -3.1344  2.0350 -1.3692
 1055SOL    HW214628   1.183   2.398   7.485  1.7272  0.1323  0.5545
 1056SOL     OW14629   2.721   2.400   7.363 -0.1268  0.3317 -0.0996
 1056SOL    HW114630   2.810   2.428   7.340  0.5367 -1.1516  0.6631
 1056SOL    HW214631   2.697   2.363   7.278  0.4877  2.4112 -1.1775
 1057SOL     OW14632   1.285   4.584   9.797  0.4477  0.0801 -0.2640
 1057SOL    HW114633   1.223   4.615   9.863 -0.7654  1.5724 -2.1006
 1057SOL    HW214634   1.282   4.491   9.818  2.0837  0.3134  0.9497
 1058SOL     OW14635   1.373   3.415   8.922  0.3159 -0.4052 -0.8997
 1058SOL    HW114636   1.325   3.469   8.984  1.5900 -0.3635  0.0320
 1058SOL    HW214637   1.458   3.456   8.932  0.3697 -0.2647 -1.8867
 1059SOL     OW14638   0.801   2.821   9.606 -0.6712 -0.3826  0.3655
 1059SOL    HW114639   0.868   2.841   9.672  0.4456  1.7146 -1.4169
 1059SOL    HW214640   0.739   2.781   9.668 -1.7974  2.6883  1.1887
 1060SOL     OW14641   0.046   3.745  12.490 -0.2923  0.5551  0.4912
 1060SOL    HW114642   0.043   3.731  12.395  1.3929 -0.5577  0.6248
 1060SOL    HW214643   0.085   3.665  12.524 -0.3359  0.7660  1.0291
 1061SOL     OW14644   1.096   2.038   2.467  0.1570  0.0756  0.0112
 1061SOL    HW114645   1.022   2.074   2.418  0.7645  0.6857 -0.4699
 1061SOL    HW214646   1.166   2.070   2.410 -0.0994  1.7271  0.6106
 1062SOL     OW14647   0.703   3.894   5.569 -0.9444  0.0914  0.5303
 1062SOL    HW114648   0.785   3.913   5.615 -0.4070  0.0886 -0.4301
 1062SOL    HW214649   0.729   3.925   5.482 -1.1876  0.2365  0.5063
 1063SOL     OW14650   0.448   3.074   4.494  0.0429 -0.1546  0.3064
 1063SOL    HW114651   0.544   3.068   4.489  0.0140 -0.9149  0.5869
 1063SOL    HW214652   0.436   3.161   4.530 -0.6972  0.1636 -0.7004
 1064SOL     OW14653   2.330   0.819   1.382  0.0421  0.0675  0.0216
 1064SOL    HW114654   2.280   0.755   1.332 -0.2256 -0.5888  1.1369
 1064SOL    HW214655   2.261   0.874   1.417  0.7661  0.6355  0.5661
 1065SOL     OW14656   4.718   1.384   5.322  0.4105 -0.0153  0.2232
 1065SOL    HW114657   4.705   1.458   5.381  1.2450  0.2724  0.0392
 1065SOL    HW214658   4.652   1.401   5.254 -0.3773 -1.3730  0.6268
 1066SOL     OW14659   3.304   1.233   5.459 -0.0031 -0.1974  0.1458
 1066SOL    HW114660   3.212   1.243   5.484 -0.5423 -1.0878 -1.4794
 1066SOL    HW214661   3.316   1.140   5.476 -0.9096  0.0103  1.9377
 1067SOL     OW14662   3.700   4.631  11.175 -0.1668 -0.1283 -0.2026
 1067SOL    HW114663   3.706   4.712  11.124  0.3036 -0.5301 -0.7763
 1067SOL    HW214664   3.745   4.663  11.253  2.6914 -0.7406 -1.5982
 1068SOL     OW14665   1.877   1.394   9.800 -0.1384  0.2291 -0.3230
 1068SOL    HW114666   1.886   1.323   9.736 -0.1664  1.3853 -1.6105
 1068SOL    HW214667   1.932   1.464   9.766 -0.2541 -0.6542 -2.3234
 1069SOL     OW14668   3.077   0.357   2.214  0.0132 -0.4815  0.4212
 1069SOL    HW114669   2.996   0.356   2.162  1.5327  1.3921 -1.9449
 1069SOL    HW214670   3.138   0.393   2.150 -1.2878  2.5629  0.8837
 1070SOL     OW14671   0.999   4.684   8.814 -0.5739 -0.5557  0.6873
 1070SOL    HW114672   0.956   4.654   8.895 -2.1360  1.1459  0.4983
 1070SOL    HW214673   0.954   4.634   8.746 -0.9414  0.2852  0.3178
 1071SOL     OW14674   2.471   3.800   2.497  0.2753  0.1298 -0.0888
 1071SOL    HW114675   2.381   3.795   2.529  0.4591 -0.2585  0.3762
 1071SOL    HW214676   2.519   3.830   2.574  1.0344 -1.1108 -0.0780
 1072SOL     OW14677   2.548   0.324   4.038 -0.3775 -0.2760 -0.3503
 1072SOL    HW114678   2.544   0.359   4.127 -0.8845 -2.5214  0.5007
 1072SOL    HW214679   2.453   0.318   4.034 -0.2653 -0.7949 -2.2868
 1073SOL     OW14680   0.831   1.325  11.368  0.0297 -0.1612 -0.4072
 1073SOL    HW114681   0.748   1.364  11.340 -1.3859 -0.5073  3.3314
 1073SOL    HW214682   0.826   1.238  11.327 -0.3332 -0.2759 -0.1252
 1074SOL     OW14683   4.076   1.078   3.109  0.2547 -0.0787 -0.7827
 1074SOL    HW114684   4.074   1.046   3.199  0.2895  0.1135 -0.7131
 1074SOL    HW214685   4.057   0.998   3.060 -2.3725  1.0733 -1.6516
 1075SOL     OW14686   1.048   1.091  16.438  0.1059 -0.2762 -1.0031
 1075SOL    HW114687   1.044   1.104  16.343  1.8692  0.3502 -0.9783
 1075SOL    HW214688   0.957   1.084  16.468 -0.4608  3.5851 -1.7627
 1076SOL     OW14689   2.699   3.201   4.587  0.1854 -0.4132  0.1706
 1076SOL    HW114690   2.749   3.177   4.509  1.4310 -1.3565  1.2510
 1076SOL    HW214691   2.696   3.296   4.572 -2.3273 -0.5677 -0.3566
 1077SOL     OW14692   1.318   1.495   8.556 -0.0884 -0.1790  0.4428
 1077SOL    HW114693   1.339   1.493   8.650  0.4350  1.7286  0.3703
 1077SOL    HW214694   1.381   1.559   8.522  0.1416 -0.9876 -0.6534
 1078SOL     OW14695   1.933   2.195   5.175  0.1499  0.4493  0.5924
 1078SOL    HW114696   1.937   2.291   5.179  1.3587  0.4258 -0.1821
 1078SOL    HW214697   1.927   2.183   5.270  2.5103  1.4079  0.8595
 1079SOL     OW14698   4.380   0.836   9.573 -0.4952 -0.0499  0.6083
 1079SOL    HW114699   4.463   0.799   9.604 -0.3223 -0.6802 -0.5823
 1079SOL    HW214700   4.354   0.757   9.525 -3.4915  2.3939 -1.7849
 1080SOL     OW14701   4.523   3.250   4.493 -0.4490  0.1748 -0.8680
 1080SOL    HW114702   4.570   3.172   4.463 -0.6263 -0.3663  0.2747
 1080SOL    HW214703   4.434   3.250   4.458 -0.8685  3.6185  0.1942
 1081SOL     OW14704   3.524   4.413   3.840 -0.5433 -0.1768  0.3236
 1081SOL    HW114705   3.576   4.339   3.869  0.6388 -0.2105 -1.8555
 1081SOL    HW214706   3.490   4.435   3.926  0.8528 -0.8541  1.0463
 1082SOL     OW14707   0.456   4.379   4.272  0.5161  0.0286  0.0416
 1082SOL    HW114708   0.526   4.376   4.206 -0.9613  1.6785 -1.6153
 1082SOL    HW214709   0.441   4.285   4.285 -0.2162  0.1277 -0.0861
 1083SOL     OW14710   3.764   3.283  14.527  0.5563  0.4013 -0.4898
 1083SOL    HW114711   3.746   3.363  14.577  4.2425  0.2853  1.0907
 1083SOL    HW214712   3.734   3.319  14.444  1.2261 -1.1155 -1.3936
 1084SOL     OW14713   1.475   0.428   2.719  0.2587  0.3660 -0.7146
 1084SOL    HW114714   1.459   0.518   2.748 -1.8872 -0.3760  0.3766
 1084SOL    HW214715   1.569   0.443   2.712  0.2262  1.9571  2.1324
 1085SOL     OW14716   0.987   0.695   2.484  0.1868 -0.3183 -0.3117
 1085SOL    HW114717   1.058   0.756   2.465  0.9128 -1.2878 -0.7391
 1085SOL    HW214718   1.026   0.649   2.559  0.9473 -2.0311 -1.7531
 1086SOL     OW14719   2.293   3.432  12.433  0.1396  0.1979  0.1863
 1086SOL    HW114720   2.388   3.442  12.443  0.3567 -0.8198 -0.8651
 1086SOL    HW214721   2.298   3.360  12.371  0.0832  0.1092  0.2837
 1087SOL     OW14722   4.514   3.604   9.024  0.7685 -0.0467  0.0578
 1087SOL    HW114723   4.435   3.559   8.995  0.2866  0.3656  0.7100
 1087SOL    HW214724   4.491   3.618   9.116  0.0696  0.6190 -0.2209
 1088SOL     OW14725   4.007   4.466   3.221 -0.2042  0.2074 -0.1042
 1088SOL    HW114726   4.021   4.512   3.304 -0.0598  1.7820 -0.9922
 1088SOL    HW214727   3.917   4.434   3.232 -0.7662  1.7957 -0.0030
 1089SOL     OW14728   3.844   1.662   9.436  0.6380 -0.4904 -0.0772
 1089SOL    HW114729   3.930   1.621   9.445  0.7390 -0.9890 -3.1538
 1089SOL    HW214730   3.834   1.640   9.343  1.3144 -1.9695  0.1988
 1090SOL     OW14731   2.642   0.612   0.439  0.5296 -0.1594 -0.2690
 1090SOL    HW114732   2.704   0.583   0.505 -2.3188 -0.9207  2.0728
 1090SOL    HW214733   2.557   0.598   0.480  1.4298 -2.3435  0.7912
 1091SOL     OW14734   4.561   4.570   3.045  0.0308 -0.3450 -0.0270
 1091SOL    HW114735   4.506   4.648   3.040 -1.9252 -1.8616 -2.0623
 1091SOL    HW214736   4.627   4.604   3.105 -1.3637  0.2854  1.1352
 1092SOL     OW14737   0.358   0.576   8.419 -0.3690 -0.3103 -0.2234
 1092SOL    HW114738   0.279   0.602   8.466  0.4960  0.8921  0.5755
 1092SOL    HW214739   0.422   0.624   8.472 -1.1691 -1.2981  1.5981
 1093SOL     OW14740   3.555   1.611   6.757  0.3023 -0.1020  0.2473
 1093SOL    HW114741   3.517   1.560   6.828  1.2633 -0.3017  0.6256
 1093SOL    HW214742   3.647   1.588   6.773  0.2099  0.3028  1.3905
 1094SOL     OW14743   1.733   3.492   8.054 -0.2320 -0.0588  0.1310
 1094SOL    HW114744   1.778   3.410   8.038 -0.9490 -0.2439 -0.9437
 1094SOL    HW214745   1.739   3.533   7.968 -1.1086 -0.8617 -0.3068
 1095SOL     OW14746   3.139   3.843   8.912  0.2338 -0.1825 -0.2979
 1095SOL    HW114747   3.187   3.806   8.986  0.2006 -0.6131 -0.4888
 1095SOL    HW214748   3.176   3.931   8.911  0.0757 -0.1125 -0.0210
 1096SOL     OW14749   0.651   1.155   5.952 -0.6173  0.3438 -0.3017
 1096SOL    HW114750   0.572   1.206   5.973 -1.5413 -0.7953 -1.0173
 1096SOL    HW214751   0.695   1.210   5.887 -1.1673 -0.5144 -1.3977
 1097SOL     OW14752   3.129   1.693   4.982 -0.6214 -0.9748  0.2101
 1097SOL    HW114753   3.212   1.658   5.013 -0.1778  0.5304  0.7179
 1097SOL    HW214754   3.114   1.773   5.032  0.3558 -0.8682  0.3298
 1098SOL     OW14755   4.685   3.770   4.318 -0.5631 -0.2305 -0.1006
 1098SOL    HW114756   4.719   3.849   4.276 -4.1843  1.8045  0.7407
 1098SOL    HW214757   4.706   3.794   4.408  1.2624  1.1262 -0.8953
 1099SOL     OW14758   0.922   2.001   7.997 -0.0240 -0.7748 -0.4366
 1099SOL    HW114759   0.849   1.954   7.956  1.6984 -3.2224 -0.6599
 1099SOL    HW214760   0.947   1.932   8.058 -0.2126 -0.0962  0.4112
 1100SOL     OW14761   1.355   4.578   3.640  0.2927 -0.0211  0.2680
 1100SOL    HW114762   1.348   4.580   3.736  1.0052  0.1631  0.3161
 1100SOL    HW214763   1.439   4.620   3.622  0.1198  1.7300  3.3809
 1101SOL     OW14764   1.561   4.135  15.416 -0.0356  0.1814 -0.1137
 1101SOL    HW114765   1.485   4.169  15.369 -1.5653 -0.9469  1.5279
 1101SOL    HW214766   1.611   4.214  15.435 -1.5663  1.1568 -0.0942
 1102SOL     OW14767   4.672   0.685  15.469  0.1049 -0.3680  0.3820
 1102SOL    HW114768   4.592   0.632  15.464  1.5288 -2.1741 -3.2316
 1102SOL    HW214769   4.634   0.764  15.506 -2.2236 -1.4531  0.3125
 1103SOL     OW14770   3.956   3.913   4.761 -0.2202  0.2765 -0.2406
 1103SOL    HW114771   4.042   3.913   4.804 -1.8007 -0.6009  2.8636
 1103SOL    HW214772   3.941   3.822   4.734  0.6039 -0.4525  1.7593
 1104SOL     OW14773   4.441   0.976   3.782  0.2081 -0.0718 -0.5386
 1104SOL    HW114774   4.502   1.049   3.783  0.4350 -0.2418 -1.3746
 1104SOL    HW214775   4.494   0.909   3.738 -1.0686 -1.0203 -0.6391
 1105SOL     OW14776   1.505   3.196   3.472  0.3151 -0.0744 -0.2977
 1105SOL    HW114777   1.595   3.192   3.502  0.2352  2.6260  0.2693
 1105SOL    HW214778   1.467   3.140   3.539  1.7911  2.4629  2.6135
 1106SOL     OW14779   4.720   4.056  17.636 -0.1777  0.6359 -0.3806
 1106SOL    HW114780   4.670   4.121  17.685 -1.5519 -1.5217  1.0627
 1106SOL    HW214781   0.000   3.983   0.001  1.1783  0.4748 -0.6426
 1107SOL     OW14782   1.201   2.716   3.445 -0.0140  0.2616  0.1151
 1107SOL    HW114783   1.243   2.633   3.422 -4.0797 -0.8668 -3.1273
 1107SOL    HW214784   1.120   2.681   3.481  0.3577  1.7311  2.4542
 1108SOL     OW14785   1.137   0.799  11.310 -0.1658 -0.0826  0.0038
 1108SOL    HW114786   1.207   0.744  11.275 -1.5178 -2.9626  1.8029
 1108SOL    HW214787   1.078   0.794  11.234  2.7497  1.6090 -2.4000
 1109SOL     OW14788   0.241   3.553   4.186  0.6328  0.0174 -0.0956
 1109SOL    HW114789   0.307   3.483   4.192 -0.6557 -1.3826 -2.2016
 1109SOL    HW214790   0.301   3.625   4.205 -1.3355  0.8804  2.7845
 1110SOL     OW14791   3.500   1.383   7.257 -0.6716  0.1296  0.1046
 1110SOL    HW114792   3.495   1.471   7.293 -0.8275  0.3350 -0.4139
 1110SOL    HW214793   3.427   1.396   7.197  0.2034 -1.7924 -1.3897
 1111SOL     OW14794   3.943   1.739  15.951 -0.4138  0.5471  0.1918
 1111SOL    HW114795   3.985   1.798  15.889  0.9698  0.6239  1.1906
 1111SOL    HW214796   3.891   1.808  15.992 -0.3809  0.3265  0.6100
 1112SOL     OW14797   2.495   1.121   3.027 -0.4847 -0.0379 -0.5108
 1112SOL    HW114798   2.428   1.132   3.095  1.0342 -2.7414  1.4125
 1112SOL    HW214799   2.558   1.189   3.054 -0.2958 -1.4239  2.5194
 1113SOL     OW14800   2.785   2.826  16.239  0.5283 -0.7443 -0.3794
 1113SOL    HW114801   2.703   2.863  16.271  2.3481  2.5725  0.4923
 1113SOL    HW214802   2.771   2.826  16.145  2.8731 -3.6464 -0.7130
 1114SOL     OW14803   3.664   1.339   8.930 -0.4083 -0.2802  0.1217
 1114SOL    HW114804   3.663   1.245   8.914  2.2457 -0.2306 -0.4259
 1114SOL    HW214805   3.612   1.337   9.010  0.4472 -0.4210  0.6676
 1115SOL     OW14806   2.767   0.506   6.366  0.2151  0.3081 -0.1338
 1115SOL    HW114807   2.792   0.517   6.458 -1.6720  2.3518  0.1353
 1115SOL    HW214808   2.805   0.421   6.344  0.9224  1.4793 -3.4784
 1116SOL     OW14809   3.294   4.637   4.498 -0.4343 -0.2581 -0.6963
 1116SOL    HW114810   3.368   4.690   4.529 -1.2102  0.6024 -0.3202
 1116SOL    HW214811   3.272   4.589   4.578  0.6967  0.0488 -0.1871
 1117SOL     OW14812   2.352   2.427  12.428  0.1643  0.0337  0.3861
 1117SOL    HW114813   2.402   2.501  12.393  0.3193  0.8625  2.3090
 1117SOL    HW214814   2.360   2.371  12.351 -1.1313  0.8460 -0.3335
 1118SOL     OW14815   0.051   0.550   7.574 -0.1633  0.4680 -0.2400
 1118SOL    HW114816   0.103   0.472   7.595 -1.0464 -0.0682 -0.0256
 1118SOL    HW214817   0.010   0.566   7.659 -0.1000  0.2404 -0.1661
 1119SOL     OW14818   2.938   2.279   2.640 -0.1746 -0.4320 -0.2206
 1119SOL    HW114819   2.988   2.249   2.564  2.1210 -0.6046  1.3454
 1119SOL    HW214820   2.986   2.252   2.718  0.2570  1.4323  0.1555
 1120SOL     OW14821   3.964   0.076  17.588  0.3046 -0.1218  0.4385
 1120SOL    HW114822   3.869   0.061  17.591  0.3994 -0.7239  0.4781
 1120SOL    HW214823   3.987   0.123  17.668 -0.4265  1.8647 -0.5258
 1121SOL     OW14824   1.003   0.568   7.767 -0.3430 -0.4650  0.1756
 1121SOL    HW114825   1.010   0.644   7.710  2.0126 -3.1891 -3.1635
 1121SOL    HW214826   1.093   0.560   7.801 -0.3398 -0.6411  0.1252
 1122SOL     OW14827   3.912   1.960   1.718 -0.1737  0.1231  0.2309
 1122SOL    HW114828   4.007   1.952   1.731 -0.0694  1.4223  0.3031
 1122SOL    HW214829   3.890   1.955   1.811 -0.1670 -1.4012  0.1373
 1123SOL     OW14830   0.620   0.212   1.978 -0.8943 -0.3447  0.0548
 1123SOL    HW114831   0.629   0.183   2.069 -0.3799 -2.6473 -0.7190
 1123SOL    HW214832   0.548   0.273   1.993 -0.1184  1.2009 -2.4491
 1124SOL     OW14833   1.584   2.579   4.347 -0.2145 -0.9598  0.3780
 1124SOL    HW114834   1.548   2.667   4.357 -0.6691 -0.9781 -1.0723
 1124SOL    HW214835   1.508   2.524   4.362 -0.9043  0.0483  0.5614
 1125SOL     OW14836   2.900   2.759   5.834 -0.2993  0.2425 -0.1650
 1125SOL    HW114837   2.965   2.762   5.904 -0.1087 -1.4833 -0.2801
 1125SOL    HW214838   2.816   2.782   5.874  0.7286  2.6759  0.6101
 1126SOL     OW14839   0.397   3.582  13.735 -0.5733  0.2312  0.3025
 1126SOL    HW114840   0.419   3.670  13.703 -3.0706  0.4258 -0.8922
 1126SOL    HW214841   0.422   3.534  13.656  0.8838  2.9424 -0.8847
 1127SOL     OW14842   1.134   3.610   2.886 -0.0461 -0.3539  0.1967
 1127SOL    HW114843   1.183   3.692   2.877 -0.2251 -0.4286 -1.5932
 1127SOL    HW214844   1.056   3.635   2.837 -0.0149 -1.6510 -0.5223
 1128SOL     OW14845   0.350   2.899   5.485  0.2429 -0.1215  0.3352
 1128SOL    HW114846   0.429   2.856   5.516  0.6062 -0.9318 -1.7124
 1128SOL    HW214847   0.353   2.866   5.395  1.5743 -0.3358  0.4684
 1129SOL     OW14848   1.797   2.227  12.042  0.1624  0.1069  0.1221
 1129SOL    HW114849   1.829   2.305  11.997  1.2861 -1.2521 -1.4164
 1129SOL    HW214850   1.837   2.146  12.012  1.0807  1.1847 -1.5978
 1130SOL     OW14851   0.089   3.765   6.313  0.4544 -0.1911  0.6371
 1130SOL    HW114852   0.156   3.807   6.367 -0.4306 -0.8739  2.2485
 1130SOL    HW214853   0.115   3.675   6.330 -1.4768 -0.4063  2.4720
 1131SOL     OW14854   1.996   1.120   8.446 -0.3610 -0.1743  0.0805
 1131SOL    HW114855   1.945   1.087   8.372  0.5606 -0.1326 -0.5646
 1131SOL    HW214856   2.077   1.071   8.434 -0.1820 -0.0048  0.5919
 1132SOL     OW14857   4.714   4.695   0.255 -0.0045  0.1368 -0.0021
 1132SOL    HW114858   0.040   0.035   0.306 -0.9929 -0.2001  1.3936
 1132SOL    HW214859   0.056   4.638   0.215  0.3457  0.0854  0.6468
 1133SOL     OW14860   3.309   1.902  11.715 -0.0529 -0.5182  0.0946
 1133SOL    HW114861   3.387   1.850  11.699  0.8632  1.0610 -0.5176
 1133SOL    HW214862   3.337   1.958  11.788  1.2167 -0.8034 -0.1751
 1134SOL     OW14863   2.224   4.623   5.652  0.0755  0.9113  0.4506
 1134SOL    HW114864   2.282   4.566   5.601  0.2194  0.4454  1.1286
 1134SOL    HW214865   2.136   4.593   5.627  1.0498 -2.0594  0.5401
 1135SOL     OW14866   0.167   0.919   4.811 -0.0011 -0.2589 -0.4941
 1135SOL    HW114867   0.129   1.002   4.784  2.2170  1.3510  1.4141
 1135SOL    HW214868   0.141   0.864   4.736 -1.3159 -1.9623  1.2179
 1136SOL     OW14869   1.744   2.476  12.609 -0.4843  0.1974 -0.1995
 1136SOL    HW114870   1.726   2.407  12.672 -0.1764 -0.6637 -1.0567
 1136SOL    HW214871   1.786   2.426  12.539 -2.7961 -1.6864 -0.2297
 1137SOL     OW14872   1.792   3.376   3.122 -0.6620  0.9858 -0.1473
 1137SOL    HW114873   1.858   3.416   3.066  1.9483 -1.9410  0.8369
 1137SOL    HW214874   1.760   3.317   3.053  0.8553  0.2910 -0.2466
 1138SOL     OW14875   0.063   0.822   6.773 -0.0663  0.2409  0.0352
 1138SOL    HW114876   0.055   0.757   6.843  0.0140  0.6386  0.4125
 1138SOL    HW214877   0.103   0.893   6.824 -1.6823  0.8839  0.4120
 1139SOL     OW14878   2.456   1.506   2.762 -0.0228  0.1049 -0.2779
 1139SOL    HW114879   2.544   1.479   2.737  0.2229 -0.5499  1.3004
 1139SOL    HW214880   2.425   1.433   2.816 -0.6020 -0.3920 -1.2833
 1140SOL     OW14881   1.803   4.554   2.575  0.2235  0.0308 -0.6355
 1140SOL    HW114882   1.846   4.634   2.604 -1.0054  0.7138 -0.7241
 1140SOL    HW214883   1.737   4.537   2.642 -0.3113 -0.4255 -1.2796
 1141SOL     OW14884   0.879   3.426  17.453  0.1213 -0.5687 -0.6901
 1141SOL    HW114885   0.913   3.511  17.482  0.6099 -0.0478 -2.7362
 1141SOL    HW214886   0.831   3.452  17.374 -0.4780  1.7250  0.4317
 1142SOL     OW14887   2.576   1.840   1.894 -0.1034 -0.6447 -0.1685
 1142SOL    HW114888   2.604   1.917   1.943 -1.5790 -0.4332  0.3546
 1142SOL    HW214889   2.644   1.776   1.915  1.3437  1.5344  1.7001
 1143SOL     OW14890   2.370   3.561   0.810 -0.7894 -0.1948 -0.3316
 1143SOL    HW114891   2.341   3.525   0.726  0.3878 -0.6529 -0.5485
 1143SOL    HW214892   2.324   3.645   0.808 -0.6825 -0.1465 -0.8926
 1144SOL     OW14893   2.164   4.303   5.432  0.6835 -0.4450  0.0692
 1144SOL    HW114894   2.252   4.312   5.467  0.9610  1.3192 -1.1014
 1144SOL    HW214895   2.172   4.240   5.360  0.2476 -2.5264  1.8485
 1145SOL     OW14896   2.906   2.474   3.739  0.1372  0.1952  0.3243
 1145SOL    HW114897   2.848   2.508   3.807 -0.1489 -0.9364  0.6329
 1145SOL    HW214898   2.878   2.383   3.730 -0.3634  0.3905 -0.0778
 1146SOL     OW14899   2.657   0.786  17.418  0.4457 -0.2957  0.3803
 1146SOL    HW114900   2.698   0.727  17.356  1.1910  1.2293 -0.5830
 1146SOL    HW214901   2.679   0.868  17.372  0.6897  0.0023  1.0161
 1147SOL     OW14902   4.137   2.016   8.366  0.1759 -0.3019 -0.6501
 1147SOL    HW114903   4.142   1.991   8.459  0.8767  1.9642 -0.0824
 1147SOL    HW214904   4.141   1.930   8.324  0.0135 -0.8140  0.3611
 1148SOL     OW14905   3.053   0.068  13.455  0.2318  0.1033  0.1193
 1148SOL    HW114906   3.145   0.093  13.442  1.3865 -3.7502  0.7673
 1148SOL    HW214907   3.016   0.105  13.376 -0.3943  1.7391  1.1871
 1149SOL     OW14908   0.223   3.037   4.372 -0.1847  0.0965  0.5443
 1149SOL    HW114909   0.310   3.060   4.403 -0.4937 -0.7197  2.0000
 1149SOL    HW214910   0.253   3.005   4.287 -0.9908 -0.9849  0.6715
 1150SOL     OW14911   3.653   2.028  16.752  0.1476 -0.0206 -0.2959
 1150SOL    HW114912   3.685   2.117  16.737  0.6739  0.4552  3.6180
 1150SOL    HW214913   3.617   1.998  16.668  3.2152 -3.0266 -0.5149
 1151SOL     OW14914   3.947   2.516   5.986 -0.2923  0.2848  0.2951
 1151SOL    HW114915   3.908   2.440   5.942 -0.1994  0.6331 -0.3957
 1151SOL    HW214916   3.994   2.487   6.064 -0.0298  1.7061  0.6685
 1152SOL     OW14917   3.388   4.391  11.944  0.3339  0.8483  0.2863
 1152SOL    HW114918   3.382   4.390  12.040 -0.2448 -3.4141  0.1992
 1152SOL    HW214919   3.468   4.441  11.934  0.0628  1.3715  0.7063
 1153SOL     OW14920   0.575   1.693  10.139  0.1892  0.3235 -0.2250
 1153SOL    HW114921   0.537   1.764  10.191  0.4665  0.3331 -0.0348
 1153SOL    HW214922   0.668   1.716  10.142  0.6738 -1.3918 -2.2997
 1154SOL     OW14923   1.313   1.357   2.849  0.7422 -0.3899 -0.0737
 1154SOL    HW114924   1.319   1.305   2.769 -1.9441  1.4576 -1.4781
 1154SOL    HW214925   1.240   1.313   2.892  0.0050  1.1383  0.2411
 1155SOL     OW14926   1.747   3.054   1.857  0.2302 -0.1079  0.2481
 1155SOL    HW114927   1.835   3.083   1.881  0.6168  1.3128 -2.9389
 1155SOL    HW214928   1.761   2.986   1.791 -0.7874 -1.4328  1.3847
 1156SOL     OW14929   4.722   4.455   7.320 -0.5128 -0.5659 -0.0116
 1156SOL    HW114930   4.666   4.456   7.242  0.1695 -0.8661 -0.5015
 1156SOL    HW214931   4.666   4.396   7.370 -0.6737  0.1746  0.6777
 1157SOL     OW14932   1.799   3.011  10.793 -0.7328 -0.5939 -0.1934
 1157SOL    HW114933   1.756   3.009  10.878 -1.0801  0.6351 -0.3483
 1157SOL    HW214934   1.872   3.069  10.812 -1.6902  1.6920 -3.5069
 1158SOL     OW14935   2.708   3.164   1.233 -0.2722 -0.3789  0.6957
 1158SOL    HW114936   2.632   3.216   1.258  0.4235  2.6966 -3.5483
 1158SOL    HW214937   2.684   3.145   1.142 -2.5980  0.8081  1.0643
 1159SOL     OW14938   4.316   2.017   8.996  0.3488  0.1304  0.4953
 1159SOL    HW114939   4.344   1.966   9.072  0.1188  0.1450  0.5895
 1159SOL    HW214940   4.286   1.954   8.930 -1.0281  2.5647 -1.1917
 1160SOL     OW14941   1.815   2.990   6.447 -0.1365 -0.5067  0.9811
 1160SOL    HW114942   1.910   2.993   6.449 -0.1541  1.2713 -0.2085
 1160SOL    HW214943   1.803   2.947   6.531  0.5781 -2.4650  0.0749
 1161SOL     OW14944   2.719   2.728   7.657 -0.1747 -0.0903 -0.7127
 1161SOL    HW114945   2.708   2.715   7.751 -1.8441  0.0058 -0.8938
 1161SOL    HW214946   2.768   2.809   7.652 -1.7546  0.7973 -1.9618
 1162SOL     OW14947   2.494   0.682   8.757 -0.1313 -0.6117  0.3895
 1162SOL    HW114948   2.523   0.698   8.846 -0.6535 -1.7968  0.7777
 1162SOL    HW214949   2.575   0.669   8.707 -0.1468 -0.1876  0.2582
 1163SOL     OW14950   0.520   1.267   7.474 -0.4380 -0.1705  0.1251
 1163SOL    HW114951   0.435   1.274   7.430 -0.6213  2.4026  0.8786
 1163SOL    HW214952   0.512   1.177   7.507 -0.9159 -0.4608 -0.7718
 1164SOL     OW14953   1.771   1.409   1.962 -0.8078 -0.0953  0.2735
 1164SOL    HW114954   1.764   1.504   1.975  0.0007 -0.0401  0.3098
 1164SOL    HW214955   1.823   1.426   1.883 -1.0923 -2.4727 -0.4011
 1165SOL     OW14956   1.132   1.191   3.839  0.2646 -0.2390 -0.0134
 1165SOL    HW114957   1.191   1.255   3.800 -0.7869  0.6772 -0.0872
 1165SOL    HW214958   1.139   1.108   3.791  0.5086  0.4963 -1.2557
 1166SOL     OW14959   3.762   4.253   1.958  0.8436  0.0732 -0.2705
 1166SOL    HW114960   3.756   4.270   2.052 -0.5414 -0.0973 -0.3135
 1166SOL    HW214961   3.726   4.164   1.950 -1.3234  0.6010  3.3657
 1167SOL     OW14962   0.352   3.739  14.718 -0.0199  0.0850  0.3047
 1167SOL    HW114963   0.420   3.782  14.667  0.1982 -0.7490 -0.1078
 1167SOL    HW214964   0.273   3.754  14.665  0.4365 -2.5501 -1.1291
 1168SOL     OW14965   0.007   2.191   5.963  0.0981  0.2895  0.0872
 1168SOL    HW114966   0.033   2.143   6.041 -0.4086  0.6868  0.4979
 1168SOL    HW214967   0.024   2.128   5.892  1.8611 -0.7500  1.4419
 1169SOL     OW14968   3.437   2.596  10.510 -0.4625  0.4513  0.1893
 1169SOL    HW114969   3.486   2.609  10.592 -0.6995 -0.3144  0.4478
 1169SOL    HW214970   3.399   2.683  10.495 -0.3165  0.5211  0.2178
 1170SOL     OW14971   0.210   1.032   6.426  0.6100  0.1223  0.0185
 1170SOL    HW114972   0.302   1.039   6.453  0.8258  0.6698 -0.8503
 1170SOL    HW214973   0.231   0.989   6.343  1.7546 -0.6179  0.6831
 1171SOL     OW14974   3.558   0.907   2.241  0.9063 -0.3051  0.6754
 1171SOL    HW114975   3.510   0.987   2.263 -0.7962 -0.5702 -2.0997
 1171SOL    HW214976   3.484   0.850   2.224 -0.0521  0.9927  0.4747
 1172SOL     OW14977   1.494   1.334  15.868 -0.0462  0.3581 -0.0777
 1172SOL    HW114978   1.458   1.249  15.894 -0.8072  0.8546  0.4688
 1172SOL    HW214979   1.588   1.315  15.874 -0.6114 -2.5629 -0.6706
 1173SOL     OW14980   1.901   2.412   7.956 -0.2683 -0.4464  0.1810
 1173SOL    HW114981   1.818   2.403   7.908  0.9625  0.5053 -2.1606
 1173SOL    HW214982   1.911   2.506   7.941  3.5278 -0.7227  1.0669
 1174SOL     OW14983   1.716   1.537   8.573  0.6431  0.3156 -0.5080
 1174SOL    HW114984   1.795   1.557   8.624  0.4231  1.9362 -0.7931
 1174SOL    HW214985   1.752   1.531   8.485  0.7796  1.0796 -0.5020
 1175SOL     OW14986   0.965   1.870   3.823  0.4362  0.3525  0.1214
 1175SOL    HW114987   0.971   1.912   3.737 -1.0652 -0.1927 -0.2478
 1175SOL    HW214988   1.014   1.792   3.797  2.1232  1.9064 -1.4491
 1176SOL     OW14989   2.319   3.392   3.285 -0.1119  0.2741 -0.1012
 1176SOL    HW114990   2.327   3.315   3.342  1.0211  0.7047  0.3398
 1176SOL    HW214991   2.363   3.359   3.207 -1.0876 -1.8874  0.2815
 1177SOL     OW14992   1.624   2.274  12.319 -0.1393  0.0648  0.0934
 1177SOL    HW114993   1.615   2.198  12.262 -1.5205  0.2720  0.0506
 1177SOL    HW214994   1.587   2.349  12.272 -1.0247 -1.0917 -1.0333
 1178SOL     OW14995   0.555   0.459  10.525  0.8305  0.4569 -0.5649
 1178SOL    HW114996   0.628   0.428  10.579 -0.6889 -0.5808  0.8644
 1178SOL    HW214997   0.601   0.445  10.442  2.9522  1.1979  0.4609
 1179SOL     OW14998   3.745   1.404   7.101  0.2849 -1.1311 -0.5373
 1179SOL    HW114999   3.687   1.416   7.176  2.2323  2.4032  0.3799
 1179SOL    HW215000   3.759   1.310   7.095  0.4529 -1.1724  0.6346
 1180SOL     OW15001   0.444   3.347   2.969  0.2277 -0.0492  0.2953
 1180SOL    HW115002   0.412   3.321   3.056 -0.4540  0.2879  0.1361
 1180SOL    HW215003   0.365   3.367   2.921  0.0339 -2.0210 -0.2054
 1181SOL     OW15004   1.846   4.155  14.997 -0.6570 -0.1971 -0.7109
 1181SOL    HW115005   1.904   4.186  15.067 -2.4863  0.6227  0.4288
 1181SOL    HW215006   1.762   4.188  15.029 -0.3861  1.4898 -1.7336
 1182SOL     OW15007   3.425   0.352  12.862  0.6369  0.3383 -0.0223
 1182SOL    HW115008   3.365   0.412  12.907 -0.6821 -0.5728 -0.5451
 1182SOL    HW215009   3.485   0.417  12.824  0.0651  0.8636 -0.0267
 1183SOL     OW15010   3.630   2.109   4.431 -0.2857  0.5007 -0.8352
 1183SOL    HW115011   3.558   2.069   4.481  0.1424 -0.1415 -0.7348
 1183SOL    HW215012   3.709   2.090   4.482  0.0873  1.8674 -0.9119
 1184SOL     OW15013   0.409   2.048   4.851 -0.3248  0.3313  0.0597
 1184SOL    HW115014   0.387   2.112   4.783  1.0907 -0.9725 -1.6008
 1184SOL    HW215015   0.320   2.033   4.885 -0.3578 -1.0249 -0.6509
 1185SOL     OW15016   0.885   3.677   3.533 -0.4608 -0.4020  0.1089
 1185SOL    HW115017   0.796   3.710   3.543 -1.1584 -1.7238 -1.6774
 1185SOL    HW215018   0.931   3.760   3.542 -0.1535 -0.3164 -2.2205
 1186SOL     OW15019   3.845   2.499   0.132 -0.3441 -0.1802 -0.5923
 1186SOL    HW115020   3.824   2.510   0.039  0.0613 -0.5698 -0.7330
 1186SOL    HW215021   3.764   2.468   0.173 -0.3807  1.4653  0.5745
 1187SOL     OW15022   0.459   1.064   4.170  0.6254 -0.9154  0.2322
 1187SOL    HW115023   0.418   1.008   4.236  0.6975  0.7095  1.6576
 1187SOL    HW215024   0.528   1.009   4.132  1.6392  0.8986 -0.5199
 1188SOL     OW15025   2.454   2.565   3.744  0.2451  0.4892 -0.2003
 1188SOL    HW115026   2.487   2.591   3.658  0.6731 -1.9893 -0.7598
 1188SOL    HW215027   2.464   2.471   3.732  0.6921  0.7163 -1.5669
 1189SOL     OW15028   3.635   2.806   6.780 -0.5319  0.0259  0.0997
 1189SOL    HW115029   3.669   2.767   6.861 -3.9099 -2.6747  0.1770
 1189SOL    HW215030   3.551   2.845   6.806 -1.2156 -1.5898  0.3204
 1190SOL     OW15031   2.520   0.213  14.818  0.0767  0.0435  0.4944
 1190SOL    HW115032   2.523   0.279  14.749 -1.4052 -0.8060 -0.3826
 1190SOL    HW215033   2.495   0.143  14.757 -1.3230  0.7417  0.2748
 1191SOL     OW15034   4.295   0.860   5.737 -0.0464 -0.4214  0.1232
 1191SOL    HW115035   4.212   0.879   5.780  1.3708  2.5413  1.5303
 1191SOL    HW215036   4.290   0.915   5.658 -1.2717 -0.8922 -0.1248
 1192SOL     OW15037   3.373   1.917   4.442 -0.2348 -0.5548 -0.3621
 1192SOL    HW115038   3.405   1.957   4.522 -0.2816 -0.1225 -0.5622
 1192SOL    HW215039   3.281   1.943   4.440  0.0690  0.5686  0.8276
 1193SOL     OW15040   4.535   3.771  12.693  0.1326 -0.1869 -0.3368
 1193SOL    HW115041   4.551   3.803  12.782 -1.6354 -0.5448  0.1015
 1193SOL    HW215042   4.613   3.792  12.641 -0.2537 -1.5757 -1.4608
 1194SOL     OW15043   3.545   2.093   6.472 -0.3353 -0.0064  0.2020
 1194SOL    HW115044   3.496   2.032   6.417  0.2083  0.0447 -0.3392
 1194SOL    HW215045   3.523   2.065   6.560  0.5252 -0.6039  0.2190
 1195SOL     OW15046   2.784   0.886   5.793 -0.1222  0.2860  0.0488
 1195SOL    HW115047   2.694   0.881   5.762 -0.0902  2.9026 -0.4952
 1195SOL    HW215048   2.784   0.842   5.878 -1.5567 -0.1937 -0.2117
 1196SOL     OW15049   1.697   2.125  16.439  0.1662  0.3708  0.1780
 1196SOL    HW115050   1.679   2.066  16.366 -0.0128  1.4237 -0.6353
 1196SOL    HW215051   1.781   2.090  16.468 -0.5557 -1.6237 -0.1352
 1197SOL     OW15052   2.328   3.065   4.392 -0.4554 -0.0084  0.0421
 1197SOL    HW115053   2.365   3.060   4.480 -0.3939 -0.6944 -0.0196
 1197SOL    HW215054   2.234   3.064   4.407 -0.7434 -0.8294 -1.7364
 1198SOL     OW15055   3.261   2.887   5.031 -0.0000  0.0103 -0.0319
 1198SOL    HW115056   3.271   2.821   4.963  2.1162  0.2032  0.0997
 1198SOL    HW215057   3.167   2.902   5.040  0.1291 -1.0149  3.0590
 1199SOL     OW15058   3.170   2.036   5.315 -0.4383  0.0858  0.0276
 1199SOL    HW115059   3.206   1.952   5.344  0.9423  0.6600 -0.0408
 1199SOL    HW215060   3.244   2.092   5.339 -0.3428  0.2360 -0.6352
 1200SOL     OW15061   1.907   1.685   1.597 -0.4013 -0.1803 -0.0154
 1200SOL    HW115062   1.964   1.616   1.563 -0.3626 -0.6580  1.0430
 1200SOL    HW215063   1.961   1.697   1.675 -0.1595  1.8620 -0.5102
 1201SOL     OW15064   3.599   0.250   2.829  0.0866 -0.7747 -0.1129
 1201SOL    HW115065   3.578   0.293   2.746 -0.7463  0.9910  1.0215
 1201SOL    HW215066   3.658   0.181   2.798  1.3756 -0.4667  1.6267
 1202SOL     OW15067   1.400   2.871   4.603  0.0624  0.8850  0.2587
 1202SOL    HW115068   1.454   2.883   4.525 -0.2996  1.9312  0.1673
 1202SOL    HW215069   1.314   2.845   4.568  0.9490 -0.6325 -0.7904
 1203SOL     OW15070   3.034   2.108   3.884  0.0697  0.2492  0.3444
 1203SOL    HW115071   3.034   2.018   3.917  1.2781  0.9125  2.1716
 1203SOL    HW215072   3.126   2.134   3.898  0.7963 -0.9444 -2.3237
 1204SOL     OW15073   2.030   1.975   5.038 -0.2858 -0.3988  0.0026
 1204SOL    HW115074   1.942   1.944   5.016  1.1874 -3.2593 -1.8776
 1204SOL    HW215075   2.014   2.058   5.081 -0.4195 -0.0934 -0.6342
 1205SOL     OW15076   2.378   3.669   7.007 -0.1332  0.3158  0.0626
 1205SOL    HW115077   2.419   3.626   7.081 -0.4001  1.2889  0.7670
 1205SOL    HW215078   2.290   3.632   7.004 -0.1363  0.4123 -1.1047
 1206SOL     OW15079   2.238   3.972   2.385  0.2322 -0.1919  0.0555
 1206SOL    HW115080   2.147   3.999   2.399  0.5260  0.8805 -0.0980
 1206SOL    HW215081   2.274   4.058   2.361  0.8602 -0.4955 -0.0730
 1207SOL     OW15082   3.876   3.838   8.881  0.2430 -0.1249 -0.0049
 1207SOL    HW115083   3.912   3.811   8.965  1.5504  3.1301  0.5047
 1207SOL    HW215084   3.812   3.904   8.908 -0.3418 -1.1174  1.0212
 1208SOL     OW15085   0.296   2.699   9.212 -0.6961  0.0203  0.1199
 1208SOL    HW115086   0.243   2.698   9.292 -1.8989  0.4937 -0.6663
 1208SOL    HW215087   0.228   2.675   9.149 -0.5946  0.2523 -0.0771
 1209SOL     OW15088   0.336   3.703   6.653 -0.4122 -0.6758 -0.6212
 1209SOL    HW115089   0.318   3.762   6.725  1.3703 -1.3992  0.4395
 1209SOL    HW215090   0.245   3.678   6.642 -1.0311  0.2777  2.4078
 1210SOL     OW15091   2.724   4.355   4.250  0.2186  0.2187  0.0014
 1210SOL    HW115092   2.770   4.438   4.262  1.3364 -0.3576 -0.3215
 1210SOL    HW215093   2.789   4.303   4.298 -1.6051 -1.5025  0.6068
 1211SOL     OW15094   4.234   1.117   3.519  0.1762  0.5418 -0.0878
 1211SOL    HW115095   4.185   1.168   3.584  0.7556 -2.3831  2.6116
 1211SOL    HW215096   4.222   1.185   3.452 -3.5535 -0.1046 -0.1110
 1212SOL     OW15097   4.249   0.079   6.819 -0.7220 -0.3643 -0.1723
 1212SOL    HW115098   4.316   0.137   6.857 -0.7731  0.7082 -1.7436
 1212SOL    HW215099   4.266   0.089   6.726  1.3151 -0.1841  0.2175
 1213SOL     OW15100   2.769   0.053   5.826 -1.2709 -0.0818 -0.3158
 1213SOL    HW115101   2.700   0.007   5.779 -1.6617  0.1796  0.0003
 1213SOL    HW215102   2.721   0.090   5.900 -1.3088 -0.0366 -0.3633
 1214SOL     OW15103   3.370   0.889   9.735 -0.1993  0.0045  0.2385
 1214SOL    HW115104   3.312   0.881   9.811 -0.6140 -0.2854 -0.1140
 1214SOL    HW215105   3.459   0.894   9.771  0.2948  0.3418 -1.0496
 1215SOL     OW15106   3.502   2.973   1.704  0.1881 -0.5319  0.3808
 1215SOL    HW115107   3.532   2.929   1.625  0.0434 -2.5082  1.4044
 1215SOL    HW215108   3.554   2.928   1.771  0.7255  0.1083  0.3918
 1216SOL     OW15109   3.847   0.741   8.433 -0.6390  0.2297 -0.0773
 1216SOL    HW115110   3.941   0.757   8.436 -0.3883 -1.1786 -0.2922
 1216SOL    HW215111   3.835   0.766   8.525 -0.8092  2.4560 -0.7169
 1217SOL     OW15112   2.668   1.261   0.978  0.1280  0.1993 -0.4409
 1217SOL    HW115113   2.717   1.341   0.999  0.2276  0.0569 -0.1282
 1217SOL    HW215114   2.640   1.233   1.065  1.3912  0.4923  0.0577
 1218SOL     OW15115   1.728   1.243   7.360  0.1348 -0.3304  0.3788
 1218SOL    HW115116   1.635   1.238   7.380  0.2397  0.3910  1.0696
 1218SOL    HW215117   1.751   1.319   7.414 -0.0924 -1.2746  1.8067
 1219SOL     OW15118   4.025   3.148   4.931  0.2271  0.4762 -0.1174
 1219SOL    HW115119   4.114   3.116   4.947 -0.0732 -0.8353 -1.0633
 1219SOL    HW215120   4.024   3.240   4.957  0.5737  0.5165 -0.2485
 1220SOL     OW15121   3.757   4.455   8.224 -0.5077 -0.1960 -0.2922
 1220SOL    HW115122   3.718   4.533   8.264  0.2124  0.1157 -0.1971
 1220SOL    HW215123   3.786   4.408   8.303  0.3322  0.7107 -0.0509
 1221SOL     OW15124   3.206   0.156   2.957  0.0720 -0.6562 -0.3504
 1221SOL    HW115125   3.260   0.231   2.935 -0.2860  0.1383  1.4699
 1221SOL    HW215126   3.247   0.083   2.910  0.0232  0.1627 -1.6851
 1222SOL     OW15127   1.332   4.551   8.999 -0.2089 -0.2677 -0.3958
 1222SOL    HW115128   1.250   4.527   8.955 -1.3198  0.8502  1.0833
 1222SOL    HW215129   1.298   4.615   9.060 -2.2066 -2.0844  0.3995
 1223SOL     OW15130   4.474   4.079  14.915 -0.6967 -0.0079 -0.1887
 1223SOL    HW115131   4.451   4.028  14.837 -0.9948 -0.7337  0.3740
 1223SOL    HW215132   4.478   4.004  14.974  1.1753  1.6676  1.7942
 1224SOL     OW15133   4.582   3.326   5.797  0.1777  0.0205  0.5302
 1224SOL    HW115134   4.668   3.294   5.769 -1.4958 -2.2093 -2.0182
 1224SOL    HW215135   4.536   3.287   5.723  0.3102  1.9982 -0.5868
 1225SOL     OW15136   2.253   3.540  13.166  0.0230  0.0864  0.5056
 1225SOL    HW115137   2.323   3.497  13.117 -1.2689 -1.3526 -0.0687
 1225SOL    HW215138   2.301   3.590  13.232  2.7805  1.0013 -2.2086
 1226SOL     OW15139   2.354   3.887   8.679  0.1161 -0.2416 -0.4425
 1226SOL    HW115140   2.285   3.949   8.657  1.0100  1.9848  2.9965
 1226SOL    HW215141   2.299   3.824   8.725 -1.0938  0.5360 -0.8370
 1227SOL     OW15142   0.551   2.494  12.969  0.5366  0.3420 -0.0491
 1227SOL    HW115143   0.479   2.485  13.033 -0.7531  0.5455 -1.4638
 1227SOL    HW215144   0.607   2.559  13.011 -0.1902  0.5086  0.6775
 1228SOL     OW15145   2.510   1.400   6.731 -0.1865  0.2892 -0.2789
 1228SOL    HW115146   2.470   1.475   6.776  0.1197 -0.2712  0.9234
 1228SOL    HW215147   2.503   1.434   6.641 -1.7899 -0.4045 -0.4121
 1229SOL     OW15148   3.824   0.368   5.280 -0.7607  0.0588  0.1418
 1229SOL    HW115149   3.871   0.442   5.242 -0.4831  0.0558  0.4783
 1229SOL    HW215150   3.849   0.302   5.216  1.2600  1.1575 -0.1865
 1230SOL     OW15151   2.680   0.528   3.277 -0.1065 -0.0999  0.0764
 1230SOL    HW115152   2.728   0.564   3.352  0.1712 -1.8265  0.7369
 1230SOL    HW215153   2.729   0.445   3.270 -1.9979 -1.0018 -2.4017
 1231SOL     OW15154   4.412   4.659   5.284  0.0099  0.1321 -0.0923
 1231SOL    HW115155   4.445   4.690   5.368 -0.6650 -0.4075  0.3649
 1231SOL    HW215156   4.439   0.009   5.229  0.0842 -0.6012 -1.0329
 1232SOL     OW15157   4.717   1.268   7.366 -0.6909  0.5059 -0.0353
 1232SOL    HW115158   4.632   1.288   7.325 -1.4414 -1.1045  0.7476
 1232SOL    HW215159   4.702   1.214   7.443  1.1797 -0.3584 -0.2866
 1233SOL     OW15160   2.198   0.622   3.453 -0.5774 -0.8783  0.4370
 1233SOL    HW115161   2.188   0.717   3.460 -0.5778 -0.8638  0.2342
 1233SOL    HW215162   2.293   0.611   3.447 -0.4290 -0.0203  1.2849
 1234SOL     OW15163   2.490   2.529   6.231 -0.0309 -0.4479 -0.3274
 1234SOL    HW115164   2.477   2.449   6.179 -1.1678  0.1637 -0.9903
 1234SOL    HW215165   2.582   2.556   6.230 -0.1960  0.1005 -2.5458
 1235SOL     OW15166   2.800   2.417   7.895 -0.0036  0.5969 -0.8387
 1235SOL    HW115167   2.835   2.413   7.806  3.6992 -1.6003  0.7185
 1235SOL    HW215168   2.877   2.446   7.945 -1.6670  2.8738  0.3805
 1236SOL     OW15169   2.277   4.484   4.673 -0.0160  0.4490  0.4231
 1236SOL    HW115170   2.327   4.478   4.754  0.2617  2.6972  0.4097
 1236SOL    HW215171   2.192   4.448   4.698  1.1635 -1.9285  1.0277
 1237SOL     OW15172   1.257   4.250   6.756 -0.1581 -0.0390  0.1905
 1237SOL    HW115173   1.262   4.325   6.816  1.2548 -1.1549  1.4812
 1237SOL    HW215174   1.206   4.289   6.685  1.4352  1.8904  0.0886
 1238SOL     OW15175   1.147   3.744  12.973 -0.0043 -0.1158 -0.4361
 1238SOL    HW115176   1.094   3.738  13.052  0.5514 -1.2225 -0.1600
 1238SOL    HW215177   1.169   3.837  12.983 -0.3957 -0.0009 -0.6331
 1239SOL     OW15178   3.200   4.634   1.949  0.6745  0.3006 -0.5947
 1239SOL    HW115179   3.260   4.657   1.879  2.3756 -1.3580  0.3110
 1239SOL    HW215180   3.180   4.718   1.990 -1.4660 -1.2265  1.5226
 1240SOL     OW15181   3.857   3.393   3.765 -0.5193  0.1923 -0.4625
 1240SOL    HW115182   3.876   3.317   3.820  2.3463  0.7525 -0.6445
 1240SOL    HW215183   3.771   3.425   3.791  1.2973  1.6589  3.6833
 1241SOL     OW15184   4.522   2.303   5.723 -0.1358  0.4988 -0.0859
 1241SOL    HW115185   4.480   2.217   5.730 -0.3754  0.6338  0.1620
 1241SOL    HW215186   4.615   2.289   5.737 -0.4941 -2.5159 -0.7485
 1242SOL     OW15187   2.335   1.272   4.294  0.2740 -0.4396 -0.1078
 1242SOL    HW115188   2.369   1.313   4.373  2.9103 -0.1104 -1.4115
 1242SOL    HW215189   2.407   1.268   4.231 -1.3623 -0.5110 -1.9911
 1243SOL     OW15190   2.507   0.803  11.584  0.3359 -0.5492  0.3754
 1243SOL    HW115191   2.467   0.771  11.503  0.7298  0.2570 -0.1340
 1243SOL    HW215192   2.438   0.860  11.619  1.1071  1.4854 -1.4193
 1244SOL     OW15193   2.930   4.577   9.948 -0.0242 -0.1545 -0.1136
 1244SOL    HW115194   2.887   4.616  10.024 -1.3738 -2.6732  0.4385
 1244SOL    HW215195   2.959   4.655   9.901  0.9914  0.2955  1.2725
 1245SOL     OW15196   0.564   2.734   6.742  0.8897 -0.0280 -0.3683
 1245SOL    HW115197   0.549   2.753   6.649 -0.4052 -0.9396 -0.3529
 1245SOL    HW215198   0.577   2.820   6.783 -0.2542  0.5813 -1.2575
 1246SOL     OW15199   2.091   1.748   5.972  0.1220 -0.1230  0.3596
 1246SOL    HW115200   2.100   1.735   5.878  0.6420 -0.9848  0.5256
 1246SOL    HW215201   2.059   1.838   5.977  1.8146  0.5109 -0.1618
 1247SOL     OW15202   0.558   0.452   7.391  0.1583 -0.3757  0.1400
 1247SOL    HW115203   0.612   0.376   7.413 -0.1027  0.0164  2.1913
 1247SOL    HW215204   0.519   0.411   7.314  2.6083  1.7062 -2.2165
 1248SOL     OW15205   0.119   1.180   4.710 -0.2181 -0.3402 -0.4312
 1248SOL    HW115206   0.084   1.190   4.621 -1.6137 -0.9921  0.0512
 1248SOL    HW215207   0.062   1.227   4.770 -0.7083  0.6447 -1.6654
 1249SOL     OW15208   3.140   3.185   8.859  0.2452  0.2903  0.1265
 1249SOL    HW115209   3.236   3.182   8.860  0.2730  1.9267  1.3459
 1249SOL    HW215210   3.124   3.277   8.880 -0.5805 -0.1678  1.5109
 1250SOL     OW15211   0.088   1.262   4.446  0.3832  0.4104 -0.1579
 1250SOL    HW115212   0.159   1.266   4.382 -0.4975  0.6758 -1.1239
 1250SOL    HW215213   0.015   1.279   4.387 -0.2429 -3.4521 -0.4909
 1251SOL     OW15214   2.925   2.795   2.452 -0.6290 -0.6490 -0.1416
 1251SOL    HW115215   2.964   2.844   2.525  0.2961 -0.1719 -0.9474
 1251SOL    HW215216   2.955   2.711   2.488 -0.7157 -0.8580 -0.5525
 1252SOL     OW15217   1.666   0.382   8.218 -0.3112  0.2959  0.0582
 1252SOL    HW115218   1.678   0.458   8.276 -0.7697 -0.6985  1.4464
 1252SOL    HW215219   1.576   0.362   8.243 -0.5327 -0.1372 -1.0933
 1253SOL     OW15220   4.338   3.977   6.268 -0.0439  0.1879 -0.6511
 1253SOL    HW115221   4.299   3.893   6.292  0.7715 -0.3794 -1.3491
 1253SOL    HW215222   4.430   3.957   6.286  0.5958  3.0290 -0.7825
 1254SOL     OW15223   2.690   3.123  10.508 -0.1372 -0.0015  0.0383
 1254SOL    HW115224   2.632   3.071  10.453 -0.8882  0.0940  0.7312
 1254SOL    HW215225   2.679   3.078  10.592  1.4882  0.3020  0.4151
 1255SOL     OW15226   2.023   3.090  11.906 -0.5457  0.0129  0.0026
 1255SOL    HW115227   2.105   3.102  11.859 -1.1123  1.7358 -0.5571
 1255SOL    HW215228   1.975   3.167  11.875 -0.7172 -0.1591 -0.1630
 1256SOL     OW15229   1.961   1.664   4.631  0.0639 -0.0408  0.0489
 1256SOL    HW115230   2.021   1.601   4.592  1.0886 -0.2294  1.9249
 1256SOL    HW215231   1.878   1.629   4.600 -0.0398 -0.8258  1.1873
 1257SOL     OW15232   1.744   2.608   7.080  0.2064  0.2449  0.2639
 1257SOL    HW115233   1.791   2.660   7.146  1.4213 -0.3368 -0.1477
 1257SOL    HW215234   1.686   2.681   7.057 -0.1867 -0.3109 -0.5051
 1258SOL     OW15235   4.479   0.541  12.122 -0.2184 -0.6762 -0.5648
 1258SOL    HW115236   4.395   0.521  12.081 -1.5735  2.4087  0.6819
 1258SOL    HW215237   4.504   0.458  12.162  0.3448  0.0098  0.5228
 1259SOL     OW15238   1.861   4.323   3.559 -0.3689 -0.4157  0.3800
 1259SOL    HW115239   1.774   4.339   3.597 -0.0269  1.1136  0.5063
 1259SOL    HW215240   1.852   4.380   3.483  1.9620 -0.7905 -0.1875
 1260SOL     OW15241   3.955   3.637   4.652 -0.5931  0.0334 -0.5083
 1260SOL    HW115242   4.014   3.579   4.604 -0.4266 -0.0116 -0.2453
 1260SOL    HW215243   3.904   3.572   4.699  0.0332 -0.2101 -0.1686
 1261SOL     OW15244   3.938   4.645   6.689  0.2466 -0.2975 -0.3658
 1261SOL    HW115245   4.028   4.619   6.669 -0.6835 -2.8727 -1.2385
 1261SOL    HW215246   3.924   4.594   6.768 -1.0659  1.2361  0.3841
 1262SOL     OW15247   3.805   1.553   9.152  0.2180  0.0679 -0.4531
 1262SOL    HW115248   3.774   1.492   9.084  0.2057 -0.9670  0.4769
 1262SOL    HW215249   3.845   1.627   9.108 -2.6420  2.0775  0.3167
 1263SOL     OW15250   3.223   1.860  12.440  0.2351  0.4676 -0.5828
 1263SOL    HW115251   3.133   1.886  12.422 -0.9522 -1.6373  2.2395
 1263SOL    HW215252   3.203   1.777  12.483  1.5050  0.0300 -0.8320
 1264SOL     OW15253   4.359   2.816   7.544  0.5717  0.3514  0.3689
 1264SOL    HW115254   4.383   2.909   7.552  0.9692  0.1405  1.8008
 1264SOL    HW215255   4.368   2.778   7.632  1.3588  0.5109  0.3627
 1265SOL     OW15256   2.890   4.026   2.910  0.4666 -0.3678 -0.0969
 1265SOL    HW115257   2.803   3.986   2.914 -0.0969  1.0532  1.9217
 1265SOL    HW215258   2.895   4.068   2.824 -0.8622  2.1153  1.0257
 1266SOL     OW15259   1.364   4.163   9.155 -0.3690  0.3004  1.4176
 1266SOL    HW115260   1.356   4.239   9.213  1.7573  0.4736  1.5039
 1266SOL    HW215261   1.324   4.097   9.211 -0.6523 -0.9893 -0.2948
 1267SOL     OW15262   1.904   1.080   6.481  0.5189  0.0218  0.1637
 1267SOL    HW115263   1.967   1.104   6.549 -0.0966  2.8477 -0.2855
 1267SOL    HW215264   1.872   0.996   6.515  1.0114  0.7423  2.4003
 1268SOL     OW15265   3.475   1.186   2.818  0.4647 -0.1463  0.2042
 1268SOL    HW115266   3.484   1.223   2.730  3.1219  1.4410  1.1470
 1268SOL    HW215267   3.385   1.155   2.815 -0.2288  2.0893 -2.0508
 1269SOL     OW15268   1.868   3.584   1.845  0.1380  0.2171 -0.3762
 1269SOL    HW115269   1.903   3.529   1.775 -0.7875  0.1896 -0.8258
 1269SOL    HW215270   1.777   3.551   1.844  0.2724 -0.1659  0.2537
 1270SOL     OW15271   1.229   0.683   3.036  0.2985  0.5749  0.3438
 1270SOL    HW115272   1.262   0.695   3.125  2.2532  0.0386 -0.3098
 1270SOL    HW215273   1.136   0.661   3.049  0.7754 -1.6413 -0.0493
 1271SOL     OW15274   0.671   1.823   8.616  0.3896  0.1053  0.4600
 1271SOL    HW115275   0.744   1.874   8.583  0.0791  1.1535  1.3989
 1271SOL    HW215276   0.713   1.739   8.636  1.6751  0.4298 -0.9023
 1272SOL     OW15277   0.880   3.428   8.432 -0.3459  0.6517 -0.2642
 1272SOL    HW115278   0.889   3.353   8.491  0.4843  0.4647 -0.6306
 1272SOL    HW215279   0.870   3.381   8.349  1.7016  0.6922 -0.5452
 1273SOL     OW15280   2.352   1.333   3.202  0.4019 -0.1399 -0.2190
 1273SOL    HW115281   2.269   1.286   3.201 -0.5496  1.5064  0.3915
 1273SOL    HW215282   2.377   1.335   3.294  1.5590  0.6740 -0.5560
 1274SOL     OW15283   2.062   0.410   5.582 -0.0324 -0.4892  0.2018
 1274SOL    HW115284   2.040   0.378   5.670 -0.1171  0.2853  0.4637
 1274SOL    HW215285   2.119   0.343   5.544  2.3519  1.6292  0.1081
 1275SOL     OW15286   0.321   3.916  16.303  0.1952  0.0751  0.2277
 1275SOL    HW115287   0.292   3.856  16.372 -1.0483  0.1896 -0.1931
 1275SOL    HW215288   0.248   3.977  16.286 -0.4971 -0.8516 -0.1561
 1276SOL     OW15289   2.145   0.700   0.750  0.2103 -0.0453  0.1434
 1276SOL    HW115290   2.072   0.762   0.758 -0.6008 -0.8488 -0.9299
 1276SOL    HW215291   2.211   0.765   0.728  0.7007 -0.5430  0.1310
 1277SOL     OW15292   2.301   2.627   6.707 -0.1145  0.2528 -0.1147
 1277SOL    HW115293   2.306   2.566   6.781 -0.5745  0.0814 -0.2285
 1277SOL    HW215294   2.291   2.570   6.631  3.0957 -1.5059  0.7741
 1278SOL     OW15295   2.487   1.830   0.213 -0.1104  0.0384 -0.1260
 1278SOL    HW115296   2.474   1.745   0.256  0.2521  0.3290  0.5683
 1278SOL    HW215297   2.454   1.816   0.125 -1.2519 -1.2611  0.5139
 1279SOL     OW15298   3.377   3.890   4.897  0.2870  0.8241 -0.2895
 1279SOL    HW115299   3.350   3.859   4.983 -0.7274  0.2713 -0.8029
 1279SOL    HW215300   3.472   3.878   4.906  0.6319  1.1558 -3.5117
 1280SOL     OW15301   1.762   3.335   6.540 -0.5373  0.1670 -0.4809
 1280SOL    HW115302   1.671   3.363   6.527  0.1793  1.6423 -2.3371
 1280SOL    HW215303   1.770   3.368   6.630 -0.5067 -0.6707 -0.1817
 1281SOL     OW15304   2.722   0.161   3.469  0.1062 -0.0532  0.0602
 1281SOL    HW115305   2.744   0.193   3.382 -0.9973 -1.5251 -0.7631
 1281SOL    HW215306   2.644   0.111   3.444 -0.3700  1.3058 -1.1604
 1282SOL     OW15307   1.225   3.566   2.165  0.2013 -0.0216 -0.1012
 1282SOL    HW115308   1.223   3.485   2.114  2.5089  0.1252 -0.4555
 1282SOL    HW215309   1.180   3.630   2.110 -1.0563 -1.0570 -0.2759
 1283SOL     OW15310   4.542   3.360   7.162  0.1396 -0.2643  0.1128
 1283SOL    HW115311   4.556   3.300   7.090 -1.6462  0.8296 -1.1526
 1283SOL    HW215312   4.624   3.410   7.164  0.7159 -1.2118 -0.2993
 1284SOL     OW15313   3.374   3.460   7.144  0.1229 -0.2748 -0.0728
 1284SOL    HW115314   3.449   3.415   7.184  0.3364  1.2582  1.2526
 1284SOL    HW215315   3.413   3.528   7.088 -0.7103  1.4841  1.4898
 1285SOL     OW15316   2.861   4.580   4.349  0.3110 -0.1168 -0.1487
 1285SOL    HW115317   2.842   4.622   4.265  0.3939  0.8843  0.3300
 1285SOL    HW215318   2.949   4.609   4.372  1.6154 -2.5002 -2.1265
 1286SOL     OW15319   2.116   4.148   3.190 -0.0528  0.4785 -0.1066
 1286SOL    HW115320   2.135   4.172   3.281  1.0900  0.4641 -0.3436
 1286SOL    HW215321   2.197   4.100   3.173  0.6903  0.7236  2.6867
 1287SOL     OW15322   0.994   1.306   1.503  0.2356  0.5152 -0.3861
 1287SOL    HW115323   1.072   1.357   1.521  1.8244 -1.6016 -1.2409
 1287SOL    HW215324   1.007   1.285   1.410  0.7587  0.3598 -0.2755
 1288SOL     OW15325   0.193   1.560   4.321  0.0260 -0.2154 -0.2085
 1288SOL    HW115326   0.207   1.466   4.318 -0.4394 -0.2304 -1.7939
 1288SOL    HW215327   0.272   1.592   4.365  1.2367  0.7753 -3.1119
 1289SOL     OW15328   4.006   4.025   3.338 -0.0897 -0.0026  0.0098
 1289SOL    HW115329   3.954   4.036   3.259  0.1951 -0.7707 -0.2777
 1289SOL    HW215330   4.080   3.974   3.305  1.5752  2.2152  0.2821
 1290SOL     OW15331   1.145   0.115   3.795 -0.3130  0.4327 -0.1524
 1290SOL    HW115332   1.166   0.199   3.757 -0.6104 -0.5996 -2.5848
 1290SOL    HW215333   1.236   0.084   3.804 -1.3642 -2.9301 -0.8649
 1291SOL     OW15334   0.844   0.899   0.430  0.1449 -0.0244 -0.4844
 1291SOL    HW115335   0.845   0.811   0.469 -0.6897 -0.5313 -1.5824
 1291SOL    HW215336   0.906   0.891   0.358  1.5417  1.4624  0.5678
 1292SOL     OW15337   0.566   4.543  17.512 -0.3309 -0.5660  0.1801
 1292SOL    HW115338   0.623   4.540  17.589  1.2574  0.3450 -0.9544
 1292SOL    HW215339   0.618   4.497  17.445 -1.2258 -2.0043  0.4736
 1293SOL     OW15340   2.846   0.247   8.665 -0.2194 -0.5237 -0.0919
 1293SOL    HW115341   2.779   0.234   8.597 -0.0476 -2.5383  0.1440
 1293SOL    HW215342   2.786   0.231   8.738  1.3817 -0.9175  1.1220
 1294SOL     OW15343   1.939   1.731  16.516  0.2163 -0.0268  0.1206
 1294SOL    HW115344   1.967   1.823  16.515 -0.7528  0.2518 -0.6972
 1294SOL    HW215345   2.007   1.680  16.471  1.3670  1.0954  0.5743
 1295SOL     OW15346   1.620   3.140  11.886 -0.6141 -0.1201 -0.3573
 1295SOL    HW115347   1.690   3.204  11.870  0.5224 -1.1331  0.5627
 1295SOL    HW215348   1.610   3.106  11.797  0.3247  0.6404 -0.7593
 1296SOL     OW15349   1.386   3.254   2.643  0.0205  0.2860  0.0385
 1296SOL    HW115350   1.392   3.268   2.738 -0.1288 -1.8781  0.3641
 1296SOL    HW215351   1.470   3.292   2.615  0.2614 -1.2948 -1.3707
 1297SOL     OW15352   0.600   0.832   8.774 -0.1670 -0.4600 -0.9730
 1297SOL    HW115353   0.639   0.889   8.709  0.3897  1.1580  0.7979
 1297SOL    HW215354   0.506   0.840   8.760 -0.0299 -0.9588 -2.1708
 1298SOL     OW15355   2.003   0.860   5.969 -0.6621  0.2536 -0.1952
 1298SOL    HW115356   2.079   0.896   5.922  0.3269 -0.8749  0.5325
 1298SOL    HW215357   2.001   0.917   6.045  1.5627 -0.1289  0.1670
 1299SOL     OW15358   4.497   2.516   5.192 -0.2611  0.2754  0.0515
 1299SOL    HW115359   4.417   2.518   5.139 -0.8202 -1.9292  0.7918
 1299SOL    HW215360   4.474   2.587   5.252 -0.4124  0.1365  0.1602
 1300SOL     OW15361   0.226   1.236   2.512  0.1128  0.0621 -0.1343
 1300SOL    HW115362   0.178   1.206   2.434  1.7877 -1.4344 -0.5882
 1300SOL    HW215363   0.280   1.157   2.518  0.4163  0.1459 -1.6209
 1301SOL     OW15364   2.529   1.233  11.618  0.3113 -0.2021  0.0270
 1301SOL    HW115365   2.479   1.275  11.548  0.9088  1.3169  0.5072
 1301SOL    HW215366   2.462   1.217  11.684 -0.9586  0.6021 -1.0797
 1302SOL     OW15367   1.889   3.254   4.425 -0.4083  0.3174 -0.3745
 1302SOL    HW115368   1.940   3.201   4.363 -1.0069  0.6646 -1.1583
 1302SOL    HW215369   1.920   3.219   4.508 -1.0802  0.4127 -0.0839
 1303SOL     OW15370   1.491   2.521   8.662 -0.1035  0.1532 -0.0904
 1303SOL    HW115371   1.540   2.500   8.583 -1.3256 -0.0620 -0.7955
 1303SOL    HW215372   1.405   2.535   8.622 -0.8570  1.2466  1.8642
 1304SOL     OW15373   2.040   4.569   7.434 -0.1286 -0.4340 -0.0394
 1304SOL    HW115374   2.076   4.510   7.368  0.3473 -0.4287  0.2155
 1304SOL    HW215375   2.113   4.631   7.442  1.4104 -2.0855 -1.4163
 1305SOL     OW15376   1.516   2.276   8.764  0.4899 -0.1683 -0.4246
 1305SOL    HW115377   1.517   2.369   8.744 -0.2202 -0.4732 -1.8643
 1305SOL    HW215378   1.585   2.281   8.831  1.0220 -2.1743 -0.8141
 1306SOL     OW15379   1.266   3.848   2.860  0.0321  0.4073 -0.1363
 1306SOL    HW115380   1.254   3.910   2.932 -3.1260 -1.6362  1.1101
 1306SOL    HW215381   1.360   3.831   2.855  0.2162  1.5425 -0.3936
 1307SOL     OW15382   0.369   0.080  16.179 -0.2444 -0.3283  0.4315
 1307SOL    HW115383   0.320   0.052  16.102  0.7339  1.0312 -0.6799
 1307SOL    HW215384   0.432   0.137  16.136 -0.8196 -0.5959 -0.7516
 1308SOL     OW15385   1.877   4.675   9.967 -0.1664  0.3857 -0.3542
 1308SOL    HW115386   1.918   0.018   9.913 -0.4253  1.1301  0.3743
 1308SOL    HW215387   1.846   0.008  10.037  0.2687 -2.9640  2.5850
 1309SOL     OW15388   1.318   3.578  12.271 -0.1580  0.2969 -0.1696
 1309SOL    HW115389   1.246   3.520  12.299 -0.6323  0.8626 -0.2282
 1309SOL    HW215390   1.264   3.657  12.262 -0.8243 -0.5541 -3.4696
 1310SOL     OW15391   1.286   1.518  12.592 -0.2269  0.0873  0.0655
 1310SOL    HW115392   1.293   1.465  12.512 -2.7251 -1.1493  0.6747
 1310SOL    HW215393   1.324   1.605  12.582 -0.3544  0.3285  1.7803
 1311SOL     OW15394   2.273   3.611   5.994  0.1909  0.5647 -0.3878
 1311SOL    HW115395   2.184   3.613   6.029 -0.2586  0.5364 -1.5480
 1311SOL    HW215396   2.310   3.663   6.066  2.3488 -0.0868 -1.0342
 1312SOL     OW15397   2.440   3.881   5.687  0.6965 -0.2655  0.3545
 1312SOL    HW115398   2.382   3.947   5.726 -1.2646 -1.7377 -0.0751
 1312SOL    HW215399   2.444   3.916   5.598  2.1411  0.2983  0.6422
 1313SOL     OW15400   3.543   1.135   7.359  0.0886  0.0491 -0.2643
 1313SOL    HW115401   3.515   1.217   7.317 -0.1873  1.0598  1.8655
 1313SOL    HW215402   3.632   1.157   7.333 -0.5884  0.7327 -1.9826
 1314SOL     OW15403   1.052   2.960   3.166 -0.3880  0.7719  0.0626
 1314SOL    HW115404   1.016   3.011   3.093 -1.7027 -1.4902 -0.8847
 1314SOL    HW215405   1.038   3.015   3.243  0.3372 -0.0168  0.7511
 1315SOL     OW15406   1.197   4.457   3.978  0.1942 -0.2260  0.3598
 1315SOL    HW115407   1.258   4.530   3.964  1.4046 -0.6990  3.3669
 1315SOL    HW215408   1.115   4.487   3.937 -0.4043  0.5106  2.0966
 1316SOL     OW15409   1.327   1.421   6.678 -0.1381 -1.1234  0.6368
 1316SOL    HW115410   1.401   1.386   6.628 -0.4567 -0.1741 -0.5171
 1316SOL    HW215411   1.360   1.416   6.767 -3.2251  0.5943  1.8743
 1317SOL     OW15412   1.999   0.588   6.048  0.2630  0.3600  0.0683
 1317SOL    HW115413   1.982   0.682   6.053 -1.1455  0.1893 -1.4927
 1317SOL    HW215414   1.968   0.559   6.134 -0.3156  0.3620 -0.1355
 1318SOL     OW15415   0.323   2.504   1.983 -0.0542 -0.3890  0.2120
 1318SOL    HW115416   0.300   2.595   1.965  3.0468  0.4754  0.5527
 1318SOL    HW215417   0.372   2.524   2.063 -0.0203  1.8837 -0.3663
 1319SOL     OW15418   3.611   1.078   3.755 -0.4526 -0.3246 -0.1951
 1319SOL    HW115419   3.684   1.019   3.735 -2.4001 -2.5128 -0.7672
 1319SOL    HW215420   3.619   1.063   3.849  0.4700 -0.5980 -0.3087
 1320SOL     OW15421   0.128   4.163  14.614 -0.0016 -0.4734 -0.0936
 1320SOL    HW115422   0.142   4.098  14.682  2.2927 -0.5644 -0.6610
 1320SOL    HW215423   0.199   4.219  14.645 -0.6652  0.1445  0.3216
 1321SOL     OW15424   1.644   2.361   3.783  0.4202  0.1022  0.4710
 1321SOL    HW115425   1.671   2.449   3.810 -1.6405  0.4619  1.3513
 1321SOL    HW215426   1.585   2.389   3.713  0.2452 -0.7762  0.2759
 1322SOL     OW15427   1.735   0.253   6.030  0.7703 -0.1465 -0.4416
 1322SOL    HW115428   1.794   0.266   5.955 -2.0188  1.9972 -2.2523
 1322SOL    HW215429   1.725   0.158   6.023 -1.3372 -0.0068  0.8333
 1323SOL     OW15430   0.774   0.477   6.934  0.4283  0.2459 -0.3983
 1323SOL    HW115431   0.833   0.448   7.004 -1.0581 -0.1919  0.6821
 1323SOL    HW215432   0.832   0.483   6.858  0.8714  1.0322  0.0064
 1324SOL     OW15433   3.233   0.534   4.326  0.5443  0.1293 -0.0016
 1324SOL    HW115434   3.154   0.551   4.377  1.3875  2.5772  0.5006
 1324SOL    HW215435   3.304   0.511   4.385  1.9886  0.9481 -1.4245
 1325SOL     OW15436   2.707   2.742   4.667 -0.2790  0.2108 -0.2453
 1325SOL    HW115437   2.678   2.773   4.753 -0.2839 -1.3158  0.3152
 1325SOL    HW215438   2.783   2.796   4.647  0.6961 -1.1928 -0.3674
 1326SOL     OW15439   3.511   2.997  16.842 -0.0820  0.1199 -0.5341
 1326SOL    HW115440   3.605   3.008  16.852 -0.0328  0.3786 -1.2765
 1326SOL    HW215441   3.484   3.087  16.826  0.9701  0.8483  1.8837
 1327SOL     OW15442   4.327   0.678   2.385 -0.1176 -0.0458 -0.1078
 1327SOL    HW115443   4.377   0.597   2.379 -0.0769 -0.0411  0.2088
 1327SOL    HW215444   4.396   0.735   2.351 -0.6082 -1.2453 -3.1814
 1328SOL     OW15445   0.390   3.847   2.991  0.0038  0.5608 -0.6205
 1328SOL    HW115446   0.394   3.792   3.070 -0.0285 -2.3128 -2.6147
 1328SOL    HW215447   0.295   3.850   2.977 -0.0158  1.5582 -0.2649
 1329SOL     OW15448   2.408   4.689   1.814 -0.8713  0.3979 -0.6951
 1329SOL    HW115449   2.410   4.674   1.908 -0.0623  1.1874 -0.5888
 1329SOL    HW215450   2.493   4.668   1.776 -1.4652 -0.6943 -1.4095
 1330SOL     OW15451   1.662   2.081  17.466 -0.2650  0.0972  0.3587
 1330SOL    HW115452   1.719   2.147  17.506 -2.9878  2.2734  0.6031
 1330SOL    HW215453   1.572   2.111  17.470 -0.1937  0.5933 -1.6416
 1331SOL     OW15454   2.589   3.419   1.768  0.6412 -0.2689  0.8346
 1331SOL    HW115455   2.540   3.500   1.784  0.0315 -0.2199 -1.3489
 1331SOL    HW215456   2.676   3.447   1.799  0.8393  0.9105 -0.7566
 1332SOL     OW15457   0.712   4.230  10.969 -0.2318  0.7855 -0.5321
 1332SOL    HW115458   0.766   4.196  11.040 -1.9865  0.4096  0.6168
 1332SOL    HW215459   0.761   4.305  10.936  0.9442  0.2089 -0.0959
 1333SOL     OW15460   3.597   2.980  10.749  0.2579  0.0140  0.2462
 1333SOL    HW115461   3.534   2.912  10.773  0.4843 -0.5053 -0.6335
 1333SOL    HW215462   3.577   3.045  10.816 -0.5605  0.5094 -0.4761
 1334SOL     OW15463   0.290   2.183  17.525 -0.5724 -0.0235  0.3298
 1334SOL    HW115464   0.314   2.275  17.513  0.0772 -0.3012 -0.5167
 1334SOL    HW215465   0.312   2.142  17.442  0.9670  0.0869  0.6904
 1335SOL     OW15466   2.505   0.442   5.772  0.0424  0.7055 -0.2878
 1335SOL    HW115467   2.491   0.495   5.694 -0.0994  1.3146  0.1542
 1335SOL    HW215468   2.417   0.449   5.809 -0.3872 -1.1295 -0.9336
 1336SOL     OW15469   3.220   2.515   8.349 -0.5566  0.1703 -0.3344
 1336SOL    HW115470   3.270   2.484   8.273 -1.4771  1.7701 -1.5665
 1336SOL    HW215471   3.209   2.433   8.397  0.0016  0.1482 -0.2381
 1337SOL     OW15472   1.027   3.814  17.392  0.7755 -0.3599  0.1133
 1337SOL    HW115473   1.045   3.769  17.310 -0.1856 -2.0437  0.8349
 1337SOL    HW215474   0.952   3.768  17.427  0.3318  1.6172  1.7752
 1338SOL     OW15475   3.375   1.194   3.912  0.4014 -0.2151  0.2624
 1338SOL    HW115476   3.402   1.236   3.993 -0.6890  0.9821  0.0032
 1338SOL    HW215477   3.422   1.241   3.843 -1.6607  1.2607 -0.1435
 1339SOL     OW15478   3.910   0.800   5.407  0.1789  0.3060 -0.0719
 1339SOL    HW115479   3.961   0.877   5.430 -1.1102  0.5880  1.8200
 1339SOL    HW215480   3.932   0.750   5.486  1.1340 -2.4215 -2.0785
 1340SOL     OW15481   3.308   1.436   3.418 -0.7764 -0.1098 -0.1745
 1340SOL    HW115482   3.389   1.386   3.408  0.3418  1.7141 -0.0682
 1340SOL    HW215483   3.334   1.518   3.378 -1.7421 -0.2743 -1.1255
 1341SOL     OW15484   2.562   4.301   2.227 -0.2380  0.5581  0.2744
 1341SOL    HW115485   2.596   4.305   2.137  0.9698 -1.6924  0.6385
 1341SOL    HW215486   2.590   4.384   2.267  0.4943  0.2036  0.4807
 1342SOL     OW15487   2.294   4.641  16.105 -0.1705  0.1316 -0.2617
 1342SOL    HW115488   2.231   4.570  16.113  0.5042 -0.3475  0.9097
 1342SOL    HW215489   2.363   4.615  16.167  1.3393  0.0805 -1.9507
 1343SOL     OW15490   0.727   1.752   0.054 -0.1143 -0.4234  0.0715
 1343SOL    HW115491   0.633   1.754   0.037  0.3828 -1.9475 -2.9268
 1343SOL    HW215492   0.739   1.657   0.045 -1.2052 -0.6253  0.7778
 1344SOL     OW15493   1.873   3.612  12.956 -0.2067 -0.3901 -0.1887
 1344SOL    HW115494   1.968   3.619  12.951 -0.1081  0.2421  2.6805
 1344SOL    HW215495   1.871   3.530  12.906 -1.1671  1.2578 -2.8213
 1345SOL     OW15496   3.416   3.191   8.370  0.5898 -0.0214  0.1452
 1345SOL    HW115497   3.346   3.223   8.426 -0.3468 -0.0264 -1.0249
 1345SOL    HW215498   3.367   3.121   8.327 -0.3302  1.3389 -0.9919
 1346SOL     OW15499   1.600   1.193   2.487  0.6103 -0.2375  0.8055
 1346SOL    HW115500   1.589   1.287   2.498 -0.3764 -0.2813  0.1936
 1346SOL    HW215501   1.569   1.186   2.396 -0.4809 -0.3736  1.1960
 1347SOL     OW15502   4.693   4.610   1.006  0.3785 -0.3621 -0.5575
 1347SOL    HW115503   0.007   4.522   1.013  0.0232 -0.4910 -0.1905
 1347SOL    HW215504   4.629   4.596   0.936  0.2838 -0.8904 -0.3657
 1348SOL     OW15505   1.653   1.446   9.066  0.1656 -0.0498 -0.1467
 1348SOL    HW115506   1.739   1.407   9.078  1.1943  1.8724 -1.2839
 1348SOL    HW215507   1.676   1.521   9.011 -0.3317  1.7505  2.1104
 1349SOL     OW15508   1.109   1.509   7.666 -0.0304  0.5635 -0.2458
 1349SOL    HW115509   1.031   1.562   7.652 -2.8613 -3.8962 -1.3269
 1349SOL    HW215510   1.141   1.545   7.748 -0.0121 -0.8643  0.3770
 1350SOL     OW15511   2.433   0.846   4.692  0.2244 -0.4164  0.3865
 1350SOL    HW115512   2.480   0.847   4.776  1.4892 -1.0237 -0.3226
 1350SOL    HW215513   2.391   0.761   4.697 -0.6097 -0.0625 -0.6200
 1351SOL     OW15514   1.736   1.954  15.489  0.4861 -0.2704  0.5391
 1351SOL    HW115515   1.786   2.017  15.438 -0.0908 -1.1746 -1.1405
 1351SOL    HW215516   1.736   1.992  15.577 -0.0983 -1.6743  1.1539
 1352SOL     OW15517   3.878   2.247   0.380 -0.5133  0.1303  0.4366
 1352SOL    HW115518   3.832   2.199   0.311  2.3692 -3.0804  0.7492
 1352SOL    HW215519   3.866   2.192   0.457  1.4125 -0.7217  0.1264
 1353SOL     OW15520   0.518   1.543   8.449 -0.0760 -0.2183  0.0411
 1353SOL    HW115521   0.533   1.470   8.510  0.7679 -0.0823 -0.0007
 1353SOL    HW215522   0.600   1.592   8.458 -0.0882  0.0621 -1.4062
 1354SOL     OW15523   1.270   0.758   5.592  0.1104 -0.1894  0.2545
 1354SOL    HW115524   1.259   0.772   5.686 -1.2920  0.7821 -0.0554
 1354SOL    HW215525   1.319   0.839   5.577 -0.3901  0.0012 -0.3678
 1355SOL     OW15526   3.081   2.679   5.228 -0.0975  0.3870 -0.2843
 1355SOL    HW115527   3.159   2.724   5.196 -0.2102 -0.3645 -1.6394
 1355SOL    HW215528   3.044   2.746   5.285  1.1772  2.8000 -2.3184
 1356SOL     OW15529   4.326   3.897  11.613 -0.0078 -0.2657 -0.1710
 1356SOL    HW115530   4.244   3.878  11.568 -0.6491 -1.2106  1.4100
 1356SOL    HW215531   4.295   3.940  11.693  0.6589  0.1127 -0.1141
 1357SOL     OW15532   1.427   1.598   5.665  0.6500  0.4387  0.2230
 1357SOL    HW115533   1.494   1.549   5.618  1.6150  0.1884  1.8735
 1357SOL    HW215534   1.426   1.681   5.617 -0.5146 -0.5694 -1.5140
 1358SOL     OW15535   1.952   1.851  16.042  0.0172  0.3770  0.5026
 1358SOL    HW115536   1.862   1.821  16.040 -0.2826  1.4259 -1.7643
 1358SOL    HW215537   1.934   1.935  16.083 -1.3593 -0.1363  0.9314
 1359SOL     OW15538   1.623   0.703  10.103  0.0920  0.0045 -0.1341
 1359SOL    HW115539   1.623   0.798  10.089 -0.8861 -0.1960 -1.4790
 1359SOL    HW215540   1.589   0.675  10.018 -0.5042  1.6718 -0.4553
 1360SOL     OW15541   3.364   0.451   4.040 -0.5725 -0.3112  0.6931
 1360SOL    HW115542   3.441   0.417   3.994  0.4521  1.8678  0.8222
 1360SOL    HW215543   3.404   0.513   4.100  0.8567  0.7164 -1.3141
 1361SOL     OW15544   4.722   4.682   2.396  0.2887  0.8087 -0.1496
 1361SOL    HW115545   0.026   0.050   2.394  0.9121  0.6307  0.4449
 1361SOL    HW215546   0.068   4.642   2.344  0.2484  1.5634 -0.7985
 1362SOL     OW15547   3.141   2.739   0.478  0.2143 -0.1327  0.5541
 1362SOL    HW115548   3.172   2.812   0.425 -1.3442 -0.5975 -1.0065
 1362SOL    HW215549   3.221   2.706   0.520  0.8098 -0.3533 -0.7504
 1363SOL     OW15550   2.734   4.142   4.043 -0.5920  0.0456  0.8668
 1363SOL    HW115551   2.817   4.107   4.074 -0.3800 -0.9140 -0.7279
 1363SOL    HW215552   2.727   4.216   4.103  1.3608 -0.0483  1.2028
 1364SOL     OW15553   1.818   2.405   2.689 -0.2245  0.0915  0.3554
 1364SOL    HW115554   1.844   2.326   2.737  2.2804 -0.7998 -2.4338
 1364SOL    HW215555   1.724   2.393   2.678 -0.3981  1.7929 -0.0306
 1365SOL     OW15556   0.749   2.465   5.887  0.2550  0.2440  0.2634
 1365SOL    HW115557   0.791   2.429   5.965  0.6979  1.7829  0.7455
 1365SOL    HW215558   0.745   2.560   5.900  0.2116  0.1113  1.2303
 1366SOL     OW15559   0.314   2.752   8.851 -0.1175 -0.1859  0.2423
 1366SOL    HW115560   0.255   2.719   8.918  1.8241  0.4853  2.2748
 1366SOL    HW215561   0.320   2.847   8.860  0.0516 -0.0248 -1.4670
 1367SOL     OW15562   4.685   2.775   9.569  0.0715 -0.2969 -0.2911
 1367SOL    HW115563   4.697   2.687   9.605  0.5159  0.4228  1.3524
 1367SOL    HW215564   4.672   2.758   9.476 -1.6988 -0.9362  0.0878
 1368SOL     OW15565   0.215   1.990   4.428  0.3976 -0.1254  0.2405
 1368SOL    HW115566   0.276   1.930   4.384 -1.6825 -2.2589  0.2752
 1368SOL    HW215567   0.216   1.951   4.515 -3.9746  0.5305  0.5824
 1369SOL     OW15568   2.234   3.271   6.558 -0.2496  1.1459  0.4268
 1369SOL    HW115569   2.242   3.253   6.464 -1.1796 -1.3263  0.8060
 1369SOL    HW215570   2.286   3.351   6.559  4.3573 -1.8380  0.6942
 1370SOL     OW15571   0.888   2.246  13.153 -0.0619  0.1640  0.5222
 1370SOL    HW115572   0.852   2.178  13.209  0.6434  0.0101  0.7920
 1370SOL    HW215573   0.856   2.215  13.068  0.6375  0.1949  0.2511
 1371SOL     OW15574   1.723   2.073   0.485 -0.1477 -0.3188  0.0899
 1371SOL    HW115575   1.700   1.987   0.520 -1.7743 -0.5919 -1.6987
 1371SOL    HW215576   1.798   2.052   0.429 -0.9191 -0.3298 -0.9198
 1372SOL     OW15577   1.272   0.957   8.783 -0.1940  0.0939 -0.1897
 1372SOL    HW115578   1.261   0.872   8.826  1.6749  0.7382  1.5575
 1372SOL    HW215579   1.366   0.973   8.791 -0.3615  1.1784 -0.3645
 1373SOL     OW15580   1.695   1.628   4.052 -0.2122  0.2075  0.6606
 1373SOL    HW115581   1.624   1.645   3.991 -1.0117 -0.6976  1.3276
 1373SOL    HW215582   1.745   1.577   3.988  0.0396  0.7724  0.4117
 1374SOL     OW15583   3.428   3.934  10.675  0.5159 -0.8626  0.1273
 1374SOL    HW115584   3.438   4.020  10.634 -0.2132 -1.0915 -0.5375
 1374SOL    HW215585   3.338   3.945  10.707  0.4170  0.1337 -0.4648
 1375SOL     OW15586   4.600   0.822  13.415  0.1636 -0.4938 -0.4437
 1375SOL    HW115587   4.656   0.746  13.431  3.9336  1.8662 -2.4826
 1375SOL    HW215588   4.638   0.889  13.472 -2.3808 -0.7878  1.6144
 1376SOL     OW15589   4.349   0.147   9.579 -0.3315 -0.5970  0.2646
 1376SOL    HW115590   4.272   0.189   9.619 -0.3818 -1.2635  0.8601
 1376SOL    HW215591   4.417   0.136   9.645 -1.1250 -2.5211  0.7509
 1377SOL     OW15592   3.120   3.622   9.138  0.7374 -0.0623  0.2068
 1377SOL    HW115593   3.027   3.601   9.129  1.0026 -0.7077 -0.9593
 1377SOL    HW215594   3.169   3.541   9.151 -0.1671 -0.6224  0.1224
 1378SOL     OW15595   2.728   1.324   8.744  0.4604  0.4264  0.5324
 1378SOL    HW115596   2.660   1.258   8.753  0.6085  0.1264 -0.5233
 1378SOL    HW215597   2.807   1.270   8.748  0.5286  0.4191 -0.8074
 1379SOL     OW15598   0.333   3.396   9.599  0.0557  0.4805  0.2381
 1379SOL    HW115599   0.237   3.401   9.606 -0.1240  1.4662 -3.1376
 1379SOL    HW215600   0.349   3.488   9.575  0.6879  0.5383  0.8678
 1380SOL     OW15601   3.118   2.269  15.477  0.5092  0.1327  0.1191
 1380SOL    HW115602   3.036   2.307  15.505 -0.7915 -1.0973 -1.9997
 1380SOL    HW215603   3.114   2.301  15.387  0.9277 -1.6868 -0.5516
 1381SOL     OW15604   4.119   0.840   9.487  0.3562  0.3792  0.1161
 1381SOL    HW115605   4.159   0.824   9.573  3.7316 -0.4019 -1.6050
 1381SOL    HW215606   4.187   0.832   9.420  0.9188  1.5046  0.5638
 1382SOL     OW15607   3.398   2.741   4.247 -0.6095 -1.0063 -0.1222
 1382SOL    HW115608   3.424   2.652   4.269  1.2578  0.2184  2.5993
 1382SOL    HW215609   3.483   2.772   4.216 -0.1159 -0.1313  2.0814
 1383SOL     OW15610   3.651   2.692   7.022 -0.0130  0.0152  0.4344
 1383SOL    HW115611   3.726   2.700   7.081  0.6837  1.8320 -0.7108
 1383SOL    HW215612   3.599   2.626   7.068 -0.8401 -0.1685 -0.7669
 1384SOL     OW15613   3.861   1.884   3.945  0.2742  0.4801  0.5671
 1384SOL    HW115614   3.891   1.801   3.983  1.7454  0.6363 -0.2463
 1384SOL    HW215615   3.919   1.889   3.869  0.4915 -1.0339  0.6193
 1385SOL     OW15616   4.010   0.185   1.011  0.0075  0.5480  0.3653
 1385SOL    HW115617   3.987   0.189   0.918 -0.0117  1.5935  0.4143
 1385SOL    HW215618   4.074   0.256   1.021  1.2610 -0.7280  1.4720
 1386SOL     OW15619   2.693   1.996   6.875  0.0445 -0.9323 -0.2267
 1386SOL    HW115620   2.755   2.063   6.903  1.8524 -1.8225 -2.0916
 1386SOL    HW215621   2.733   1.984   6.789 -1.7254  1.5854 -1.3907
 1387SOL     OW15622   0.051   1.203  16.406  0.0565  0.6172 -0.0630
 1387SOL    HW115623   0.125   1.262  16.392  0.4377  0.6084  1.8926
 1387SOL    HW215624   0.091   1.129  16.452  0.1932 -0.4808 -1.9473
 1388SOL     OW15625   2.972   4.502  10.298  0.0872 -0.0498 -0.3431
 1388SOL    HW115626   2.986   4.593  10.273 -2.7656  0.2860 -0.7132
 1388SOL    HW215627   2.884   4.488  10.265 -0.2854  0.1199  0.5920
 1389SOL     OW15628   3.678   0.722   4.113 -0.6869 -0.3189  0.2533
 1389SOL    HW115629   3.698   0.679   4.030  0.2203  2.3342 -0.8812
 1389SOL    HW215630   3.591   0.696   4.145  0.1280 -0.8700  2.0144
 1390SOL     OW15631   1.093   0.995   6.201 -0.7996 -0.5015 -0.3549
 1390SOL    HW115632   1.109   1.033   6.287  0.6679 -1.0954 -0.3703
 1390SOL    HW215633   1.015   1.039   6.167 -0.6857  0.4848  0.6902
 1391SOL     OW15634   0.854   3.810   6.558 -0.3296  0.5576 -0.3316
 1391SOL    HW115635   0.768   3.786   6.591  0.0879 -0.0935  0.2674
 1391SOL    HW215636   0.829   3.835   6.469 -0.2036  0.2708 -0.4473
 1392SOL     OW15637   3.963   2.975   8.378  0.2706  0.6421  0.1499
 1392SOL    HW115638   4.014   3.007   8.452 -0.7077  2.0297  0.2250
 1392SOL    HW215639   3.973   2.882   8.398 -0.3450  0.5736  0.1220
 1393SOL     OW15640   3.702   2.949   3.256 -0.0303  0.1641  0.6054
 1393SOL    HW115641   3.687   2.976   3.347 -0.0521 -1.6727  1.1477
 1393SOL    HW215642   3.758   3.022   3.231  1.4069 -0.6633  1.3998
 1394SOL     OW15643   1.889   2.195   4.371  0.0638 -0.0895 -0.3913
 1394SOL    HW115644   1.828   2.196   4.297 -0.9853 -2.9065  0.4260
 1394SOL    HW215645   1.924   2.106   4.369  1.2199  0.4081 -2.1247
 1395SOL     OW15646   4.465   3.029   6.558 -0.0762 -0.2432  0.6462
 1395SOL    HW115647   4.431   3.029   6.468  2.4837 -0.8456 -0.3298
 1395SOL    HW215648   4.432   2.943   6.583 -1.2196  0.1971  0.6677
 1396SOL     OW15649   3.044   2.656   6.374  0.3612 -0.2235  0.2636
 1396SOL    HW115650   3.026   2.562   6.380  1.1846 -0.3249  1.2581
 1396SOL    HW215651   3.004   2.682   6.291  2.3748  3.1214  0.3049
 1397SOL     OW15652   1.401   2.729   8.424  0.1870  0.0729  0.0935
 1397SOL    HW115653   1.338   2.674   8.471  0.1589  0.3364  0.3689
 1397SOL    HW215654   1.418   2.794   8.493  0.3929 -1.6003  1.6291
 1398SOL     OW15655   1.122   3.591   5.830  0.5629  0.2836  0.3951
 1398SOL    HW115656   1.138   3.666   5.888  1.3890 -1.4466  2.4076
 1398SOL    HW215657   1.141   3.626   5.743  0.5511  1.6344  0.9319
 1399SOL     OW15658   2.126   2.787   3.304 -0.7374  0.3365  0.0296
 1399SOL    HW115659   2.060   2.826   3.361 -0.2042  2.2394 -0.6517
 1399SOL    HW215660   2.205   2.840   3.318 -0.9121  1.2095 -2.2565
 1400SOL     OW15661   3.288   2.900  14.534 -0.5547  0.6038 -0.3528
 1400SOL    HW115662   3.211   2.845  14.523  0.4700 -1.1009  0.9539
 1400SOL    HW215663   3.325   2.859  14.612  1.3745 -0.5646 -1.8892
 1401SOL     OW15664   1.021   0.268   4.826 -0.1221 -0.1245  0.8225
 1401SOL    HW115665   1.114   0.289   4.815 -0.3445  1.3138  1.6707
 1401SOL    HW215666   1.020   0.179   4.861 -0.9231  0.0081  1.1369
 1402SOL     OW15667   0.280   1.932  13.686  0.0338  0.2753 -0.0965
 1402SOL    HW115668   0.335   1.916  13.763  0.0667 -0.9419 -0.3688
 1402SOL    HW215669   0.218   1.862  13.709 -1.9711  1.2257 -2.6919
 1403SOL     OW15670   3.651   1.163   0.774  0.7084  0.1884  0.1437
 1403SOL    HW115671   3.614   1.147   0.861  3.3807  1.5204  1.5197
 1403SOL    HW215672   3.710   1.233   0.799  0.3097  0.9089 -0.9327
 1404SOL     OW15673   3.456   1.198   8.709  0.0658 -0.8202 -0.0330
 1404SOL    HW115674   3.397   1.160   8.645 -2.7271 -0.6417  2.4323
 1404SOL    HW215675   3.499   1.116   8.736  0.0236 -0.8906 -0.1833
 1405SOL     OW15676   2.925   2.156   6.899 -0.0103  0.1961 -0.0731
 1405SOL    HW115677   2.977   2.169   6.819  2.0043 -2.0990  0.8791
 1405SOL    HW215678   3.000   2.144   6.957 -0.1808  0.2241  0.1492
 1406SOL     OW15679   2.686   2.870   4.928 -0.4364 -0.6307 -0.0005
 1406SOL    HW115680   2.681   2.962   4.904 -1.9453 -1.2021 -1.8487
 1406SOL    HW215681   2.608   2.849   4.979 -1.6668 -0.8622 -1.9947
 1407SOL     OW15682   3.157   1.131   0.676  0.1867 -0.1652 -0.0600
 1407SOL    HW115683   3.244   1.159   0.648 -0.6944  2.6571  0.0769
 1407SOL    HW215684   3.176   1.056   0.733 -1.1162 -2.2353 -2.3688
 1408SOL     OW15685   2.375   1.615   4.449  0.5703 -0.1475 -0.2710
 1408SOL    HW115686   2.332   1.530   4.465 -0.1122  0.5242  1.4142
 1408SOL    HW215687   2.303   1.651   4.398 -0.4495 -0.9066  0.6571
 1409SOL     OW15688   3.387   3.128   5.055 -0.2483  0.1314 -0.0882
 1409SOL    HW115689   3.321   3.058   5.061  0.2338 -0.3855 -0.8921
 1409SOL    HW215690   3.414   3.103   4.967 -1.5552  0.5868 -0.6188
 1410SOL     OW15691   2.656   1.811   2.599 -0.5140 -0.3113 -0.2441
 1410SOL    HW115692   2.608   1.881   2.643  1.1395  0.1443  0.8194
 1410SOL    HW215693   2.743   1.850   2.594  0.0375 -1.1201  2.9156
 1411SOL     OW15694   3.722   2.568   2.475 -0.2580 -0.0484 -0.1896
 1411SOL    HW115695   3.736   2.620   2.396  1.6874 -0.0345  0.1603
 1411SOL    HW215696   3.801   2.516   2.487 -0.3037  0.3516  1.9063
 1412SOL     OW15697   0.435   2.360   9.959  0.0450 -0.2230  0.2158
 1412SOL    HW115698   0.347   2.325   9.975 -1.1707  2.3783 -0.7581
 1412SOL    HW215699   0.472   2.384  10.044 -0.1424 -1.6433  0.7154
 1413SOL     OW15700   1.802   0.012   0.483 -0.1970  0.0160  0.2096
 1413SOL    HW115701   1.749   0.003   0.405  1.2960  1.4285 -0.9669
 1413SOL    HW215702   1.846   0.096   0.468  1.1222 -0.7009  0.0319
 1414SOL     OW15703   2.545   2.201   4.621 -0.2067  0.1799 -0.7637
 1414SOL    HW115704   2.557   2.106   4.617 -0.1507  0.2363 -1.8124
 1414SOL    HW215705   2.484   2.205   4.695  3.0260  0.3033  1.9237
 1415SOL     OW15706   0.874   3.096  12.159 -0.5629 -0.1990 -0.3339
 1415SOL    HW115707   0.887   3.114  12.252 -2.3463  1.0084 -0.3225
 1415SOL    HW215708   0.828   3.175  12.131 -2.7662 -0.7730  1.6855
 1416SOL     OW15709   0.848   4.100   4.731 -0.1998  0.0281  0.2224
 1416SOL    HW115710   0.915   4.033   4.745  0.4117  0.5230 -0.3121
 1416SOL    HW215711   0.784   4.076   4.797  0.1352 -2.3866 -0.3145
 1417SOL     OW15712   1.090   0.374   4.293 -0.1043 -0.7967  0.1121
 1417SOL    HW115713   1.143   0.441   4.250 -0.6147 -0.0126  0.7006
 1417SOL    HW215714   1.030   0.365   4.219 -1.4547 -2.1684  1.3639
 1418SOL     OW15715   2.419   1.273  13.288 -0.6333 -0.2244 -0.0569
 1418SOL    HW115716   2.451   1.200  13.236 -1.0626  1.5201 -2.7743
 1418SOL    HW215717   2.508   1.307  13.294 -0.8912  0.6043 -0.8514
 1419SOL     OW15718   2.018   1.368  10.728 -0.0825  0.4323 -0.7851
 1419SOL    HW115719   2.060   1.290  10.766  0.0380 -0.6487 -3.1283
 1419SOL    HW215720   2.074   1.364  10.650 -0.4367 -0.0623 -1.0146
 1420SOL     OW15721   1.735   1.267   5.736  0.2434  0.0538  0.1008
 1420SOL    HW115722   1.677   1.192   5.723  0.3433 -0.0992  0.5378
 1420SOL    HW215723   1.712   1.283   5.827 -0.4663  0.1409 -0.0948
 1421SOL     OW15724   1.280   3.080  13.093 -0.5504  0.1133  0.3322
 1421SOL    HW115725   1.289   3.165  13.051  0.3510  0.7295  1.7921
 1421SOL    HW215726   1.353   3.030  13.058  1.2716  0.9596  2.9586
 1422SOL     OW15727   1.641   1.005  11.858  0.2447 -0.4392  0.1179
 1422SOL    HW115728   1.584   1.010  11.781 -1.7307  3.0525  1.8056
 1422SOL    HW215729   1.579   1.020  11.929 -0.2262  2.3835 -0.8672
 1423SOL     OW15730   2.928   3.111   9.040  0.1478  0.4201 -0.2395
 1423SOL    HW115731   2.913   3.016   9.046 -2.8916  0.8283 -1.4313
 1423SOL    HW215732   2.989   3.121   8.967  0.1930  0.1325 -0.2412
 1424SOL     OW15733   1.249   4.714  10.947  0.4910  0.2256 -0.5173
 1424SOL    HW115734   1.290   0.038  10.875  0.2254 -1.3414 -1.7207
 1424SOL    HW215735   1.174   0.042  10.976 -1.3657 -0.5315 -3.8837
 1425SOL     OW15736   4.473   4.360   0.656 -0.4041  0.9842 -0.8788
 1425SOL    HW115737   4.545   4.306   0.623 -0.0167  1.8061 -1.3686
 1425SOL    HW215738   4.411   4.291   0.678  1.5837 -1.0041 -1.4927
 1426SOL     OW15739   0.389   1.739  10.623 -0.3475  0.0072  0.2901
 1426SOL    HW115740   0.331   1.764  10.695 -0.1963  2.5814 -0.5080
 1426SOL    HW215741   0.461   1.719  10.683 -0.7462 -0.8059  0.4937
 1427SOL     OW15742   0.631   4.427  15.400 -0.0583 -0.1793 -0.6278
 1427SOL    HW115743   0.637   4.471  15.485  0.3334 -0.7427 -0.3656
 1427SOL    HW215744   0.604   4.338  15.421 -2.3446  1.4255  3.3063
 1428SOL     OW15745   0.756   3.765   1.961 -0.1368  0.6514  0.3180
 1428SOL    HW115746   0.698   3.731   1.893 -1.6590  1.5194  1.1728
 1428SOL    HW215747   0.744   3.860   1.964 -2.0493  0.4907 -2.7075
 1429SOL     OW15748   2.288   1.259   4.829  0.0258 -0.0140  0.0787
 1429SOL    HW115749   2.273   1.180   4.779 -0.2455  0.0806  0.0093
 1429SOL    HW215750   2.212   1.259   4.888  1.1382 -1.8489  1.5206
 1430SOL     OW15751   3.753   1.093   8.887 -0.4191  0.1941  0.2480
 1430SOL    HW115752   3.759   1.039   8.809 -1.6512  0.4506 -0.0136
 1430SOL    HW215753   3.779   1.024   8.948 -1.6864 -1.0929 -0.6901
 1431SOL     OW15754   0.816   0.600  16.946 -0.0076 -0.1114 -0.7209
 1431SOL    HW115755   0.895   0.546  16.952 -0.1064 -0.5965 -3.7275
 1431SOL    HW215756   0.775   0.572  17.028 -3.4184 -0.4714 -2.5761
 1432SOL     OW15757   3.684   4.359   7.512 -0.0277 -0.8887  0.1609
 1432SOL    HW115758   3.695   4.361   7.417  0.0725 -0.4885  0.1803
 1432SOL    HW215759   3.615   4.294   7.526 -0.4608 -0.6656 -0.9850
 1433SOL     OW15760   3.094   0.204   7.495 -0.4119  0.0788 -0.9955
 1433SOL    HW115761   3.153   0.179   7.424  0.5618  1.0929 -0.5476
 1433SOL    HW215762   3.024   0.225   7.432 -0.5482  0.3317 -0.7576
 1434SOL     OW15763   0.954   3.468   5.482 -0.3802 -0.5288 -0.1338
 1434SOL    HW115764   0.878   3.526   5.484  1.6938  2.0423  3.4704
 1434SOL    HW215765   0.958   3.447   5.389 -1.8871 -1.2683 -0.0283
 1435SOL     OW15766   1.899   1.559   5.436 -0.6401 -0.0778  0.6601
 1435SOL    HW115767   1.890   1.654   5.431 -0.8120 -0.1842 -1.1217
 1435SOL    HW215768   1.869   1.542   5.526  2.1237  1.0414  1.7774
 1436SOL     OW15769   3.477   3.210   0.817 -0.3153 -0.2197 -0.8458
 1436SOL    HW115770   3.439   3.124   0.834 -2.3201  0.6296 -1.0949
 1436SOL    HW215771   3.568   3.189   0.838  0.0211  3.4045  1.3859
 1437SOL     OW15772   3.472   0.039   4.673 -0.0947 -0.3280  0.4053
 1437SOL    HW115773   3.558   0.049   4.633  0.2296  2.5607  1.7828
 1437SOL    HW215774   3.492   4.696   4.739  0.6203 -0.8847 -0.3811
 1438SOL     OW15775   1.601   4.654   3.341 -0.0868  0.7601 -0.4962
 1438SOL    HW115776   1.516   4.611   3.338 -0.7165  2.1868 -2.8650
 1438SOL    HW215777   1.605   4.710   3.264  2.6545  2.2202  0.6923
 1439SOL     OW15778   3.021   3.234   5.629  0.4916  0.0165 -0.4112
 1439SOL    HW115779   3.027   3.147   5.669 -1.1372 -0.0137 -0.2244
 1439SOL    HW215780   3.110   3.268   5.637  1.2038 -1.8179 -0.7302
 1440SOL     OW15781   3.825   2.958   6.297  0.6677 -0.1611 -0.1454
 1440SOL    HW115782   3.870   2.876   6.314  0.9831 -0.1465 -0.8944
 1440SOL    HW215783   3.863   3.016   6.364  0.1344 -0.7400  0.6567
 1441SOL     OW15784   1.597   4.455   1.272 -0.5352  0.4114 -0.8681
 1441SOL    HW115785   1.600   4.404   1.352  0.7341  1.4943 -0.2114
 1441SOL    HW215786   1.592   4.389   1.203  1.6405 -2.3361  1.6433
 1442SOL     OW15787   0.185   4.040   3.634  0.1003  0.1728 -0.4180
 1442SOL    HW115788   0.092   4.025   3.619  0.4758 -1.6538 -0.8875
 1442SOL    HW215789   0.188   4.134   3.614 -2.6569  0.7201  1.7802
 1443SOL     OW15790   3.663   1.630  14.527 -0.0895  0.2514 -0.1169
 1443SOL    HW115791   3.703   1.624  14.441  0.3617 -3.2221  0.3319
 1443SOL    HW215792   3.742   1.661  14.573  1.0534  1.4422 -2.9078
 1444SOL     OW15793   2.919   1.310   1.248  0.2140  0.3431  0.1358
 1444SOL    HW115794   2.989   1.336   1.308  2.1949 -0.5413 -1.7876
 1444SOL    HW215795   2.882   1.241   1.303  0.4606  0.8560  0.9471
 1445SOL     OW15796   4.220   3.826   2.705 -0.2556 -0.0779 -0.3201
 1445SOL    HW115797   4.210   3.772   2.626 -0.1850 -2.0263  1.0185
 1445SOL    HW215798   4.211   3.913   2.666 -2.1037 -0.6708 -1.2248
 1446SOL     OW15799   0.302   3.499  15.533 -0.1445 -0.4224  0.1679
 1446SOL    HW115800   0.337   3.572  15.482 -1.4032 -0.9086 -1.3981
 1446SOL    HW215801   0.326   3.417  15.489 -0.7221 -1.0030  0.9410
 1447SOL     OW15802   3.630   0.743   8.899  0.7652 -0.0317  0.3281
 1447SOL    HW115803   3.553   0.697   8.932 -0.3018 -0.1741 -2.3688
 1447SOL    HW215804   3.695   0.738   8.969  2.0248 -3.0245 -1.0479
 1448SOL     OW15805   3.671   3.623   5.256  0.0549 -0.1321 -1.1365
 1448SOL    HW115806   3.745   3.680   5.278  1.2253 -2.7701  1.8688
 1448SOL    HW215807   3.624   3.622   5.339  0.4519  2.4526 -0.9010
 1449SOL     OW15808   0.664   0.788   6.156 -0.3284 -0.2677 -0.5964
 1449SOL    HW115809   0.733   0.739   6.111 -0.2176 -1.3473  0.7739
 1449SOL    HW215810   0.607   0.816   6.085  0.4846 -3.6276 -2.5742
 1450SOL     OW15811   0.351   0.959   2.179 -0.6992  0.3376  0.4403
 1450SOL    HW115812   0.379   0.999   2.261  0.0843  0.0629  0.3001
 1450SOL    HW215813   0.296   1.024   2.135 -1.0807  0.1354  0.6180
 1451SOL     OW15814   2.377   1.710   2.056  0.2476 -0.8675 -0.3510
 1451SOL    HW115815   2.294   1.753   2.077  1.0945  0.7144 -0.2343
 1451SOL    HW215816   2.436   1.777   2.021  0.4908 -1.5804 -1.3028
 1452SOL     OW15817   0.705   3.657   3.129 -0.0171 -0.3587  0.1664
 1452SOL    HW115818   0.763   3.728   3.102  0.8604 -0.9129  0.5812
 1452SOL    HW215819   0.764   3.599   3.176  1.7092  1.3682  0.1128
 1453SOL     OW15820   3.246   0.156   4.742  0.0413  0.0305  0.5662
 1453SOL    HW115821   3.330   0.112   4.727  1.0228  2.0682  0.0079
 1453SOL    HW215822   3.196   0.113   4.811 -1.9817 -1.0722 -1.6244
 1454SOL     OW15823   0.696   3.485   6.525 -0.5793 -0.3536  0.1276
 1454SOL    HW115824   0.652   3.556   6.570 -0.1253 -0.0691  0.1242
 1454SOL    HW215825   0.770   3.479   6.585 -0.9029  1.2451  0.6809
 1455SOL     OW15826   1.395   0.617  12.602  0.1730 -0.2880 -0.3316
 1455SOL    HW115827   1.456   0.584  12.668  0.9633  0.2493 -0.7975
 1455SOL    HW215828   1.380   0.703  12.642 -0.5531 -0.3273 -0.5118
 1456SOL     OW15829   2.253   0.087   5.256  0.2898 -0.1871  0.3083
 1456SOL    HW115830   2.272   0.019   5.191 -1.8135  0.3525 -0.8712
 1456SOL    HW215831   2.216   0.158   5.204 -0.4967 -1.0757 -0.3528
 1457SOL     OW15832   0.791   2.033   2.871 -0.0624  0.0615  0.1073
 1457SOL    HW115833   0.739   1.987   2.936  1.1485  0.5668  1.4323
 1457SOL    HW215834   0.719   2.065   2.816  1.6215  2.1406 -0.9330
 1458SOL     OW15835   4.556   1.044  13.180 -0.6793  0.1447 -0.0829
 1458SOL    HW115836   4.532   0.952  13.190  0.3772 -0.1334 -0.1188
 1458SOL    HW215837   4.583   1.042  13.089  0.9857 -0.3782  0.4251
 1459SOL     OW15838   0.269   2.907   4.648  0.0982 -0.2133 -0.7246
 1459SOL    HW115839   0.346   2.942   4.603 -1.9944  0.3785 -3.8314
 1459SOL    HW215840   0.268   2.820   4.607  0.7840 -0.5771  0.0276
 1460SOL     OW15841   0.063   1.827   7.175 -0.7333  0.0073 -0.0912
 1460SOL    HW115842   0.090   1.747   7.220 -1.4715  1.7572  3.4030
 1460SOL    HW215843   0.117   1.828   7.096 -2.4264 -1.6637 -1.2679
 1461SOL     OW15844   0.554   4.099  14.486  0.4072  0.4767  0.1039
 1461SOL    HW115845   0.564   4.005  14.498 -1.9766 -0.2342 -3.6577
 1461SOL    HW215846   0.477   4.102  14.430  0.4272  0.8291  0.0928
 1462SOL     OW15847   1.521   3.433   6.508 -0.0004 -0.1250 -0.2595
 1462SOL    HW115848   1.487   3.426   6.598 -0.3770 -2.0265 -0.5393
 1462SOL    HW215849   1.476   3.512   6.481 -0.4217  0.4973  2.2390
 1463SOL     OW15850   0.291   3.420   8.266 -1.0451 -0.5549  0.3709
 1463SOL    HW115851   0.376   3.385   8.294 -1.2484 -1.3602 -0.0171
 1463SOL    HW215852   0.311   3.495   8.211 -2.2661 -1.1352 -0.8643
 1464SOL     OW15853   4.700   4.655   3.776  0.6209  0.0531 -0.5168
 1464SOL    HW115854   4.702   4.577   3.720 -1.5923 -0.1144 -0.3625
 1464SOL    HW215855   4.712   4.619   3.864  1.6478  0.4740 -0.4813
 1465SOL     OW15856   0.340   2.967   8.562  0.7140  0.7362 -0.1931
 1465SOL    HW115857   0.325   2.872   8.564  1.3441  0.6463  0.5634
 1465SOL    HW215858   0.313   2.988   8.651  0.9430 -1.0004  0.2963
 1466SOL     OW15859   0.695   3.516  15.576  0.2149  0.3360 -0.2193
 1466SOL    HW115860   0.646   3.591  15.541 -1.0489 -1.1238 -1.6062
 1466SOL    HW215861   0.746   3.562  15.642 -0.9473  0.1280  0.8176
 1467SOL     OW15862   4.348   1.479   4.015 -0.4661  0.5374 -0.7618
 1467SOL    HW115863   4.317   1.460   3.926  1.5755  0.2028 -1.4163
 1467SOL    HW215864   4.266   1.501   4.058 -1.0528  0.0544 -1.6255
 1468SOL     OW15865   1.343   1.636   4.416 -0.1679 -0.0337  0.0442
 1468SOL    HW115866   1.420   1.691   4.427  0.1511 -0.3406 -0.6346
 1468SOL    HW215867   1.383   1.549   4.404  0.4016  0.4630 -1.6446
 1469SOL     OW15868   0.106   0.747   2.310  0.5478  0.2690 -0.4866
 1469SOL    HW115869   0.065   0.797   2.240  1.0116 -1.3754 -1.9551
 1469SOL    HW215870   0.077   0.659   2.286  0.6089 -0.0874  0.7241
 1470SOL     OW15871   3.236   4.605   9.368 -0.0448 -0.4055 -0.2813
 1470SOL    HW115872   3.228   4.694   9.334  4.0711 -1.1288 -3.1178
 1470SOL    HW215873   3.297   4.621   9.440 -0.9428 -1.6250  0.7448
 1471SOL     OW15874   2.455   0.596   3.646 -0.3403 -0.2844  0.0432
 1471SOL    HW115875   2.496   0.520   3.687 -1.8581 -1.0932  0.0767
 1471SOL    HW215876   2.421   0.544   3.573  1.4837  0.4769 -1.3420
 1472SOL     OW15877   4.288   3.070  17.662 -0.2565  0.2927  0.1167
 1472SOL    HW115878   4.200   3.069   0.003 -1.1864 -2.0345 -2.1092
 1472SOL    HW215879   4.302   2.980  17.633  1.6055 -0.4434  3.3572
 1473SOL     OW15880   4.475   4.416   5.903 -0.5766 -0.3791 -0.4029
 1473SOL    HW115881   4.439   4.334   5.868 -1.4158 -0.3969  0.5024
 1473SOL    HW215882   4.569   4.397   5.904 -0.4515  0.2535 -0.5392
 1474SOL     OW15883   2.793   0.653   5.615 -0.0098  0.2872  0.0441
 1474SOL    HW115884   2.734   0.696   5.677 -0.5241  0.7595 -0.7556
 1474SOL    HW215885   2.875   0.658   5.663 -1.7623 -0.0800  3.0821
 1475SOL     OW15886   1.936   0.595   6.318  0.7315  0.0089 -0.2118
 1475SOL    HW115887   1.901   0.543   6.390  0.7266  1.7354  1.0251
 1475SOL    HW215888   2.000   0.649   6.365 -0.6216  1.0625  0.3998
 1476SOL     OW15889   0.884   0.759   6.720 -0.2237  0.4645 -0.3919
 1476SOL    HW115890   0.974   0.793   6.720 -0.0853  0.1045  0.8731
 1476SOL    HW215891   0.903   0.669   6.694 -0.2450  0.4418 -0.3279
 1477SOL     OW15892   4.497   2.162   5.093  0.2918  0.1148 -0.1238
 1477SOL    HW115893   4.414   2.175   5.140  1.1902  0.0539  1.4763
 1477SOL    HW215894   4.484   2.211   5.012 -2.8127 -1.0049 -0.2931
 1478SOL     OW15895   1.588   0.881   2.529  0.3901 -0.4796 -0.1510
 1478SOL    HW115896   1.666   0.911   2.483  0.0104  0.9137  0.1040
 1478SOL    HW215897   1.527   0.929   2.473 -1.0531 -1.5807  0.4677
 1479SOL     OW15898   2.434   1.495   1.658  0.6613  0.1333  0.0888
 1479SOL    HW115899   2.524   1.462   1.655  1.7732  2.7791  4.1947
 1479SOL    HW215900   2.452   1.588   1.671  0.4773  0.2424 -0.4605
 1480SOL     OW15901   0.354   0.280   7.883  0.8749  0.5656  0.0972
 1480SOL    HW115902   0.446   0.292   7.909  0.9045  1.0910 -0.2466
 1480SOL    HW215903   0.332   0.371   7.904 -0.5172  0.3796 -0.5693
 1481SOL     OW15904   2.421   1.861   6.217  0.8532 -0.2760  0.0200
 1481SOL    HW115905   2.416   1.778   6.169  0.0293  0.0306 -0.4339
 1481SOL    HW215906   2.412   1.912   6.137 -1.3243  1.1648  1.1670
 1482SOL     OW15907   4.516   1.021   2.979  0.3022 -0.2801  0.1174
 1482SOL    HW115908   4.463   0.976   2.913  1.2200 -0.3595 -0.5636
 1482SOL    HW215909   4.449   1.081   3.012  0.8180  0.4632 -0.2214
 1483SOL     OW15910   4.699   2.296   9.632  0.2434 -0.4934  0.0583
 1483SOL    HW115911   4.659   2.347   9.562 -2.1667 -0.3565  1.5698
 1483SOL    HW215912   0.032   2.236   9.583  0.1004 -2.3766  2.2338
 1484SOL     OW15913   3.393   0.038  15.672  1.0866 -0.0599  0.2826
 1484SOL    HW115914   3.331   0.035  15.745  1.5696  1.1153  0.7398
 1484SOL    HW215915   3.337   0.077  15.605  2.4258 -0.9987 -1.3769
 1485SOL     OW15916   4.695   0.108   4.783 -0.2437  0.2589 -0.1188
 1485SOL    HW115917   0.048   0.100   4.839  0.5764  1.3395 -1.1047
 1485SOL    HW215918   4.620   0.094   4.841 -2.0689  0.0416 -2.5225
 1486SOL     OW15919   1.755   3.746   9.049  0.1536 -0.2337  0.5247
 1486SOL    HW115920   1.829   3.702   9.006 -1.4567 -2.1534 -0.2897
 1486SOL    HW215921   1.689   3.690   9.008  0.4034  0.4589 -0.8126
 1487SOL     OW15922   1.028   0.328   6.250  0.2328 -0.8039  0.4599
 1487SOL    HW115923   1.036   0.236   6.274 -0.2367 -1.1428 -0.6788
 1487SOL    HW215924   1.070   0.321   6.164  0.3194  3.3305  0.1476
 1488SOL     OW15925   2.029   2.939   3.535 -0.6315 -0.2736 -0.1158
 1488SOL    HW115926   2.020   2.993   3.613 -1.0118 -2.0782  1.1032
 1488SOL    HW215927   2.047   2.855   3.578 -0.2589 -1.1985 -2.1104
 1489SOL     OW15928   0.953   3.490   1.342  0.7317  0.2015  0.1580
 1489SOL    HW115929   0.962   3.397   1.322  0.9913 -0.4377  3.2437
 1489SOL    HW215930   1.041   3.522   1.323  0.7758  0.4896  0.8473
 1490SOL     OW15931   1.327   2.881  15.819 -0.0781 -0.0788  0.4599
 1490SOL    HW115932   1.302   2.973  15.814 -1.3890 -0.4842 -0.3304
 1490SOL    HW215933   1.251   2.842  15.861  0.0360 -1.2817 -0.4533
 1491SOL     OW15934   2.504   1.635   4.168  0.6644 -0.5728 -0.9081
 1491SOL    HW115935   2.437   1.658   4.232  0.7559 -1.2690 -0.5625
 1491SOL    HW215936   2.586   1.625   4.215  0.2392 -1.1186 -0.2880
 1492SOL     OW15937   3.161   3.913   6.789 -0.1405 -0.1003  0.0420
 1492SOL    HW115938   3.210   3.839   6.825 -0.3032  0.0319  0.5284
 1492SOL    HW215939   3.091   3.917   6.854 -1.0742 -2.6995 -0.7793
 1493SOL     OW15940   3.397   3.341   0.570  0.1374 -0.1019 -0.0320
 1493SOL    HW115941   3.403   3.318   0.663 -1.0079  1.6306  0.4597
 1493SOL    HW215942   3.393   3.258   0.523 -1.4550  0.4993 -0.9691
 1494SOL     OW15943   1.445   0.017   4.925  0.1124  0.0054  0.3033
 1494SOL    HW115944   1.370   0.048   4.875 -0.2125  0.2603  0.9449
 1494SOL    HW215945   1.494   4.693   4.858 -1.4620 -3.2337  1.4523
 1495SOL     OW15946   4.449   3.933   7.072  0.6652  0.0798  0.7127
 1495SOL    HW115947   4.513   3.985   7.120 -0.4069  1.2945  0.8146
 1495SOL    HW215948   4.392   3.992   7.023  0.5680 -0.3974  0.2514
 1496SOL     OW15949   4.405   1.335   6.198 -0.2231  0.1959  0.2970
 1496SOL    HW115950   4.469   1.361   6.264 -1.6914  2.7682  0.7035
 1496SOL    HW215951   4.374   1.424   6.177 -0.2873 -0.2646 -1.5795
 1497SOL     OW15952   2.715   4.061  10.705  0.0644 -0.6373  0.1957
 1497SOL    HW115953   2.762   4.000  10.763  2.1555 -1.5992 -2.5372
 1497SOL    HW215954   2.629   4.023  10.722 -1.2425  1.2103 -2.4047
 1498SOL     OW15955   3.546   2.644   4.894  0.7035  0.4500  0.0877
 1498SOL    HW115956   3.634   2.650   4.858  1.1467 -2.4692  0.6365
 1498SOL    HW215957   3.547   2.721   4.950 -1.1755  1.9135 -1.8781
 1499SOL     OW15958   1.633   3.786  14.161  0.3601  0.4066 -0.1442
 1499SOL    HW115959   1.700   3.719  14.171 -1.1829 -1.1609 -0.3345
 1499SOL    HW215960   1.623   3.816  14.251 -0.9321 -0.4066 -0.0193
 1500SOL     OW15961   4.343   1.388   6.889 -0.0577  0.2950  0.5007
 1500SOL    HW115962   4.367   1.433   6.969  0.0546  0.9404  0.1019
 1500SOL    HW215963   4.251   1.367   6.908 -0.6412  1.5231 -0.9320
 1501SOL     OW15964   3.661   1.500   3.924 -0.0478  0.4135 -0.2700
 1501SOL    HW115965   3.676   1.478   3.832  0.8734 -2.8331  0.6734
 1501SOL    HW215966   3.657   1.595   3.934  0.6432  0.5140 -0.9875
 1502SOL     OW15967   3.293   4.210   6.313  0.3853 -0.0661 -0.0963
 1502SOL    HW115968   3.317   4.126   6.350  0.9329 -0.7374 -1.9535
 1502SOL    HW215969   3.200   4.207   6.336 -0.2029 -0.9993 -2.5291
 1503SOL     OW15970   3.161   3.830   2.786 -0.2454  0.0648  0.2395
 1503SOL    HW115971   3.200   3.776   2.716  0.1111 -0.0129  0.4999
 1503SOL    HW215972   3.084   3.774   2.799  0.9263 -1.7158 -0.3478
 1504SOL     OW15973   0.203   2.095   7.518 -0.2246 -0.6804 -0.3195
 1504SOL    HW115974   0.276   2.080   7.457  2.0643  1.3833  1.9357
 1504SOL    HW215975   0.130   2.081   7.458  1.1942 -0.5868 -2.0702
 1505SOL     OW15976   1.088   3.157   1.593  0.0235 -0.8013  0.1878
 1505SOL    HW115977   1.109   3.206   1.514  0.1738 -1.1004  0.0452
 1505SOL    HW215978   1.109   3.066   1.574  0.1274 -0.9035  0.7879
 1506SOL     OW15979   3.205   2.643  17.282 -0.0451 -0.5507  0.0092
 1506SOL    HW115980   3.129   2.656  17.225 -0.1805 -2.6409 -0.2800
 1506SOL    HW215981   3.214   2.549  17.267 -0.6002 -0.5914 -0.0708
 1507SOL     OW15982   0.995   3.606   9.896 -0.8057 -0.2727  0.2416
 1507SOL    HW115983   1.038   3.662   9.832 -0.7730  0.1855  0.6660
 1507SOL    HW215984   1.064   3.621   9.960  2.7430 -0.6910 -3.5042
 1508SOL     OW15985   1.868   0.629   1.943  0.3071 -0.0536 -0.1498
 1508SOL    HW115986   1.957   0.666   1.942  1.1129 -1.8891  2.6345
 1508SOL    HW215987   1.831   0.654   1.859 -0.1713  1.4205  0.5083
 1509SOL     OW15988   2.546   0.455   8.312 -0.3380 -0.1716 -0.2696
 1509SOL    HW115989   2.513   0.374   8.273 -0.3089  0.8460 -2.4229
 1509SOL    HW215990   2.485   0.515   8.269 -0.2524 -0.1897 -0.4155
 1510SOL     OW15991   0.655   0.099   7.801 -0.4022 -0.3062  0.3447
 1510SOL    HW115992   0.571   0.108   7.757 -1.2610  0.5558  2.1474
 1510SOL    HW215993   0.653   0.168   7.867 -0.8667  1.6809 -1.7512
 1511SOL     OW15994   3.535   2.661   2.198 -0.0560 -0.2397 -0.2640
 1511SOL    HW115995   3.578   2.662   2.113  0.1170  3.2982 -0.1226
 1511SOL    HW215996   3.461   2.601   2.187  0.2909 -0.9637  1.3851
 1512SOL     OW15997   4.103   2.623  14.870 -0.2810  0.2123 -0.3106
 1512SOL    HW115998   4.167   2.668  14.925 -0.2100 -0.5249  0.2104
 1512SOL    HW215999   4.020   2.655  14.904  0.8531  2.3124  0.5055
 1513SOL     OW16000   1.878   4.302  16.869  0.4301  0.3966 -0.6293
 1513SOL    HW116001   1.813   4.304  16.940  0.2475 -1.0410 -0.7546
 1513SOL    HW216002   1.832   4.244  16.808 -2.5571  0.7226  1.3334
 1514SOL     OW16003   0.340   3.172   1.634 -0.2144 -0.1680  0.0001
 1514SOL    HW116004   0.400   3.245   1.624  0.4411 -0.6361  0.5115
 1514SOL    HW216005   0.287   3.199   1.709  0.7594  0.1268  0.5818
 1515SOL     OW16006   3.396   1.318   8.134 -0.0410 -0.5567 -0.4470
 1515SOL    HW116007   3.383   1.313   8.040  0.8318 -0.0921 -0.6028
 1515SOL    HW216008   3.327   1.379   8.161  1.9594  1.6082 -0.1180
 1516SOL     OW16009   0.645   0.702  16.747 -0.2277  0.2181 -0.5630
 1516SOL    HW116010   0.702   0.665  16.815 -0.2733 -0.5735 -0.9581
 1516SOL    HW216011   0.714   0.724  16.684  1.6526  0.7549  1.6476
 1517SOL     OW16012   1.107   0.425   9.109  0.1539 -0.0221  0.0881
 1517SOL    HW116013   1.136   0.337   9.085  2.4159  0.9056 -0.5388
 1517SOL    HW216014   1.014   0.410   9.126 -0.0002  2.5732  1.5590
 1518SOL     OW16015   2.075   4.105  10.645 -0.5076 -0.4580 -0.5789
 1518SOL    HW116016   2.010   4.059  10.700 -2.0520  0.4565 -1.6456
 1518SOL    HW216017   2.023   4.120  10.566  0.0939  0.4697 -0.7835
 1519SOL     OW16018   4.505   0.672   8.327  0.0913 -0.6757 -0.4113
 1519SOL    HW116019   4.524   0.580   8.346 -0.2814 -0.6216  0.2239
 1519SOL    HW216020   4.421   0.661   8.281  0.0540  0.2855 -0.5758
 1520SOL     OW16021   1.462   0.441   1.444  0.1036 -0.2183  0.2409
 1520SOL    HW116022   1.412   0.372   1.487 -0.7347 -0.9483 -1.9112
 1520SOL    HW216023   1.518   0.474   1.514  0.2124 -0.1642  0.1290
 1521SOL     OW16024   0.971   0.395  17.077 -0.0065 -0.1563  0.2681
 1521SOL    HW116025   1.033   0.443  17.131 -0.1958 -1.4215  1.6346
 1521SOL    HW216026   1.006   0.306  17.073  0.8475  0.0710  2.6286
 1522SOL     OW16027   1.240   4.607   6.493  0.4350 -0.0076  0.4081
 1522SOL    HW116028   1.188   4.663   6.551 -1.2585 -0.6780 -0.4470
 1522SOL    HW216029   1.186   4.531   6.518  1.6748 -1.0554 -0.0754
 1523SOL     OW16030   1.550   2.156   0.080  0.0084  0.3607  0.0285
 1523SOL    HW116031   1.539   2.067   0.114 -0.4917  0.4506  0.1170
 1523SOL    HW216032   1.643   2.156   0.100 -0.2234 -3.2683  1.0800
 1524SOL     OW16033   2.744   1.600   8.678 -0.3411 -0.4046  0.7751
 1524SOL    HW116034   2.713   1.623   8.766 -1.2589  0.1181  0.3127
 1524SOL    HW216035   2.746   1.504   8.679  0.9490 -0.3943 -2.9894
 1525SOL     OW16036   4.324   2.227   8.520  0.1412 -0.5253  0.0435
 1525SOL    HW116037   4.249   2.287   8.518 -0.7023 -1.5066  1.9297
 1525SOL    HW216038   4.285   2.149   8.559  1.2515  0.0524  2.3115
 1526SOL     OW16039   4.520   1.740   5.189  0.5545  0.2699  0.2200
 1526SOL    HW116040   4.496   1.735   5.282  1.6884 -0.5125  0.4602
 1526SOL    HW216041   4.517   1.835   5.175  0.3137  0.1970 -0.2292
 1527SOL     OW16042   0.673   3.432   4.075  0.0309 -0.2181 -0.4737
 1527SOL    HW116043   0.668   3.525   4.052 -0.7609 -0.2675 -0.4850
 1527SOL    HW216044   0.600   3.426   4.136  3.9895  0.5841  4.3904
 1528SOL     OW16045   3.971   2.164  10.207  0.5389 -0.3655  0.2543
 1528SOL    HW116046   3.899   2.129  10.155  0.0542 -1.3703  1.5985
 1528SOL    HW216047   3.934   2.233  10.262 -0.9245 -2.2720  1.6602
 1529SOL     OW16048   1.053   1.082  11.218 -0.0137  0.5477  0.2653
 1529SOL    HW116049   1.068   1.022  11.144 -1.3678  1.7780 -1.0011
 1529SOL    HW216050   0.961   1.062  11.236  0.3887 -0.5500  1.1462
 1530SOL     OW16051   1.915   4.197   9.589  0.5315  0.1948 -0.0646
 1530SOL    HW116052   1.965   4.273   9.618  1.4757 -0.3551 -0.2736
 1530SOL    HW216053   1.829   4.206   9.631  0.5877 -2.0859  0.5360
 1531SOL     OW16054   0.112   1.040  17.095 -0.6690 -0.0962  0.1705
 1531SOL    HW116055   0.125   0.972  17.162 -2.0346 -0.7798 -0.2606
 1531SOL    HW216056   0.202   1.057  17.066 -1.1065  0.9384 -0.5661
 1532SOL     OW16057   3.616   1.057   4.982 -0.4397  0.7241  0.4255
 1532SOL    HW116058   3.565   1.135   5.000 -0.4501  0.7219  0.4060
 1532SOL    HW216059   3.596   0.993   5.050 -2.7178 -4.1811 -4.8290
 1533SOL     OW16060   3.693   4.066   7.009  0.8295 -0.0144  0.2065
 1533SOL    HW116061   3.680   3.983   6.963 -0.7299  0.3765 -0.0801
 1533SOL    HW216062   3.788   4.078   7.012  0.8183  0.1703 -0.1505
 1534SOL     OW16063   4.188   4.383   9.250 -0.2944 -0.0907  0.4328
 1534SOL    HW116064   4.228   4.466   9.223 -1.2517 -0.8384 -3.2545
 1534SOL    HW216065   4.260   4.342   9.299 -0.1087  0.4822  0.6440
 1535SOL     OW16066   3.503   0.391   9.106 -0.1062 -0.6258  0.1299
 1535SOL    HW116067   3.484   0.473   9.059 -3.1963 -0.5297  1.4998
 1535SOL    HW216068   3.476   0.417   9.194 -0.2727 -2.2438  0.5417
 1536SOL     OW16069   3.072   3.230   7.845  0.5546  0.1822  0.6587
 1536SOL    HW116070   3.159   3.204   7.874  1.6217  1.5047 -1.3890
 1536SOL    HW216071   3.074   3.325   7.859 -0.8867  0.1241  1.2976
 1537SOL     OW16072   4.202   0.600   7.539 -0.2058 -0.2419 -0.5712
 1537SOL    HW116073   4.239   0.550   7.466 -0.0652 -2.0181  0.7395
 1537SOL    HW216074   4.173   0.529   7.596  0.0584  0.9054  0.9850
 1538SOL     OW16075   3.777   4.329   6.059  0.1794  0.1199 -0.0659
 1538SOL    HW116076   3.813   4.405   6.014  2.4678  0.3032  2.1186
 1538SOL    HW216077   3.706   4.370   6.108  0.2034  0.4032 -0.2745
 1539SOL     OW16078   2.710   0.980  12.778  0.1284  0.3043 -0.6085
 1539SOL    HW116079   2.623   1.000  12.745 -0.2177  0.2294  0.2743
 1539SOL    HW216080   2.702   0.956  12.870  1.4474  3.0838  0.2316
 1540SOL     OW16081   3.485   4.361   7.835 -0.2682  0.4701 -0.0091
 1540SOL    HW116082   3.440   4.388   7.755  0.9108 -1.8747 -1.4865
 1540SOL    HW216083   3.558   4.423   7.835  0.5159 -0.4310  2.1489
 1541SOL     OW16084   2.673   3.156   3.435  0.2092 -0.0388 -0.1105
 1541SOL    HW116085   2.678   3.249   3.410 -0.4498 -0.3226 -1.2948
 1541SOL    HW216086   2.755   3.115   3.405 -0.8799  0.2730 -3.4647
 1542SOL     OW16087   4.427   4.042  11.228 -0.4463 -0.6578  0.7926
 1542SOL    HW116088   4.355   3.982  11.247 -0.1278 -1.2979 -0.0164
 1542SOL    HW216089   4.491   3.983  11.190  0.3239  1.4316 -1.1891
 1543SOL     OW16090   3.489   4.443   6.777 -0.1942 -0.2749  0.2923
 1543SOL    HW116091   3.454   4.506   6.714  0.9460  0.7907  0.7307
 1543SOL    HW216092   3.580   4.472   6.778  0.3767 -2.1173  1.2366
 1544SOL     OW16093   1.105   2.354   1.467 -0.1441 -0.1202  0.0598
 1544SOL    HW116094   1.196   2.329   1.452 -1.0756 -2.1257 -2.3818
 1544SOL    HW216095   1.073   2.275   1.511  1.5770 -0.5533  0.5126
 1545SOL     OW16096   1.047   3.170  16.971  0.1689  0.0112  0.0650
 1545SOL    HW116097   1.126   3.141  16.925 -0.1542 -2.2481  0.9091
 1545SOL    HW216098   0.988   3.096  16.953  2.5360 -0.9660 -3.6378
 1546SOL     OW16099   0.463   1.521   7.613 -0.7708  0.4357  0.3865
 1546SOL    HW116100   0.407   1.475   7.676 -1.0599  2.4003  1.5946
 1546SOL    HW216101   0.507   1.447   7.572 -1.7897 -0.0455  0.1436
 1547SOL     OW16102   1.311   3.596   4.346 -0.0225  0.0455 -0.7424
 1547SOL    HW116103   1.309   3.633   4.435 -0.3325  0.2683 -0.8399
 1547SOL    HW216104   1.216   3.601   4.334 -0.2718 -0.7425  0.9418
 1548SOL     OW16105   2.484   3.997  10.346  0.5573 -0.5382 -0.4111
 1548SOL    HW116106   2.523   4.007  10.259 -1.7668 -0.3390 -1.4472
 1548SOL    HW216107   2.550   3.944  10.390  0.4371  0.4844  1.0172
 1549SOL     OW16108   1.770   3.648   8.484  0.1948  1.0839  0.3514
 1549SOL    HW116109   1.760   3.730   8.532  2.5837  0.2481  2.2460
 1549SOL    HW216110   1.717   3.589   8.537 -0.6996  1.0108 -0.6336
 1550SOL     OW16111   3.769   1.503  14.779 -0.1667 -0.2320 -0.3920
 1550SOL    HW116112   3.751   1.559  14.854 -1.8174 -2.5701  0.9822
 1550SOL    HW216113   3.854   1.464  14.801  0.5091  2.9807  2.6362
 1551SOL     OW16114   2.823   1.313   9.961 -0.8147  0.2237 -0.3288
 1551SOL    HW116115   2.877   1.278  10.032 -1.6897  0.9318  0.6893
 1551SOL    HW216116   2.741   1.271   9.987 -1.7497  2.6167  0.5611
 1552SOL     OW16117   2.551   3.830   6.889  0.2845 -0.7786  0.5341
 1552SOL    HW116118   2.593   3.874   6.964  0.3169  0.8551 -0.4346
 1552SOL    HW216119   2.493   3.770   6.936 -0.3470  0.8503  1.8247
 1553SOL     OW16120   2.367   0.830   7.220 -0.4002  0.0049  0.0262
 1553SOL    HW116121   2.346   0.915   7.260 -3.3521  0.2390 -2.0967
 1553SOL    HW216122   2.343   0.773   7.293  0.3588 -2.2398 -1.4847
 1554SOL     OW16123   0.065   2.167  13.186 -0.0960  0.7029  0.1708
 1554SOL    HW116124   0.130   2.099  13.203  0.0863  0.9556  0.4805
 1554SOL    HW216125   4.709   2.136  13.229  0.5024 -0.4884  0.4225
 1555SOL     OW16126   4.437   0.157   2.317 -0.4761 -0.0572 -0.3813
 1555SOL    HW116127   4.498   0.087   2.296  0.2885 -0.5507  3.4321
 1555SOL    HW216128   4.445   0.211   2.239  1.4156 -0.2928 -0.3419
 1556SOL     OW16129   3.059   0.275   3.146  0.5066  0.2415 -0.2878
 1556SOL    HW116130   3.117   0.212   3.103  1.1294 -0.6488  1.8530
 1556SOL    HW216131   3.116   0.312   3.214 -0.9635  0.0015  1.0611
 1557SOL     OW16132   0.819   0.983   7.368 -0.2292 -0.4756  0.1194
 1557SOL    HW116133   0.746   0.939   7.323 -1.3973 -0.0213  1.5924
 1557SOL    HW216134   0.878   0.914   7.400 -0.0951 -0.2477  0.3645
 1558SOL     OW16135   4.009   0.942   3.347  0.0884  0.6020 -0.4469
 1558SOL    HW116136   3.970   0.867   3.392 -3.1800  2.1886 -0.6134
 1558SOL    HW216137   3.978   1.013   3.402 -1.6983 -1.1820  0.8466
 1559SOL     OW16138   0.412   1.298   6.074 -0.1778  0.0332 -0.3688
 1559SOL    HW116139   0.317   1.294   6.080 -0.1665  1.3136  0.6578
 1559SOL    HW216140   0.426   1.373   6.016 -1.8227 -1.0908 -2.2005
 1560SOL     OW16141   0.496   1.097  10.384  0.3169  0.0401 -0.2698
 1560SOL    HW116142   0.585   1.105  10.352  0.4249 -0.7222 -0.1562
 1560SOL    HW216143   0.474   1.186  10.413 -0.3750  0.2651 -1.4958
 1561SOL     OW16144   2.946   2.164   7.903  0.2196  0.3190  0.2669
 1561SOL    HW116145   2.851   2.174   7.893 -0.1697 -3.4429  0.0257
 1561SOL    HW216146   2.972   2.200   7.988 -2.2131  0.0235  1.1428
 1562SOL     OW16147   4.352   1.053   2.460  0.4643  0.0549 -0.2889
 1562SOL    HW116148   4.319   1.034   2.372 -0.0865  3.1745 -0.7633
 1562SOL    HW216149   4.279   1.049   2.521  1.4740 -0.8517  0.8508
 1563SOL     OW16150   3.134   3.552   3.875  0.3258  0.7680 -0.0500
 1563SOL    HW116151   3.136   3.456   3.868  2.0341  0.7817  0.2076
 1563SOL    HW216152   3.211   3.579   3.825 -0.0763  2.0521  0.0401
 1564SOL     OW16153   0.068   1.691   9.086 -0.3493  0.2744  0.1725
 1564SOL    HW116154   0.101   1.615   9.038  2.3160 -0.9717  4.0406
 1564SOL    HW216155   0.105   1.760   9.031  0.4131  0.9266  1.5088
 1565SOL     OW16156   0.450   2.810   3.659  0.0643 -0.5807 -0.3871
 1565SOL    HW116157   0.460   2.902   3.684 -1.1850 -1.1306  2.1573
 1565SOL    HW216158   0.464   2.817   3.564 -0.7388  0.9024 -0.3942
 1566SOL     OW16159   3.266   1.021  11.482 -0.1319 -0.1265  0.0821
 1566SOL    HW116160   3.229   1.080  11.548  0.9136  0.3397  0.2420
 1566SOL    HW216161   3.253   0.934  11.520  2.6693  0.0060  1.2877
 1567SOL     OW16162   3.619   3.133   2.067 -0.1716  0.3166 -0.6926
 1567SOL    HW116163   3.682   3.206   2.065  0.5811 -0.3679 -1.8239
 1567SOL    HW216164   3.611   3.116   2.161 -1.3862 -2.1048 -1.2475
 1568SOL     OW16165   3.590   3.544   0.482 -0.3831  0.1275  0.0427
 1568SOL    HW116166   3.671   3.522   0.435 -1.8088  2.1098 -3.3690
 1568SOL    HW216167   3.550   3.458   0.493  0.6020 -0.4608 -0.9856
 1569SOL     OW16168   3.175   0.464   8.581 -0.5748  0.5919  0.4373
 1569SOL    HW116169   3.209   0.376   8.568 -0.2536  0.6265  1.0463
 1569SOL    HW216170   3.114   0.448   8.654  0.6625 -1.6434  0.9937
 1570SOL     OW16171   0.033   4.384   2.930  0.3366  0.2314  0.4926
 1570SOL    HW116172   4.667   4.406   2.953 -0.4089 -0.6596 -1.5462
 1570SOL    HW216173   0.063   4.346   3.013  1.5508 -0.1770 -0.1294
 1571SOL     OW16174   0.251   3.243   6.092  0.0842 -0.3743  0.3272
 1571SOL    HW116175   0.215   3.174   6.148  1.6087  0.2816  2.1202
 1571SOL    HW216176   0.295   3.294   6.160  0.0478  0.3386 -0.1727
 1572SOL     OW16177   0.880   0.653   0.521 -0.4073  0.3501  0.0676
 1572SOL    HW116178   0.924   0.578   0.481  2.8663  1.8188  0.9238
 1572SOL    HW216179   0.834   0.612   0.595  0.5783 -2.8477 -1.0748
 1573SOL     OW16180   0.437   1.031   7.536 -0.1172  0.6348 -0.0389
 1573SOL    HW116181   0.435   0.987   7.621  0.0085  0.1473 -0.2906
 1573SOL    HW216182   0.466   0.975   7.464  0.0871  1.1142 -0.3345
 1574SOL     OW16183   1.665   1.386  11.726  0.5883 -0.4484 -0.1649
 1574SOL    HW116184   1.666   1.464  11.669  0.2174 -0.3923 -0.0943
 1574SOL    HW216185   1.622   1.321  11.670 -0.7692 -1.3663  1.9528
 1575SOL     OW16186   1.462   4.542  15.306  0.6197 -0.0555  0.0523
 1575SOL    HW116187   1.516   4.463  15.307  2.1302  0.9105 -3.9258
 1575SOL    HW216188   1.403   4.524  15.232  0.1137 -2.6309  1.0708
 1576SOL     OW16189   2.556   3.443   9.614  0.2632  0.1070  0.0506
 1576SOL    HW116190   2.633   3.401   9.651  2.9062  2.6883 -2.5652
 1576SOL    HW216191   2.546   3.386   9.538 -0.7817 -1.4819  1.3713
 1577SOL     OW16192   2.846   1.340  15.450 -0.3142  0.2529  0.4305
 1577SOL    HW116193   2.780   1.279  15.484  0.9749 -1.0649  0.5603
 1577SOL    HW216194   2.807   1.427  15.460 -1.5709 -0.3589  0.8520
 1578SOL     OW16195   2.713   0.502   1.536  0.1027 -0.3404 -0.3876
 1578SOL    HW116196   2.669   0.423   1.504 -0.6350  0.2423 -0.8087
 1578SOL    HW216197   2.801   0.494   1.500  0.0092 -2.3253 -0.2192
 1579SOL     OW16198   0.891   3.939  13.967  0.2550 -0.2528 -0.2402
 1579SOL    HW116199   0.909   4.019  14.016  0.6301 -0.0241 -0.7496
 1579SOL    HW216200   0.819   3.896  14.013  1.0025 -0.3851  0.8107
 1580SOL     OW16201   3.312   2.681   7.155  0.3222 -0.4107  0.4095
 1580SOL    HW116202   3.395   2.644   7.185  1.9970  3.2941  0.3589
 1580SOL    HW216203   3.282   2.609   7.101 -0.2122 -0.0610  0.2437
 1581SOL     OW16204   3.515   3.690   4.043  0.0199  0.0041 -0.4740
 1581SOL    HW116205   3.534   3.782   4.061 -2.5623  0.0189  2.2585
 1581SOL    HW216206   3.590   3.663   3.991  0.2205 -0.2985 -0.0358
 1582SOL     OW16207   4.297   1.909   3.191  0.1470  0.0313 -0.3951
 1582SOL    HW116208   4.349   1.986   3.214  0.2608 -0.0835 -0.2738
 1582SOL    HW216209   4.368   1.847   3.208 -2.1271 -2.4365  0.0639
 1583SOL     OW16210   1.863   2.433  12.267 -0.1333 -1.0947 -0.6741
 1583SOL    HW116211   1.861   2.363  12.201 -1.8871 -0.2016 -1.5722
 1583SOL    HW216212   1.775   2.441  12.304 -0.4561 -0.7528 -1.5153
 1584SOL     OW16213   1.032   2.576   8.312 -0.4851  0.0609  0.6846
 1584SOL    HW116214   1.000   2.520   8.242 -0.0914  0.2986  0.3112
 1584SOL    HW216215   0.969   2.556   8.381 -1.5119 -0.1701 -0.3123
 1585SOL     OW16216   0.765   3.436   2.946  0.0245  0.2805  0.1884
 1585SOL    HW116217   0.708   3.372   2.988 -0.3069  0.3739 -0.1208
 1585SOL    HW216218   0.736   3.513   2.996  0.9711  2.2947 -2.3480
 1586SOL     OW16219   1.136   2.894   4.485 -0.1622  0.7707  0.0623
 1586SOL    HW116220   1.050   2.854   4.476 -0.9740  2.7322 -0.9835
 1586SOL    HW216221   1.153   2.909   4.392 -2.6128  1.6511 -0.2448
 1587SOL     OW16222   3.775   0.621   1.672 -0.2375 -0.4626  0.1596
 1587SOL    HW116223   3.833   0.562   1.719  0.0732  0.0841  0.4638
 1587SOL    HW216224   3.734   0.665   1.747  0.3946 -1.2119  0.9433
 1588SOL     OW16225   2.310   0.247   7.695 -0.9788 -0.2396  0.0234
 1588SOL    HW116226   2.367   0.321   7.672 -1.8316  0.6947  0.9288
 1588SOL    HW216227   2.301   0.272   7.787  0.4708  1.6517 -0.3380
 1589SOL     OW16228   2.598   3.886   7.924 -0.1545  0.2593 -0.5776
 1589SOL    HW116229   2.546   3.868   7.845 -1.0947 -1.0871  0.3567
 1589SOL    HW216230   2.650   3.807   7.938  0.5462  1.1631  1.8472
 1590SOL     OW16231   0.923   0.206  11.855  0.0619  0.0919  0.2569
 1590SOL    HW116232   0.975   0.163  11.787  0.7182 -0.1079  0.8830
 1590SOL    HW216233   0.835   0.188  11.820  0.5895 -0.8474 -0.5939
 1591SOL     OW16234   3.183   3.291  13.938 -0.3815  0.2397  0.0474
 1591SOL    HW116235   3.238   3.216  13.916  0.6379  0.9526  0.1743
 1591SOL    HW216236   3.103   3.238  13.932 -0.1754 -0.0415 -0.2245
 1592SOL     OW16237   3.814   4.303   8.460 -0.0070 -0.2426 -0.5391
 1592SOL    HW116238   3.860   4.300   8.544  1.4564  0.1734 -1.3279
 1592SOL    HW216239   3.753   4.231   8.472 -1.0742  0.8354  0.6268
 1593SOL     OW16240   3.960   0.380  11.980  0.3330  0.0599  0.6968
 1593SOL    HW116241   4.045   0.422  11.985  0.1889  0.3445  0.7773
 1593SOL    HW216242   3.939   0.415  11.894  0.0844 -0.3434  0.5927
 1594SOL     OW16243   0.441   3.276   5.103 -0.4503  0.1292 -0.2110
 1594SOL    HW116244   0.423   3.184   5.083  4.0854 -1.4105  3.0092
 1594SOL    HW216245   0.357   3.322   5.101  0.7483  2.2463 -1.0561
 1595SOL     OW16246   3.311   0.828   5.117 -0.4881  0.0045 -0.6811
 1595SOL    HW116247   3.315   0.810   5.023  0.1683 -0.2831 -0.5964
 1595SOL    HW216248   3.404   0.848   5.128 -0.4448 -0.3037 -0.4801
 1596SOL     OW16249   4.292   3.739  14.576 -0.9410 -0.2485  0.0341
 1596SOL    HW116250   4.263   3.690  14.499  1.1811  0.6513 -1.3602
 1596SOL    HW216251   4.264   3.688  14.652 -1.2103 -0.5449 -0.2626
 1597SOL     OW16252   2.085   3.299   9.114 -0.1759  0.2107 -0.1067
 1597SOL    HW116253   2.150   3.331   9.176 -2.3944  1.5532  1.5171
 1597SOL    HW216254   2.137   3.223   9.086  1.3413  0.6014  1.6972
 1598SOL     OW16255   1.795   1.165   6.236 -0.0595  0.0125  0.2644
 1598SOL    HW116256   1.843   1.243   6.265  0.9830 -0.6380  0.2809
 1598SOL    HW216257   1.830   1.101   6.298 -1.4350 -0.0661  0.9683
 1599SOL     OW16258   4.301   1.804  14.866  0.6280  0.1253  0.0753
 1599SOL    HW116259   4.273   1.715  14.846  1.7127 -0.4143  0.9206
 1599SOL    HW216260   4.222   1.841  14.906  1.7166  1.2264  1.2462
 1600SOL     OW16261   3.157   4.276   3.962  0.8645 -0.3257  0.5541
 1600SOL    HW116262   3.193   4.330   3.892 -1.4788  1.3210  0.6148
 1600SOL    HW216263   3.143   4.197   3.911  0.7918  0.6115 -0.8739
 1601SOL     OW16264   4.403   4.694   4.208  0.2438 -0.3881 -0.0954
 1601SOL    HW116265   4.370   4.624   4.152 -3.6701  0.0611  1.6134
 1601SOL    HW216266   4.475   4.649   4.252  2.2459  3.1898  0.2560
 1602SOL     OW16267   1.327   4.279   1.893 -0.1564  0.2679  0.0969
 1602SOL    HW116268   1.299   4.225   1.820  1.1176 -0.5370  0.2021
 1602SOL    HW216269   1.265   4.256   1.963 -0.3553 -0.5002 -0.3387
 1603SOL     OW16270   2.728   0.988  10.820 -0.6564  0.3053  0.1422
 1603SOL    HW116271   2.791   1.029  10.879  1.2796 -1.3613 -0.7732
 1603SOL    HW216272   2.787   0.942  10.760  0.8454  0.0478  1.8141
 1604SOL     OW16273   3.072   3.782   6.299 -0.5837  0.3039 -0.6243
 1604SOL    HW116274   3.026   3.707   6.337 -1.0668  1.3951  0.9173
 1604SOL    HW216275   3.057   3.773   6.205  2.5429 -0.0948 -1.1035
 1605SOL     OW16276   1.112   2.044  11.610 -0.0063  0.2230 -0.1506
 1605SOL    HW116277   1.203   2.068  11.628  0.1834  0.6172 -1.6226
 1605SOL    HW216278   1.084   2.116  11.553  2.0559  2.0531  1.1644
 1606SOL     OW16279   0.434   4.308  13.457  0.1137 -0.2868 -0.0532
 1606SOL    HW116280   0.394   4.358  13.528  1.3341 -0.3402  0.6833
 1606SOL    HW216281   0.374   4.234  13.455  3.1947 -2.8223  2.4427
 1607SOL     OW16282   3.457   1.038   4.228 -0.4329 -0.4463  0.2018
 1607SOL    HW116283   3.530   1.002   4.278 -1.1909 -1.5975  0.4960
 1607SOL    HW216284   3.500   1.102   4.171  1.0510 -0.9460  0.7536
 1608SOL     OW16285   2.199   3.903   8.997 -0.4364 -0.1146 -0.3574
 1608SOL    HW116286   2.154   3.961   8.935  0.1774 -1.6258 -2.2023
 1608SOL    HW216287   2.281   3.951   9.008  0.5721 -2.4153  2.2784
 1609SOL     OW16288   0.518   2.132  16.313  0.4268 -0.5254 -0.1382
 1609SOL    HW116289   0.510   2.133  16.408  2.3484  0.8828  0.0181
 1609SOL    HW216290   0.531   2.039  16.292 -0.8228 -0.7290 -0.0184
 1610SOL     OW16291   1.599   1.131   9.852 -0.5696  0.1807  0.1972
 1610SOL    HW116292   1.533   1.201   9.843 -1.7909 -1.3508 -2.6874
 1610SOL    HW216293   1.622   1.120   9.760  0.1255  4.5463 -0.1415
 1611SOL     OW16294   2.940   0.820   6.125 -0.5745  0.4638 -0.0230
 1611SOL    HW116295   2.880   0.766   6.176 -1.4830  2.7992  1.3583
 1611SOL    HW216296   2.962   0.887   6.190  0.0160  1.8306 -1.6178
 1612SOL     OW16297   3.852   4.228   4.498  0.2374  1.0207  0.3953
 1612SOL    HW116298   3.848   4.247   4.592  1.9767  0.1090  0.6644
 1612SOL    HW216299   3.761   4.212   4.474 -0.2782 -0.8981  3.5275
 1613SOL     OW16300   3.116   3.960  14.730  0.2037  0.5746  0.4381
 1613SOL    HW116301   3.031   4.001  14.750 -0.9692 -1.4422 -0.4788
 1613SOL    HW216302   3.151   3.956  14.819 -0.8373  1.8192  0.9197
 1614SOL     OW16303   2.105   4.246   6.170 -0.1751 -0.0332  0.0203
 1614SOL    HW116304   2.086   4.152   6.175 -0.4406  0.0868  1.3489
 1614SOL    HW216305   2.018   4.286   6.176 -0.7838 -1.2283 -0.8374
 1615SOL     OW16306   4.530   0.403   7.544 -0.1437 -0.5201  0.1394
 1615SOL    HW116307   4.482   0.477   7.582 -0.0509 -0.0303 -0.7036
 1615SOL    HW216308   4.621   0.416   7.568 -0.9121  1.3843  2.0711
 1616SOL     OW16309   0.170   0.117   4.466  0.1202  0.2312 -0.0572
 1616SOL    HW116310   0.114   0.044   4.494  1.5127  0.3645  3.1828
 1616SOL    HW216311   0.190   0.159   4.550  1.9758  0.3197 -0.5303
 1617SOL     OW16312   4.719   4.169   8.547 -0.8806  0.3672 -0.9779
 1617SOL    HW116313   4.698   4.233   8.615  1.4863 -2.6397  2.5576
 1617SOL    HW216314   4.639   4.194   8.501 -0.9878 -1.5960 -1.8827
 1618SOL     OW16315   4.471   0.604   3.136  0.3590  0.3198 -0.2296
 1618SOL    HW116316   4.510   0.690   3.151 -0.6269  0.8725 -0.7837
 1618SOL    HW216317   4.395   0.625   3.081 -1.1482  2.0266  2.4962
 1619SOL     OW16318   3.942   4.694   4.309 -0.3515 -0.3445  0.2484
 1619SOL    HW116319   3.967   4.604   4.331  0.3770  0.1359  1.4070
 1619SOL    HW216320   4.010   0.024   4.349  0.4102 -1.2949  0.2258
 1620SOL     OW16321   0.918   3.793   5.241 -0.2555 -0.0532 -0.4370
 1620SOL    HW116322   0.900   3.714   5.190 -1.5540  0.5616 -0.9358
 1620SOL    HW216323   0.831   3.832   5.239  0.7926  2.1965 -1.9012
 1621SOL     OW16324   1.487   0.487   1.160 -0.1332  0.1283  1.0213
 1621SOL    HW116325   1.472   0.392   1.162  0.5555  0.0057  0.1407
 1621SOL    HW216326   1.486   0.500   1.255  2.8331 -0.4055  1.1107
 1622SOL     OW16327   0.085   0.149  17.563  0.4252  0.6134  0.0523
 1622SOL    HW116328   4.717   0.121  17.567  1.1734 -1.7429  0.2403
 1622SOL    HW216329   0.100   0.161  17.469  1.4217 -0.9034  0.0233
 1623SOL     OW16330   1.929   4.271   2.049 -0.6541  0.1996  0.0020
 1623SOL    HW116331   1.852   4.312   2.090 -0.5469  2.3355 -1.8672
 1623SOL    HW216332   1.979   4.345   2.015  0.1932 -0.1824  0.4448
 1624SOL     OW16333   0.413   3.351   4.577  0.1429  0.5617  0.3100
 1624SOL    HW116334   0.456   3.434   4.556  2.1362 -0.5042  0.2383
 1624SOL    HW216335   0.441   3.336   4.668  0.9468 -1.8826 -0.3656
 1625SOL     OW16336   1.506   0.054  12.833 -0.1895 -0.3827 -0.5966
 1625SOL    HW116337   1.468   0.138  12.808 -1.6160 -0.9064 -0.1672
 1625SOL    HW216338   1.594   0.082  12.859 -0.7915  0.7214  0.2986
 1626SOL     OW16339   4.255   1.822   4.432  0.1767  0.4255 -0.1645
 1626SOL    HW116340   4.342   1.787   4.451 -1.1702 -2.3879  0.8262
 1626SOL    HW216341   4.267   1.914   4.456  2.3853 -0.1065  0.6764
 1627SOL     OW16342   0.436   4.169   7.511 -0.7226 -0.1576 -0.6523
 1627SOL    HW116343   0.437   4.228   7.436  1.8151 -0.8175 -1.1442
 1627SOL    HW216344   0.358   4.202   7.555 -0.3613 -0.0028 -0.1327
 1628SOL     OW16345   0.980   4.345  17.158  0.3366  0.0161  0.9327
 1628SOL    HW116346   0.964   4.391  17.076 -1.3565 -1.3212  0.4944
 1628SOL    HW216347   0.994   4.418  17.218 -1.3860  0.6418  0.5821
 1629SOL     OW16348   0.220   2.663   5.813  0.1937  0.0852 -0.3143
 1629SOL    HW116349   0.289   2.659   5.879 -1.0547 -0.8793  0.9360
 1629SOL    HW216350   0.167   2.589   5.842  0.2217 -0.3978 -1.5024
 1630SOL     OW16351   4.269   1.991   4.107  0.4958 -0.1071 -0.3378
 1630SOL    HW116352   4.351   1.992   4.156 -1.2911  0.3692  2.5773
 1630SOL    HW216353   4.274   2.076   4.062  0.0919  1.6685  3.0159
 1631SOL     OW16354   1.947   3.213   6.717  0.1284 -0.0468 -0.0897
 1631SOL    HW116355   2.032   3.214   6.673 -0.2778 -1.1450 -0.8965
 1631SOL    HW216356   1.881   3.223   6.648  0.3971 -3.4156 -0.8292
 1632SOL     OW16357   3.920   4.445   1.906  0.5949 -0.5306 -0.6533
 1632SOL    HW116358   3.842   4.391   1.919 -1.0203  2.3466  1.8134
 1632SOL    HW216359   3.943   4.466   1.997  1.9883 -1.8353 -0.7058
 1633SOL     OW16360   3.921   4.131   6.581  0.1214 -0.3141  0.0973
 1633SOL    HW116361   3.875   4.195   6.526 -1.0626 -0.4022  0.9762
 1633SOL    HW216362   3.932   4.176   6.665  1.6426 -0.0044 -0.2745
 1634SOL     OW16363   1.370   2.295   1.433  0.2405  0.4719 -0.0587
 1634SOL    HW116364   1.407   2.272   1.348 -1.5262 -3.5066  0.2275
 1634SOL    HW216365   1.445   2.314   1.489 -0.4091  0.1068  0.9427
 1635SOL     OW16366   0.981   4.152   1.562 -0.2701 -0.1566  0.6152
 1635SOL    HW116367   0.929   4.097   1.620  0.8920 -0.4507  1.3840
 1635SOL    HW216368   0.990   4.230   1.617  1.9263  1.3749 -1.9286
 1636SOL     OW16369   2.689   4.458  10.313 -0.1668  0.0866  0.2741
 1636SOL    HW116370   2.607   4.497  10.283 -1.9853 -3.0328  1.1347
 1636SOL    HW216371   2.666   4.438  10.404 -1.0229 -0.3544 -0.0386
 1637SOL     OW16372   3.079   3.214   5.290  0.2658 -0.0124 -0.0818
 1637SOL    HW116373   3.062   3.128   5.251 -1.5915 -0.3519  1.5056
 1637SOL    HW216374   2.988   3.242   5.302 -0.2691 -1.4818 -0.7486
 1638SOL     OW16375   4.631   0.739   1.345  0.2826 -0.3936 -0.0745
 1638SOL    HW116376   4.711   0.690   1.366 -0.3503 -1.0185  0.9022
 1638SOL    HW216377   4.606   0.750   1.437  1.9893  2.3784  0.0654
 1639SOL     OW16378   3.746   0.895   6.230  0.5224 -0.3526  0.2223
 1639SOL    HW116379   3.717   0.913   6.320 -1.0633 -2.4897  0.1402
 1639SOL    HW216380   3.784   0.981   6.210 -0.8706  0.1719 -0.1317
 1640SOL     OW16381   2.862   4.151   1.643 -0.8492  0.4290  0.0824
 1640SOL    HW116382   2.786   4.123   1.693  0.7399  0.4654  2.4897
 1640SOL    HW216383   2.925   4.081   1.659 -0.2452  1.6121  2.7635
 1641SOL     OW16384   4.073   4.018  13.885  0.5392 -0.3172  0.3389
 1641SOL    HW116385   4.000   3.969  13.922 -0.8739  0.5209 -1.3552
 1641SOL    HW216386   4.136   3.951  13.858 -0.7058 -0.2361 -2.7356
 1642SOL     OW16387   3.481   3.165   2.587  0.5070 -0.2128  0.2621
 1642SOL    HW116388   3.439   3.220   2.521  1.3597 -0.8927 -0.8347
 1642SOL    HW216389   3.500   3.228   2.657  0.2377 -0.6548  0.7402
 1643SOL     OW16390   4.613   2.728   9.297  0.3301  0.1523 -0.0748
 1643SOL    HW116391   4.631   2.787   9.223  0.9099 -1.5165 -1.2566
 1643SOL    HW216392   4.537   2.695   9.250  1.0121  1.9985 -2.4907
 1644SOL     OW16393   0.983   2.504   1.924 -0.8163 -0.4464  0.0750
 1644SOL    HW116394   0.976   2.600   1.920  3.6437 -0.2365 -1.9730
 1644SOL    HW216395   1.031   2.485   1.843  1.0274 -2.6111  1.7132
 1645SOL     OW16396   3.854   4.168  10.835 -0.1841 -0.2771  0.1269
 1645SOL    HW116397   3.815   4.081  10.831  1.9595 -1.2055 -0.7505
 1645SOL    HW216398   3.907   4.160  10.914  2.3087  2.8282 -1.2273
 1646SOL     OW16399   4.248   3.389   3.850 -0.1456 -0.0941 -0.7022
 1646SOL    HW116400   4.190   3.464   3.852 -0.0607 -0.0931  2.0101
 1646SOL    HW216401   4.308   3.408   3.922  0.9475 -3.0558 -0.8346
 1647SOL     OW16402   0.123   3.087   9.383 -0.7663  0.5838 -0.4348
 1647SOL    HW116403   0.129   3.102   9.478 -0.8949  1.9949 -0.6559
 1647SOL    HW216404   0.209   3.045   9.373 -0.2969  2.1418 -2.7376
 1648SOL     OW16405   4.216   2.817   4.952 -0.0974 -0.5822 -0.2448
 1648SOL    HW116406   4.295   2.867   4.974 -0.4257  0.5556 -1.6249
 1648SOL    HW216407   4.145   2.851   5.007  0.8056  0.3930  0.3031
 1649SOL     OW16408   2.131   1.732   7.723 -0.1686  0.2298  0.0392
 1649SOL    HW116409   2.084   1.815   7.731  2.2390  1.6572 -0.6750
 1649SOL    HW216410   2.139   1.702   7.814  1.3906 -0.1957 -0.2343
 1650SOL     OW16411   4.442   1.901   2.670  0.3574  0.0948  0.1710
 1650SOL    HW116412   4.403   1.937   2.750  1.1159 -0.0635  0.6121
 1650SOL    HW216413   4.481   1.819   2.702  1.3425  0.2513 -0.6352
 1651SOL     OW16414   3.117   1.627   1.093  0.4696 -0.1139  0.3083
 1651SOL    HW116415   3.085   1.712   1.122  1.1039 -0.0333  0.7659
 1651SOL    HW216416   3.162   1.597   1.172  2.1986 -0.7609 -0.9098
 1652SOL     OW16417   2.126   2.302   4.332  0.3871  0.5244 -0.0220
 1652SOL    HW116418   2.036   2.280   4.356  0.6476  0.4380  0.8672
 1652SOL    HW216419   2.179   2.316   4.411  2.3991 -1.9962 -0.9388
 1653SOL     OW16420   0.906   0.088  14.343 -0.1340  0.4083  0.1734
 1653SOL    HW116421   0.959   0.159  14.305 -0.4747  0.8257  0.4859
 1653SOL    HW216422   0.817   0.119  14.327  0.6125  1.6591 -1.6545
 1654SOL     OW16423   0.195   1.889   2.487 -0.1113 -0.5753  0.1307
 1654SOL    HW116424   0.249   1.850   2.556  0.4539 -1.7062 -0.9356
 1654SOL    HW216425   0.141   1.957   2.528 -0.2369 -1.3196  1.2182
 1655SOL     OW16426   1.617   1.424   2.855  0.2309 -0.3271  0.1738
 1655SOL    HW116427   1.535   1.379   2.876 -0.0103  0.7045  1.4021
 1655SOL    HW216428   1.593   1.438   2.763  1.2962 -1.1475 -0.2268
 1656SOL     OW16429   3.235   3.895   3.968  0.2695 -0.3793  0.3895
 1656SOL    HW116430   3.159   3.856   3.925  0.2635 -0.0767  0.1177
 1656SOL    HW216431   3.294   3.916   3.895 -1.4140 -0.9920 -1.1419
 1657SOL     OW16432   1.413   0.801   9.246 -0.3219  0.2448  0.4292
 1657SOL    HW116433   1.450   0.839   9.166  0.5864 -0.5464  0.4612
 1657SOL    HW216434   1.340   0.862   9.255 -0.3951  0.7177 -3.0616
 1658SOL     OW16435   2.199   1.681   3.372 -0.3889 -0.3485 -0.3886
 1658SOL    HW116436   2.240   1.751   3.322 -1.7538  0.6185 -0.1585
 1658SOL    HW216437   2.273   1.670   3.431  0.2012  1.3014 -0.8375
 1659SOL     OW16438   3.957   4.341  14.931  0.5272  0.4934  0.1254
 1659SOL    HW116439   3.978   4.323  14.839 -0.0412  0.2863  0.0405
 1659SOL    HW216440   3.862   4.344  14.936  0.7747  2.1715  3.3799
 1660SOL     OW16441   2.513   0.030   3.416  0.3972  0.8042 -0.6607
 1660SOL    HW116442   2.444   0.011   3.352  1.2245 -1.1679 -0.9777
 1660SOL    HW216443   2.524   4.666   3.453  1.0255  2.0491  2.1215
 1661SOL     OW16444   1.894   2.188   4.064  0.4464 -0.2128  0.5908
 1661SOL    HW116445   1.847   2.255   4.114 -2.0780 -1.0230 -0.7082
 1661SOL    HW216446   1.986   2.207   4.082  0.4086 -0.5341  1.1632
 1662SOL     OW16447   0.704   3.129   4.371 -0.0153 -0.5627  0.1694
 1662SOL    HW116448   0.780   3.188   4.377 -0.5329  0.1556 -0.4106
 1662SOL    HW216449   0.742   3.042   4.385  2.7150  0.4698 -0.7621
 1663SOL     OW16450   4.453   3.175   0.741  0.0596 -0.1414  0.1521
 1663SOL    HW116451   4.519   3.216   0.798 -0.5606 -2.3090  2.4288
 1663SOL    HW216452   4.453   3.086   0.776 -1.1654 -0.5681 -0.9430
 1664SOL     OW16453   2.177   4.420   2.058  0.4404  0.1309 -0.4162
 1664SOL    HW116454   2.138   4.459   1.981  1.3055  0.3281 -0.7456
 1664SOL    HW216455   2.107   4.453   2.116  0.3797  0.5617 -0.7376
 1665SOL     OW16456   0.944   3.523   1.962  0.3451 -0.2471  0.2794
 1665SOL    HW116457   0.885   3.599   1.958  0.4230 -0.1314  1.4119
 1665SOL    HW216458   0.877   3.456   1.950  1.9271 -2.0715  1.9438
 1666SOL     OW16459   1.311   1.964   2.812 -0.3649  0.4712 -0.4563
 1666SOL    HW116460   1.216   1.969   2.799 -0.6172 -2.7661  0.1824
 1666SOL    HW216461   1.328   1.870   2.815  0.1556  0.6548  1.8442
 1667SOL     OW16462   3.590   0.727   2.988  0.0411  0.3196 -0.1254
 1667SOL    HW116463   3.607   0.753   3.078  2.5093  2.0557 -1.1145
 1667SOL    HW216464   3.503   0.687   2.991  0.9338 -1.5640  0.3181
 1668SOL     OW16465   0.832   3.998   5.958  0.2620 -0.1371 -0.0779
 1668SOL    HW116466   0.878   3.999   6.041 -0.0005  0.1412  0.0664
 1668SOL    HW216467   0.880   3.931   5.911  0.3959  0.2397 -0.4775
 1669SOL     OW16468   3.030   3.970   0.383  0.0227  0.0062  0.2222
 1669SOL    HW116469   3.085   3.900   0.418  1.5017  1.7854  1.4608
 1669SOL    HW216470   3.066   3.998   0.299  1.4190 -1.5721  0.2879
 1670SOL     OW16471   1.925   1.793  15.346  0.4683 -0.5104  0.1689
 1670SOL    HW116472   1.937   1.743  15.426 -0.9073  1.1817  1.4446
 1670SOL    HW216473   1.840   1.834  15.362  0.7431 -0.0489  0.4350
 1671SOL     OW16474   2.941   4.540   5.136 -0.1069 -0.1472  0.2061
 1671SOL    HW116475   3.028   4.552   5.099  0.5255 -3.2207  0.7231
 1671SOL    HW216476   2.921   4.629   5.166 -2.4713 -0.1658 -1.2457
 1672SOL     OW16477   1.214   3.866  11.142 -0.1106 -0.0501 -0.0162
 1672SOL    HW116478   1.138   3.892  11.194  0.0305 -0.5901  0.4732
 1672SOL    HW216479   1.175   3.780  11.125  1.0993 -1.1923  2.9359
 1673SOL     OW16480   0.932   4.496   0.991 -0.0212  0.3943 -0.0176
 1673SOL    HW116481   0.904   4.489   1.083 -0.3184  0.8621 -0.0734
 1673SOL    HW216482   0.859   4.542   0.951  0.0698  3.3629  3.2197
 1674SOL     OW16483   2.590   3.846   2.234 -0.3608  0.5811  0.6469
 1674SOL    HW116484   2.499   3.855   2.204  0.7597  3.1375 -1.9809
 1674SOL    HW216485   2.579   3.842   2.329  0.8072 -1.0224  0.7183
 1675SOL     OW16486   0.093   1.132  13.293 -0.0439 -0.3112 -0.1099
 1675SOL    HW116487   0.079   1.222  13.262 -3.1694 -1.0326 -0.8286
 1675SOL    HW216488   0.007   1.096  13.273 -0.2585  0.5572 -0.7777
 1676SOL     OW16489   0.797   3.348   9.580 -0.2323  0.4255 -0.2269
 1676SOL    HW116490   0.825   3.343   9.671 -0.9594 -1.8013 -0.1143
 1676SOL    HW216491   0.766   3.260   9.556  1.1891 -0.4995  1.2884
 1677SOL     OW16492   4.501   3.518   9.555  0.8897  0.1180 -0.1888
 1677SOL    HW116493   4.490   3.535   9.461  0.5287  2.1989  0.2416
 1677SOL    HW216494   4.492   3.423   9.562 -1.4681  0.1821 -2.2118
 1678SOL     OW16495   2.746   0.035  10.776 -0.2508  0.0180  0.1141
 1678SOL    HW116496   2.683   0.100  10.745 -0.9124 -1.5005 -1.7303
 1678SOL    HW216497   2.767   0.071  10.862  0.3581  0.9033 -0.4009
 1679SOL     OW16498   0.407   3.191   0.170 -0.0024  0.1655  0.1842
 1679SOL    HW116499   0.410   3.178   0.075  0.5503 -1.2433  0.3941
 1679SOL    HW216500   0.413   3.104   0.208  2.1574 -0.6620 -1.9962
 1680SOL     OW16501   2.659   4.390   6.118 -0.0070 -0.4993 -0.4305
 1680SOL    HW116502   2.620   4.304   6.135 -0.6907 -0.0290  0.4545
 1680SOL    HW216503   2.597   4.425   6.055  0.9691  0.3029 -0.9299
 1681SOL     OW16504   2.116   0.137   8.220 -0.7765  0.4229  0.7292
 1681SOL    HW116505   2.084   0.099   8.301 -1.0550 -0.6892  0.0997
 1681SOL    HW216506   2.044   0.192   8.191 -0.0507  1.3831  0.7578
 1682SOL     OW16507   2.058   2.358   9.583  0.1377 -0.2472 -0.1853
 1682SOL    HW116508   2.016   2.317   9.658  0.2478 -2.3446 -1.2685
 1682SOL    HW216509   2.146   2.327   9.603  0.3380  0.5381  0.1418
 1683SOL     OW16510   1.887   0.690  10.166 -0.0105  0.3215  0.3424
 1683SOL    HW116511   1.793   0.692  10.150 -0.1494 -0.4104  1.1128
 1683SOL    HW216512   1.892   0.783  10.188  0.9955  0.6704 -1.3248
 1684SOL     OW16513   1.416   3.263   0.630 -0.4251 -0.2710 -0.8138
 1684SOL    HW116514   1.408   3.206   0.553 -0.3349 -0.9144 -0.3473
 1684SOL    HW216515   1.435   3.197   0.696 -0.8442  0.6077  0.1797
 1685SOL     OW16516   0.433   3.282   9.235 -0.5366  0.0441 -0.0159
 1685SOL    HW116517   0.498   3.307   9.169  0.1713  0.6169  0.9156
 1685SOL    HW216518   0.471   3.207   9.281 -0.4278 -0.0089 -0.1916
 1686SOL     OW16519   1.234   3.279   3.713 -0.2222  0.5483  0.5581
 1686SOL    HW116520   1.188   3.330   3.647  0.7282  0.6576 -0.0197
 1686SOL    HW216521   1.170   3.268   3.783 -1.0835 -1.7424 -0.6251
 1687SOL     OW16522   3.702   0.762  16.463  0.0217  0.7299 -0.3757
 1687SOL    HW116523   3.779   0.809  16.496  0.7702 -1.8193  1.4533
 1687SOL    HW216524   3.638   0.773  16.533  0.6034  1.1741  0.0942
 1688SOL     OW16525   1.414   1.725   3.667 -0.3346 -0.4010 -0.1611
 1688SOL    HW116526   1.482   1.681   3.718 -0.6851 -0.0584  0.6115
 1688SOL    HW216527   1.399   1.796   3.730 -1.0909 -0.0727 -0.7116
 1689SOL     OW16528   2.244   1.306  13.061  0.3578 -0.7702 -0.5653
 1689SOL    HW116529   2.270   1.392  13.029  1.7810 -0.4793  1.3447
 1689SOL    HW216530   2.314   1.292  13.125 -2.0916  1.7998  2.6447
 1690SOL     OW16531   2.340   1.814  10.852 -0.4765  0.2961 -0.1254
 1690SOL    HW116532   2.379   1.841  10.769  0.5266  1.3012  0.6690
 1690SOL    HW216533   2.338   1.720  10.833 -2.5782  0.2753  0.2399
 1691SOL     OW16534   4.215   1.293   6.586 -0.1736  0.5733  0.4807
 1691SOL    HW116535   4.296   1.308   6.634 -0.5207 -1.2982  1.6702
 1691SOL    HW216536   4.239   1.257   6.500  1.2551  1.6330  0.4579
 1692SOL     OW16537   3.997   0.982  16.978  0.0605  0.4756  0.1940
 1692SOL    HW116538   3.969   1.020  17.061 -1.2448  0.4262 -0.2294
 1692SOL    HW216539   4.090   1.006  16.975  0.6963 -1.8124  1.7803
 1693SOL     OW16540   2.102   4.122   8.094  0.0307  0.1100 -0.3624
 1693SOL    HW116541   2.183   4.072   8.084  0.1837  0.5816 -1.5710
 1693SOL    HW216542   2.145   4.206   8.110  1.4445 -0.6535 -0.2081
 1694SOL     OW16543   2.087   1.453  14.722 -0.2071  0.2252  0.3354
 1694SOL    HW116544   2.093   1.363  14.754  0.3011 -0.0232 -0.4502
 1694SOL    HW216545   1.993   1.464  14.710 -0.3012 -0.6453  0.2990
 1695SOL     OW16546   2.873   0.468   2.448  0.0063 -0.2363 -0.1305
 1695SOL    HW116547   2.795   0.440   2.401  0.1703  0.6378 -0.9218
 1695SOL    HW216548   2.868   0.393   2.508  0.2347  0.9156  1.3358
 1696SOL     OW16549   2.316   3.820   2.181  0.0198  0.0444 -0.3852
 1696SOL    HW116550   2.295   3.883   2.250 -1.7849  1.2465 -2.0291
 1696SOL    HW216551   2.235   3.769   2.182  1.3523 -2.0859  1.0494
 1697SOL     OW16552   0.863   2.830   7.048  0.5754 -0.2066 -0.0855
 1697SOL    HW116553   0.929   2.763   7.067  1.5937  0.9003  0.2321
 1697SOL    HW216554   0.885   2.856   6.958  1.9998  0.0307  0.3323
 1698SOL     OW16555   2.916   2.128   4.867  0.5038 -0.1787  0.0993
 1698SOL    HW116556   2.960   2.212   4.877  0.8681 -0.2297 -1.0578
 1698SOL    HW216557   2.941   2.087   4.950  0.4440 -1.3037 -0.4351
 1699SOL     OW16558   2.539   0.105   7.842  0.5201  0.2821  0.1873
 1699SOL    HW116559   2.537   0.171   7.773  0.8739  0.6260  0.5033
 1699SOL    HW216560   2.628   0.073   7.823 -1.1648 -4.1207 -0.3155
 1700SOL     OW16561   2.318   0.516  11.196 -0.1224 -0.0479  0.1749
 1700SOL    HW116562   2.231   0.551  11.219 -0.8363  0.3342 -3.1227
 1700SOL    HW216563   2.322   0.513  11.100 -0.3333  0.8361  0.1363
 1701SOL     OW16564   1.606   2.453   8.422  0.3313 -0.5793 -0.2960
 1701SOL    HW116565   1.581   2.444   8.330  1.0310 -1.7472 -0.3721
 1701SOL    HW216566   1.638   2.365   8.443 -2.8926 -1.0052  2.8771
 1702SOL     OW16567   3.690   4.611   7.597 -0.0280  0.1735  0.3183
 1702SOL    HW116568   3.704   4.533   7.543 -1.2044  0.6818 -0.7167
 1702SOL    HW216569   3.650   4.583   7.679  1.2817 -0.3841  0.7698
 1703SOL     OW16570   3.982   4.653   8.163 -0.0754 -0.3346 -0.2522
 1703SOL    HW116571   3.941   4.576   8.201 -1.0727  0.8101  0.9876
 1703SOL    HW216572   3.905   4.710   8.158  0.3572  0.2882  0.1572
 1704SOL     OW16573   1.220   0.730   7.615 -0.3100  0.1541 -0.6820
 1704SOL    HW116574   1.146   0.779   7.652 -0.7366 -0.5002 -0.6783
 1704SOL    HW216575   1.254   0.800   7.559  1.5669  0.6043  1.0333
 1705SOL     OW16576   4.302   2.320   7.469 -0.3617 -0.0049  0.0280
 1705SOL    HW116577   4.210   2.322   7.498 -0.5045 -0.9305 -0.3457
 1705SOL    HW216578   4.306   2.412   7.445  0.5428  0.3180  1.4612
 1706SOL     OW16579   0.928   3.002  13.273  0.0299 -0.0278  0.0971
 1706SOL    HW116580   0.952   3.093  13.292  0.8501 -0.1481 -0.3675
 1706SOL    HW216581   0.874   2.977  13.348  1.0616  0.2840  0.9418
 1707SOL     OW16582   2.831   3.564  13.695  0.1354  0.0871 -0.7951
 1707SOL    HW116583   2.918   3.538  13.664  0.5889 -0.7252  1.1850
 1707SOL    HW216584   2.837   3.659  13.698 -0.6501  0.0545  1.6289
 1708SOL     OW16585   2.169   0.324  10.175  0.1664  0.1635  0.1890
 1708SOL    HW116586   2.175   0.392  10.242  1.9896  0.3213 -0.1271
 1708SOL    HW216587   2.096   0.361  10.127 -0.5791  0.9667  1.9555
 1709SOL     OW16588   1.614   3.729  12.950 -0.1946  0.5259 -0.3921
 1709SOL    HW116589   1.643   3.819  12.942 -0.2679  0.6233  0.5344
 1709SOL    HW216590   1.699   3.686  12.939  0.4508  1.5864  0.5717
 1710SOL     OW16591   0.506   1.726   1.876 -0.1146 -0.4530 -0.0158
 1710SOL    HW116592   0.562   1.788   1.922  0.6508 -1.6672  0.6905
 1710SOL    HW216593   0.552   1.642   1.882  1.2094  0.4211  2.1290
 1711SOL     OW16594   1.389   2.672   3.814  0.3892 -0.1608 -0.3434
 1711SOL    HW116595   1.481   2.663   3.788  0.1713 -1.9975 -0.4859
 1711SOL    HW216596   1.355   2.592   3.775 -0.1894  0.3562 -0.8920
 1712SOL     OW16597   2.346   2.534  13.451  0.5784  0.1908  0.2826
 1712SOL    HW116598   2.320   2.445  13.428 -0.1610 -0.0550  2.0646
 1712SOL    HW216599   2.320   2.585  13.374 -0.8569 -1.1232 -0.0955
 1713SOL     OW16600   3.399   2.479   9.210 -0.1922 -0.1366  0.8761
 1713SOL    HW116601   3.346   2.468   9.131  0.6865 -1.8351  0.4994
 1713SOL    HW216602   3.390   2.573   9.225  0.8510 -0.1589  1.6554
 1714SOL     OW16603   2.775   1.444   0.519  0.0068  0.4257  0.4089
 1714SOL    HW116604   2.808   1.515   0.575  0.2130  2.4071 -2.2343
 1714SOL    HW216605   2.750   1.384   0.589  2.3635 -0.6438  0.3222
 1715SOL     OW16606   0.236   3.029   7.068 -0.3642 -0.3030  0.2942
 1715SOL    HW116607   0.154   3.029   7.019  0.2185  0.5663 -0.6793
 1715SOL    HW216608   0.297   2.984   7.008 -1.4102 -1.0650 -0.1891
 1716SOL     OW16609   0.242   0.965   9.022 -0.5292 -0.2366 -0.0371
 1716SOL    HW116610   0.242   0.876   8.987  0.0906 -0.8808  1.5953
 1716SOL    HW216611   0.149   0.980   9.003 -0.4340 -0.3122 -0.5584
 1717SOL     OW16612   0.362   2.704   8.592 -0.6992 -0.0374  0.3508
 1717SOL    HW116613   0.333   2.701   8.683  0.0275 -0.9974  0.5574
 1717SOL    HW216614   0.362   2.610   8.574  1.0935  0.2140 -1.0023
 1718SOL     OW16615   0.568   0.785   2.732 -0.3793  0.1045 -0.4192
 1718SOL    HW116616   0.486   0.787   2.682 -0.6227 -1.7828 -0.0683
 1718SOL    HW216617   0.585   0.692   2.722  0.3968  0.0060  1.7407
 1719SOL     OW16618   3.944   3.723   7.577 -0.7500 -0.5823 -0.0662
 1719SOL    HW116619   3.873   3.784   7.559  0.5759  0.8689 -0.3276
 1719SOL    HW216620   3.991   3.732   7.494 -0.3152  2.7081  0.5404
 1720SOL     OW16621   0.476   2.100  14.052  0.5391 -0.1572 -0.0969
 1720SOL    HW116622   0.533   2.166  14.092  1.0355 -0.9984  0.5932
 1720SOL    HW216623   0.397   2.151  14.037  0.3734 -0.7668 -1.2665
 1721SOL     OW16624   4.244   2.560   8.119 -0.0809 -0.3601 -0.0888
 1721SOL    HW116625   4.180   2.571   8.049  0.3167 -1.6845 -0.6590
 1721SOL    HW216626   4.231   2.466   8.135 -2.5310 -0.1277 -0.8173
 1722SOL     OW16627   3.148   2.306   4.317 -0.3618 -0.2691  0.0460
 1722SOL    HW116628   3.094   2.332   4.391  0.7243  0.1130  0.6947
 1722SOL    HW216629   3.198   2.386   4.304 -0.4117 -0.1804  0.4150
 1723SOL     OW16630   0.014   1.013   6.094  0.0737  0.3359  0.6212
 1723SOL    HW116631   0.018   1.044   6.003 -3.1269  2.5538  1.2579
 1723SOL    HW216632   4.646   1.018   6.121  0.1175 -1.1244  1.0527
 1724SOL     OW16633   4.233   1.814  14.563 -0.0033 -0.3805  0.1691
 1724SOL    HW116634   4.157   1.763  14.593 -0.8345 -0.0979 -1.4860
 1724SOL    HW216635   4.294   1.749  14.528  0.9852  1.2257 -1.0691
 1725SOL     OW16636   0.000   4.524   5.517  0.8871 -0.0989 -0.2767
 1725SOL    HW116637   4.650   4.574   5.553  1.0506 -0.0565  0.0062
 1725SOL    HW216638   4.680   4.454   5.469 -1.5150  0.0964  1.6104
 1726SOL     OW16639   3.285   1.995   2.755 -0.3140 -0.3353  0.0258
 1726SOL    HW116640   3.232   1.970   2.680 -0.1071 -2.1936  0.5039
 1726SOL    HW216641   3.254   1.925   2.812 -1.8715  0.5189  0.2164
 1727SOL     OW16642   3.622   1.840   4.079 -0.1899 -0.2130 -0.0514
 1727SOL    HW116643   3.702   1.861   4.031 -0.0614 -0.9614 -0.1652
 1727SOL    HW216644   3.584   1.923   4.105 -0.6433 -0.3048 -0.4252
 1728SOL     OW16645   1.405   4.257   8.734  0.4037 -0.2151  0.0517
 1728SOL    HW116646   1.412   4.164   8.712 -0.1331 -0.3634  0.5201
 1728SOL    HW216647   1.473   4.288   8.674  0.7190 -0.4331  0.2984
 1729SOL     OW16648   1.871   3.713  14.441 -0.4352  0.2969 -0.0171
 1729SOL    HW116649   1.896   3.720  14.533  3.9080 -1.2544 -1.0698
 1729SOL    HW216650   1.784   3.753  14.436 -0.5213  0.0508 -0.4691
 1730SOL     OW16651   3.503   0.184   0.403 -0.7553 -0.3493  0.3034
 1730SOL    HW116652   3.570   0.151   0.463 -0.8098 -0.3055  0.3891
 1730SOL    HW216653   3.531   0.276   0.404  2.2748 -1.2633  0.7297
 1731SOL     OW16654   4.225   3.641  14.842  0.5354 -0.2921 -0.2792
 1731SOL    HW116655   4.311   3.602  14.858  0.3188 -0.5140  0.3480
 1731SOL    HW216656   4.203   3.658  14.934  0.1569  2.7828 -0.9388
 1732SOL     OW16657   3.110   1.260   5.881 -0.0175  0.5182 -0.0870
 1732SOL    HW116658   3.089   1.176   5.921  1.1416 -0.0966 -0.7797
 1732SOL    HW216659   3.031   1.310   5.901 -0.1178  0.2438  0.1851
 1733SOL     OW16660   0.136   0.793  12.962  0.3249  0.5206 -0.2534
 1733SOL    HW116661   0.149   0.832  13.048  0.7366 -0.3943  0.0938
 1733SOL    HW216662   0.080   0.716  12.978  2.8438 -0.9080  1.6318
 1734SOL     OW16663   4.555   4.305   7.493 -0.5517  0.1511  0.1245
 1734SOL    HW116664   4.469   4.340   7.513 -1.0218 -0.3841 -0.9432
 1734SOL    HW216665   4.608   4.331   7.568  1.8710  0.6235 -1.7277
 1735SOL     OW16666   0.858   4.483   8.178  0.1390 -0.2031  0.2396
 1735SOL    HW116667   0.899   4.397   8.179 -2.4340 -1.3993  0.9447
 1735SOL    HW216668   0.817   4.486   8.091  0.0328 -1.4840  0.2490
 1736SOL     OW16669   2.135   4.491  12.869 -0.6152  0.5301  0.1193
 1736SOL    HW116670   2.159   4.458  12.782 -1.4756 -0.0497  0.0944
 1736SOL    HW216671   2.195   4.565  12.866 -0.9689  0.8087 -0.0154
 1737SOL     OW16672   1.671   0.087   1.145  0.0722 -0.4710  0.7458
 1737SOL    HW116673   1.667   0.000   1.106  2.4288 -0.5279  0.6272
 1737SOL    HW216674   1.747   0.081   1.204  0.2320  0.6071  0.6503
 1738SOL     OW16675   3.652   3.579   4.405 -0.1014  0.2245 -0.4335
 1738SOL    HW116676   3.724   3.637   4.379 -0.5442  0.5498 -0.9375
 1738SOL    HW216677   3.637   3.532   4.323 -0.5227 -0.3014 -0.0508
 1739SOL     OW16678   4.697   0.266  13.553 -0.2917 -0.4372  0.1193
 1739SOL    HW116679   4.669   0.211  13.479  0.6417 -2.5814  1.3647
 1739SOL    HW216680   4.630   0.334  13.559  1.3700  1.3551 -1.6747
 1740SOL     OW16681   3.534   2.528   8.396  0.1510 -0.5931 -0.4744
 1740SOL    HW116682   3.503   2.491   8.313  2.4363 -0.1662 -1.5205
 1740SOL    HW216683   3.518   2.621   8.377 -1.1498 -0.7551 -0.1381
 1741SOL     OW16684   1.731   4.398  11.180 -0.6527 -0.0261  0.4043
 1741SOL    HW116685   1.638   4.373  11.182 -0.6356 -0.1504 -0.5295
 1741SOL    HW216686   1.754   4.334  11.113 -0.1326 -0.0443  0.6014
 1742SOL     OW16687   3.920   2.362  16.474 -0.2617 -0.7367 -0.8393
 1742SOL    HW116688   3.964   2.303  16.414  0.9376  0.7738 -1.4457
 1742SOL    HW216689   3.967   2.445  16.465  0.6030 -1.2436 -0.9323
 1743SOL     OW16690   2.314   4.301   6.023  0.4545  0.6792 -0.0962
 1743SOL    HW116691   2.258   4.262   6.089 -0.0394 -0.1510 -1.0145
 1743SOL    HW216692   2.336   4.383   6.067 -0.1510  0.5369  0.4679
 1744SOL     OW16693   4.411   2.264   3.747  0.2495 -0.2163  0.4570
 1744SOL    HW116694   4.424   2.221   3.663 -0.9505  0.8509 -0.2867
 1744SOL    HW216695   4.366   2.343   3.717 -1.5182 -1.0728  0.8375
 1745SOL     OW16696   4.173   2.274   4.337  0.6284  0.0394 -0.5039
 1745SOL    HW116697   4.092   2.315   4.309  1.0525  0.1621 -1.5565
 1745SOL    HW216698   4.213   2.243   4.256  2.3997 -0.8951  0.7262
 1746SOL     OW16699   3.987   0.799  11.947  0.0067  0.9780 -0.5700
 1746SOL    HW116700   3.982   0.877  11.891  1.1850  0.4767 -1.3493
 1746SOL    HW216701   3.895   0.795  11.975  0.4408  0.0095  0.6561
 1747SOL     OW16702   4.559   4.092  10.070  0.4140 -0.0315  0.3102
 1747SOL    HW116703   4.655   4.095  10.079  0.3825 -0.2732  0.7405
 1747SOL    HW216704   4.540   3.999  10.056  0.6414 -0.0239 -0.0637
 1748SOL     OW16705   4.023   0.543  12.869 -0.2910 -0.1764  0.4997
 1748SOL    HW116706   4.094   0.512  12.814  1.2540  1.2264  1.6862
 1748SOL    HW216707   3.966   0.604  12.822  0.4094  1.1385  1.3535
 1749SOL     OW16708   3.143   1.524   3.972 -0.1572 -0.0052  0.3405
 1749SOL    HW116709   3.203   1.488   4.038  0.6547  1.1702  0.2536
 1749SOL    HW216710   3.062   1.485   4.005  1.3019 -1.9283  1.6270
 1750SOL     OW16711   0.777   0.873   2.864 -0.0700 -0.0296  0.3853
 1750SOL    HW116712   0.696   0.835   2.830  0.9247 -0.5188 -1.3992
 1750SOL    HW216713   0.747   0.959   2.895  0.0110  0.1639 -0.0671
 1751SOL     OW16714   2.120   4.658   9.785  0.0129 -0.1163 -0.2554
 1751SOL    HW116715   2.201   4.634   9.741 -0.6306 -1.9403 -0.4613
 1751SOL    HW216716   2.086   0.002   9.725 -0.8838 -1.1415 -0.9047
 1752SOL     OW16717   0.520   1.636   3.287  0.2539 -0.8290  0.0957
 1752SOL    HW116718   0.452   1.643   3.220 -0.2336 -1.6577  0.5033
 1752SOL    HW216719   0.528   1.542   3.304  0.1893 -0.9120 -0.3272
 1753SOL     OW16720   4.465   2.749   9.061  0.2385 -0.2979 -0.8370
 1753SOL    HW116721   4.372   2.769   9.054  0.1283 -0.1400  1.1665
 1753SOL    HW216722   4.496   2.761   8.971 -1.0442 -0.4445 -1.2864
 1754SOL     OW16723   3.915   0.054  14.147 -0.4030 -0.4027  0.6031
 1754SOL    HW116724   3.955   0.115  14.209 -2.3382  0.3047  1.1600
 1754SOL    HW216725   3.824   0.058  14.175 -0.2427  0.0354  1.0727
 1755SOL     OW16726   4.376   0.062   6.545 -0.4120 -0.0311 -0.5270
 1755SOL    HW116727   4.409   4.722   6.482  0.9929 -1.4828  1.6912
 1755SOL    HW216728   4.439   0.131   6.522 -0.0855  0.0987  0.7695
 1756SOL     OW16729   3.065   0.088   6.806 -0.2291 -0.2133  0.0157
 1756SOL    HW116730   3.002   0.021   6.780  1.0728 -1.0339 -1.0059
 1756SOL    HW216731   3.085   0.059   6.895  0.2082 -0.1851 -0.0725
 1757SOL     OW16732   0.993   4.358   4.806 -0.1346 -0.1359 -0.3452
 1757SOL    HW116733   0.938   4.304   4.749 -1.0325  1.6858 -1.2229
 1757SOL    HW216734   0.937   4.379   4.880  1.0382 -1.2125  0.8425
 1758SOL     OW16735   2.265   0.958   9.984  0.0212 -0.0485  0.0939
 1758SOL    HW116736   2.214   1.027  10.026 -1.0909  0.3975 -1.9586
 1758SOL    HW216737   2.206   0.885  10.001 -1.1662  0.4729 -1.7278
 1759SOL     OW16738   3.919   3.096   6.516  0.4360  0.1707 -0.1226
 1759SOL    HW116739   3.980   3.168   6.526  0.6771  0.1401 -1.3263
 1759SOL    HW216740   3.902   3.069   6.606  2.6446  2.2018  0.8718
 1760SOL     OW16741   0.782   1.579   5.099 -0.6553 -0.1243 -0.0105
 1760SOL    HW116742   0.785   1.565   5.005  1.2295  0.6812 -0.0711
 1760SOL    HW216743   0.861   1.632   5.109  0.6229 -2.3197  1.5514
 1761SOL     OW16744   2.122   3.802  11.271 -0.2277 -0.0884 -1.0452
 1761SOL    HW116745   2.191   3.736  11.258  1.1332  1.0719  0.1918
 1761SOL    HW216746   2.050   3.743  11.293 -0.3558  0.0683 -1.0489
 1762SOL     OW16747   2.209   0.768  15.676  0.7879  0.3083 -0.2950
 1762SOL    HW116748   2.262   0.753  15.598  0.4921  0.2641 -0.4887
 1762SOL    HW216749   2.168   0.854  15.668 -0.6531 -0.2433  1.2679
 1763SOL     OW16750   4.409   1.165  13.415 -0.9057  0.0535  0.4988
 1763SOL    HW116751   4.478   1.108  13.448  0.4545  0.7678 -1.1152
 1763SOL    HW216752   4.439   1.174  13.325 -2.0359  1.6513  0.2807
 1764SOL     OW16753   1.121   3.573   6.484  0.0970  0.3583  0.3869
 1764SOL    HW116754   1.105   3.579   6.390  1.9117  0.5240  0.0946
 1764SOL    HW216755   1.093   3.662   6.503  0.1393 -0.0404  2.4075
 1765SOL     OW16756   1.963   0.804   7.639 -0.3776  0.0448  0.7405
 1765SOL    HW116757   1.943   0.897   7.652  1.0004  0.5768 -1.0022
 1765SOL    HW216758   1.873   0.771   7.642  0.0100 -0.7910  3.3982
 1766SOL     OW16759   0.458   3.661   3.229  0.0760 -0.2848 -0.0436
 1766SOL    HW116760   0.454   3.595   3.298  1.9673 -1.2028 -0.8084
 1766SOL    HW216761   0.544   3.663   3.188 -0.5596  0.6075 -1.3570
 1767SOL     OW16762   0.828   4.278   5.990  0.0604 -0.1762  0.6919
 1767SOL    HW116763   0.862   4.197   5.954  0.6696  0.7113 -0.7184
 1767SOL    HW216764   0.819   4.340   5.918  1.6764  0.2318  0.8335
 1768SOL     OW16765   1.070   0.805   5.411  0.0632  0.2429 -0.1178
 1768SOL    HW116766   1.137   0.792   5.479 -0.7986 -1.6535  0.3740
 1768SOL    HW216767   0.998   0.751   5.444  0.8952 -0.7882  0.0559
 1769SOL     OW16768   1.134   3.041   5.535  0.5695 -0.0387  0.4228
 1769SOL    HW116769   1.066   3.104   5.557 -1.0363 -1.2873 -0.9694
 1769SOL    HW216770   1.198   3.101   5.498  0.4237 -0.2895 -0.2372
 1770SOL     OW16771   3.862   0.417   8.682  0.0957 -0.2946 -0.8185
 1770SOL    HW116772   3.840   0.364   8.758  1.2610 -0.6280 -0.7132
 1770SOL    HW216773   3.953   0.392   8.666  0.0601 -0.7973 -0.2316
 1771SOL     OW16774   4.369   1.232   2.727 -0.2279 -0.0726 -0.0659
 1771SOL    HW116775   4.425   1.226   2.649 -1.3924  1.0766 -0.9887
 1771SOL    HW216776   4.308   1.305   2.713 -0.9535 -0.5235  0.7938
 1772SOL     OW16777   2.230   3.109  17.589 -0.5945 -0.4388 -0.0574
 1772SOL    HW116778   2.317   3.146  17.605 -1.9221  1.7427  2.2060
 1772SOL    HW216779   2.241   3.020  17.622  1.2579  0.3324  1.3773
 1773SOL     OW16780   1.532   1.014   8.762 -0.0142  0.3961 -0.1934
 1773SOL    HW116781   1.525   1.109   8.754  1.5295  0.4389 -1.1255
 1773SOL    HW216782   1.615   1.000   8.715 -0.5418 -0.9561 -0.7171
 1774SOL     OW16783   4.268   1.470   5.003  1.2815 -0.0549 -0.0050
 1774SOL    HW116784   4.224   1.535   5.058 -0.2988 -1.0245 -0.1452
 1774SOL    HW216785   4.208   1.397   4.991  1.0494 -0.0193  0.9921
 1775SOL     OW16786   2.966   4.590   3.226  0.3765  0.0227  0.5852
 1775SOL    HW116787   3.054   4.552   3.231  0.3761 -0.2721 -1.5581
 1775SOL    HW216788   2.987   4.668   3.276 -0.3465  0.1481  0.6856
 1776SOL     OW16789   0.085   4.047   7.034 -0.3076 -0.3288 -0.0899
 1776SOL    HW116790   0.008   4.080   7.080  0.5078 -0.0415  1.0761
 1776SOL    HW216791   0.048   4.024   6.948  1.8823 -2.0951 -0.5722
 1777SOL     OW16792   1.347   1.001   2.369 -0.0253 -0.6219 -0.2901
 1777SOL    HW116793   1.253   0.997   2.386  0.4282 -2.3666  1.8231
 1777SOL    HW216794   1.348   0.970   2.278 -1.0415 -1.7510  0.0752
 1778SOL     OW16795   3.656   0.830  15.252  0.6483 -0.3365  0.4476
 1778SOL    HW116796   3.732   0.858  15.201 -0.0635  2.7111  1.0754
 1778SOL    HW216797   3.590   0.868  15.194 -0.9002 -0.8652  1.8623
 1779SOL     OW16798   2.234   4.111   5.224  0.4846 -0.2903 -0.5662
 1779SOL    HW116799   2.300   4.045   5.204  2.7448  1.4461  1.1461
 1779SOL    HW216800   2.154   4.060   5.238  0.2404  0.3957  0.5196
 1780SOL     OW16801   1.081   4.176  10.948 -0.5059  0.2613  0.1499
 1780SOL    HW116802   1.174   4.161  10.931 -0.5525  2.1395 -1.7094
 1780SOL    HW216803   1.048   4.183  10.859  3.7744 -0.1830 -1.4607
 1781SOL     OW16804   1.356   2.444   0.400  0.0629 -0.2677  0.1570
 1781SOL    HW116805   1.283   2.482   0.449 -0.6230 -0.3190 -0.8318
 1781SOL    HW216806   1.368   2.515   0.337 -0.0446 -0.0884  0.3393
 1782SOL     OW16807   0.023   2.445   3.014  0.5440  0.0129  0.9345
 1782SOL    HW116808   0.111   2.461   2.981  0.5650 -0.0131  0.9784
 1782SOL    HW216809   0.003   2.520   3.069 -1.7895 -1.0815  1.5680
 1783SOL     OW16810   3.684   2.374  13.620 -0.1622  0.1209  0.2144
 1783SOL    HW116811   3.720   2.430  13.688  3.1627 -1.5745 -0.1134
 1783SOL    HW216812   3.622   2.332  13.680  0.4744 -1.1188  0.0063
 1784SOL     OW16813   3.579   4.511   4.413 -0.5969  0.8949  0.3467
 1784SOL    HW116814   3.490   4.523   4.447 -0.4515 -0.5232  1.2317
 1784SOL    HW216815   3.605   4.430   4.457  1.0130  0.3889 -1.5737
 1785SOL     OW16816   3.316   3.742   8.574 -0.0100  0.2705 -0.1686
 1785SOL    HW116817   3.347   3.798   8.645  2.7977  0.1376 -1.2987
 1785SOL    HW216818   3.300   3.793   8.495 -1.6803 -0.2752 -0.1792
 1786SOL     OW16819   0.674   1.975   0.897  0.3808  0.1394 -0.3626
 1786SOL    HW116820   0.649   1.901   0.842  2.0111  0.5543 -1.6702
 1786SOL    HW216821   0.753   1.998   0.848 -0.2869  2.3364 -0.4128
 1787SOL     OW16822   4.550   3.891   5.306  0.3469 -0.3208  0.2150
 1787SOL    HW116823   4.493   3.831   5.259 -0.2756  1.2244 -1.0294
 1787SOL    HW216824   4.632   3.845   5.323  1.3703  0.7211 -1.8401
 1788SOL     OW16825   0.576   1.732   6.114  0.2682  0.1643  0.6620
 1788SOL    HW116826   0.577   1.640   6.139  2.0685  0.0105  0.0444
 1788SOL    HW216827   0.627   1.729   6.033  1.1153  0.3229  1.1873
 1789SOL     OW16828   4.432   2.872   5.820  0.5838  0.2397  0.5965
 1789SOL    HW116829   4.429   2.841   5.730 -0.1186 -0.6616  0.9290
 1789SOL    HW216830   4.514   2.920   5.818  1.2393 -0.8148  2.1453
 1790SOL     OW16831   0.071   1.990   8.980  0.0219 -0.0645 -0.4816
 1790SOL    HW116832   0.030   2.008   9.064  0.6156 -0.7747 -0.0418
 1790SOL    HW216833   0.132   2.063   8.975  1.0480 -0.7829  1.6254
 1791SOL     OW16834   0.803   3.996   7.801  0.2670  0.5527  0.7355
 1791SOL    HW116835   0.871   4.063   7.791  1.3898 -0.6388  0.3890
 1791SOL    HW216836   0.815   3.935   7.729 -0.7498 -1.0508  1.9310
 1792SOL     OW16837   1.068   1.963   3.074  0.2283  0.0121 -0.4029
 1792SOL    HW116838   1.110   1.881   3.100 -0.8305 -0.4879 -0.2604
 1792SOL    HW216839   0.991   1.927   3.029  0.4320  0.6115 -1.2262
 1793SOL     OW16840   3.616   2.137   2.183 -0.0163 -0.0824 -0.1663
 1793SOL    HW116841   3.709   2.154   2.198 -0.0928 -1.9720  2.2982
 1793SOL    HW216842   3.583   2.200   2.247  2.7895  0.2382  0.9568
 1794SOL     OW16843   0.594   1.837   4.105 -0.0064 -0.1444  0.0740
 1794SOL    HW116844   0.623   1.898   4.037  2.0839  1.3450  2.2875
 1794SOL    HW216845   0.679   1.812   4.142 -0.8277 -1.5272  0.9943
 1795SOL     OW16846   2.674   3.526   3.972 -0.0364  0.2825 -0.5327
 1795SOL    HW116847   2.746   3.497   4.027 -0.3383  0.0785 -0.2394
 1795SOL    HW216848   2.597   3.515   4.028  0.6751  1.8160  0.7173
 1796SOL     OW16849   4.157   1.789   9.545 -0.2081  0.1544  0.1471
 1796SOL    HW116850   4.106   1.822   9.620 -0.2965 -0.2013  0.2437
 1796SOL    HW216851   4.126   1.698   9.543  3.1532 -0.9830  0.5637
 1797SOL     OW16852   3.245   2.365  17.097 -0.2692 -0.1835 -0.5239
 1797SOL    HW116853   3.206   2.280  17.075 -0.5469 -0.3637  0.6725
 1797SOL    HW216854   3.236   2.409  17.012  1.1615  3.4073  1.2020
 1798SOL     OW16855   0.546   0.761   7.900 -0.0370  0.3340  0.5700
 1798SOL    HW116856   0.562   0.763   7.995  0.6562  1.7423  0.4174
 1798SOL    HW216857   0.619   0.705   7.875  0.7961  0.9406  1.6592
 1799SOL     OW16858   1.283   3.983   7.947  0.2993 -0.2929 -0.1390
 1799SOL    HW116859   1.284   3.981   7.851 -0.4867 -3.4858 -0.0991
 1799SOL    HW216860   1.364   3.943   7.977  1.3372  1.7214 -0.2912
 1800SOL     OW16861   4.441   3.822   0.556 -0.9060  0.2058 -0.4943
 1800SOL    HW116862   4.433   3.783   0.468  1.1593 -1.9569  0.2750
 1800SOL    HW216863   4.493   3.898   0.532 -0.1581 -0.3684 -0.7113
 1801SOL     OW16864   4.003   4.414   4.061 -0.5208 -0.1729 -0.3088
 1801SOL    HW116865   3.938   4.483   4.045 -0.5981  0.1199  1.3059
 1801SOL    HW216866   3.992   4.404   4.156  1.0180 -1.2289 -0.2473
 1802SOL     OW16867   3.366   2.195   5.456  0.0762  0.2081  0.6780
 1802SOL    HW116868   3.336   2.213   5.545 -2.1670  0.9845 -0.2291
 1802SOL    HW216869   3.355   2.274   5.404  0.8051  0.6505  1.1969
 1803SOL     OW16870   3.558   3.612   5.006 -0.3912 -0.0021 -0.6443
 1803SOL    HW116871   3.608   3.693   4.993 -0.4216  0.1344  0.1203
 1803SOL    HW216872   3.566   3.617   5.101 -3.4515  1.6907 -0.4733
 1804SOL     OW16873   1.772   1.049   7.743  0.5415  0.5016 -0.4808
 1804SOL    HW116874   1.763   1.139   7.776 -0.5701  0.8142 -1.6465
 1804SOL    HW216875   1.760   0.995   7.821  0.0660  0.6397 -0.4573
 1805SOL     OW16876   3.837   2.356  14.984  0.5483 -0.3285  0.0948
 1805SOL    HW116877   3.928   2.340  14.961  0.8734 -1.2916  2.0010
 1805SOL    HW216878   3.803   2.377  14.897  0.8546  0.6107  0.2053
 1806SOL     OW16879   2.964   4.710   6.394 -0.0384 -0.1274  0.6406
 1806SOL    HW116880   2.936   4.637   6.448 -2.6701  0.0908 -0.4209
 1806SOL    HW216881   3.052   4.683   6.367  0.9621  2.0538  1.6950
 1807SOL     OW16882   4.168   4.132   6.404 -0.1270  0.2575 -0.2802
 1807SOL    HW116883   4.091   4.099   6.357 -0.3712 -1.2583  1.1705
 1807SOL    HW216884   4.236   4.092   6.350 -1.0155 -0.3960 -0.9119
 1808SOL     OW16885   2.162   1.129   2.467  0.0535 -0.0990  0.4782
 1808SOL    HW116886   2.069   1.133   2.446 -0.0700 -1.6920  0.7100
 1808SOL    HW216887   2.189   1.221   2.459 -1.7736  0.5906  2.1253
 1809SOL     OW16888   4.190   0.463   8.973  0.3433  0.4226  0.0835
 1809SOL    HW116889   4.266   0.413   8.942  0.5542  0.3505  0.7239
 1809SOL    HW216890   4.231   0.509   9.047 -1.2043  1.8144  0.0575
 1810SOL     OW16891   3.581   2.866   5.030 -0.6549 -0.1864 -1.0301
 1810SOL    HW116892   3.674   2.884   5.039 -1.1413  2.8159 -2.1720
 1810SOL    HW216893   3.546   2.896   5.114  2.3814  0.4289 -0.0055
 1811SOL     OW16894   0.985   1.052   9.866  0.0864 -0.6595  0.2866
 1811SOL    HW116895   0.930   0.998   9.809 -0.5206 -0.8596  1.0734
 1811SOL    HW216896   1.033   1.099   9.798 -0.2774  0.0937  0.5415
 1812SOL     OW16897   1.776   0.195   6.318  0.1572 -0.3291  0.1280
 1812SOL    HW116898   1.771   0.221   6.226 -0.9442  1.1619  0.6160
 1812SOL    HW216899   1.685   0.197   6.347  0.0753  1.8445 -0.3322
 1813SOL     OW16900   3.971   4.658   7.784  0.3040 -0.2772  0.1219
 1813SOL    HW116901   4.048   4.671   7.839  1.0209  0.4007 -1.0508
 1813SOL    HW216902   3.904   4.625   7.845 -0.3814  2.2728  0.7447
 1814SOL     OW16903   2.601   3.034   6.103  0.7104 -0.0166  0.2697
 1814SOL    HW116904   2.561   3.120   6.093 -0.6616 -0.7805 -0.7834
 1814SOL    HW216905   2.538   2.976   6.145 -0.5168  1.0533 -0.0773
 1815SOL     OW16906   4.245   3.468   8.994  0.7232 -0.6962  0.0516
 1815SOL    HW116907   4.170   3.468   9.053  0.7486 -2.2254  0.0788
 1815SOL    HW216908   4.267   3.375   9.000  3.5620  0.1060  2.2006
 1816SOL     OW16909   3.662   4.158   5.326  0.0875 -0.0258  0.5011
 1816SOL    HW116910   3.747   4.114   5.338 -0.7458 -2.3914 -2.1366
 1816SOL    HW216911   3.651   4.188   5.416  0.6772  2.4787 -0.2620
 1817SOL     OW16912   1.370   0.109   3.136 -0.0617  0.3199 -0.2961
 1817SOL    HW116913   1.454   0.154   3.145  0.6711 -1.2573  0.7347
 1817SOL    HW216914   1.323   0.185   3.102 -0.6760  0.3024  0.4989
 1818SOL     OW16915   1.281   3.967   9.307  0.0935 -0.3917 -0.1533
 1818SOL    HW116916   1.365   3.927   9.286  0.4264  0.5037 -0.5535
 1818SOL    HW216917   1.222   3.892   9.303 -2.6769  1.5441  4.4085
 1819SOL     OW16918   3.624   1.388  17.263 -0.1688  0.1031 -0.1804
 1819SOL    HW116919   3.713   1.375  17.296 -0.0848  0.9103 -0.0854
 1819SOL    HW216920   3.623   1.309  17.210  1.6497 -0.5412  0.7423
 1820SOL     OW16921   3.188   2.514   5.929  0.3721  0.7771 -0.2047
 1820SOL    HW116922   3.115   2.481   5.982 -0.1854 -0.5632 -1.7769
 1820SOL    HW216923   3.253   2.529   5.997  0.9161  2.7695 -1.1532
 1821SOL     OW16924   4.467   3.377   4.057 -0.5240 -0.3122  0.3768
 1821SOL    HW116925   4.489   3.387   4.150 -1.1909 -1.6246  0.6708
 1821SOL    HW216926   4.522   3.448   4.023 -1.1712 -0.1434 -0.3169
 1822SOL     OW16927   4.693   1.690   6.527  0.0654 -0.2306 -0.5991
 1822SOL    HW116928   4.691   1.632   6.604 -1.9333 -1.6553 -1.7009
 1822SOL    HW216929   0.060   1.678   6.500  0.7429  1.8037  0.7861
 1823SOL     OW16930   3.870   1.689   4.371 -0.3526 -0.1492 -0.5382
 1823SOL    HW116931   3.887   1.684   4.465  1.2255  1.1702 -0.7506
 1823SOL    HW216932   3.774   1.684   4.373 -0.3518  0.0329  0.1169
 1824SOL     OW16933   2.759   0.053   8.444  0.7691 -0.9223  0.4450
 1824SOL    HW116934   2.728   0.141   8.467 -0.3871 -1.2572  0.1331
 1824SOL    HW216935   2.812   0.073   8.366  0.2684  2.6497  1.0189
 1825SOL     OW16936   4.152   1.339  15.120  0.6165  0.2330  0.2386
 1825SOL    HW116937   4.207   1.417  15.125 -0.1339  0.6790  1.3886
 1825SOL    HW216938   4.096   1.359  15.195  1.9700  1.9639  0.7738
 1826SOL     OW16939   0.774   0.918   7.799 -0.2820  0.1960 -0.1437
 1826SOL    HW116940   0.700   0.978   7.803 -0.1597  0.2208  1.5638
 1826SOL    HW216941   0.780   0.889   7.890  1.0522  1.4269  0.1669
 1827SOL     OW16942   2.812   1.109   4.052 -0.8320 -0.3130  0.2220
 1827SOL    HW116943   2.852   1.024   4.072 -1.1606 -0.2308  1.2134
 1827SOL    HW216944   2.846   1.169   4.119  0.1261  0.0223 -0.5556
 1828SOL     OW16945   1.640   0.159   7.753 -0.0115 -0.9228 -0.4707
 1828SOL    HW116946   1.574   0.169   7.821  0.8014  1.2075  0.0083
 1828SOL    HW216947   1.626   0.227   7.687 -0.5901 -0.3000  0.2912
 1829SOL     OW16948   3.581   3.852   9.193  0.5117 -0.7112  0.4487
 1829SOL    HW116949   3.551   3.941   9.210 -0.2079 -1.1189  1.3188
 1829SOL    HW216950   3.675   3.856   9.212  0.9580 -0.1780 -1.8335
 1830SOL     OW16951   1.085   1.615   5.272  0.8244 -0.5802  0.0462
 1830SOL    HW116952   1.080   1.654   5.185 -1.0591 -2.3789 -0.6266
 1830SOL    HW216953   1.177   1.638   5.289  0.7958 -0.7062  0.3729
 1831SOL     OW16954   1.814   1.423  14.742  0.3150  0.1207  0.2402
 1831SOL    HW116955   1.742   1.362  14.730  1.3879 -0.8190 -1.3658
 1831SOL    HW216956   1.777   1.510  14.724  0.4095  0.0129 -0.4616
 1832SOL     OW16957   4.636   4.469  10.289  0.2982 -0.2089 -0.5795
 1832SOL    HW116958   4.709   4.520  10.324  0.5365 -2.0915  1.6958
 1832SOL    HW216959   4.664   4.378  10.299 -2.2205 -0.5605  3.5921
 1833SOL     OW16960   4.274   4.558   6.935 -0.2866  0.1270  0.4859
 1833SOL    HW116961   4.323   4.511   6.867 -1.1431 -0.9385  0.6024
 1833SOL    HW216962   4.288   4.651   6.914  0.7272 -0.0473  0.3754
 1834SOL     OW16963   2.670   2.293   2.608  0.2691  0.3770  0.1082
 1834SOL    HW116964   2.641   2.283   2.698 -1.5712 -3.8192 -0.9200
 1834SOL    HW216965   2.762   2.315   2.620  0.3454 -0.2393  0.6469
 1835SOL     OW16966   0.287   1.279   4.280  0.4587 -0.2117 -0.0120
 1835SOL    HW116967   0.265   1.260   4.188 -1.5950 -2.0962  0.8680
 1835SOL    HW216968   0.360   1.219   4.294  0.5037  0.0219  0.7437
 1836SOL     OW16969   3.682   4.010   0.090 -0.0581 -0.2193  0.1379
 1836SOL    HW116970   3.706   3.932   0.139 -1.9452 -0.1904  1.1340
 1836SOL    HW216971   3.610   4.044   0.144  0.3087  0.4121  0.2258
 1837SOL     OW16972   4.248   4.138   5.292 -0.4884  0.7473 -0.0222
 1837SOL    HW116973   4.248   4.090   5.374 -0.2233  0.2533 -0.3130
 1837SOL    HW216974   4.300   4.217   5.307  0.6795  0.2368 -1.3777
 1838SOL     OW16975   2.354   1.937   2.788  0.1293  0.0292  0.1220
 1838SOL    HW116976   2.386   2.011   2.840 -1.2412  0.3280  0.5320
 1838SOL    HW216977   2.314   1.972   2.708 -0.3532 -0.1762  0.2747
 1839SOL     OW16978   0.991   0.426   8.004  0.4903  0.4354 -0.1093
 1839SOL    HW116979   0.962   0.510   8.040  0.5508 -0.0090  0.9814
 1839SOL    HW216980   0.970   0.438   7.911 -1.8022 -0.7782  0.2484
 1840SOL     OW16981   3.826   4.719   2.024  0.1273 -0.5044  0.3166
 1840SOL    HW116982   3.876   4.655   2.075 -0.5030 -0.4373  1.0129
 1840SOL    HW216983   3.763   0.026   2.088  0.8928  1.7023  0.0203
 1841SOL     OW16984   4.385   2.855   3.237 -0.5177 -0.3947 -0.4706
 1841SOL    HW116985   4.427   2.918   3.179  0.0166  1.4027  1.8814
 1841SOL    HW216986   4.407   2.780   3.182  0.4114 -0.6738  0.2827
 1842SOL     OW16987   1.553   2.266   4.515 -0.1618 -0.4537  0.1926
 1842SOL    HW116988   1.499   2.253   4.593  1.2782  0.5796  1.3348
 1842SOL    HW216989   1.493   2.324   4.469  0.6826 -1.1725 -1.8393
 1843SOL     OW16990   0.481   1.872  13.330  0.3132  0.4521 -0.1832
 1843SOL    HW116991   0.540   1.796  13.324  2.7529  2.1887  1.9630
 1843SOL    HW216992   0.489   1.914  13.245 -0.3490 -1.9079 -1.4132
 1844SOL     OW16993   4.280   3.993   5.957  0.2027 -0.4448 -0.5693
 1844SOL    HW116994   4.275   4.081   5.994 -0.9231 -0.1395 -1.4448
 1844SOL    HW216995   4.316   4.012   5.871  1.6621  0.0717  0.1613
 1845SOL     OW16996   4.408   2.775   3.744  0.2498  0.0705  0.2048
 1845SOL    HW116997   4.358   2.757   3.665  0.2428 -0.0415  0.2344
 1845SOL    HW216998   4.378   2.865   3.756  1.2033  0.5301 -0.8225
 1846SOL     OW16999   3.148   1.348   6.655  0.2823  0.4226  0.5241
 1846SOL    HW117000   3.178   1.290   6.585  1.7271  0.8901  0.7675
 1846SOL    HW217001   3.234   1.362   6.694  0.9936  0.9545 -1.2605
 1847SOL     OW17002   4.336   0.472   7.331 -0.2135  0.4253 -0.6506
 1847SOL    HW117003   4.403   0.420   7.376  0.1238  1.3716 -0.0637
 1847SOL    HW217004   4.315   0.419   7.254  2.6267 -1.4871 -0.1079
 1848SOL     OW17005   2.866   3.328   0.829 -0.1567  0.2269 -0.9136
 1848SOL    HW117006   2.914   3.339   0.747 -0.7598 -2.0102 -1.5608
 1848SOL    HW217007   2.808   3.405   0.831 -2.0552 -1.2260 -0.4225
 1849SOL     OW17008   2.234   0.770   5.269  0.0401 -1.2575  0.0599
 1849SOL    HW117009   2.310   0.808   5.312 -1.2914  1.3164  0.1355
 1849SOL    HW217010   2.184   0.741   5.345 -0.9180 -0.8585 -0.4133
 1850SOL     OW17011   0.738   3.994   4.956  0.2719 -0.0382  0.2900
 1850SOL    HW117012   0.661   3.962   5.003 -1.4956  1.4520 -1.6004
 1850SOL    HW217013   0.813   4.007   5.015  0.2573  0.8472  0.1161
 1851SOL     OW17014   1.132   3.152  12.870  0.1376  0.6140 -0.3904
 1851SOL    HW117015   1.202   3.207  12.905 -0.0045 -0.1867  1.1534
 1851SOL    HW217016   1.160   3.062  12.891 -0.2797 -0.3233 -3.8221
 1852SOL     OW17017   2.109   0.437   0.380  0.5521 -0.0205 -0.1547
 1852SOL    HW117018   2.137   0.382   0.453 -0.9955  1.0098  1.2031
 1852SOL    HW217019   2.080   0.365   0.325  0.2667 -1.6559  2.1502
 1853SOL     OW17020   1.769   2.956   4.308 -0.0345 -0.2362 -0.5559
 1853SOL    HW117021   1.800   2.868   4.327 -0.5988 -0.3293 -0.0540
 1853SOL    HW217022   1.825   2.988   4.237  0.3910  1.5608  0.5895
 1854SOL     OW17023   2.865   1.759   4.057  0.1699 -0.1476  0.4522
 1854SOL    HW117024   2.792   1.752   3.996 -0.9809  1.8766  1.6182
 1854SOL    HW217025   2.936   1.760   3.993  0.1286  0.6500  0.4291
 1855SOL     OW17026   4.506   2.994   4.194 -0.8443 -0.4168 -0.3885
 1855SOL    HW117027   4.572   2.987   4.263 -1.8463 -0.6802  0.5344
 1855SOL    HW217028   4.534   2.924   4.135  3.0350  1.8838 -1.2991
 1856SOL     OW17029   0.223   1.897   6.719  0.1226  0.9629 -0.1223
 1856SOL    HW117030   0.129   1.893   6.734  0.2821 -0.9324  0.4781
 1856SOL    HW217031   0.225   1.920   6.627  0.1921  0.3004 -0.2888
 1857SOL     OW17032   0.673   2.965   6.814  0.4866 -0.2134 -0.1551
 1857SOL    HW117033   0.754   2.914   6.814  0.3600 -0.4092  0.6011
 1857SOL    HW217034   0.707   3.048   6.780  1.5714 -0.2265  0.8969
 1858SOL     OW17035   3.469   2.166  12.171  0.2351 -0.4698  0.4070
 1858SOL    HW117036   3.506   2.240  12.219  2.1866 -0.7365 -0.6870
 1858SOL    HW217037   3.501   2.092  12.222  0.7853  0.6843  1.7575
 1859SOL     OW17038   0.761   1.590   8.712  0.1296  0.6904 -0.2595
 1859SOL    HW117039   0.720   1.528   8.773  0.7097  0.1247 -0.4392
 1859SOL    HW217040   0.854   1.582   8.734 -0.4166 -2.2473  1.0106
 1860SOL     OW17041   4.386   2.772   6.621  0.1165  0.2088  0.5923
 1860SOL    HW117042   4.457   2.716   6.650 -1.0407 -1.5954 -0.0908
 1860SOL    HW217043   4.310   2.718   6.600  0.5941  0.5677 -2.1631
 1861SOL     OW17044   0.006   4.385   5.936  0.4483  0.1104 -0.2384
 1861SOL    HW117045   0.077   4.449   5.928  1.4432 -1.1814 -1.9686
 1861SOL    HW217046   0.037   4.335   5.860  1.0743  0.5229 -0.2598
 1862SOL     OW17047   3.845   3.432   5.150 -0.3232 -0.3845  0.0397
 1862SOL    HW117048   3.793   3.498   5.197 -0.5452  0.2024 -1.0380
 1862SOL    HW217049   3.771   3.378   5.120 -1.6062  1.5552 -0.2872
 1863SOL     OW17050   0.460   0.829  10.339  0.6196  0.3692 -0.1064
 1863SOL    HW117051   0.488   0.920  10.347  0.9860  0.4965 -2.7192
 1863SOL    HW217052   0.499   0.792  10.418 -0.3834  0.2714  0.3455
 1864SOL     OW17053   1.256   4.537   5.998 -0.4862 -0.4435 -0.2345
 1864SOL    HW117054   1.350   4.539   5.979 -0.7187  0.2101 -1.2719
 1864SOL    HW217055   1.234   4.534   5.905 -2.8497  0.4920  0.3013
 1865SOL     OW17056   2.209   1.444  15.687 -0.4082 -0.2019 -0.7805
 1865SOL    HW117057   2.171   1.436  15.599 -0.9318  4.6827 -0.9592
 1865SOL    HW217058   2.140   1.485  15.738 -0.0149  1.2205 -1.3898
 1866SOL     OW17059   2.009   3.935  10.910 -0.0208 -0.0672 -0.3455
 1866SOL    HW117060   2.101   3.955  10.893 -0.9656  3.2301 -1.6021
 1866SOL    HW217061   2.012   3.841  10.930  0.7084  0.1391  0.4933
 1867SOL     OW17062   3.382   0.846   3.389  0.4229 -0.4325 -0.5935
 1867SOL    HW117063   3.314   0.786   3.419 -0.1807  1.2103  1.3659
 1867SOL    HW217064   3.451   0.842   3.455 -0.1787  1.0476  0.1384
 1868SOL     OW17065   2.294   2.875   5.187  0.1141 -0.3641  0.2932
 1868SOL    HW117066   2.246   2.917   5.258  1.3835  0.7964  0.4543
 1868SOL    HW217067   2.312   2.784   5.211  4.7825  0.7450  0.8804
 1869SOL     OW17068   1.102   4.120  10.222 -0.2530  0.1162 -0.3767
 1869SOL    HW117069   1.130   4.106  10.312  1.0937  0.4103 -0.7607
 1869SOL    HW217070   1.019   4.168  10.230 -0.9249 -1.6650  3.4931
 1870SOL     OW17071   0.858   1.378  16.702  1.0465  0.3802 -0.2142
 1870SOL    HW117072   0.908   1.364  16.782 -1.6697 -1.5717  1.1371
 1870SOL    HW217073   0.782   1.413  16.750  0.4257  0.9404 -1.5948
 1871SOL     OW17074   2.169   0.782   8.369  0.3775 -0.0133 -0.5809
 1871SOL    HW117075   2.181   0.781   8.274 -0.4377  1.7955 -0.6954
 1871SOL    HW217076   2.216   0.861   8.396 -1.1630  1.0270 -0.9259
 1872SOL     OW17077   0.775   0.116   5.541  0.0614 -0.8600 -0.0465
 1872SOL    HW117078   0.787   0.185   5.476 -2.4580  1.3193  1.8178
 1872SOL    HW217079   0.680   0.104   5.544 -0.1445  0.9104  0.5136
 1873SOL     OW17080   0.534   3.945   7.207  0.3603 -0.4253 -0.1195
 1873SOL    HW117081   0.624   3.933   7.179 -0.2586 -0.8628 -1.9054
 1873SOL    HW217082   0.508   4.011   7.143 -0.8922  2.3899  3.2780
 1874SOL     OW17083   2.657   4.510   4.539  0.1505  1.0757  0.4683
 1874SOL    HW117084   2.739   4.529   4.494  0.1549 -3.0531 -1.3052
 1874SOL    HW217085   2.708   4.485   4.616 -0.1162  2.6007  1.1440
 1875SOL     OW17086   3.003   1.520   8.365 -0.1646  0.6547 -0.6750
 1875SOL    HW117087   2.932   1.580   8.385 -1.1074 -0.6939  0.0555
 1875SOL    HW217088   3.077   1.581   8.369 -0.9327  1.7217 -2.6900
 1876SOL     OW17089   0.337   1.123   3.112 -0.2971 -0.4696 -0.1881
 1876SOL    HW117090   0.343   1.213   3.081  0.3300 -0.9286 -1.3820
 1876SOL    HW217091   0.247   1.099   3.092 -0.9992  1.8214  0.2040
 1877SOL     OW17092   3.965   3.554   2.721  0.3479 -0.3310 -0.3143
 1877SOL    HW117093   3.893   3.596   2.675 -0.1629 -1.2863 -0.3915
 1877SOL    HW217094   3.914   3.479   2.752  0.3213 -0.2530 -0.1688
 1878SOL     OW17095   1.245   1.009   4.178  0.7473  0.0595  0.9014
 1878SOL    HW117096   1.171   0.989   4.235 -1.4375  2.8313 -0.9998
 1878SOL    HW217097   1.312   0.948   4.209  0.1750  0.2461  2.4768
 1879SOL     OW17098   0.902   4.524  10.222  0.0935 -0.2406 -0.1437
 1879SOL    HW117099   0.975   4.584  10.207  0.7462 -1.2469 -0.9359
 1879SOL    HW217100   0.896   4.527  10.318 -1.7310  2.4099 -0.3467
 1880SOL     OW17101   4.512   3.451   4.297  0.1258 -0.9685 -0.2425
 1880SOL    HW117102   4.428   3.494   4.314  1.3740  1.9360 -1.3687
 1880SOL    HW217103   4.516   3.407   4.381 -4.1189 -0.0683  0.4352
 1881SOL     OW17104   0.887   1.698  13.992  0.4522  0.2939 -0.4089
 1881SOL    HW117105   0.905   1.711  13.899 -4.7861  0.3249 -1.4268
 1881SOL    HW217106   0.951   1.637  14.028  1.0989  2.4214  2.0513
 1882SOL     OW17107   2.523   4.474   3.513 -0.4323 -0.2264 -0.5074
 1882SOL    HW117108   2.611   4.463   3.478  0.2449  1.1251  0.7882
 1882SOL    HW217109   2.515   4.386   3.550  2.9594  0.2110  1.2822
 1883SOL     OW17110   4.098   4.449  14.425 -0.1876 -0.0767 -0.2572
 1883SOL    HW117111   4.030   4.506  14.463  0.6990 -0.1898  1.5109
 1883SOL    HW217112   4.071   4.360  14.445  0.1314  0.2481  1.6339
 1884SOL     OW17113   2.619   0.218   7.605  0.7199  0.2536  0.3521
 1884SOL    HW117114   2.702   0.240   7.648  1.8523 -0.5301 -1.3832
 1884SOL    HW217115   2.627   0.259   7.518 -2.3574 -0.1172 -0.1071
 1885SOL     OW17116   3.363   4.653   8.852 -0.1249  0.0543  0.4753
 1885SOL    HW117117   3.428   4.722   8.867 -1.4779  1.5472 -0.5988
 1885SOL    HW217118   3.278   4.696   8.854 -0.3397 -0.3698  0.5108
 1886SOL     OW17119   1.305   1.276   4.221  0.5797  0.0033 -0.2266
 1886SOL    HW117120   1.299   1.181   4.205  0.3760  0.2445 -1.6268
 1886SOL    HW217121   1.215   1.303   4.204  0.1945 -0.3535  1.2130
 1887SOL     OW17122   3.445   1.425   1.971  0.6165  0.4782  0.2654
 1887SOL    HW117123   3.455   1.331   1.955 -0.5846 -0.0664  2.6766
 1887SOL    HW217124   3.366   1.441   1.919  0.0096 -2.1226  0.3685
 1888SOL     OW17125   1.924   0.348   6.922  0.1159  0.0057 -0.1133
 1888SOL    HW117126   1.867   0.334   6.997  0.2620  2.7321  0.5033
 1888SOL    HW217127   1.995   0.284   6.921 -0.7531 -0.9555  0.4226
 1889SOL     OW17128   4.205   4.715   7.961  0.4113  0.1749  0.4104
 1889SOL    HW117129   4.146   4.714   8.036 -0.3988 -0.2553 -0.2374
 1889SOL    HW217130   4.264   4.646   7.991 -1.0128 -1.1960 -0.0053
 1890SOL     OW17131   0.805   2.354   5.652 -0.4104 -0.9016 -0.5344
 1890SOL    HW117132   0.900   2.352   5.653 -0.3719 -0.2326 -2.0511
 1890SOL    HW217133   0.789   2.383   5.742 -2.1720 -2.3778 -0.3725
 1891SOL     OW17134   3.734   2.874   1.532  0.3844 -0.2080  0.3827
 1891SOL    HW117135   3.819   2.839   1.560 -0.0508 -2.3727 -0.9951
 1891SOL    HW217136   3.740   2.969   1.541 -0.9805 -0.0452 -0.3976
 1892SOL     OW17137   3.901   0.496   1.876 -0.0551  0.4595 -0.3890
 1892SOL    HW117138   3.842   0.455   1.940  0.4651 -0.7130 -0.6641
 1892SOL    HW217139   3.983   0.507   1.924 -0.0821 -1.8137  0.1585
 1893SOL     OW17140   3.771   0.260   6.994  0.2074 -0.1788 -0.2378
 1893SOL    HW117141   3.791   0.216   7.076  0.5402  0.6521  0.1337
 1893SOL    HW217142   3.684   0.222   6.983  0.0777  0.8468 -2.7595
 1894SOL     OW17143   3.658   0.267   7.781 -0.2339 -0.0130 -0.0939
 1894SOL    HW117144   3.720   0.223   7.839  0.3820 -1.5441 -1.9033
 1894SOL    HW217145   3.659   0.354   7.820  0.3152  0.8884 -2.1275
 1895SOL     OW17146   2.677   0.119  14.179  0.2304 -0.2031 -0.7215
 1895SOL    HW117147   2.632   0.177  14.242  1.1279  1.4974 -1.6647
 1895SOL    HW217148   2.604   0.068  14.143 -0.8252  1.7066 -1.2817
 1896SOL     OW17149   1.699   1.971   6.452  0.1286  0.2421 -1.0074
 1896SOL    HW117150   1.726   1.910   6.521 -0.7700 -0.7677 -1.5488
 1896SOL    HW217151   1.769   2.036   6.445 -0.2660  0.9036  1.3935
 1897SOL     OW17152   4.354   2.700  17.053  0.0198 -0.0811  0.8537
 1897SOL    HW117153   4.291   2.652  16.999  1.6711 -0.2527 -0.8961
 1897SOL    HW217154   4.417   2.632  17.078 -0.6281 -1.0741 -0.2310
 1898SOL     OW17155   3.781   1.335   7.883 -0.5348  0.0174  0.3337
 1898SOL    HW117156   3.748   1.326   7.972 -1.2910 -0.8805 -0.0397
 1898SOL    HW217157   3.699   1.358   7.839 -0.8071  1.0644  1.3787
 1899SOL     OW17158   0.734   1.225  17.005  0.3370  0.0395 -0.1824
 1899SOL    HW117159   0.679   1.167  17.058  1.0391 -0.7897 -0.3555
 1899SOL    HW217160   0.802   1.167  16.971  0.0110  1.0533 -2.5871
 1900SOL     OW17161   3.639   2.440   5.515  0.6713 -0.2202  1.0130
 1900SOL    HW117162   3.591   2.409   5.591  0.6599 -0.4383  0.9167
 1900SOL    HW217163   3.568   2.458   5.453  2.5526 -0.7221 -1.3046
 1901SOL     OW17164   1.372   2.982   5.128  0.0033 -0.0272 -0.1666
 1901SOL    HW117165   1.346   3.063   5.171  0.6421 -1.7243  3.4580
 1901SOL    HW217166   1.361   2.998   5.034  0.5170 -0.9836 -0.3919
 1902SOL     OW17167   2.661   0.659   2.609 -0.2762 -0.1435  0.5289
 1902SOL    HW117168   2.617   0.633   2.528 -1.2377  0.1416  0.9637
 1902SOL    HW217169   2.746   0.620   2.590  0.5045  2.4782 -1.4236
 1903SOL     OW17170   2.325   0.158   6.371  0.3526  0.3690  0.1618
 1903SOL    HW117171   2.304   0.218   6.443  0.2415 -1.4739  1.6686
 1903SOL    HW217172   2.353   0.082   6.423 -1.4465  0.9411  1.9523
 1904SOL     OW17173   2.694   2.193   8.595 -0.6547  0.3463  0.0405
 1904SOL    HW117174   2.746   2.254   8.648  1.5156 -1.6449  0.2136
 1904SOL    HW217175   2.713   2.220   8.505 -0.6088 -0.2257 -0.1211
 1905SOL     OW17176   4.224   1.593   6.463  0.3805  0.2197  0.1514
 1905SOL    HW117177   4.221   1.643   6.545 -0.3548  1.4146 -0.6189
 1905SOL    HW217178   4.209   1.504   6.494  1.1704  0.5214  1.4281
 1906SOL     OW17179   4.634   3.938   9.762 -0.2280 -0.7954  0.4460
 1906SOL    HW117180   4.563   3.999   9.784  2.1894  2.8276 -1.8715
 1906SOL    HW217181   4.578   3.863   9.742  0.2495 -1.0918  0.2496
 1907SOL     OW17182   1.463   1.578   9.233 -0.6417  0.2700  0.4873
 1907SOL    HW117183   1.511   1.661   9.233  0.0601 -0.1372  0.2028
 1907SOL    HW217184   1.506   1.538   9.158 -0.3812  0.2578  0.6434
 1908SOL     OW17185   4.616   3.878   9.331 -0.1182 -0.1726  0.1320
 1908SOL    HW117186   4.632   3.941   9.402  0.3122  1.5134 -1.4734
 1908SOL    HW217187   4.704   3.843   9.321 -0.5955 -0.4745 -2.8134
 1909SOL     OW17188   2.557   4.134   6.947 -0.0891 -0.3358  0.0486
 1909SOL    HW117189   2.605   4.067   6.996  1.4786  0.9664  0.3048
 1909SOL    HW217190   2.557   4.201   7.016 -0.8446 -0.9245  0.6226
 1910SOL     OW17191   1.278   0.040   9.180 -0.1822  0.6681 -0.6410
 1910SOL    HW117192   1.357   0.029   9.232 -0.3453  0.2236 -0.4840
 1910SOL    HW217193   1.208   0.011   9.239  0.7799 -0.7654 -0.1959
 1911SOL     OW17194   0.969   3.289   2.489 -0.2624 -0.1393 -0.0916
 1911SOL    HW117195   0.892   3.329   2.528 -1.1080 -0.0961 -1.8004
 1911SOL    HW217196   1.033   3.345   2.534  0.0896 -1.3359  0.8809
 1912SOL     OW17197   2.770   2.303  14.931  0.1417  0.0369  0.5878
 1912SOL    HW117198   2.707   2.230  14.925 -0.3880  0.6371 -1.4301
 1912SOL    HW217199   2.760   2.327  15.023  1.0617  0.8840  0.4519
 1913SOL     OW17200   1.687   2.802   3.470  0.2507  0.2633 -0.8023
 1913SOL    HW117201   1.756   2.767   3.413  2.6196  0.2474  2.0561
 1913SOL    HW217202   1.609   2.804   3.415  0.0558  1.8497 -0.4584
 1914SOL     OW17203   1.382   3.066   4.807 -0.3905  0.7118  0.1589
 1914SOL    HW117204   1.391   3.016   4.727 -1.4698  2.9160 -1.3401
 1914SOL    HW217205   1.442   3.139   4.790  0.6720 -0.2319 -0.1316
 1915SOL     OW17206   3.104   0.454   3.628 -0.2777 -0.0952  0.2176
 1915SOL    HW117207   3.127   0.456   3.721 -0.9831  0.3097  0.3844
 1915SOL    HW217208   3.010   0.467   3.636 -0.4189 -1.9594  1.6062
 1916SOL     OW17209   2.245   3.246   5.422 -0.2279 -0.1551  0.1788
 1916SOL    HW117210   2.227   3.291   5.340 -0.1510 -1.3090 -0.4613
 1916SOL    HW217211   2.322   3.299   5.445 -2.1689  1.7629  2.3675
 1917SOL     OW17212   2.327   2.355   3.915 -0.7637 -0.5670 -0.7759
 1917SOL    HW117213   2.410   2.320   3.881  0.9629  0.8234  2.1130
 1917SOL    HW217214   2.282   2.378   3.833  0.2202  0.8559 -0.8967
 1918SOL     OW17215   4.651   3.362   0.889 -0.0414 -0.2698  0.0153
 1918SOL    HW117216   4.585   3.417   0.930 -1.5365  0.0444 -2.8468
 1918SOL    HW217217   4.702   3.344   0.969  0.2437 -0.5364 -0.2240
 1919SOL     OW17218   2.065   2.187   7.638 -0.2640 -0.0707 -0.2078
 1919SOL    HW117219   2.103   2.183   7.726  1.0270  0.8340 -0.7276
 1919SOL    HW217220   2.134   2.239   7.597 -1.9077  0.9678 -1.6607
 1920SOL     OW17221   2.727   3.265   8.991 -0.3866 -0.2407  0.0240
 1920SOL    HW117222   2.760   3.348   9.026  0.7707  0.1162 -1.9376
 1920SOL    HW217223   2.798   3.206   9.017  0.9562  1.7300  0.8026
 1921SOL     OW17224   4.309   4.715   0.980 -0.6222 -0.2955 -0.0860
 1921SOL    HW117225   4.221   4.714   1.017 -0.5525  1.5019  0.1032
 1921SOL    HW217226   4.327   4.621   0.973 -0.4713 -0.3636  1.3537
 1922SOL     OW17227   1.595   0.621   4.957  0.3178  0.4228 -0.0478
 1922SOL    HW117228   1.616   0.711   4.932 -0.6607  0.4166 -0.9057
 1922SOL    HW217229   1.680   0.585   4.930  0.5049 -0.6895  2.0555
 1923SOL     OW17230   0.139   3.139   9.625  0.8195  0.1935  0.4100
 1923SOL    HW117231   0.155   3.229   9.655 -0.0738  0.5556 -0.2038
 1923SOL    HW217232   0.089   3.107   9.701  0.2627  0.1344  0.0176
 1924SOL     OW17233   1.493   3.221   8.166 -0.0743  0.3892  0.2152
 1924SOL    HW117234   1.409   3.267   8.159 -0.0402  0.6703  1.7155
 1924SOL    HW217235   1.521   3.225   8.074 -1.1918 -1.9015 -0.2293
 1925SOL     OW17236   4.646   4.350  12.319 -0.4958 -0.0291 -0.1501
 1925SOL    HW117237   4.621   4.267  12.279  0.9436 -0.6641  0.2508
 1925SOL    HW217238   4.563   4.391  12.341  0.6226  1.6975  0.8228
 1926SOL     OW17239   0.547   1.589   3.778 -0.0399 -0.3204 -0.1299
 1926SOL    HW117240   0.632   1.577   3.734  0.7230 -1.8506  1.7721
 1926SOL    HW217241   0.534   1.684   3.783  2.1187  0.0305 -0.8137
 1927SOL     OW17242   0.995   1.468   3.801 -0.0356 -0.5608  0.6210
 1927SOL    HW117243   0.957   1.484   3.887 -1.1581 -1.2832  0.2545
 1927SOL    HW217244   1.039   1.384   3.814  1.7704  0.2750 -0.0185
 1928SOL     OW17245   4.242   0.852   8.365 -0.4125  0.1845 -0.3253
 1928SOL    HW117246   4.270   0.774   8.318 -0.2882  1.2772 -2.0978
 1928SOL    HW217247   4.178   0.813   8.424 -0.2859 -0.2049 -0.4485
 1929SOL     OW17248   2.147   0.207  10.517 -0.0054  0.1871 -0.5219
 1929SOL    HW117249   2.110   0.125  10.486  0.1077 -0.3246  0.6982
 1929SOL    HW217250   2.229   0.176  10.557 -0.4009  0.1795  0.2815
 1930SOL     OW17251   1.667   3.910  13.687  0.1118  0.0464  0.1914
 1930SOL    HW117252   1.584   3.875  13.719  0.0790  0.2420  0.3219
 1930SOL    HW217253   1.650   3.943  13.599  1.7872  0.8766  0.1791
 1931SOL     OW17254   1.630   0.970  10.049  0.2228 -0.7862  0.3543
 1931SOL    HW117255   1.616   1.026   9.973 -0.3895  3.2111  3.4158
 1931SOL    HW217256   1.690   1.023  10.103  0.2255  1.4656 -1.8216
 1932SOL     OW17257   0.908   2.930   9.315 -0.0386  0.1514 -0.4316
 1932SOL    HW117258   0.975   2.862   9.309 -0.8981 -0.7425  0.0284
 1932SOL    HW217259   0.841   2.876   9.357 -0.5856 -2.4215 -4.5853
 1933SOL     OW17260   3.209   3.973   5.592 -0.0394 -0.0831  0.4206
 1933SOL    HW117261   3.189   3.946   5.682  0.6864  0.7130  0.8261
 1933SOL    HW217262   3.303   3.992   5.596 -0.0405  0.3539 -1.7915
 1934SOL     OW17263   1.433   0.232   1.192 -0.2198 -0.2011  0.2356
 1934SOL    HW117264   1.364   0.166   1.189 -2.8173  2.4923  1.0318
 1934SOL    HW217265   1.510   0.182   1.217  0.5197  0.0786 -1.4891
 1935SOL     OW17266   2.168   4.107   2.666  0.7817 -0.6034  0.1330
 1935SOL    HW117267   2.244   4.078   2.716 -1.0717 -2.6207  1.7703
 1935SOL    HW217268   2.173   4.201   2.684 -2.2142 -0.1791 -1.3344
 1936SOL     OW17269   2.615   2.630   6.623  0.1331  0.5841  0.0968
 1936SOL    HW117270   2.586   2.550   6.666 -3.4383  0.2351 -3.0274
 1936SOL    HW217271   2.696   2.644   6.674  0.6725  5.0255 -1.9830
 1937SOL     OW17272   1.099   0.504   7.478  0.1425 -0.5906 -0.0382
 1937SOL    HW117273   1.151   0.574   7.517 -2.3990  0.5255  1.3171
 1937SOL    HW217274   1.155   0.428   7.460  0.2316 -0.2754 -1.1022
 1938SOL     OW17275   0.727   1.236   5.141 -0.3495  0.1684 -0.2797
 1938SOL    HW117276   0.683   1.284   5.071  2.1460  2.4603 -0.2605
 1938SOL    HW217277   0.708   1.282   5.223 -3.5464  0.4601 -1.1635
 1939SOL     OW17278   1.927   0.650   0.408 -0.0688  0.2867 -0.0967
 1939SOL    HW117279   1.943   0.663   0.315  1.7518  0.3835  0.2374
 1939SOL    HW217280   1.985   0.574   0.417  0.1008  0.4151 -0.1074
 1940SOL     OW17281   0.604   3.331   2.131  0.2926 -0.2341  0.6086
 1940SOL    HW117282   0.618   3.402   2.069 -0.0569 -0.8856 -0.2112
 1940SOL    HW217283   0.630   3.265   2.068  1.2028  0.0699  0.6587
 1941SOL     OW17284   2.947   3.964  11.224 -0.2438  0.3062  0.1092
 1941SOL    HW117285   2.999   3.997  11.297  0.3073  0.2581 -0.2619
 1941SOL    HW217286   2.907   4.040  11.182 -1.1512  0.6791  1.6423
 1942SOL     OW17287   2.332   1.639   6.075 -0.1990  0.2709  0.2109
 1942SOL    HW117288   2.257   1.690   6.046  1.0853  1.3800 -1.1970
 1942SOL    HW217289   2.392   1.640   6.001 -2.0920 -1.3307 -1.3344
 1943SOL     OW17290   1.576   0.075   8.171  0.3586  0.6442 -0.0736
 1943SOL    HW117291   1.532   0.029   8.242  1.1959  0.3897  0.2861
 1943SOL    HW217292   1.546   0.165   8.184  3.2874  1.5424  0.5452
 1944SOL     OW17293   3.358   0.486   5.785 -0.1086 -0.0548  0.4132
 1944SOL    HW117294   3.405   0.553   5.735 -0.2181 -1.1451 -1.1219
 1944SOL    HW217295   3.355   0.533   5.869  1.0686  0.1296  0.3541
 1945SOL     OW17296   4.622   0.727   5.985 -0.0383 -0.1696 -0.4722
 1945SOL    HW117297   4.685   0.695   5.920  1.1162  0.0058  0.5656
 1945SOL    HW217298   4.680   0.755   6.056 -0.1337 -0.4726 -0.2770
 1946SOL     OW17299   4.526   2.987   3.465  0.3337  0.4372  0.1649
 1946SOL    HW117300   4.506   3.078   3.489 -1.4854  0.1614 -0.2764
 1946SOL    HW217301   4.470   2.967   3.390  3.0983 -0.0283 -1.7731
 1947SOL     OW17302   2.617   3.022  10.773 -0.2767 -0.1279  0.0059
 1947SOL    HW117303   2.556   3.010  10.846  0.7780 -0.0878  0.8923
 1947SOL    HW217304   2.640   2.933  10.748 -1.4199 -0.7556  1.2587
 1948SOL     OW17305   4.714   1.541   6.752 -1.1096  0.1746  0.0643
 1948SOL    HW117306   0.061   1.500   6.802 -0.0475  0.9461 -0.8065
 1948SOL    HW217307   4.641   1.481   6.770 -0.3402 -0.6620  0.4244
 1949SOL     OW17308   2.790   0.405   5.803 -0.2530  0.7815  0.2790
 1949SOL    HW117309   2.694   0.406   5.812 -0.4574  0.8135 -1.8663
 1949SOL    HW217310   2.795   0.498   5.826  0.1711  0.5128  1.2768
 1950SOL     OW17311   3.177   3.869   4.715  0.0517 -0.0722  0.1743
 1950SOL    HW117312   3.251   3.854   4.773 -0.5307 -0.9580  0.6809
 1950SOL    HW217313   3.101   3.850   4.770 -1.1059  0.1092 -1.3533
 1951SOL     OW17314   1.086   1.057   3.508 -0.8336  0.8816  0.0537
 1951SOL    HW117315   1.080   1.025   3.418  2.5417 -0.5799  0.3347
 1951SOL    HW217316   1.138   1.137   3.518 -0.1441  0.4864 -0.3958
 1952SOL     OW17317   3.281   3.213   5.476 -0.4853  0.0566  0.6081
 1952SOL    HW117318   3.197   3.226   5.432 -0.9187  1.3504  1.8045
 1952SOL    HW217319   3.274   3.117   5.475  0.2580 -0.0333  2.8043
 1953SOL     OW17320   0.558   0.233   0.433  0.1190  0.8028  0.2349
 1953SOL    HW117321   0.504   0.274   0.501  0.4631  1.9473 -0.1740
 1953SOL    HW217322   0.493   0.180   0.388  0.2941 -0.1183  1.0755
 1954SOL     OW17323   1.108   2.271   5.798 -0.5838  0.4974  0.1389
 1954SOL    HW117324   1.051   2.254   5.873 -0.4209  0.8819  0.3490
 1954SOL    HW217325   1.122   2.180   5.773  0.4176  1.1671 -1.7193
 1955SOL     OW17326   0.282   1.276   6.865  0.1537  0.3378  0.0647
 1955SOL    HW117327   0.365   1.291   6.820 -0.9156 -0.2393 -2.1002
 1955SOL    HW217328   0.304   1.310   6.952 -2.3292 -0.9611  1.1871
 1956SOL     OW17329   2.448   0.008   4.065  0.5939  0.3411 -0.2376
 1956SOL    HW117330   2.509   0.036   4.134 -0.2429 -0.0970  0.6781
 1956SOL    HW217331   2.378   4.682   4.107  0.0907  0.4234 -0.9707
 1957SOL     OW17332   1.397   2.302   4.755 -0.5072  0.2091  0.1251
 1957SOL    HW117333   1.422   2.220   4.797 -0.5478  0.4851  0.7014
 1957SOL    HW217334   1.469   2.362   4.778 -0.3238 -0.4395  1.2413
 1958SOL     OW17335   2.988   3.144  12.436  0.9376  0.1021  0.1043
 1958SOL    HW117336   2.971   3.107  12.523 -1.0231 -1.6515 -1.0454
 1958SOL    HW217337   3.063   3.093  12.406  0.9460  0.1003  0.1280
 1959SOL     OW17338   4.407   0.110  16.460 -0.3184  0.0952  0.3262
 1959SOL    HW117339   4.365   0.099  16.374  1.4424  1.4466 -0.7114
 1959SOL    HW217340   4.448   0.197  16.452  0.2503 -0.2201 -0.1958
 1960SOL     OW17341   4.589   4.577  15.720 -0.3049  0.0357  0.2160
 1960SOL    HW117342   4.504   4.568  15.764 -1.4019  0.4550 -1.8271
 1960SOL    HW217343   4.592   4.670  15.700  0.4616 -0.3298 -1.3692
 1961SOL     OW17344   2.766   4.163   0.641 -0.0524  0.0320  0.1984
 1961SOL    HW117345   2.846   4.149   0.692 -1.3799 -1.1684  1.9361
 1961SOL    HW217346   2.778   4.099   0.571  0.1200  1.4714 -1.0839
 1962SOL     OW17347   1.613   2.569   7.539  0.2892 -0.2636 -0.2807
 1962SOL    HW117348   1.660   2.520   7.472  2.5758 -0.4467  1.4388
 1962SOL    HW217349   1.558   2.501   7.578 -0.6003  0.7921  0.2895
 1963SOL     OW17350   1.555   4.110   7.266 -0.0810 -0.2780 -0.4304
 1963SOL    HW117351   1.520   4.118   7.177  1.4177 -0.9895 -1.0713
 1963SOL    HW217352   1.533   4.190   7.314  0.5569  0.4498 -1.3557
 1964SOL     OW17353   0.183   1.914  12.933 -0.6125 -0.1233  0.3956
 1964SOL    HW117354   0.117   1.962  12.882 -1.3807 -1.8433 -0.2399
 1964SOL    HW217355   0.238   1.879  12.863 -2.0394  3.4558 -2.4941
 1965SOL     OW17356   1.231   0.451  12.440 -0.5534  0.0679 -0.1050
 1965SOL    HW117357   1.282   0.421  12.365 -3.0076  0.1129 -1.8194
 1965SOL    HW217358   1.294   0.519  12.464  1.3917 -1.0572 -2.0324
 1966SOL     OW17359   1.540   0.664   5.832  0.5831  0.1282 -0.5607
 1966SOL    HW117360   1.629   0.673   5.867 -1.0987  1.8825  3.2348
 1966SOL    HW217361   1.542   0.692   5.740 -0.3461  0.2107 -0.5503
 1967SOL     OW17362   4.509   1.335   3.061 -0.5251 -0.4577 -0.5363
 1967SOL    HW117363   4.432   1.282   3.041 -1.0899  0.7697 -1.6102
 1967SOL    HW217364   4.576   1.322   2.994  0.1538 -1.0519  0.2387
 1968SOL     OW17365   2.153   0.073   3.607  0.3308  0.0710  0.7667
 1968SOL    HW117366   2.157   0.118   3.523  2.2141 -2.2361 -0.3859
 1968SOL    HW217367   2.203   4.716   3.594 -0.2607 -0.7843  3.7127
 1969SOL     OW17368   4.291   0.586   9.524 -0.1057 -0.2557 -0.1828
 1969SOL    HW117369   4.248   0.600   9.609 -0.5527  0.4232 -0.5169
 1969SOL    HW217370   4.223   0.539   9.475  0.2708  1.2243 -2.1348
 1970SOL     OW17371   3.689   3.030  15.906  0.5147 -0.3401  0.3875
 1970SOL    HW117372   3.723   3.118  15.889 -3.4768  0.8808 -1.3651
 1970SOL    HW217373   3.714   3.028  15.998  0.6614  1.8891  0.4174
 1971SOL     OW17374   1.984   0.900   4.418 -0.1282 -0.4230  0.5862
 1971SOL    HW117375   2.041   0.830   4.385 -0.5492 -0.3687 -0.2509
 1971SOL    HW217376   2.046   0.971   4.402  2.0661 -2.5223 -0.4038
 1972SOL     OW17377   0.456   3.201   3.454  0.3467 -0.6106 -0.0420
 1972SOL    HW117378   0.448   3.152   3.536  1.5591  0.4982  0.7460
 1972SOL    HW217379   0.539   3.158   3.434  1.2150  2.6678 -3.4532
 1973SOL     OW17380   3.745   4.547   0.395  0.0321  0.1693  0.5790
 1973SOL    HW117381   3.682   4.558   0.467 -1.5499  0.3898 -0.8561
 1973SOL    HW217382   3.787   4.633   0.387 -1.5262  0.8306 -0.4756
 1974SOL     OW17383   2.307   3.960   4.867 -0.1570  0.0223 -0.3840
 1974SOL    HW117384   2.264   3.978   4.951 -1.4696 -0.9980 -0.8476
 1974SOL    HW217385   2.236   3.911   4.826  0.3597 -0.7278 -0.4042
 1975SOL     OW17386   3.761   0.302   4.860 -0.2159 -0.5968 -0.1378
 1975SOL    HW117387   3.784   0.235   4.795  2.1585 -0.9218  1.0307
 1975SOL    HW217388   3.782   0.383   4.814  0.0961 -0.0051  1.0742
 1976SOL     OW17389   2.529   3.589   7.205  0.0264  1.0414 -0.2784
 1976SOL    HW117390   2.593   3.518   7.210 -2.4810 -1.1818 -0.0310
 1976SOL    HW217391   2.469   3.575   7.278  2.0786 -1.4341  0.9218
 1977SOL     OW17392   3.256   2.655   4.864  0.3889  0.4103  0.4801
 1977SOL    HW117393   3.208   2.576   4.841  1.8759 -0.2739 -0.2830
 1977SOL    HW217394   3.336   2.617   4.900 -0.8562  0.3815  3.2068
 1978SOL     OW17395   4.245   2.139  10.130 -0.4326 -0.1441  0.2636
 1978SOL    HW117396   4.167   2.153  10.184 -0.3114  0.8085  0.1843
 1978SOL    HW217397   4.310   2.134  10.201 -0.1268 -0.7644 -0.0608
 1979SOL     OW17398   0.277   0.353  11.910  0.5278  0.1978 -0.0328
 1979SOL    HW117399   0.204   0.291  11.915  2.2372 -1.7710  0.4605
 1979SOL    HW217400   0.352   0.298  11.933  0.9453  0.9778  0.4461
 1980SOL     OW17401   2.579   4.514  11.546 -0.1098  0.4672  0.4776
 1980SOL    HW117402   2.522   4.442  11.571 -0.3774  0.6318  0.3516
 1980SOL    HW217403   2.541   4.579  11.605 -0.5838  0.8363 -0.2251
 1981SOL     OW17404   1.208   2.479   7.922 -0.6294 -0.0324 -0.2426
 1981SOL    HW117405   1.215   2.532   8.001  0.6266  0.7923 -0.9125
 1981SOL    HW217406   1.117   2.452   7.917 -0.4355 -0.7459  0.1211
 1982SOL     OW17407   0.193   1.522   3.300 -0.0634 -0.7310  0.1602
 1982SOL    HW117408   0.234   1.587   3.243 -2.1902  1.3987  1.0977
 1982SOL    HW217409   0.120   1.488   3.248  0.8118 -1.5006 -0.5836
 1983SOL     OW17410   0.446   2.037  12.538 -0.2802  0.1814 -0.1825
 1983SOL    HW117411   0.492   1.992  12.609 -1.6758 -1.2398 -0.1670
 1983SOL    HW217412   0.501   2.016  12.463  2.8965 -1.2036  2.5449
 1984SOL     OW17413   0.279   1.366  15.964  0.4564  0.2959 -0.3760
 1984SOL    HW117414   0.365   1.364  15.922 -0.2915 -1.9902 -1.7650
 1984SOL    HW217415   0.275   1.460  15.984  2.1443  0.5202 -1.0959
 1985SOL     OW17416   2.818   1.316   3.829 -0.2893 -0.4459  0.1412
 1985SOL    HW117417   2.819   1.221   3.842  0.1144 -0.3912  0.5249
 1985SOL    HW217418   2.882   1.351   3.892 -0.3445 -0.5210  0.2398
 1986SOL     OW17419   1.254   4.021   1.742 -0.6118  0.2534 -0.4453
 1986SOL    HW117420   1.203   3.957   1.791 -0.2927  1.0481  0.9020
 1986SOL    HW217421   1.183   4.052   1.685 -0.8587 -1.2656 -0.9744
 1987SOL     OW17422   3.214   4.269   7.875 -0.0609  0.8402 -0.1500
 1987SOL    HW117423   3.308   4.287   7.867 -0.3509  2.7199  0.6484
 1987SOL    HW217424   3.171   4.354   7.863  0.8257  1.8455  3.5037
 1988SOL     OW17425   0.857   0.353   8.868 -0.2373 -0.0031 -0.5182
 1988SOL    HW117426   0.794   0.307   8.924  1.9428 -2.0766  0.2251
 1988SOL    HW217427   0.899   0.280   8.823  1.8992  0.6034  0.5013
 1989SOL     OW17428   0.933   0.150  15.175 -0.9918 -0.3721 -0.0327
 1989SOL    HW117429   0.848   0.128  15.213 -0.8969  0.4052  0.6175
 1989SOL    HW217430   0.938   0.067  15.128 -0.8652 -0.2217 -0.2860
 1990SOL     OW17431   1.955   1.591  10.197 -0.9701 -0.5061 -0.1913
 1990SOL    HW117432   2.026   1.632  10.246 -2.0334  0.3971  0.5673
 1990SOL    HW217433   1.896   1.554  10.262 -0.0537 -0.6013  0.5862
 1991SOL     OW17434   3.831   2.351   1.852 -0.2624  0.4046 -0.7300
 1991SOL    HW117435   3.867   2.346   1.940 -0.6127 -2.7304 -0.7708
 1991SOL    HW217436   3.743   2.316   1.860  0.3367 -1.6500 -2.9145
 1992SOL     OW17437   4.484   4.611   8.026  0.1088 -0.1781 -0.5869
 1992SOL    HW117438   4.550   4.680   8.030  0.5287 -0.4944 -1.8414
 1992SOL    HW217439   4.428   4.643   8.096 -0.9066 -1.8429 -0.6488
 1993SOL     OW17440   0.421   4.719   2.449 -0.6535  0.1256  0.5434
 1993SOL    HW117441   0.427   4.639   2.501  1.2458 -0.5802 -0.7527
 1993SOL    HW217442   0.339   0.032   2.481 -0.1089  1.5695  0.3283
 1994SOL     OW17443   3.083   0.426   7.127  0.4745  0.2341 -0.5068
 1994SOL    HW117444   3.160   0.379   7.094  0.8544  1.8762 -1.9623
 1994SOL    HW217445   3.125   0.506   7.159  2.9237 -0.9472 -0.7566
 1995SOL     OW17446   2.148   3.009   9.922 -0.1608 -0.0385  0.5527
 1995SOL    HW117447   2.127   3.088   9.873 -0.7808  0.0402  0.9307
 1995SOL    HW217448   2.243   3.005   9.930 -0.2534 -1.8361  0.8020
 1996SOL     OW17449   2.548   1.332   4.818  0.2977  0.2932 -0.5026
 1996SOL    HW117450   2.456   1.310   4.835  0.7303 -0.2486  1.1239
 1996SOL    HW217451   2.587   1.246   4.805 -2.1042 -0.8436 -0.2447
 1997SOL     OW17452   1.294   2.458   3.663 -0.1093 -0.4416 -0.7319
 1997SOL    HW117453   1.224   2.396   3.642 -1.4410  0.8125  0.0488
 1997SOL    HW217454   1.324   2.474   3.573 -1.2805  0.8545 -0.8864
 1998SOL     OW17455   0.089   3.214   2.380 -0.5350  0.0527  0.4517
 1998SOL    HW117456   0.063   3.124   2.399  2.3027 -0.4207  2.1146
 1998SOL    HW217457   0.052   3.214   2.292  0.4261 -2.0366  0.0459
 1999SOL     OW17458   0.680   3.071   3.335 -0.0749  0.2253 -0.0212
 1999SOL    HW117459   0.724   3.076   3.420 -0.7861 -2.0233  0.4704
 1999SOL    HW217460   0.746   3.119   3.284 -2.6156  3.7933  0.0261
 2000SOL     OW17461   4.662   3.194  11.598  0.0354 -0.0590  0.0440
 2000SOL    HW117462   4.572   3.215  11.574  0.0331  0.3862  0.4480
 2000SOL    HW217463   4.685   3.131  11.530 -1.6239  1.2458 -1.7261
 2001SOL     OW17464   2.463   4.665  11.753 -0.3160  0.7860  0.4900
 2001SOL    HW117465   2.411   0.022  11.757 -0.8859  0.5429 -1.9100
 2001SOL    HW217466   2.542   4.709  11.785  0.7135  0.4442 -1.5406
 2002SOL     OW17467   0.872   4.101  17.665  0.0305 -0.0539  0.2587
 2002SOL    HW117468   0.861   4.196  17.674  4.7991  0.3093  1.9588
 2002SOL    HW217469   0.778   4.083  17.657 -0.7857  4.6778 -1.2038
 2003SOL     OW17470   4.091   0.304  11.609 -0.2885  0.2229  0.0706
 2003SOL    HW117471   4.045   0.377  11.651  0.5283  1.7012 -1.6273
 2003SOL    HW217472   4.088   0.245  11.684  0.9986 -1.7834 -1.4747
 2004SOL     OW17473   4.644   1.117   4.934  0.3086 -0.1987  0.5190
 2004SOL    HW117474   4.627   1.062   5.010 -1.3397  0.6871  0.7974
 2004SOL    HW217475   4.574   1.084   4.878 -0.2930 -1.4397  2.0053
 2005SOL     OW17476   3.469   1.865   3.127 -0.2658 -0.1194 -0.4332
 2005SOL    HW117477   3.556   1.840   3.157  1.5679  1.5935 -4.2596
 2005SOL    HW217478   3.482   1.956   3.154 -1.8226 -0.3189  0.9489
 2006SOL     OW17479   4.514   1.317   6.695  0.5348  0.1791  0.3625
 2006SOL    HW117480   4.521   1.223   6.712  0.8984 -0.2609 -2.1565
 2006SOL    HW217481   4.455   1.339   6.767 -0.2013  2.2575 -0.8887
 2007SOL     OW17482   4.317   1.592   6.190  0.3850 -0.0623 -0.5432
 2007SOL    HW117483   4.260   1.668   6.191  0.1875 -0.2212  0.0807
 2007SOL    HW217484   4.283   1.560   6.273  0.0373  0.2384 -0.5684
 2008SOL     OW17485   3.230   0.259   0.097 -0.1011 -0.1168  0.1714
 2008SOL    HW117486   3.284   0.197   0.146 -0.3476  1.1275  1.9725
 2008SOL    HW217487   3.290   0.331   0.078  1.1040 -0.4731  2.6854
 2009SOL     OW17488   1.073   2.886   5.340  0.0179 -0.4607 -0.5500
 2009SOL    HW117489   1.105   2.915   5.425 -0.0349 -1.6018 -0.1410
 2009SOL    HW217490   1.069   2.795   5.368 -1.3407 -0.6084 -1.2335
 2010SOL     OW17491   2.045   3.924   5.247  0.0956 -0.2162  0.2558
 2010SOL    HW117492   2.027   3.833   5.224 -1.7981  0.3703 -0.5916
 2010SOL    HW217493   1.973   3.972   5.205  1.4763  0.8547 -0.8875
 2011SOL     OW17494   1.050   3.810   2.117 -0.1169  0.0360  0.5067
 2011SOL    HW117495   0.962   3.786   2.148  0.1600 -1.0203  0.4768
 2011SOL    HW217496   1.056   3.889   2.172  1.6323 -0.2062  0.6630
 2012SOL     OW17497   0.758   4.402  17.349 -0.4507  0.3275  0.0077
 2012SOL    HW117498   0.831   4.464  17.356  0.6242 -0.6981 -1.9562
 2012SOL    HW217499   0.786   4.364  17.265 -0.3043  0.5303 -0.0361
 2013SOL     OW17500   0.292   2.553   2.488  0.2725  0.3896  0.1587
 2013SOL    HW117501   0.382   2.539   2.518  1.2929  2.5484 -1.9255
 2013SOL    HW217502   0.242   2.508   2.556  1.6374 -0.1685  0.7935
 2014SOL     OW17503   2.298   0.150  11.003  0.2474 -0.0950 -0.2321
 2014SOL    HW117504   2.272   0.073  10.953  1.7796  0.4703 -1.8837
 2014SOL    HW217505   2.217   0.202  11.005 -0.0268 -0.4906 -1.7262
 2015SOL     OW17506   0.263   1.300  16.846 -0.1081  0.1163 -0.1076
 2015SOL    HW117507   0.177   1.309  16.888 -0.5164 -2.4414 -0.3716
 2015SOL    HW217508   0.299   1.234  16.905  0.9936  0.2678 -0.6184
 2016SOL     OW17509   3.349   2.960   7.276 -0.2627 -0.5561  0.4394
 2016SOL    HW117510   3.324   2.891   7.215  1.3273  0.2436 -1.0999
 2016SOL    HW217511   3.408   3.010   7.219  0.8150 -0.7364  1.4273
 2017SOL     OW17512   3.991   1.452  15.350  0.4217 -0.1937  0.4549
 2017SOL    HW117513   3.939   1.418  15.423  2.3054 -0.2644  1.7710
 2017SOL    HW217514   3.920   1.465  15.287  0.1060  0.7310  1.0076
 2018SOL     OW17515   3.640   2.299   4.787 -0.6644  0.5233  0.3305
 2018SOL    HW117516   3.574   2.293   4.856  0.4989 -1.5721  1.2574
 2018SOL    HW217517   3.641   2.206   4.766  1.1849  0.8545 -1.0187
 2019SOL     OW17518   0.538   1.842   3.676 -0.1238 -0.9818  0.4147
 2019SOL    HW117519   0.586   1.851   3.594 -1.4316  0.3970 -0.1967
 2019SOL    HW217520   0.453   1.809   3.646 -1.4130  1.5775  1.2793
 2020SOL     OW17521   4.180   4.020  14.671 -0.5299 -0.4842 -0.3576
 2020SOL    HW117522   4.270   3.990  14.676 -0.4558 -1.0113 -4.5329
 2020SOL    HW217523   4.140   3.958  14.733  0.6415 -1.0018 -0.1276
 2021SOL     OW17524   3.607   4.095   6.402 -0.2815  0.4735 -0.0332
 2021SOL    HW117525   3.560   4.148   6.467 -0.5210  0.4492 -0.1867
 2021SOL    HW217526   3.587   4.004   6.426 -2.3779  1.5440  2.3256
 2022SOL     OW17527   0.927   3.507  12.945 -0.0721 -0.5240  0.2155
 2022SOL    HW117528   1.003   3.560  12.971 -1.9272  2.4427 -0.4072
 2022SOL    HW217529   0.919   3.534  12.853 -1.3428  0.6863  0.6771
 2023SOL     OW17530   2.073   3.014   4.429  0.1732  0.2043  0.7545
 2023SOL    HW117531   2.074   2.984   4.338 -0.4069  1.2608  0.3906
 2023SOL    HW217532   2.047   2.934   4.473  0.6916 -0.2657  0.2025
 2024SOL     OW17533   2.527   4.134   0.247  0.1578  0.3798  0.4662
 2024SOL    HW117534   2.498   4.053   0.204  0.6851  1.8921 -2.6953
 2024SOL    HW217535   2.489   4.127   0.335  2.3632  0.8168  1.4477
 2025SOL     OW17536   3.397   3.240   1.553 -0.4760  0.5596  0.2369
 2025SOL    HW117537   3.317   3.196   1.579 -0.7427 -0.5301 -2.3959
 2025SOL    HW217538   3.372   3.332   1.545 -2.8032 -0.2909 -2.0358
 2026SOL     OW17539   0.956   0.895   9.191 -0.0805  0.0903  0.1580
 2026SOL    HW117540   1.021   0.948   9.145  0.3452  0.4849  1.2059
 2026SOL    HW217541   1.001   0.816   9.219 -0.1878  0.6166  1.7881
 2027SOL     OW17542   1.715   3.898  15.425 -0.7565 -0.5698  0.3755
 2027SOL    HW117543   1.710   3.935  15.337  1.5594 -0.9839  0.0596
 2027SOL    HW217544   1.656   3.960  15.468 -2.3130 -1.8123  0.0356
 2028SOL     OW17545   4.570   1.728   1.380 -0.1984 -0.1633 -0.2945
 2028SOL    HW117546   4.536   1.809   1.419  1.7165 -0.9484  3.0184
 2028SOL    HW217547   4.491   1.675   1.387  0.4386 -1.2344 -1.2523
 2029SOL     OW17548   0.197   2.909   6.002 -0.4420  0.4355 -0.2754
 2029SOL    HW117549   0.162   2.838   5.949 -1.3578 -1.4551  2.8301
 2029SOL    HW217550   0.228   2.969   5.934 -1.5015  2.8368  1.3745
 2030SOL     OW17551   4.204   0.941   3.893 -0.0310 -0.5123  0.3345
 2030SOL    HW117552   4.183   1.034   3.901 -1.6371 -0.6362 -2.4170
 2030SOL    HW217553   4.288   0.957   3.851 -0.1034  1.5665  1.0168
 2031SOL     OW17554   4.596   2.638   6.709 -0.1572  0.6663  0.5081
 2031SOL    HW117555   4.628   2.575   6.644  3.1591  1.5786  1.2320
 2031SOL    HW217556   4.663   2.632   6.777  0.0511  1.4408  0.3702
 2032SOL     OW17557   1.931   0.785   9.607 -0.2853 -0.7869  0.1301
 2032SOL    HW117558   1.939   0.828   9.522  0.8666 -0.9670  0.1434
 2032SOL    HW217559   1.941   0.854   9.672  2.6799 -1.0583 -0.0467
 2033SOL     OW17560   1.986   1.345   8.807  0.1195  0.4155  0.5189
 2033SOL    HW117561   1.972   1.434   8.775 -1.3812 -0.2786 -0.7822
 2033SOL    HW217562   1.997   1.296   8.726  2.1698  0.8298  0.5558
 2034SOL     OW17563   0.853   2.825   6.159  0.0271  0.4277 -0.0797
 2034SOL    HW117564   0.947   2.830   6.142  0.6103 -4.2052  1.8321
 2034SOL    HW217565   0.876   2.842   6.251 -0.9884 -4.4433  1.0696
 2035SOL     OW17566   3.007   4.292   9.350 -0.1327 -0.5099  0.4760
 2035SOL    HW117567   3.062   4.309   9.274  2.1165  0.5696  2.3366
 2035SOL    HW217568   2.960   4.212   9.327 -2.4615  1.1002 -0.2775
 2036SOL     OW17569   0.815   1.311   5.788 -0.0904  0.3068 -0.3132
 2036SOL    HW117570   0.743   1.366   5.817  1.6544  3.0827 -1.1912
 2036SOL    HW217571   0.874   1.383   5.765 -0.5308  0.5702 -0.6082
 2037SOL     OW17572   1.545   1.947   1.311 -0.3848 -0.4459 -0.3701
 2037SOL    HW117573   1.523   2.040   1.310  0.3434 -0.2939 -3.6596
 2037SOL    HW217574   1.628   1.943   1.357 -0.1370  2.9670 -0.5737
 2038SOL     OW17575   3.935   4.193  14.345  0.0554 -0.5586 -0.5445
 2038SOL    HW117576   3.935   4.260  14.277 -2.3203  2.2257  2.1793
 2038SOL    HW217577   3.851   4.150  14.329 -0.1180  0.0331 -1.2188
 2039SOL     OW17578   2.316   4.723   4.548  0.4069  0.8682  0.3334
 2039SOL    HW117579   2.307   4.661   4.621  0.0933 -1.6431 -1.8181
 2039SOL    HW217580   2.348   4.669   4.476 -2.9456 -0.0432 -0.5001
 2040SOL     OW17581   1.377   0.247   3.506 -0.2242  0.3092  0.3115
 2040SOL    HW117582   1.388   0.160   3.544 -3.2706 -0.0993  0.2408
 2040SOL    HW217583   1.466   0.281   3.514  0.6529 -2.3440  1.7206
 2041SOL     OW17584   3.054   2.719  14.577  0.0474 -0.1782 -0.7442
 2041SOL    HW117585   3.040   2.699  14.670  0.2464  0.5217 -0.5602
 2041SOL    HW217586   2.970   2.696  14.539  0.2484  0.6062 -1.6614
 2042SOL     OW17587   1.644   3.793   7.002 -0.0363 -0.0168 -0.3096
 2042SOL    HW117588   1.635   3.699   7.018 -0.1974  0.3776  1.8779
 2042SOL    HW217589   1.553   3.822   7.010  0.6136  1.7192  0.7015
 2043SOL     OW17590   2.703   2.275  17.226  0.1849 -0.7536 -0.7384
 2043SOL    HW117591   2.715   2.184  17.256 -1.1213 -0.5614  0.3869
 2043SOL    HW217592   2.607   2.276  17.221  0.0249 -0.6784  2.1895
 2044SOL     OW17593   3.305   0.729  10.547 -0.7640 -0.4240  0.3440
 2044SOL    HW117594   3.308   0.822  10.570  1.5377 -0.4888  0.3079
 2044SOL    HW217595   3.282   0.747  10.456 -1.0333  1.5828  0.8009
 2045SOL     OW17596   3.460   3.343   9.000  0.2160  0.0889 -0.0549
 2045SOL    HW117597   3.463   3.436   9.022 -2.4238  0.6327 -1.9379
 2045SOL    HW217598   3.538   3.333   8.945  1.7265  2.5558  1.6718
 2046SOL     OW17599   4.348   4.716   1.335  0.4625 -0.2820 -0.1084
 2046SOL    HW117600   4.427   4.722   1.282  0.3703 -1.4198 -0.3737
 2046SOL    HW217601   4.288   4.697   1.263  0.6574  3.5493 -1.2880
 2047SOL     OW17602   3.487   2.892   3.968  0.1075 -0.3319  0.3187
 2047SOL    HW117603   3.502   2.839   3.889  2.2224  1.0668 -0.2274
 2047SOL    HW217604   3.556   2.858   4.025 -1.5566 -0.0424  2.5014
 2048SOL     OW17605   3.502   4.236   2.647 -0.9795  0.1163  0.1332
 2048SOL    HW117606   3.461   4.157   2.684  0.9442 -0.6501  0.6184
 2048SOL    HW217607   3.566   4.204   2.583 -1.8696 -0.8424 -0.2810
 2049SOL     OW17608   3.743   0.682  17.627  0.3879  0.3265 -0.4746
 2049SOL    HW117609   3.784   0.654  17.545 -1.0347 -0.4171 -0.9379
 2049SOL    HW217610   3.821   0.705  17.677 -0.6921 -0.2424  1.4941
 2050SOL     OW17611   1.379   2.768   6.623  0.0291  0.8065 -0.7095
 2050SOL    HW117612   1.308   2.718   6.582 -1.5564  2.4564  0.0355
 2050SOL    HW217613   1.364   2.744   6.714  0.2228 -0.1179 -0.9196
 2051SOL     OW17614   0.192   3.601  13.898 -0.5833  1.0451  0.6930
 2051SOL    HW117615   0.226   3.624  13.985 -0.5223  3.5041  0.0059
 2051SOL    HW217616   0.275   3.584  13.855 -1.9765 -0.5516 -1.4088
 2052SOL     OW17617   2.061   3.772   7.330  0.3901 -0.2328 -0.3410
 2052SOL    HW117618   1.976   3.797   7.295 -0.0139 -3.6377 -1.8011
 2052SOL    HW217619   2.048   3.681   7.355 -1.7543  0.1628 -0.0333
 2053SOL     OW17620   3.243   2.062   7.346 -0.6237 -0.3403 -0.4304
 2053SOL    HW117621   3.246   1.966   7.346 -1.9857 -0.3920  0.3284
 2053SOL    HW217622   3.166   2.076   7.402  0.2656 -1.5231  1.0826
 2054SOL     OW17623   0.294   3.512   9.183 -0.2755 -0.1107  0.1361
 2054SOL    HW117624   0.292   3.418   9.201  1.8853 -0.0235  0.7557
 2054SOL    HW217625   0.373   3.527   9.131 -1.1755 -0.5287 -1.3463
 2055SOL     OW17626   0.452   4.542   2.829 -0.3851 -0.2686 -0.4242
 2055SOL    HW117627   0.542   4.562   2.804 -0.3854  2.7910  2.0675
 2055SOL    HW217628   0.458   4.454   2.867  0.9191  0.3926  0.8942
 2056SOL     OW17629   0.858   1.157   2.429  0.2484 -0.8521 -0.0146
 2056SOL    HW117630   0.888   1.246   2.408  1.2417 -1.2521 -0.2752
 2056SOL    HW217631   0.789   1.177   2.492  1.9600  1.1748  1.2252
 2057SOL     OW17632   0.584   4.544   6.944 -0.1954  0.5279 -0.0439
 2057SOL    HW117633   0.533   4.625   6.943 -0.4520  0.3703  0.1806
 2057SOL    HW217634   0.619   4.546   7.033 -3.0415  2.3434  1.0133
 2058SOL     OW17635   1.991   1.216  10.479 -0.0739 -0.1099  0.2331
 2058SOL    HW117636   2.075   1.258  10.465  0.4936 -0.9586  1.0467
 2058SOL    HW217637   1.935   1.291  10.501 -0.2929  0.4805 -2.3167
 2059SOL     OW17638   3.558   3.393   3.734  0.9736 -0.1027 -0.2907
 2059SOL    HW117639   3.524   3.376   3.646  0.0121  3.0819 -0.5477
 2059SOL    HW217640   3.547   3.303   3.765 -1.1540  0.4415  0.5635
 2060SOL     OW17641   4.468   3.352   2.247 -0.4733 -0.5668 -0.2339
 2060SOL    HW117642   4.379   3.361   2.212 -1.2745  0.4385  2.0096
 2060SOL    HW217643   4.454   3.379   2.338 -1.0647 -1.5191 -0.0390
 2061SOL     OW17644   0.688   2.083   5.659 -0.2218 -0.4487  0.1613
 2061SOL    HW117645   0.716   2.174   5.647 -1.0238 -0.4668 -1.8214
 2061SOL    HW217646   0.764   2.054   5.709 -0.9124  0.7529  1.9153
 2062SOL     OW17647   1.227   0.128   8.119 -0.8560  0.2749  0.0473
 2062SOL    HW117648   1.245   0.034   8.119 -0.1435  0.4106 -2.0384
 2062SOL    HW217649   1.218   0.148   8.213  0.1098  0.7649  0.0368
 2063SOL     OW17650   0.729   4.584   4.292 -0.0518 -0.0520 -0.4302
 2063SOL    HW117651   0.740   4.534   4.373  2.6062  0.2527 -0.5854
 2063SOL    HW217652   0.702   4.514   4.234 -0.1748  0.2398 -0.7259
 2064SOL     OW17653   4.608   0.296  11.939 -0.0363 -0.1915 -0.1656
 2064SOL    HW117654   4.689   0.248  11.923 -0.1302 -0.5325  0.3710
 2064SOL    HW217655   4.603   0.287  12.034 -2.3690 -1.0838 -0.3584
 2065SOL     OW17656   2.653   2.708   2.651 -0.2180  0.3537  0.0350
 2065SOL    HW117657   2.713   2.639   2.680 -0.2197  0.3947  0.1359
 2065SOL    HW217658   2.572   2.686   2.697  1.3047 -1.3330  1.9111
 2066SOL     OW17659   1.253   4.147   7.689  0.4292 -0.0588 -0.3275
 2066SOL    HW117660   1.321   4.214   7.676 -1.5963  2.0927  0.0686
 2066SOL    HW217661   1.245   4.093   7.611 -1.2266  0.7778 -0.7517
 2067SOL     OW17662   2.852   4.414   5.819  0.1985 -0.0514 -0.0980
 2067SOL    HW117663   2.765   4.453   5.819 -0.5570 -1.7756  3.8121
 2067SOL    HW217664   2.883   4.437   5.731  0.1320 -0.0469 -0.1206
 2068SOL     OW17665   1.662   3.775   3.760  0.2739 -0.1312  0.2651
 2068SOL    HW117666   1.688   3.863   3.735 -1.0911  0.0111 -0.6319
 2068SOL    HW217667   1.689   3.716   3.689  1.1763 -0.1270  0.6094
 2069SOL     OW17668   1.427   4.430   3.243 -0.2279 -0.4493  0.1651
 2069SOL    HW117669   1.413   4.375   3.321 -0.3566 -1.2642 -0.4289
 2069SOL    HW217670   1.430   4.362   3.176  0.4716 -1.6834  1.4597
 2070SOL     OW17671   3.775   0.826   6.894  0.1092 -0.2909 -0.3923
 2070SOL    HW117672   3.795   0.920   6.901  2.4484 -0.7699 -0.6908
 2070SOL    HW217673   3.794   0.815   6.801 -0.7303 -0.9749 -0.4831
 2071SOL     OW17674   3.361   2.434   2.224 -0.0235 -0.3116 -0.2074
 2071SOL    HW117675   3.269   2.458   2.221 -0.1956 -0.7993  1.1922
 2071SOL    HW217676   3.343   2.340   2.231  0.6223 -0.6496 -3.1236
 2072SOL     OW17677   3.875   2.361   7.009 -0.1066 -0.7199  0.7396
 2072SOL    HW117678   3.908   2.273   7.025 -1.6733 -1.7198 -1.5732
 2072SOL    HW217679   3.819   2.377   7.085 -0.2577  1.8081  0.1093
 2073SOL     OW17680   3.738   2.677   2.945 -0.6839  0.1925  0.1598
 2073SOL    HW117681   3.674   2.642   2.883 -1.0947 -0.9204  1.2265
 2073SOL    HW217682   3.725   2.769   2.919  0.7686  0.3502 -0.0364
 2074SOL     OW17683   0.278   1.722   3.623 -0.4351 -0.0175  0.1631
 2074SOL    HW117684   0.224   1.664   3.569 -2.4658  1.0837  1.0071
 2074SOL    HW217685   0.259   1.809   3.588  0.4549 -0.6613 -1.9241
 2075SOL     OW17686   3.041   1.611   9.738 -0.0697  0.1340  0.2066
 2075SOL    HW117687   3.022   1.704   9.747  1.2100  0.4515 -0.4453
 2075SOL    HW217688   3.056   1.588   9.830  0.7721 -1.7317 -0.3999
 2076SOL     OW17689   1.167   1.687   5.748  0.2779 -0.3050 -0.4663
 2076SOL    HW117690   1.251   1.651   5.719  0.9093 -0.9280  2.1868
 2076SOL    HW217691   1.167   1.679   5.843 -2.3692 -0.6299 -0.5012
 2077SOL     OW17692   0.073   0.576   8.080  0.2238 -0.3739  0.4702
 2077SOL    HW117693   0.147   0.619   8.122 -0.0732  0.6839 -0.0510
 2077SOL    HW217694   0.068   0.498   8.134 -0.5525 -0.5660  0.1278
 2078SOL     OW17695   3.583   1.178   5.660 -0.5198 -0.0105 -0.2750
 2078SOL    HW117696   3.580   1.224   5.576 -1.9697  1.2862  0.5031
 2078SOL    HW217697   3.523   1.231   5.712  0.9183 -0.0093  1.3578
 2079SOL     OW17698   4.396   1.104   9.532 -0.2059  0.0094 -0.3923
 2079SOL    HW117699   4.394   1.008   9.531  3.6088 -0.0663 -2.5164
 2079SOL    HW217700   4.485   1.111   9.496 -0.5374 -1.9631 -1.6240
 2080SOL     OW17701   1.981   3.583   9.953  0.2518 -0.9250  0.5155
 2080SOL    HW117702   2.002   3.592  10.046  0.7353  1.0961  0.2160
 2080SOL    HW217703   1.950   3.493   9.943 -0.7748 -0.8834  3.2676
 2081SOL     OW17704   4.646   0.853   6.523  0.3213 -0.2632 -0.6930
 2081SOL    HW117705   4.674   0.940   6.497 -0.8882  0.8913  1.8241
 2081SOL    HW217706   4.698   0.842   6.602  0.9375  0.0256 -1.0608
 2082SOL     OW17707   0.860   3.393   1.636  0.1392  0.2565 -0.3586
 2082SOL    HW117708   0.802   3.467   1.620 -3.9444 -2.9208 -0.2724
 2082SOL    HW217709   0.942   3.440   1.652  0.2494  0.3010 -1.0540
 2083SOL     OW17710   1.715   1.869   8.053  0.3721  0.3481 -0.2996
 2083SOL    HW117711   1.768   1.791   8.070 -1.1367 -0.5399  0.3095
 2083SOL    HW217712   1.783   1.930   8.025 -0.4338  1.4303  0.1044
 2084SOL     OW17713   2.746   3.428   5.841 -0.0564  0.0913  0.0155
 2084SOL    HW117714   2.659   3.439   5.802 -0.3565 -1.7574  0.1616
 2084SOL    HW217715   2.769   3.337   5.821  2.4432  0.9828 -1.0153
 2085SOL     OW17716   0.897   2.306   5.033 -0.0294 -0.1032  0.4856
 2085SOL    HW117717   0.993   2.305   5.034 -0.0510 -0.0409  2.9040
 2085SOL    HW217718   0.881   2.390   5.077 -0.7901 -0.2370  0.4555
 2086SOL     OW17719   0.256   2.244  10.477 -0.0387  0.2755 -0.2845
 2086SOL    HW117720   0.288   2.154  10.482  0.0803  0.3710  0.6669
 2086SOL    HW217721   0.281   2.273  10.564 -0.4053  0.0276 -0.1011
 2087SOL     OW17722   0.437   0.778  12.901 -0.4222  0.3748 -0.4418
 2087SOL    HW117723   0.418   0.870  12.882  1.2443  0.8187  0.0364
 2087SOL    HW217724   0.351   0.762  12.941  0.7300 -1.0022  1.5028
 2088SOL     OW17725   1.667   0.605   0.556 -0.0526  0.1830  0.7797
 2088SOL    HW117726   1.738   0.641   0.505 -0.3597 -0.5049 -0.1245
 2088SOL    HW217727   1.600   0.670   0.532 -1.9802 -1.4284  1.7203
 2089SOL     OW17728   3.979   1.968   4.796  0.6389  0.7376 -0.2721
 2089SOL    HW117729   4.067   1.935   4.815  0.0818 -0.1675  0.7114
 2089SOL    HW217730   3.973   2.030   4.869 -1.6289 -0.0390  0.1748
 2090SOL     OW17731   2.751   1.967   6.382  0.5465 -0.4085 -0.0284
 2090SOL    HW117732   2.796   1.984   6.300  0.8979 -0.5749  0.1289
 2090SOL    HW217733   2.735   1.874   6.366 -1.7183 -0.1080  0.4241
 2091SOL     OW17734   3.238   0.391   1.643 -0.2015  0.2029  0.0995
 2091SOL    HW117735   3.307   0.398   1.577  0.4957 -0.8077  0.7245
 2091SOL    HW217736   3.282   0.420   1.723  1.2009  1.4692 -1.1225
 2092SOL     OW17737   1.630   1.230  14.686  0.0662  0.3558 -0.3813
 2092SOL    HW117738   1.599   1.153  14.733 -0.4435  0.5842 -0.3323
 2092SOL    HW217739   1.546   1.267  14.656  0.0052  0.1544 -0.4622
 2093SOL     OW17740   2.904   0.005   4.815 -0.3133 -0.3754 -0.2437
 2093SOL    HW117741   2.925   0.029   4.724  1.4551  0.6906  0.4498
 2093SOL    HW217742   2.951   0.071   4.865  2.4021 -2.0119 -0.6859
 2094SOL     OW17743   3.690   4.215   2.436 -0.3234  0.5916 -0.5111
 2094SOL    HW117744   3.684   4.172   2.351 -2.0874  0.7252 -0.4627
 2094SOL    HW217745   3.682   4.306   2.409  0.2966  1.4711  2.2283
 2095SOL     OW17746   1.967   1.281   8.203 -0.6674 -0.0579 -0.3241
 2095SOL    HW117747   1.956   1.189   8.179 -1.8598 -0.0492  0.2087
 2095SOL    HW217748   2.040   1.304   8.145 -0.8880 -1.3925 -1.1387
 2096SOL     OW17749   1.749   3.782   4.706  0.5031  0.5119  0.1804
 2096SOL    HW117750   1.718   3.769   4.616  1.0886 -3.1443  0.5309
 2096SOL    HW217751   1.823   3.722   4.713 -0.6730 -0.8587  0.8282
 2097SOL     OW17752   0.144   3.228   5.216 -0.5900  0.3518 -0.1307
 2097SOL    HW117753   0.067   3.220   5.272  0.5969 -3.2203  1.0345
 2097SOL    HW217754   0.173   3.314   5.246  2.6488 -1.0660  0.8450
 2098SOL     OW17755   0.507   3.189   6.666 -0.0991 -0.3753  0.5873
 2098SOL    HW117756   0.542   3.197   6.577 -0.3810 -1.0706  0.4151
 2098SOL    HW217757   0.432   3.248   6.659  0.6838  0.3673 -1.5407
 2099SOL     OW17758   1.306   4.610  16.732 -0.6280  0.0874  1.2103
 2099SOL    HW117759   1.333   4.645  16.647 -1.3206 -0.8338  0.6135
 2099SOL    HW217760   1.370   4.545  16.761 -1.6568 -0.0429  3.2373
 2100SOL     OW17761   4.014   4.565   2.151  0.3019  0.8553  0.4159
 2100SOL    HW117762   4.105   4.592   2.159  0.2985  0.9413  0.1858
 2100SOL    HW217763   3.981   4.570   2.240 -0.4291  1.1926  0.1277
 2101SOL     OW17764   2.763   1.078   8.457  0.0428 -0.2448 -0.0514
 2101SOL    HW117765   2.835   1.071   8.520  1.3952  0.3091 -1.5389
 2101SOL    HW217766   2.800   1.138   8.393  0.4714 -0.9210 -0.4446
 2102SOL     OW17767   3.289   4.687  17.160 -0.2085  0.0738 -0.5333
 2102SOL    HW117768   3.370   4.657  17.202  0.6924  1.3859 -1.3191
 2102SOL    HW217769   3.309   0.045  17.113  1.2564  0.0254 -0.0088
 2103SOL     OW17770   2.215   3.288   6.999 -0.2459  0.1502  0.5819
 2103SOL    HW117771   2.288   3.326   6.949 -1.7185  0.3522 -1.4157
 2103SOL    HW217772   2.208   3.207   6.949  0.2632 -0.1613  1.0206
 2104SOL     OW17773   3.970   4.383   9.846 -0.2148 -0.2923 -0.0794
 2104SOL    HW117774   4.005   4.390   9.935  2.1723 -0.6198 -0.9870
 2104SOL    HW217775   4.031   4.446   9.806 -0.3074 -1.1507 -1.5434
 2105SOL     OW17776   2.960   2.096   1.504  0.1184 -0.3996  0.1088
 2105SOL    HW117777   2.905   2.122   1.430  0.4029  0.2178  0.1151
 2105SOL    HW217778   3.039   2.132   1.465  1.0006 -0.8830  1.4369
 2106SOL     OW17779   0.649   1.833   7.080  0.4360  0.3245 -0.1023
 2106SOL    HW117780   0.596   1.756   7.101 -1.0010  2.1663  3.0078
 2106SOL    HW217781   0.602   1.876   7.008 -3.1089  0.3165  2.2070
 2107SOL     OW17782   3.367   4.306   9.353  0.1781 -0.2837  0.1592
 2107SOL    HW117783   3.297   4.302   9.287  1.1842 -2.3860 -0.7767
 2107SOL    HW217784   3.385   4.397   9.376 -2.6707 -0.2505  2.2798
 2108SOL     OW17785   0.726   0.264   2.728  0.3766 -0.3408 -0.2141
 2108SOL    HW117786   0.696   0.214   2.653 -1.5782  0.2604  0.1685
 2108SOL    HW217787   0.644   0.297   2.765 -0.6442 -0.0535 -2.7038
 2109SOL     OW17788   0.212   4.512  11.414  0.4726 -0.0206  0.3214
 2109SOL    HW117789   0.282   4.488  11.354 -0.3779  0.9069 -1.0358
 2109SOL    HW217790   0.228   4.606  11.409 -0.8787  0.1527 -0.9509
 2110SOL     OW17791   2.946   4.073   3.526 -0.0915 -0.4126  0.6499
 2110SOL    HW117792   2.958   4.026   3.444 -0.7512  0.9385 -0.2057
 2110SOL    HW217793   2.891   4.009   3.571  0.6234 -1.1358  0.4888
 2111SOL     OW17794   3.924   1.135   3.511  0.2885  0.0862 -0.0863
 2111SOL    HW117795   3.952   1.209   3.564 -1.8381 -0.0426  1.1761
 2111SOL    HW217796   3.876   1.087   3.578  0.9852 -0.5929 -0.0758
 2112SOL     OW17797   4.064   0.565   3.662 -0.4823  0.7636 -0.4692
 2112SOL    HW117798   4.123   0.629   3.622  1.0944  1.5604  3.0812
 2112SOL    HW217799   4.083   0.491   3.604 -0.2250  1.9119 -1.8467
 2113SOL     OW17800   0.705   0.615   4.250  0.6739  0.3680 -0.4703
 2113SOL    HW117801   0.780   0.559   4.229  0.5949 -0.5745  1.7386
 2113SOL    HW217802   0.654   0.552   4.302 -0.1831  0.5022 -1.1641
 2114SOL     OW17803   1.501   0.209   6.234  0.0920  0.1236  0.0937
 2114SOL    HW117804   1.467   0.297   6.218  1.7658  0.8915  0.7448
 2114SOL    HW217805   1.424   0.153   6.248 -1.7400  2.9513  1.3620
 2115SOL     OW17806   0.301   3.910   3.877 -0.1951 -0.3297  0.1744
 2115SOL    HW117807   0.382   3.955   3.899 -0.9318  0.0259  2.1030
 2115SOL    HW217808   0.265   3.973   3.814 -0.2047  2.3752  2.9006
 2116SOL     OW17809   2.884   2.044  11.398  0.2178  0.0413 -0.2295
 2116SOL    HW117810   2.911   2.076  11.484 -1.2152 -2.6862  1.2677
 2116SOL    HW217811   2.790   2.051  11.416 -0.4015 -2.6378 -2.4551
 2117SOL     OW17812   3.801   2.100   6.798  0.7389  0.3971  0.8646
 2117SOL    HW117813   3.862   2.147   6.741 -0.4824 -0.2988 -1.0408
 2117SOL    HW217814   3.730   2.163   6.806 -0.8936 -0.9325 -2.9899
 2118SOL     OW17815   3.308   0.020   3.565 -0.7376  0.6351 -0.2620
 2118SOL    HW117816   3.374   0.085   3.588  0.0240 -0.8750  1.8452
 2118SOL    HW217817   3.368   4.674   3.541 -0.5741  1.0438 -1.0279
 2119SOL     OW17818   0.363   1.844   2.703  1.0501  0.6276  0.0241
 2119SOL    HW117819   0.453   1.816   2.686  0.7452 -1.4756  1.8515
 2119SOL    HW217820   0.382   1.909   2.771 -3.0076  0.9078  0.8536
 2120SOL     OW17821   1.720   1.724  14.804  0.0786 -0.0586 -0.8629
 2120SOL    HW117822   1.781   1.779  14.755 -0.3905 -0.8202 -2.3026
 2120SOL    HW217823   1.634   1.740  14.763 -0.1746  0.4667 -0.1224
 2121SOL     OW17824   1.552   2.012   4.346  0.2688 -0.0686 -0.6012
 2121SOL    HW117825   1.498   2.025   4.268  1.9433  1.7463 -1.4345
 2121SOL    HW217826   1.533   2.091   4.397 -0.8742 -1.3935  1.0242
 2122SOL     OW17827   2.933   4.699   7.616  0.2730 -0.3408  0.0645
 2122SOL    HW117828   2.870   4.648   7.566  0.2230  0.6746 -0.9282
 2122SOL    HW217829   2.999   0.006   7.553  1.2018 -0.5347  0.9403
 2123SOL     OW17830   3.265   2.774   3.649  0.3499  0.0647 -0.1044
 2123SOL    HW117831   3.216   2.711   3.701 -2.6229  0.6612 -2.1647
 2123SOL    HW217832   3.350   2.753   3.688  1.0793 -0.2437 -1.8206
 2124SOL     OW17833   3.765   1.873  16.105  0.0979  0.2176 -0.3302
 2124SOL    HW117834   3.742   1.792  16.149  1.8557 -0.5060 -0.7533
 2124SOL    HW217835   3.684   1.872  16.053 -0.7060  1.1594  0.9001
 2125SOL     OW17836   3.315   0.867  16.991  0.5688  0.1608  0.4900
 2125SOL    HW117837   3.283   0.821  16.914  1.3292  1.1522 -0.4114
 2125SOL    HW217838   3.285   0.797  17.049 -1.0455  0.9280  0.5750
 2126SOL     OW17839   1.644   3.779   2.185  0.3254 -0.0015  0.3516
 2126SOL    HW117840   1.719   3.830   2.215 -0.2776  0.2533  1.4116
 2126SOL    HW217841   1.605   3.831   2.115 -0.9710  1.4023  2.1133
 2127SOL     OW17842   0.666   0.095   2.543  0.0828  0.8853 -0.3109
 2127SOL    HW117843   0.595   0.059   2.491 -0.1781  2.7565 -1.2416
 2127SOL    HW217844   0.686   0.019   2.598  1.3187  2.3813  1.3051
 2128SOL     OW17845   1.705   3.882   9.998  0.0551  0.0414  0.4319
 2128SOL    HW117846   1.774   3.847   9.941  0.2691 -1.0041  1.3396
 2128SOL    HW217847   1.618   3.893   9.960 -0.4791  0.3917  1.7507
 2129SOL     OW17848   3.435   3.383   5.312 -0.5216 -0.2914  0.0825
 2129SOL    HW117849   3.361   3.332   5.346 -0.1607 -0.9188 -0.0728
 2129SOL    HW217850   3.488   3.373   5.391  0.7748  2.3377 -0.4455
 2130SOL     OW17851   2.583   0.400   3.791  0.1105 -0.0202 -0.1623
 2130SOL    HW117852   2.607   0.384   3.883  1.9091 -1.6989 -0.9052
 2130SOL    HW217853   2.526   0.326   3.770  0.1576 -0.8798  2.7334
 2131SOL     OW17854   0.360   1.854   4.224 -0.3389  0.3202 -0.3571
 2131SOL    HW117855   0.323   1.869   4.137  0.5417 -0.4938 -0.8617
 2131SOL    HW217856   0.447   1.827   4.196 -0.0416  0.5668  0.3439
 2132SOL     OW17857   4.217   2.224   3.987 -0.3754 -0.0890 -0.4639
 2132SOL    HW117858   4.273   2.276   3.929  2.0505 -1.9732  0.1861
 2132SOL    HW217859   4.132   2.255   3.956  0.6040  2.5807 -0.4582
 2133SOL     OW17860   0.363   4.663   3.245 -0.0956  0.6409  0.3074
 2133SOL    HW117861   0.277   4.637   3.211 -0.5046 -1.4054  2.9073
 2133SOL    HW217862   0.344   0.010   3.306  0.5860  0.4308  0.7522
 2134SOL     OW17863   1.861   0.947  10.274  0.2344  0.3644 -0.1382
 2134SOL    HW117864   1.837   1.038  10.257  1.9269  0.8533  0.0572
 2134SOL    HW217865   1.896   0.953  10.363  0.1791  0.8091 -0.1467
 2135SOL     OW17866   2.209   0.021   7.615 -0.1837  0.0502  0.4425
 2135SOL    HW117867   2.261   0.027   7.536 -3.3598  2.9850 -1.4326
 2135SOL    HW217868   2.244   0.094   7.666  0.0496  0.6285 -0.5488
 2136SOL     OW17869   2.800   4.406   2.010 -0.1082  0.5982  0.3694
 2136SOL    HW117870   2.861   4.472   2.043  0.5606 -0.2612  0.8655
 2136SOL    HW217871   2.720   4.459   2.008 -1.0133 -0.8924 -2.8536
 2137SOL     OW17872   4.235   0.821   3.300  0.3598  0.6799  0.4685
 2137SOL    HW117873   4.215   0.799   3.209  0.6559 -2.3267  1.1363
 2137SOL    HW217874   4.159   0.878   3.310 -0.6983 -0.8580  1.2083
 2138SOL     OW17875   3.473   4.564  10.123  0.2241  0.0636  0.9120
 2138SOL    HW117876   3.424   4.611  10.190  0.8194  3.2778 -0.9235
 2138SOL    HW217877   3.408   4.495  10.109  0.2766  0.4440 -1.1419
 2139SOL     OW17878   1.680   3.677  17.680  0.0475  0.2258  0.6687
 2139SOL    HW117879   1.640   3.762  17.696  0.9147  0.2898  2.5377
 2139SOL    HW217880   1.607   3.617  17.694  0.4115 -0.6544 -1.1358
 2140SOL     OW17881   2.581   2.874   3.897  0.2771 -0.1018  0.4915
 2140SOL    HW117882   2.575   2.956   3.946  0.6455  0.0398  0.3027
 2140SOL    HW217883   2.612   2.900   3.810 -1.7803  0.1934 -0.1424
 2141SOL     OW17884   0.286   0.942   2.791  0.7366  0.0647  0.4900
 2141SOL    HW117885   0.201   0.985   2.804  1.3244  1.5962 -0.8350
 2141SOL    HW217886   0.271   0.925   2.698 -0.9740  3.9077  0.0791
 2142SOL     OW17887   1.099   4.370  14.563  0.0595  0.3053  0.6718
 2142SOL    HW117888   1.081   4.460  14.536  2.1778  0.5858  0.2184
 2142SOL    HW217889   1.088   4.378  14.658  0.0962 -1.2658  0.8063
 2143SOL     OW17890   2.360   3.256   2.411 -0.5731 -0.1901 -0.3607
 2143SOL    HW117891   2.397   3.212   2.334 -1.4915 -2.0892  0.2828
 2143SOL    HW217892   2.409   3.338   2.420  0.4892 -1.0464  1.8166
 2144SOL     OW17893   2.008   3.042   5.248 -0.0130  0.9074  0.0338
 2144SOL    HW117894   1.996   3.131   5.216 -1.6283  0.4253 -0.6640
 2144SOL    HW217895   1.952   2.986   5.195  0.2471  1.5216 -0.9014
 2145SOL     OW17896   0.435   3.150   7.213 -0.0796 -0.1748  0.1632
 2145SOL    HW117897   0.378   3.097   7.158  1.3925  0.2926 -1.7857
 2145SOL    HW217898   0.370   3.209   7.252 -0.1843  1.5950 -2.7462
 2146SOL     OW17899   1.549   3.284   4.051  0.7263 -0.2283  0.0399
 2146SOL    HW117900   1.494   3.355   4.082 -0.3879 -1.1922  0.2674
 2146SOL    HW217901   1.572   3.332   3.972 -1.6800  3.0805  1.3850
 2147SOL     OW17902   4.240   3.187   8.982 -0.0521 -0.1365  0.3841
 2147SOL    HW117903   4.250   3.107   8.931  1.5860 -0.3844  1.0917
 2147SOL    HW217904   4.247   3.166   9.075  1.4926  0.3023  0.3724
 2148SOL     OW17905   3.477   2.221   8.661  0.0857  0.3274 -0.4783
 2148SOL    HW117906   3.468   2.316   8.666  1.2128  0.5076 -1.8544
 2148SOL    HW217907   3.537   2.197   8.732  2.0372  3.6062 -0.9976
 2149SOL     OW17908   0.314   2.232   2.086 -0.8402  0.0042  0.0531
 2149SOL    HW117909   0.323   2.316   2.042 -1.2392 -0.1866 -0.3924
 2149SOL    HW217910   0.404   2.199   2.081 -0.7017  0.3970 -0.0260
 2150SOL     OW17911   0.320   2.323   4.387 -0.7164  0.4905 -0.2381
 2150SOL    HW117912   0.231   2.301   4.358 -0.2899  0.0207 -1.2069
 2150SOL    HW217913   0.363   2.247   4.347 -0.2314  0.9093 -0.5173
 2151SOL     OW17914   2.677   4.437   8.918 -0.0521  0.0729 -0.6792
 2151SOL    HW117915   2.612   4.491   8.873 -0.2810  0.6607  0.3560
 2151SOL    HW217916   2.693   4.360   8.864 -1.6676  0.0748 -1.1528
 2152SOL     OW17917   3.463   3.922   5.625  0.1016 -0.0735 -0.9787
 2152SOL    HW117918   3.559   3.926   5.620  0.2839 -1.6174  1.0129
 2152SOL    HW217919   3.452   3.966   5.709 -0.2103  0.5991 -1.3748
 2153SOL     OW17920   2.333   2.588   3.409  0.8224  0.3476 -0.0167
 2153SOL    HW117921   2.245   2.614   3.383  0.9264  1.0799  0.3429
 2153SOL    HW217922   2.313   2.515   3.468  0.2311  1.4590  1.1721
 2154SOL     OW17923   3.274   4.705  13.836  0.5819 -0.0811 -0.2551
 2154SOL    HW117924   3.271   0.060  13.782 -1.0414 -1.0057 -1.4874
 2154SOL    HW217925   3.366   4.692  13.859  0.1016  2.3933  3.1302
 2155SOL     OW17926   2.972   2.360   7.223  1.1284 -0.3088 -0.2748
 2155SOL    HW117927   3.021   2.406   7.291  1.4906  0.2272 -0.8884
 2155SOL    HW217928   3.018   2.373   7.140 -2.2628 -0.8579 -2.2571
 2156SOL     OW17929   2.950   4.591  14.784 -0.1029 -0.5057 -0.2765
 2156SOL    HW117930   3.019   4.633  14.734 -0.2197 -0.8463 -0.7219
 2156SOL    HW217931   2.890   4.663  14.802 -1.5140 -1.2834 -1.9084
 2157SOL     OW17932   3.498   4.602   8.622  0.7224  0.1135 -0.4025
 2157SOL    HW117933   3.470   4.513   8.599  2.6033 -0.3713 -0.7988
 2157SOL    HW217934   3.460   4.610   8.709  0.1399 -0.3373 -0.6125
 2158SOL     OW17935   3.120   2.509   3.415 -0.0111 -0.1532 -0.6052
 2158SOL    HW117936   3.185   2.558   3.365  1.1068  1.5473  2.5079
 2158SOL    HW217937   3.047   2.570   3.420 -0.5870 -1.0528  2.2528
 2159SOL     OW17938   0.509   2.811   7.321  0.1175  0.7408  0.4096
 2159SOL    HW117939   0.483   2.903   7.317 -0.7093  0.4410 -1.5246
 2159SOL    HW217940   0.453   2.773   7.388 -0.5424  0.8907 -0.0520
 2160SOL     OW17941   4.000   3.138  13.660  0.2283  0.2562 -0.0983
 2160SOL    HW117942   3.927   3.133  13.598  0.1962 -0.4926 -0.0007
 2160SOL    HW217943   3.964   3.204  13.719 -0.4656 -1.9714  1.9630
 2161SOL     OW17944   3.764   1.404   6.844  0.0204  0.3494 -0.3198
 2161SOL    HW117945   3.738   1.403   6.937  2.7939 -0.2987  0.4540
 2161SOL    HW217946   3.809   1.488   6.844  1.1070 -0.2413  0.9755
 2162SOL     OW17947   0.580   2.634   5.272 -0.3548 -0.3885  0.1065
 2162SOL    HW117948   0.645   2.583   5.321  2.2326  1.1452 -1.7712
 2162SOL    HW217949   0.497   2.617   5.316 -0.2442 -1.2299  0.0030
 2163SOL     OW17950   1.041   4.399   7.386 -0.1458  0.0239 -0.4272
 2163SOL    HW117951   1.023   4.322   7.439  1.2177  1.1747  1.6906
 2163SOL    HW217952   0.981   4.463   7.425 -1.8765 -1.7351 -0.2331
 2164SOL     OW17953   2.290   0.354   7.354  0.4018 -0.3086  0.1347
 2164SOL    HW117954   2.322   0.378   7.267 -0.2663 -0.9924 -0.3046
 2164SOL    HW217955   2.216   0.414   7.362 -0.6062 -1.4217 -0.8153
 2165SOL     OW17956   2.428   2.035   4.071  0.2111 -0.3813 -0.3128
 2165SOL    HW117957   2.424   2.003   3.980  0.5740 -2.4910  0.4194
 2165SOL    HW217958   2.522   2.047   4.073  0.5542 -2.6601 -2.5229
 2166SOL     OW17959   3.691   0.075  16.989  0.3670  0.2270  0.3105
 2166SOL    HW117960   3.636   0.004  16.957  0.5382  0.2988 -0.1431
 2166SOL    HW217961   3.625   0.144  16.997  0.6356  0.2416  2.4450
 2167SOL     OW17962   4.384   3.750   5.143  0.2845 -0.7255  0.4600
 2167SOL    HW117963   4.326   3.685   5.184  0.7581 -2.7730 -2.1731
 2167SOL    HW217964   4.393   3.715   5.055 -3.8342 -1.3068  0.2466
 2168SOL     OW17965   0.807   2.372   2.902 -0.6302  0.2850 -0.2173
 2168SOL    HW117966   0.851   2.355   2.985 -0.0485 -1.3265 -0.8453
 2168SOL    HW217967   0.831   2.300   2.843 -2.0002 -0.1511 -0.2479
 2169SOL     OW17968   2.833   4.114   6.104  0.0477 -0.0841  0.5104
 2169SOL    HW117969   2.840   4.124   6.010 -1.1147  0.0794  0.4459
 2169SOL    HW217970   2.741   4.130   6.125  0.6130 -1.1997  3.9451
 2170SOL     OW17971   3.381   3.867   7.990 -0.1192  0.5413  0.6844
 2170SOL    HW117972   3.343   3.936   8.044  2.4194  1.9334  0.6661
 2170SOL    HW217973   3.293   3.838   7.966  1.0373 -0.4537 -2.3662
 2171SOL     OW17974   1.886   4.367   8.056 -0.0022  0.4466  0.2260
 2171SOL    HW117975   1.948   4.434   8.082  0.3273  0.9015 -1.7147
 2171SOL    HW217976   1.942   4.292   8.035  1.3556  1.0181  1.8923
 2172SOL     OW17977   0.912   1.943   8.502  0.0213  0.4840 -0.7913
 2172SOL    HW117978   0.966   1.971   8.575  0.0949 -0.1268 -0.6178
 2172SOL    HW217979   0.916   2.021   8.446 -0.5334  1.7946  0.9902
 2173SOL     OW17980   0.840   2.017   7.386 -0.7122 -0.1769  0.3291
 2173SOL    HW117981   0.838   2.110   7.361  0.4295  0.2654  1.8824
 2173SOL    HW217982   0.872   1.962   7.315 -1.0367 -0.7792  0.6556
 2174SOL     OW17983   2.728   3.241   3.132  0.0765 -0.6350  0.1018
 2174SOL    HW117984   2.707   3.323   3.178 -0.7541 -0.9694  0.3147
 2174SOL    HW217985   2.738   3.278   3.044  1.8585 -0.6003  0.3103
 2175SOL     OW17986   4.628   1.042   4.183  0.2229  0.3454 -0.5319
 2175SOL    HW117987   4.601   0.969   4.128  2.3040 -0.3178 -0.6743
 2175SOL    HW217988   4.594   1.113   4.128 -1.4895 -0.5598 -0.6614
 2176SOL     OW17989   4.294   3.188   4.128 -0.0748 -0.3827  0.2584
 2176SOL    HW117990   4.364   3.131   4.160  0.1362 -1.0104 -1.2952
 2176SOL    HW217991   4.345   3.265   4.104 -0.3342 -0.2315  0.1912
 2177SOL     OW17992   4.454   4.278   0.020 -0.1407 -0.0140  0.1593
 2177SOL    HW117993   4.469   4.263  17.623 -1.5979  0.4871 -0.1611
 2177SOL    HW217994   4.542   4.301   0.050 -0.6379  2.5571 -0.3574
 2178SOL     OW17995   1.827   0.824   3.449 -0.3606 -0.2560 -0.2790
 2178SOL    HW117996   1.733   0.823   3.471 -0.3409 -2.4243 -0.3134
 2178SOL    HW217997   1.857   0.790   3.533 -0.5362 -1.5525 -0.7518
 2179SOL     OW17998   4.127   3.381   3.586  0.5626  0.1086 -0.0572
 2179SOL    HW117999   4.036   3.410   3.577  0.2625 -0.2957  1.6772
 2179SOL    HW218000   4.135   3.371   3.681  1.2939 -1.5277 -0.3008
 2180SOL     OW18001   1.037   1.627  12.657  0.5312 -0.5123 -1.0300
 2180SOL    HW118002   1.112   1.587  12.612  2.3943  0.5006  1.1828
 2180SOL    HW218003   1.070   1.708  12.697 -0.1354  0.0047 -1.5195
 2181SOL     OW18004   3.871   3.989   7.274 -0.5061 -0.3753  0.3268
 2181SOL    HW118005   3.872   4.024   7.363  2.3561 -0.1342  0.1915
 2181SOL    HW218006   3.944   3.927   7.275 -0.7618 -0.6616  2.5532
 2182SOL     OW18007   3.038   2.396   6.130  0.0086 -0.3436  0.7933
 2182SOL    HW118008   3.117   2.344   6.147 -0.7632 -1.6925  0.2680
 2182SOL    HW218009   2.978   2.353   6.190 -1.1056  1.7117  1.1533
 2183SOL     OW18010   3.510   0.668   8.381 -0.3622  0.0733 -0.2716
 2183SOL    HW118011   3.552   0.621   8.453  1.5463 -0.3081 -1.6254
 2183SOL    HW218012   3.503   0.594   8.321  0.7040 -0.5138  0.3286
 2184SOL     OW18013   4.097   2.425   2.174 -0.1748  0.0925 -0.0302
 2184SOL    HW118014   4.021   2.476   2.146 -0.4711  0.1568  0.8687
 2184SOL    HW218015   4.159   2.443   2.103 -1.6694  1.1797 -1.0705
 2185SOL     OW18016   2.314   1.644   8.943  0.0955  0.1050  0.7531
 2185SOL    HW118017   2.238   1.613   8.993 -0.5624  0.7107  0.1194
 2185SOL    HW218018   2.291   1.736   8.932 -1.3742 -0.7497 -3.2769
 2186SOL     OW18019   3.325   1.122   6.581 -0.2281  0.6286  0.2302
 2186SOL    HW118020   3.396   1.081   6.631 -1.1909  0.7459  1.7081
 2186SOL    HW218021   3.368   1.183   6.521 -0.8753 -1.9392 -2.8126
 2187SOL     OW18022   1.898   4.139  15.458 -0.0381  0.1756 -0.1509
 2187SOL    HW118023   1.913   4.044  15.450  0.1426  0.3657 -2.0082
 2187SOL    HW218024   1.971   4.168  15.513 -0.9593  0.2619  1.0084
 2188SOL     OW18025   1.027   4.632   9.905  0.8015  0.7371 -0.2489
 2188SOL    HW118026   1.015   0.002   9.921 -0.9914  0.4151  0.2888
 2188SOL    HW218027   1.065   4.614   9.991 -0.4615  1.0075  0.3618
 2189SOL     OW18028   3.672   2.922   1.906 -0.0211  0.0256  0.0690
 2189SOL    HW118029   3.633   2.991   1.960 -0.5919  0.2226 -0.5966
 2189SOL    HW218030   3.763   2.951   1.909 -0.1487  0.4071  0.1782
 2190SOL     OW18031   4.688   1.137   6.473 -0.5588  0.8790 -0.1776
 2190SOL    HW118032   0.050   1.139   6.431 -0.3561 -0.2584  0.1842
 2190SOL    HW218033   4.668   1.229   6.491  0.7945  0.9358  1.0122
 2191SOL     OW18034   1.454   2.062   6.334  0.4141  1.2111 -0.2843
 2191SOL    HW118035   1.509   2.134   6.302  0.2708  1.4880  0.0890
 2191SOL    HW218036   1.517   2.019   6.391  0.1463 -0.5752 -1.3384
 2192SOL     OW18037   1.979   4.271  15.215  0.7675  0.1495 -0.0382
 2192SOL    HW118038   1.971   4.344  15.277  0.5784  0.7962 -0.8228
 2192SOL    HW218039   1.983   4.195  15.274 -0.9055 -0.3775 -0.6070
 2193SOL     OW18040   1.073   1.007   4.633  0.0121 -0.4059 -0.2832
 2193SOL    HW118041   1.084   0.932   4.576 -0.0010 -1.4551  1.0867
 2193SOL    HW218042   0.983   0.995   4.665 -0.2854  2.3173 -0.0936
 2194SOL     OW18043   0.413   3.630   9.440 -0.0473  0.0608  0.0182
 2194SOL    HW118044   0.485   3.579   9.402 -0.6933 -0.7505 -0.1057
 2194SOL    HW218045   0.348   3.635   9.370  0.0010  1.5766  0.0866
 2195SOL     OW18046   4.515   4.128   8.886  0.2893 -0.0145  0.3105
 2195SOL    HW118047   4.599   4.087   8.866 -0.2312 -1.9700  2.1632
 2195SOL    HW218048   4.479   4.085   8.964 -0.0685  0.0181  0.1628
 2196SOL     OW18049   2.673   1.745   8.193  0.0611 -0.6760 -0.0174
 2196SOL    HW118050   2.729   1.820   8.175  0.3250 -0.5532  1.3549
 2196SOL    HW218051   2.728   1.704   8.259 -2.3164 -2.4055  0.8756
 2197SOL     OW18052   1.106   1.355  11.245 -0.0695  0.3332  0.0973
 2197SOL    HW118053   1.099   1.391  11.156 -0.3353 -2.0466 -0.8610
 2197SOL    HW218054   1.101   1.262  11.222  0.3638 -0.0772  1.7251
 2198SOL     OW18055   3.083   3.449   7.177  0.2571 -0.1329 -0.3717
 2198SOL    HW118056   3.176   3.430   7.169  0.2611 -1.2764  2.3646
 2198SOL    HW218057   3.058   3.472   7.087 -1.7085  0.7752  0.4226
 2199SOL     OW18058   1.097   3.471   4.062  0.3252  0.2757 -0.6100
 2199SOL    HW118059   1.132   3.400   4.115  1.5314  1.6332  0.4310
 2199SOL    HW218060   1.028   3.425   4.014  1.0428 -0.8436 -0.5508
 2200SOL     OW18061   2.476   3.647   4.156 -0.5323  0.5619 -0.1723
 2200SOL    HW118062   2.440   3.714   4.214  1.1570  0.2580  1.2147
 2200SOL    HW218063   2.567   3.653   4.183 -1.1009  0.7068  1.7023
 2201SOL     OW18064   1.470   2.810   3.304 -0.1927  0.7250 -0.4289
 2201SOL    HW118065   1.395   2.791   3.360 -0.5620  0.4502 -1.0222
 2201SOL    HW218066   1.430   2.866   3.237 -2.1263 -0.1804 -0.0457
 2202SOL     OW18067   2.363   2.304   8.804  0.3159  0.1759 -0.2615
 2202SOL    HW118068   2.424   2.378   8.804 -2.7181  2.6887  1.4559
 2202SOL    HW218069   2.296   2.338   8.863  0.5472 -0.5698  0.4403
 2203SOL     OW18070   0.125   0.155  12.031  0.4954 -0.2064  0.2999
 2203SOL    HW118071   0.201   0.149  12.089  1.1093  0.8445 -0.3983
 2203SOL    HW218072   0.064   0.100  12.080 -0.1016  0.4131  0.2529
 2204SOL     OW18073   2.147   3.602   5.035 -0.2753  0.7043  0.1166
 2204SOL    HW118074   2.064   3.641   5.062 -0.1774  1.5565 -0.8354
 2204SOL    HW218075   2.157   3.652   4.954  0.1622 -3.5096 -2.4180
 2205SOL     OW18076   4.168   1.722   3.898  0.3234  0.4211  0.2086
 2205SOL    HW118077   4.219   1.649   3.863  0.0912 -0.9882  2.8438
 2205SOL    HW218078   4.147   1.681   3.982 -0.6877 -1.3661 -0.9022
 2206SOL     OW18079   2.352   4.085   6.530 -0.2059 -0.1227 -0.4171
 2206SOL    HW118080   2.347   4.011   6.591 -2.1578  2.5128  2.6214
 2206SOL    HW218081   2.283   4.141   6.566  1.7283  1.2242  1.1652
 2207SOL     OW18082   1.086   2.000   4.908 -0.2372 -0.6904 -0.0049
 2207SOL    HW118083   1.124   2.085   4.931  1.4610 -0.7630 -2.4743
 2207SOL    HW218084   1.139   1.989   4.829  0.9164 -0.5214  0.7400
 2208SOL     OW18085   4.528   3.209   3.854 -0.2017 -0.0412  0.0667
 2208SOL    HW118086   4.506   3.268   3.926  0.2213 -2.5343  2.2369
 2208SOL    HW218087   4.548   3.274   3.786 -0.2078 -0.9988 -0.8457
 2209SOL     OW18088   1.264   1.973   4.679  0.1114  0.2044  0.2212
 2209SOL    HW118089   1.297   1.883   4.677  1.0176  0.5160  1.9443
 2209SOL    HW218090   1.329   2.008   4.739 -0.2255  1.6999 -0.2852
 2210SOL     OW18091   0.163   1.795  10.299  0.3022 -0.1600 -0.0609
 2210SOL    HW118092   0.149   1.890  10.294 -0.8899 -0.4073 -1.5498
 2210SOL    HW218093   0.077   1.753  10.295  0.0739  0.1719  1.6851
 2211SOL     OW18094   2.224   2.337   4.629 -0.3277 -0.2267  0.0406
 2211SOL    HW118095   2.148   2.290   4.665  0.1332 -1.2661 -0.3519
 2211SOL    HW218096   2.187   2.423   4.609 -1.4979 -0.5039  1.0046
 2212SOL     OW18097   0.693   0.135   7.168  0.2476 -0.4498  0.3914
 2212SOL    HW118098   0.647   0.111   7.248 -0.8686  1.0299  0.1925
 2212SOL    HW218099   0.627   0.156   7.103 -1.2033 -2.9878  1.0515
 2213SOL     OW18100   0.992   1.436   6.203  0.2721  0.5448 -0.5409
 2213SOL    HW118101   0.964   1.353   6.166 -1.5429  1.6163 -1.6021
 2213SOL    HW218102   1.031   1.411   6.286 -1.7065  1.5163  0.6821
 2214SOL     OW18103   3.893   0.526   4.245 -0.4766  0.4600 -0.0621
 2214SOL    HW118104   3.942   0.477   4.178 -1.2983  0.5253 -0.7053
 2214SOL    HW218105   3.813   0.475   4.250  0.2104 -0.7256 -0.9549
 2215SOL     OW18106   3.234   0.678   7.206  0.0727 -0.2219 -0.1944
 2215SOL    HW118107   3.164   0.700   7.266  1.1524  0.8241  0.6711
 2215SOL    HW218108   3.250   0.765   7.169  0.4744 -0.0817  0.3204
 2216SOL     OW18109   4.048   3.507   4.196  0.2653 -0.8107 -0.1678
 2216SOL    HW118110   4.137   3.487   4.167  0.7650  1.4158 -0.1738
 2216SOL    HW218111   4.008   3.548   4.119 -1.5907  0.4223  1.4450
 2217SOL     OW18112   2.105   2.563   2.212 -0.0711  0.1682  0.0186
 2217SOL    HW118113   2.135   2.622   2.281 -0.9414  1.0138 -0.3287
 2217SOL    HW218114   2.074   2.624   2.145  0.9659  1.0092  0.2992
 2218SOL     OW18115   3.976   0.742  15.095 -0.4771  0.5157 -0.1939
 2218SOL    HW118116   4.037   0.699  15.155 -1.4393 -0.4410  0.0982
 2218SOL    HW218117   3.999   0.693  15.016  1.3148  0.1931  0.5462
 2219SOL     OW18118   2.485   0.386  14.597  0.1278 -0.1832 -0.7669
 2219SOL    HW118119   2.495   0.480  14.581 -0.0268  0.3864  2.4209
 2219SOL    HW218120   2.391   0.381  14.612  0.5369 -1.0553  1.4625
 2220SOL     OW18121   3.614   2.476  15.100  0.5216  0.3893  0.7266
 2220SOL    HW118122   3.693   2.426  15.079  0.9501  1.5716 -0.4704
 2220SOL    HW218123   3.558   2.398  15.095  2.3856 -0.8935 -0.2513
 2221SOL     OW18124   2.909   3.032   9.561 -0.0108 -0.3131 -0.0775
 2221SOL    HW118125   2.915   3.023   9.656  1.4090 -2.1874 -0.3382
 2221SOL    HW218126   2.927   3.126   9.564 -2.0668  0.0942 -0.6919
 2222SOL     OW18127   4.027   4.015   4.487 -0.8102 -0.8032 -0.3657
 2222SOL    HW118128   3.971   4.093   4.486  3.1473  2.2073  5.2482
 2222SOL    HW218129   4.025   3.977   4.575  0.6060  0.3859  0.1800
 2223SOL     OW18130   0.984   4.009   6.185 -0.2016 -0.2383  0.0170
 2223SOL    HW118131   1.075   3.979   6.192  0.7229  2.4721 -0.3644
 2223SOL    HW218132   0.972   4.041   6.274 -2.0425 -0.3964 -0.1764
 2224SOL     OW18133   2.012   2.041   3.860 -1.0274 -0.4941 -0.5948
 2224SOL    HW118134   2.086   2.074   3.809 -1.4804  0.6504 -0.5126
 2224SOL    HW218135   1.986   2.121   3.904 -2.1984  0.2912 -2.7470
 2225SOL     OW18136   1.127   3.871   5.929  0.2651  0.2483 -0.2830
 2225SOL    HW118137   1.185   3.936   5.891  0.0607  0.5602 -0.0546
 2225SOL    HW218138   1.176   3.845   6.007  1.7526 -0.2524 -1.3879
 2226SOL     OW18139   0.351   4.052   3.369 -0.4424  0.1168  0.4065
 2226SOL    HW118140   0.446   4.059   3.382 -0.2968 -1.6439  0.2749
 2226SOL    HW218141   0.310   4.064   3.455  0.6384 -0.1487  0.9701
 2227SOL     OW18142   3.017   1.406   0.052 -0.2489 -0.2348 -0.1180
 2227SOL    HW118143   3.059   1.492   0.051 -0.9720  0.1085 -2.6719
 2227SOL    HW218144   2.984   1.402   0.142  0.5109  0.0093  0.1740
 2228SOL     OW18145   2.645   2.897   7.034 -0.9792  0.1058  0.1649
 2228SOL    HW118146   2.592   2.845   6.974  0.2997  1.3213 -1.9823
 2228SOL    HW218147   2.685   2.972   6.991  0.3277 -0.2856  0.6860
 2229SOL     OW18148   0.576   4.039   5.845  0.0511  0.4893 -0.2554
 2229SOL    HW118149   0.566   3.955   5.800 -1.1990  0.8869 -0.7207
 2229SOL    HW218150   0.658   4.025   5.893 -0.7211 -2.9792  0.0786
 2230SOL     OW18151   2.391   2.583   5.451  0.3418  0.0102  0.1686
 2230SOL    HW118152   2.375   2.558   5.359  1.0982 -1.1161  0.3373
 2230SOL    HW218153   2.426   2.671   5.441  0.0623  0.4392  3.1575
 2231SOL     OW18154   2.427   4.189   8.223 -0.3400 -0.6576  0.2168
 2231SOL    HW118155   2.408   4.108   8.176  1.8856 -0.4962 -0.9873
 2231SOL    HW218156   2.491   4.168   8.291 -2.2473  1.4496  2.6368
 2232SOL     OW18157   2.856   2.360   3.371 -0.2919 -0.2005  0.5456
 2232SOL    HW118158   2.945   2.380   3.400 -0.9789  1.4756  1.5222
 2232SOL    HW218159   2.842   2.438   3.317 -4.0905 -0.9963  0.3489
 2233SOL     OW18160   1.316   4.092  10.021  0.0367  0.0494 -0.1502
 2233SOL    HW118161   1.371   4.042  10.081 -1.5577 -1.1832  0.3059
 2233SOL    HW218162   1.239   4.106  10.077 -0.3763 -0.0490 -0.6917
 2234SOL     OW18163   2.916   1.078  12.272  0.0208  0.1278 -0.5303
 2234SOL    HW118164   2.919   1.172  12.290 -2.2607  0.3325 -1.2038
 2234SOL    HW218165   2.824   1.056  12.288  0.4131 -0.2730  1.1376
 2235SOL     OW18166   2.075   2.883   7.437 -0.1130 -0.3159  0.6669
 2235SOL    HW118167   2.139   2.832   7.388 -1.6117  0.6914 -2.3124
 2235SOL    HW218168   2.101   2.874   7.529  1.3752 -1.1189  0.1650
 2236SOL     OW18169   3.011   2.274  10.446 -0.1892 -0.3949  0.0879
 2236SOL    HW118170   3.089   2.328  10.431 -0.4415  0.2522  1.0929
 2236SOL    HW218171   2.953   2.334  10.492 -0.9534 -1.7175  0.8258
 2237SOL     OW18172   4.523   4.383  17.413 -0.0323  0.5931  0.1362
 2237SOL    HW118173   4.607   4.340  17.397  0.7947  1.9386  0.9518
 2237SOL    HW218174   4.558   4.461  17.456 -2.0952  2.2282 -1.1172
 2238SOL     OW18175   3.490   0.169  15.113 -0.5244 -0.3282 -0.3058
 2238SOL    HW118176   3.551   0.096  15.121 -2.3304 -1.8379 -0.4477
 2238SOL    HW218177   3.549   0.225  15.062  0.6937 -1.6238 -0.3285
 2239SOL     OW18178   2.933   4.539  12.091  0.2009 -0.5454  0.0166
 2239SOL    HW118179   2.881   4.619  12.090 -0.4750 -0.9916 -0.7711
 2239SOL    HW218180   2.885   4.477  12.036  1.0325 -0.2790 -0.9976
 2240SOL     OW18181   0.178   4.371  13.936  0.2877 -0.3350  0.2596
 2240SOL    HW118182   0.224   4.292  13.906  1.2437  0.6828 -0.9266
 2240SOL    HW218183   0.116   4.334  13.999  0.4164 -2.2102 -0.7163
 2241SOL     OW18184   2.952   1.628   6.378 -0.1881  0.4531  0.1594
 2241SOL    HW118185   2.872   1.592   6.338  0.9485  0.2105 -1.8868
 2241SOL    HW218186   2.937   1.612   6.471  1.0812  1.7833  0.5839
 2242SOL     OW18187   0.313   4.366   4.524  0.1312 -0.2482 -0.1269
 2242SOL    HW118188   0.379   4.389   4.458 -3.6039  3.9795 -2.3574
 2242SOL    HW218189   0.339   4.275   4.539  1.9979 -0.1437 -2.8117
 2243SOL     OW18190   0.814   4.680   6.477  0.2900 -0.5027  0.0342
 2243SOL    HW118191   0.758   4.628   6.533 -0.6858  0.4023 -0.1027
 2243SOL    HW218192   0.764   4.706   6.399  1.1197 -2.1846 -1.0547
 2244SOL     OW18193   4.538   3.937  13.635  0.1660 -0.3569  0.0784
 2244SOL    HW118194   4.493   3.940  13.551  0.6063  2.7131 -0.0371
 2244SOL    HW218195   4.564   3.846  13.644  2.1251  0.0786 -1.2027
 2245SOL     OW18196   3.610   0.338  10.863 -0.1430 -0.9347 -0.2945
 2245SOL    HW118197   3.557   0.380  10.931  0.1284 -1.6879  0.3851
 2245SOL    HW218198   3.634   0.256  10.905 -2.1344 -0.7368  1.2513
 2246SOL     OW18199   1.580   4.465   8.924 -0.3694  0.8525  0.0878
 2246SOL    HW118200   1.494   4.488   8.961 -1.2131  2.9874 -3.2282
 2246SOL    HW218201   1.553   4.382   8.885  0.0512  1.0948 -0.7189
 2247SOL     OW18202   2.101   4.075   1.598  0.2886  0.3923  0.2041
 2247SOL    HW118203   2.042   4.094   1.671  0.2278 -1.4178  0.6246
 2247SOL    HW218204   2.074   4.143   1.536 -1.1516 -0.8216 -0.4762
 2248SOL     OW18205   2.265   2.084   3.013 -0.3935  0.2793 -0.6106
 2248SOL    HW118206   2.306   2.129   3.087 -3.9553 -0.2742  1.7111
 2248SOL    HW218207   2.204   2.156   2.996 -1.2097  0.0062  1.1962
 2249SOL     OW18208   2.480   2.168   2.458 -0.1428  0.3957  0.8250
 2249SOL    HW118209   2.503   2.233   2.391  0.1950  0.7619  1.3033
 2249SOL    HW218210   2.537   2.198   2.528  1.0595  0.4412 -0.1617
 2250SOL     OW18211   2.290   0.961   4.067 -0.7204 -0.1068 -0.8129
 2250SOL    HW118212   2.244   1.036   4.105 -1.6910 -1.4324  0.6461
 2250SOL    HW218213   2.381   0.990   4.067 -1.2422  1.5505  0.5364
 2251SOL     OW18214   0.709   4.554   2.754  0.1405 -0.4026 -0.1025
 2251SOL    HW118215   0.753   4.540   2.670  0.9831  0.1903  0.2368
 2251SOL    HW218216   0.761   4.520   2.827 -0.4087  0.1038  0.5281
 2252SOL     OW18217   2.734   1.686   5.279 -0.1039  0.0557 -0.3407
 2252SOL    HW118218   2.762   1.751   5.216  0.9101 -0.1604 -0.1063
 2252SOL    HW218219   2.755   1.607   5.230 -0.8790 -0.1135 -0.4128
 2253SOL     OW18220   4.698   0.845   0.528 -0.0145 -0.4164 -0.1764
 2253SOL    HW118221   0.068   0.828   0.534  0.3610  2.3604  2.0942
 2253SOL    HW218222   4.702   0.941   0.528  2.4544 -0.5325 -1.6605
 2254SOL     OW18223   3.717   1.204   2.608 -0.4638 -0.1680  0.1487
 2254SOL    HW118224   3.809   1.182   2.620 -0.0509  1.7284  0.4354
 2254SOL    HW218225   3.706   1.190   2.514 -0.0749  1.5514 -0.1582
 2255SOL     OW18226   4.680   0.392   6.265  0.0394  0.3598  0.5381
 2255SOL    HW118227   4.697   0.475   6.310  1.5981 -0.2295  1.0259
 2255SOL    HW218228   0.047   0.363   6.265  0.2103  0.8833  3.2345
 2256SOL     OW18229   0.209   1.465   8.919 -0.4246 -0.5403  0.3361
 2256SOL    HW118230   0.244   1.386   8.960 -0.9682 -0.9001  0.1144
 2256SOL    HW218231   0.255   1.457   8.836  0.0759  1.7777  0.3839
 2257SOL     OW18232   2.494   1.784   1.644 -0.0269  0.1858  0.0849
 2257SOL    HW118233   2.527   1.866   1.608  1.9720 -0.8935 -0.5760
 2257SOL    HW218234   2.510   1.799   1.737  0.9139  1.7592 -0.3420
 2258SOL     OW18235   3.098   1.651  10.507 -0.2369  0.5438  0.3805
 2258SOL    HW118236   3.160   1.646  10.581  1.0948  0.0639 -0.7736
 2258SOL    HW218237   3.024   1.615  10.555 -0.1699  1.4541  1.1708
 2259SOL     OW18238   1.059   4.384   2.574  0.4595 -0.2287 -0.9384
 2259SOL    HW118239   0.984   4.430   2.535 -1.1078 -0.7037  1.5451
 2259SOL    HW218240   1.123   4.455   2.569  0.5412 -0.1712  0.9059
 2260SOL     OW18241   4.365   2.652  11.596 -0.0127  0.0199 -0.6486
 2260SOL    HW118242   4.308   2.729  11.604  0.4957  0.2724  0.5236
 2260SOL    HW218243   4.412   2.648  11.680  0.1752 -2.1589 -0.8675
 2261SOL     OW18244   1.352   2.528   7.010  0.0326 -0.5973 -0.1114
 2261SOL    HW118245   1.307   2.496   7.088  0.1846 -0.8917 -0.1451
 2261SOL    HW218246   1.326   2.470   6.938 -0.2987  0.4443 -0.8384
 2262SOL     OW18247   0.280   3.749   5.181 -0.2694 -0.1170  0.7748
 2262SOL    HW118248   0.288   3.822   5.243 -0.3436  0.3824  0.2027
 2262SOL    HW218249   0.365   3.758   5.137 -0.0523 -1.0257  1.0032
 2263SOL     OW18250   2.343   1.279   2.859  0.2024 -0.2443 -0.5938
 2263SOL    HW118251   2.384   1.212   2.915 -0.9080 -0.5201 -0.1077
 2263SOL    HW218252   2.258   1.237   2.846  0.1643  0.2391 -1.8904
 2264SOL     OW18253   3.052   2.114  17.114  0.2507  0.3639 -0.5434
 2264SOL    HW118254   2.987   2.119  17.043  0.1195  0.5435 -0.4126
 2264SOL    HW218255   3.069   2.020  17.121  0.5612  0.3009 -2.2075
 2265SOL     OW18256   4.298   3.708  16.834  0.0611  0.0459 -0.1258
 2265SOL    HW118257   4.322   3.616  16.847  1.2584  0.0321 -2.5997
 2265SOL    HW218258   4.308   3.718  16.740 -1.9688 -2.8098 -0.6684
 2266SOL     OW18259   0.881   1.439  10.543 -0.0084 -0.3664  0.0443
 2266SOL    HW118260   0.913   1.436  10.633  2.4890 -2.2740 -0.9162
 2266SOL    HW218261   0.946   1.390  10.494  0.3080  1.6515 -1.5573
 2267SOL     OW18262   2.909   4.287   3.039 -0.3709 -0.1404  0.3090
 2267SOL    HW118263   3.003   4.302   3.044 -0.3417  0.1623 -1.1929
 2267SOL    HW218264   2.908   4.192   3.027  0.7066 -0.4975  3.0899
 2268SOL     OW18265   0.649   3.597   5.471  0.2266 -0.0837  0.6625
 2268SOL    HW118266   0.640   3.523   5.411  0.8584  1.8009 -1.7651
 2268SOL    HW218267   0.557   3.619   5.489 -0.0559 -2.0579  1.5888
 2269SOL     OW18268   3.464   4.707   8.344  0.2261 -0.1650 -0.6067
 2269SOL    HW118269   3.480   4.695   8.437  2.1087 -0.4179 -0.9607
 2269SOL    HW218270   3.392   4.645   8.340 -0.4346  0.6101 -0.6835
 2270SOL     OW18271   3.163   4.374   3.050  0.5349  0.1047  0.2854
 2270SOL    HW118272   3.228   4.423   3.001 -0.6253  0.2224 -1.1436
 2270SOL    HW218273   3.164   4.428   3.129 -0.3036  1.6013 -0.7275
 2271SOL     OW18274   4.023   3.399  14.417 -0.2395 -0.4149 -0.3375
 2271SOL    HW118275   4.019   3.446  14.500 -0.2503 -1.4688  0.2624
 2271SOL    HW218276   4.109   3.426  14.384 -0.6314  1.2111 -0.0414
 2272SOL     OW18277   1.376   4.602   1.408  0.2693 -0.0185 -0.4203
 2272SOL    HW118278   1.426   4.566   1.335 -1.5020 -0.9905 -1.1511
 2272SOL    HW218279   1.443   4.661   1.443 -2.0137  1.4662  1.4430
 2273SOL     OW18280   0.395   0.368   5.502  0.2016 -0.1678 -0.0432
 2273SOL    HW118281   0.356   0.282   5.519  1.0927 -0.0636  2.5000
 2273SOL    HW218282   0.381   0.371   5.408 -2.1826  3.3157  0.4208
 2274SOL     OW18283   4.064   3.596  16.828 -0.3679  0.3061 -0.1386
 2274SOL    HW118284   4.057   3.691  16.814  1.7848  0.3881 -0.8060
 2274SOL    HW218285   4.159   3.597  16.842 -0.2383  0.7166 -0.9913
 2275SOL     OW18286   3.383   2.399   4.050 -0.3680 -0.3345  0.1752
 2275SOL    HW118287   3.313   2.455   4.082  0.6158  0.4339  0.9688
 2275SOL    HW218288   3.454   2.434   4.104 -0.0296  0.4198 -0.7480
 2276SOL     OW18289   0.056   2.710   3.766  0.3526 -0.2257  0.1603
 2276SOL    HW118290   0.012   2.650   3.827  0.9634  1.0204  1.8508
 2276SOL    HW218291   4.707   2.723   3.706 -1.7353 -2.4748  2.2256
 2277SOL     OW18292   0.194   3.693  16.957 -0.1563  0.4920  0.1477
 2277SOL    HW118293   0.178   3.633  16.884 -1.0433  1.3865 -0.4019
 2277SOL    HW218294   0.215   3.623  17.018  0.1788  0.9633  0.5727
 2278SOL     OW18295   1.674   4.418   9.639 -0.3027 -0.4924 -0.2781
 2278SOL    HW118296   1.595   4.465   9.615  2.5006  3.5178 -1.5878
 2278SOL    HW218297   1.711   4.449   9.723  0.8623  1.3530 -1.4751
 2279SOL     OW18298   1.377   0.563   2.267 -0.5399 -0.2602 -0.1517
 2279SOL    HW118299   1.453   0.526   2.222  0.4946 -2.4320  3.3668
 2279SOL    HW218300   1.388   0.657   2.250  0.5870 -0.1572  1.0581
 2280SOL     OW18301   0.669   0.303   8.470  0.2179  0.0396  0.1436
 2280SOL    HW118302   0.670   0.383   8.522  0.0665 -1.6064  2.6686
 2280SOL    HW218303   0.626   0.239   8.526 -2.0108  1.2022 -0.2328
 2281SOL     OW18304   1.800   0.746   1.713  0.3058  0.4644  0.2313
 2281SOL    HW118305   1.820   0.839   1.705  0.7903  0.0782 -3.0499
 2281SOL    HW218306   1.842   0.702   1.639 -1.6838  0.3845 -0.8679
 2282SOL     OW18307   2.360   3.435   2.735 -0.4424  0.1823 -0.1137
 2282SOL    HW118308   2.433   3.469   2.682 -0.6861  1.8285  0.6085
 2282SOL    HW218309   2.358   3.342   2.714 -1.8385  0.1939  0.0059
 2283SOL     OW18310   2.487   1.919   9.082  0.1026 -0.6291  0.0702
 2283SOL    HW118311   2.436   1.926   9.001  1.6316 -3.6283 -1.1808
 2283SOL    HW218312   2.492   2.012   9.102 -1.1409 -0.4574 -0.4189
 2284SOL     OW18313   3.312   4.665   1.543 -0.1438  0.4600 -0.1833
 2284SOL    HW118314   3.219   4.683   1.557 -0.3847  1.3372 -2.8455
 2284SOL    HW218315   3.317   4.606   1.469  0.2216 -0.5860  0.6736
 2285SOL     OW18316   4.623   0.893  12.471 -0.1677  0.0397  0.2411
 2285SOL    HW118317   4.701   0.905  12.418 -0.4657 -1.2130 -0.4671
 2285SOL    HW218318   4.561   0.853  12.410 -0.8390  2.2019 -0.4831
 2286SOL     OW18319   3.362   1.125  14.516 -0.1546  0.1249 -0.0154
 2286SOL    HW118320   3.308   1.121  14.438  0.6576 -0.8272 -0.5209
 2286SOL    HW218321   3.439   1.174  14.488 -0.1263 -0.3315 -0.7193
 2287SOL     OW18322   2.934   1.345  16.419  0.0711  0.5642  0.1336
 2287SOL    HW118323   2.924   1.297  16.336  0.5207 -0.7154  0.8152
 2287SOL    HW218324   2.915   1.434  16.389  2.0015  0.2891 -1.8870
 2288SOL     OW18325   4.368   0.110   8.259  0.8000 -0.6061  0.1605
 2288SOL    HW118326   4.284   0.158   8.258  1.5488  0.7212  0.6731
 2288SOL    HW218327   4.338   0.021   8.241 -0.0918 -0.4639  0.9178
 2289SOL     OW18328   0.703   4.338   3.427 -0.5067  0.4972 -0.3808
 2289SOL    HW118329   0.673   4.422   3.460  1.2942 -0.0214  2.5342
 2289SOL    HW218330   0.779   4.322   3.482 -0.5888  1.5600  0.0248
 2290SOL     OW18331   4.662   1.940   8.751 -0.0273  0.0913 -0.3437
 2290SOL    HW118332   4.648   2.032   8.731  1.5762  0.0247 -1.7948
 2290SOL    HW218333   4.702   1.950   8.838 -0.4165  3.1606 -0.5377
 2291SOL     OW18334   2.834   1.503  12.789 -0.3589 -0.0686 -0.2687
 2291SOL    HW118335   2.745   1.476  12.815 -0.4748 -0.2962 -0.9039
 2291SOL    HW218336   2.867   1.413  12.783 -1.0011 -0.3430  0.2713
 2292SOL     OW18337   0.771   1.931  15.189  0.1372  0.2262  0.0497
 2292SOL    HW118338   0.854   1.945  15.144 -0.2742  2.4309 -0.0236
 2292SOL    HW218339   0.711   1.978  15.131  0.3026  0.3972  0.0187
 2293SOL     OW18340   0.132   2.330   4.824 -0.4642 -0.2857  0.1303
 2293SOL    HW118341   0.093   2.394   4.884 -1.1650 -0.9323  0.3686
 2293SOL    HW218342   0.057   2.292   4.778  0.2520  1.7263 -2.6688
 2294SOL     OW18343   3.181   3.759  13.846 -0.2183 -0.2283  0.2915
 2294SOL    HW118344   3.234   3.788  13.771  0.8604  0.6883  1.4108
 2294SOL    HW218345   3.174   3.668  13.818  1.1463 -0.2945  0.1653
 2295SOL     OW18346   2.713   3.887  11.431  0.4041 -0.3669 -0.0630
 2295SOL    HW118347   2.742   3.967  11.387 -2.2554  1.1300  0.9338
 2295SOL    HW218348   2.630   3.880  11.384  1.8882  0.7955 -2.8429
 2296SOL     OW18349   1.129   3.041   2.526  0.0233  0.4825 -0.0752
 2296SOL    HW118350   1.089   3.044   2.613  0.8528 -1.5829  0.3815
 2296SOL    HW218351   1.073   3.106   2.484  0.0052  2.2088  2.6401
 2297SOL     OW18352   3.046   3.337   2.258  0.3951  0.5194  0.8418
 2297SOL    HW118353   3.026   3.392   2.334  0.8543  0.7096  0.8303
 2297SOL    HW218354   3.006   3.396   2.195 -0.3916  0.3404  1.1688
 2298SOL     OW18355   1.824   0.766  10.952  0.0969  0.2074  0.0486
 2298SOL    HW118356   1.848   0.722  11.033 -0.6104  0.0294  0.1596
 2298SOL    HW218357   1.874   0.848  10.963  0.6165  0.1976 -2.2988
 2299SOL     OW18358   3.911   4.441   5.196 -0.2292  0.3646  0.0354
 2299SOL    HW118359   4.007   4.434   5.195 -0.2185  0.3876  0.4907
 2299SOL    HW218360   3.888   4.403   5.281 -0.6454  0.1642 -0.1701
 2300SOL     OW18361   1.150   2.919   5.784  0.7910 -0.3476  0.4080
 2300SOL    HW118362   1.176   2.975   5.858  0.6337  1.5872 -0.9931
 2300SOL    HW218363   1.101   2.981   5.730 -1.4068 -2.4115  0.0119
 2301SOL     OW18364   4.051   3.158   9.900 -0.1076 -0.4546 -0.6725
 2301SOL    HW118365   3.966   3.146   9.858 -0.0424  0.3297 -1.0357
 2301SOL    HW218366   4.117   3.151   9.831 -1.0179  1.0591 -1.6757
 2302SOL     OW18367   3.932   0.399   7.305 -0.3639 -0.4157  0.0629
 2302SOL    HW118368   3.998   0.329   7.307 -1.1095 -1.1071  1.0183
 2302SOL    HW218369   3.933   0.411   7.210  0.8336  3.6084  0.5991
 2303SOL     OW18370   1.741   0.573  17.164  0.4263  0.3155 -0.8106
 2303SOL    HW118371   1.825   0.620  17.168  1.0674 -0.7774 -1.4473
 2303SOL    HW218372   1.753   0.504  17.229 -2.1598  0.3537 -0.2959
 2304SOL     OW18373   0.596   3.545   4.497 -0.1962 -0.2864 -0.7215
 2304SOL    HW118374   0.598   3.631   4.455  1.9391 -0.0541 -0.1584
 2304SOL    HW218375   0.689   3.532   4.515 -0.8144 -0.6960  2.1258
 2305SOL     OW18376   3.354   0.639  16.188  0.3455  0.0753 -0.2374
 2305SOL    HW118377   3.447   0.642  16.209  0.1032  0.7630  0.7368
 2305SOL    HW218378   3.326   0.561  16.235 -2.7554  2.1943  1.4430
 2306SOL     OW18379   2.436   0.925   2.812  0.0801 -0.3631 -0.1130
 2306SOL    HW118380   2.452   0.984   2.886 -0.7252  1.3675 -1.3052
 2306SOL    HW218381   2.482   0.844   2.834  1.1202  0.4749  0.7878
 2307SOL     OW18382   1.284   1.305  12.031  0.2043 -0.9397  0.1840
 2307SOL    HW118383   1.252   1.275  12.115 -0.9709 -0.7515 -0.1880
 2307SOL    HW218384   1.379   1.297  12.044  0.3252 -1.9865 -1.3406
 2308SOL     OW18385   1.462   4.259   2.765  0.6327 -0.6120  0.2302
 2308SOL    HW118386   1.419   4.222   2.689 -0.2861 -2.7458  1.7966
 2308SOL    HW218387   1.403   4.324   2.805 -0.4360 -1.8050  0.5741
 2309SOL     OW18388   4.070   0.178   9.259  0.0635  0.0322 -0.6323
 2309SOL    HW118389   4.157   0.142   9.243 -0.5405 -1.5664 -0.2344
 2309SOL    HW218390   4.050   0.147   9.347  0.9795  0.3819 -0.2936
 2310SOL     OW18391   3.353   0.580   2.934  0.0720 -0.0848  0.1021
 2310SOL    HW118392   3.271   0.558   2.978  0.1063 -1.4020 -0.4771
 2310SOL    HW218393   3.345   0.511   2.867  1.0830 -2.3998  2.3610
 2311SOL     OW18394   4.127   0.659   0.583  0.5118  0.2014  0.0633
 2311SOL    HW118395   4.066   0.602   0.536  2.3510 -3.0600  1.7044
 2311SOL    HW218396   4.079   0.742   0.588  0.4715  0.3021 -1.8467
 2312SOL     OW18397   2.220   3.639   4.392  0.6110 -0.4215 -0.2152
 2312SOL    HW118398   2.149   3.577   4.410  0.4591  0.5323  2.4683
 2312SOL    HW218399   2.196   3.717   4.442 -0.2500  0.4932 -2.0191
 2313SOL     OW18400   2.003   3.524   9.678  0.7743 -0.1120  0.6657
 2313SOL    HW118401   2.085   3.534   9.629  0.7663 -1.0504  0.4624
 2313SOL    HW218402   2.034   3.519   9.769  1.4008  0.5263  0.4963
 2314SOL     OW18403   2.496   1.983   3.807  0.3176 -0.3884 -0.0701
 2314SOL    HW118404   2.497   2.017   3.718 -2.5049  0.0237  0.0323
 2314SOL    HW218405   2.466   1.895   3.783 -2.3152  0.0915  1.4793
 2315SOL     OW18406   0.950   1.894   4.196 -0.0671  0.1709 -0.4676
 2315SOL    HW118407   1.011   1.884   4.270  1.1622  0.6456 -1.4040
 2315SOL    HW218408   0.879   1.844   4.235  1.2232 -0.5912  0.8911
 2316SOL     OW18409   0.873   0.460   4.085  0.4898 -0.0284  0.2803
 2316SOL    HW118410   0.880   0.528   4.018 -1.9909  0.7836  0.8620
 2316SOL    HW218411   0.888   0.377   4.040 -0.9806 -0.0218 -0.2137
 2317SOL     OW18412   0.552   2.096   6.476 -0.5478  0.2016  0.6395
 2317SOL    HW118413   0.514   2.009   6.492  2.3431 -0.7877  2.0358
 2317SOL    HW218414   0.485   2.134   6.419  0.8250 -0.5993 -1.5031
 2318SOL     OW18415   1.098   2.825   4.764  0.0504 -0.1922  0.4787
 2318SOL    HW118416   1.115   2.880   4.688 -2.6385  3.1003  2.2855
 2318SOL    HW218417   1.021   2.867   4.801  1.1784  1.4962  0.9029
 2319SOL     OW18418   2.734   1.281   0.041  0.1796 -0.5764  0.0314
 2319SOL    HW118419   2.780   1.279   0.126  1.3385  2.4636 -0.4998
 2319SOL    HW218420   2.807   1.258  17.679 -0.3618 -0.4755 -0.6801
 2320SOL     OW18421   2.640   3.047  17.387 -0.4103  0.0634  0.1560
 2320SOL    HW118422   2.546   3.036  17.378  0.0232 -0.7556 -3.4894
 2320SOL    HW218423   2.658   3.105  17.312 -1.3154 -1.9517 -1.5971
 2321SOL     OW18424   4.229   0.719  15.369 -0.5688  0.0810 -0.4025
 2321SOL    HW118425   4.216   0.767  15.450  2.5303 -0.1726  0.2313
 2321SOL    HW218426   4.146   0.671  15.373  0.0596 -1.1102 -1.3965
 2322SOL     OW18427   3.813   3.803   2.554  0.6622 -0.0636  0.1949
 2322SOL    HW118428   3.826   3.898   2.558 -0.3004  0.1589 -2.0314
 2322SOL    HW218429   3.718   3.793   2.558  0.7334 -0.7875 -0.0739
 2323SOL     OW18430   1.623   4.250   6.702 -0.0861 -0.7903  0.0789
 2323SOL    HW118431   1.582   4.302   6.771 -2.7261 -1.9530 -0.5949
 2323SOL    HW218432   1.667   4.323   6.657  2.8783 -1.8179  1.3470
 2324SOL     OW18433   1.811   2.256   7.573  0.3288 -0.0047 -0.4133
 2324SOL    HW118434   1.898   2.229   7.602  1.2428  0.8732 -2.3938
 2324SOL    HW218435   1.833   2.322   7.508 -1.8583  1.1302  0.0045
 2325SOL     OW18436   0.305   0.935  16.365 -0.2697  0.2373 -0.5038
 2325SOL    HW118437   0.232   0.874  16.361  1.4315 -1.6519 -2.4390
 2325SOL    HW218438   0.350   0.909  16.446 -0.8394  1.7906  0.3059
 2326SOL     OW18439   3.283   0.046   6.634  0.2834  0.1835 -0.2050
 2326SOL    HW118440   3.202   0.058   6.682  1.4093  1.3340  1.3943
 2326SOL    HW218441   3.338   0.113   6.675  1.4376 -0.8012 -0.1481
 2327SOL     OW18442   4.612   3.811   3.528  0.0498 -0.4809 -0.3375
 2327SOL    HW118443   4.545   3.876   3.547  0.5378 -0.2277  0.5514
 2327SOL    HW218444   4.657   3.814   3.612 -0.5564 -0.6405 -0.0100
 2328SOL     OW18445   2.821   4.713   2.775  0.3584 -0.2812  0.9684
 2328SOL    HW118446   2.804   4.647   2.843  0.5566  1.7595  3.0045
 2328SOL    HW218447   2.879   0.051   2.820  1.2964 -0.2470 -0.3052
 2329SOL     OW18448   0.508   0.579   6.279  0.0079  0.2982 -0.0206
 2329SOL    HW118449   0.437   0.585   6.215 -2.4791  0.5630  2.8018
 2329SOL    HW218450   0.563   0.653   6.253 -1.0086  0.5460 -1.5106
 2330SOL     OW18451   2.922   1.358   1.771  0.1921 -0.3333  0.3720
 2330SOL    HW118452   2.828   1.366   1.790  0.4757  1.4174  0.9997
 2330SOL    HW218453   2.967   1.391   1.849 -2.3858  1.9248  0.8899
 2331SOL     OW18454   3.820   2.696   2.260 -0.1072 -0.0707 -0.1981
 2331SOL    HW118455   3.733   2.704   2.221 -0.6761 -0.1581  1.0232
 2331SOL    HW218456   3.869   2.677   2.180  4.6872 -0.5309  2.8421
 2332SOL     OW18457   1.017   3.939   2.354  0.5078 -0.5524  0.1110
 2332SOL    HW118458   1.066   3.936   2.436  1.4491  0.3628 -0.4224
 2332SOL    HW218459   0.952   4.005   2.377  1.6867  0.7329 -0.2548
 2333SOL     OW18460   3.800   1.965   7.515  0.0948 -0.6535  0.2285
 2333SOL    HW118461   3.818   1.928   7.602  1.1575 -0.3009  0.1546
 2333SOL    HW218462   3.706   1.981   7.523  0.3570 -0.0145  2.1753
 2334SOL     OW18463   3.330   0.361   1.995 -0.2435 -0.2197 -0.2431
 2334SOL    HW118464   3.368   0.435   1.948 -0.0012 -0.4186 -0.3619
 2334SOL    HW218465   3.385   0.355   2.074  0.5773  1.9258 -0.6576
 2335SOL     OW18466   2.107   1.275   5.054 -1.0167  0.5718  0.1184
 2335SOL    HW118467   2.178   1.336   5.074 -0.7388  1.3325 -3.2462
 2335SOL    HW218468   2.056   1.284   5.134 -1.3722  1.4063 -0.2075
 2336SOL     OW18469   2.402   3.275   3.048  0.3564  0.2140  0.6925
 2336SOL    HW118470   2.451   3.195   3.066 -0.0142  0.1641  1.5071
 2336SOL    HW218471   2.338   3.230   2.994  0.8712 -0.2880  0.5030
 2337SOL     OW18472   1.582   2.084  10.718  0.0906 -0.2778  0.3785
 2337SOL    HW118473   1.495   2.046  10.708  0.3000 -0.0509 -2.1689
 2337SOL    HW218474   1.611   2.079  10.627  0.4923 -1.9744  0.5860
 2338SOL     OW18475   3.374   1.844   8.171 -0.4217  0.3984  0.2558
 2338SOL    HW118476   3.436   1.771   8.170  1.4342  1.9376  1.8871
 2338SOL    HW218477   3.435   1.918   8.162 -1.0496  0.8363 -0.4605
 2339SOL     OW18478   3.384   2.509   6.763 -0.1333  0.4431  0.0052
 2339SOL    HW118479   3.330   2.588   6.754 -2.5394 -1.1619  0.1360
 2339SOL    HW218480   3.449   2.546   6.704 -0.1431  2.4600  1.2698
 2340SOL     OW18481   1.757   3.027   3.110  0.3393  0.3602 -0.4456
 2340SOL    HW118482   1.802   2.943   3.115 -0.7096 -0.3392 -2.6421
 2340SOL    HW218483   1.758   3.043   3.016 -0.5045  0.7866 -0.3833
 2341SOL     OW18484   1.467   2.501   0.734 -0.4123 -0.6062  0.3197
 2341SOL    HW118485   1.541   2.445   0.711 -1.0777 -0.4771 -2.1465
 2341SOL    HW218486   1.483   2.575   0.675  0.5603 -1.5767 -0.6313
 2342SOL     OW18487   2.768   1.604  10.952 -0.3768 -0.2367 -0.2172
 2342SOL    HW118488   2.700   1.614  11.019 -0.3772  0.7336 -0.3648
 2342SOL    HW218489   2.734   1.542  10.887 -1.6471  0.5931 -0.3412
 2343SOL     OW18490   2.984   2.260   8.149 -0.1242 -0.3762  0.1764
 2343SOL    HW118491   3.028   2.242   8.232 -1.7160  3.8241  1.9312
 2343SOL    HW218492   3.030   2.337   8.115 -2.4981  0.4029 -1.2763
 2344SOL     OW18493   2.824   1.063   3.016  0.3512  0.0328 -0.2410
 2344SOL    HW118494   2.758   1.120   2.976  0.0767  1.4899  2.2768
 2344SOL    HW218495   2.765   0.987   3.015  1.3385 -0.7224 -0.5309
 2345SOL     OW18496   3.248   2.957   9.163 -0.0173  0.1854  0.0165
 2345SOL    HW118497   3.172   2.925   9.211 -0.2497  1.1229  0.2736
 2345SOL    HW218498   3.272   3.024   9.227  0.0774 -0.4516  0.6594
 2346SOL     OW18499   2.628   3.836   5.896 -0.4049  0.5618  0.7323
 2346SOL    HW118500   2.578   3.862   5.974 -2.4173  2.2527 -1.0970
 2346SOL    HW218501   2.565   3.847   5.824  0.8267 -0.5627 -0.5149
 2347SOL     OW18502   1.083   1.383   0.346  0.4937 -0.3217 -0.0183
 2347SOL    HW118503   1.164   1.432   0.333  0.2289 -0.6020 -2.6526
 2347SOL    HW218504   1.032   1.407   0.269  0.4989 -0.5658 -0.0947
 2348SOL     OW18505   0.365   4.670   0.998 -0.8239 -0.5717  0.1095
 2348SOL    HW118506   0.410   0.030   0.995 -0.2415 -0.8888  0.0322
 2348SOL    HW218507   0.387   4.617   1.075 -0.5347 -0.9492 -0.2369
 2349SOL     OW18508   4.235   0.408  12.234  0.2630 -0.2560  0.3391
 2349SOL    HW118509   4.199   0.374  12.317 -0.1491 -0.6113  0.0176
 2349SOL    HW218510   4.178   0.484  12.227 -1.8417 -1.8295  0.0958
 2350SOL     OW18511   3.596   4.279   3.472  0.1237 -0.4932 -0.2773
 2350SOL    HW118512   3.551   4.308   3.551 -1.0432 -0.0058 -1.1315
 2350SOL    HW218513   3.652   4.207   3.504  1.4997 -0.0408 -1.6559
 2351SOL     OW18514   0.843   0.645   9.008 -0.6064  0.3893  0.3197
 2351SOL    HW118515   0.864   0.612   8.920  2.0396 -2.0062  1.8649
 2351SOL    HW218516   0.895   0.725   9.018 -0.0116 -0.0999  1.0991
 2352SOL     OW18517   3.738   0.043   8.275 -0.0751  0.0365  0.4727
 2352SOL    HW118518   3.652   0.043   8.316 -0.8011  1.1118 -1.0428
 2352SOL    HW218519   3.773   0.128   8.304 -1.7058  1.0077 -0.4154
 2353SOL     OW18520   0.287   0.570   8.722  0.1625 -0.2682 -0.0245
 2353SOL    HW118521   0.197   0.549   8.695  0.4592 -0.4859 -0.8589
 2353SOL    HW218522   0.312   0.479   8.736 -0.0294 -0.2297  0.5482
 2354SOL     OW18523   2.514   2.575   4.937  0.2442 -0.2944 -0.1334
 2354SOL    HW118524   2.478   2.637   4.873  1.1238 -0.4718 -0.8017
 2354SOL    HW218525   2.585   2.545   4.880  0.2804  0.7500 -0.6544
 2355SOL     OW18526   2.535   4.668   5.689  0.0268 -0.0613  0.6036
 2355SOL    HW118527   2.523   4.650   5.596 -2.0180  0.4463  0.7810
 2355SOL    HW218528   2.456   4.717   5.710 -0.4439 -0.3577 -0.4913
 2356SOL     OW18529   2.710   1.090  14.011 -0.3648 -0.2977  0.0905
 2356SOL    HW118530   2.699   1.055  14.099  1.5661  1.0900  0.8876
 2356SOL    HW218531   2.735   1.179  14.035  0.7105 -0.8920  1.1632
 2357SOL     OW18532   1.148   4.442   3.559 -0.1520 -0.4248 -1.1899
 2357SOL    HW118533   1.217   4.504   3.581 -1.9678 -0.4168  4.5832
 2357SOL    HW218534   1.191   4.396   3.486  0.7726  1.5281 -1.8838
 2358SOL     OW18535   2.787   1.181   1.441 -0.0777 -0.1276  0.4653
 2358SOL    HW118536   2.811   1.125   1.514 -2.7430  3.1638  3.8930
 2358SOL    HW218537   2.734   1.121   1.388  1.4306 -0.3106 -0.8393
 2359SOL     OW18538   4.092   2.415   3.453  0.0216 -0.0109 -0.0201
 2359SOL    HW118539   4.030   2.470   3.406  1.7936  1.7913 -0.2632
 2359SOL    HW218540   4.152   2.395   3.381 -0.1626 -1.9970  0.3742
 2360SOL     OW18541   2.815   2.922  13.866  0.6592  0.4604  0.4787
 2360SOL    HW118542   2.760   2.999  13.852  1.6398  1.1494  0.4117
 2360SOL    HW218543   2.749   2.853  13.854  0.0548  0.9209  1.1533
 2361SOL     OW18544   1.291   4.143  17.689  0.4213 -0.1335 -0.1332
 2361SOL    HW118545   1.255   4.105  17.609  0.2634  1.7245 -0.9557
 2361SOL    HW218546   1.262   4.234  17.681  1.5096  0.2758  0.5809
 2362SOL     OW18547   1.733   1.812   6.655 -0.3653 -0.1942 -0.1007
 2362SOL    HW118548   1.803   1.865   6.694  1.5973 -2.0686 -1.0525
 2362SOL    HW218549   1.685   1.779   6.731  1.8566 -4.0049 -0.3121
 2363SOL     OW18550   3.837   4.616   3.987 -0.2569 -0.4937 -0.2219
 2363SOL    HW118551   3.774   4.634   3.918 -0.9746 -2.3156 -0.0388
 2363SOL    HW218552   3.779   4.641   4.060  0.2678  0.5308 -0.1501
 2364SOL     OW18553   2.678   3.395   6.145 -0.1586  0.0824  0.2234
 2364SOL    HW118554   2.737   3.363   6.214  0.2994 -1.6664 -0.9867
 2364SOL    HW218555   2.740   3.409   6.074  0.9797  0.6137  1.3118
 2365SOL     OW18556   1.852   3.150  16.177  0.1152 -0.0113  0.5125
 2365SOL    HW118557   1.787   3.123  16.242  2.9823 -1.2943  2.8807
 2365SOL    HW218558   1.843   3.245  16.169  2.5289  0.2057  0.2956
 2366SOL     OW18559   2.966   1.249   8.368 -0.3388  0.3139  0.1820
 2366SOL    HW118560   3.051   1.208   8.351 -0.6087  0.8148 -2.4346
 2366SOL    HW218561   2.991   1.341   8.363  1.3755 -0.4071 -3.8968
 2367SOL     OW18562   3.610   0.546  16.325 -0.0676  0.1071 -0.1267
 2367SOL    HW118563   3.652   0.477  16.376 -0.4938  0.9582  1.3707
 2367SOL    HW218564   3.652   0.625  16.360  1.5156 -0.5470 -0.5602
 2368SOL     OW18565   1.122   4.594   4.212 -0.1051 -0.0751 -0.4723
 2368SOL    HW118566   1.143   4.533   4.142  0.2414 -1.3719  0.7489
 2368SOL    HW218567   1.071   4.656   4.160 -0.1625 -0.3296 -0.7154
 2369SOL     OW18568   2.612   2.725   2.048 -0.2754 -0.0612  0.1206
 2369SOL    HW118569   2.671   2.710   2.121 -0.8889 -2.3061  0.1380
 2369SOL    HW218570   2.652   2.673   1.979 -0.6831 -0.3419  0.0999
 2370SOL     OW18571   3.939   0.006   6.422 -0.2173  0.3987 -0.3291
 2370SOL    HW118572   4.000   4.690   6.360 -0.6478 -0.0658 -0.4502
 2370SOL    HW218573   3.938   4.674   6.500  1.0831 -0.0266 -0.6096
 2371SOL     OW18574   1.184   0.506   3.653  0.3740 -0.2131  0.1938
 2371SOL    HW118575   1.251   0.575   3.656  1.0934 -0.9385  0.8238
 2371SOL    HW218576   1.236   0.430   3.626  2.0753  0.4614  1.5290
 2372SOL     OW18577   2.227   0.976   6.481  0.0021 -0.4422 -0.1284
 2372SOL    HW118578   2.197   1.034   6.551 -1.4908 -0.1098 -1.0373
 2372SOL    HW218579   2.253   1.043   6.417  0.0871  1.6978  2.1659
 2373SOL     OW18580   2.459   0.651   1.576  0.0058  0.7027  0.1319
 2373SOL    HW118581   2.426   0.705   1.504  0.0320  0.6316  0.0661
 2373SOL    HW218582   2.542   0.622   1.537 -0.7042 -0.9274 -0.1705
 2374SOL     OW18583   1.099   1.905  10.988 -0.6417 -0.2730 -0.0388
 2374SOL    HW118584   1.131   1.826  10.946 -1.0868 -0.8690  0.7355
 2374SOL    HW218585   1.118   1.878  11.078 -1.0054 -1.0335 -0.1906
 2375SOL     OW18586   3.399   3.617   3.782 -0.0772  0.2409 -0.2170
 2375SOL    HW118587   3.457   3.542   3.770 -0.1083  0.3905 -1.2918
 2375SOL    HW218588   3.414   3.628   3.876  0.5122 -0.4298 -0.2352
 2376SOL     OW18589   4.210   0.485  11.981  0.3096  0.3741  0.0623
 2376SOL    HW118590   4.258   0.437  11.914 -0.6071  0.8206 -0.9228
 2376SOL    HW218591   4.215   0.415  12.046  0.4288 -1.1827 -1.6374
 2377SOL     OW18592   4.277   2.588   6.306  0.4459  0.0368 -0.6617
 2377SOL    HW118593   4.324   2.643   6.243  0.2637 -0.6215 -1.3764
 2377SOL    HW218594   4.343   2.578   6.375  1.1000  0.5513 -1.2194
 2378SOL     OW18595   3.438   4.420  14.881  0.3116  0.2763  0.3934
 2378SOL    HW118596   3.402   4.394  14.796  0.2781 -2.8938  1.3925
 2378SOL    HW218597   3.435   4.515  14.870  0.9971  0.2799  0.2685
 2379SOL     OW18598   2.125   0.484   8.251 -0.3356  0.0139  0.1293
 2379SOL    HW118599   2.206   0.436   8.234 -0.6297 -0.2692 -0.4829
 2379SOL    HW218600   2.060   0.454   8.187 -1.4144 -0.6580  1.5265
 2380SOL     OW18601   1.223   4.047   5.722  0.0809  0.7764 -0.5016
 2380SOL    HW118602   1.244   4.119   5.662 -0.5760  1.5241  0.1720
 2380SOL    HW218603   1.252   3.968   5.677 -1.0063 -0.1072  0.3664
 2381SOL     OW18604   0.645   2.440  12.711 -0.6258  0.0481 -0.0816
 2381SOL    HW118605   0.611   2.456  12.799 -0.1975 -3.1311  0.6639
 2381SOL    HW218606   0.568   2.408  12.664 -0.9557  1.9869 -0.8250
 2382SOL     OW18607   2.509   2.134   7.353  0.0573 -0.8114  0.0289
 2382SOL    HW118608   2.414   2.132   7.364 -0.2545 -0.1620 -2.5347
 2382SOL    HW218609   2.513   2.125   7.258 -0.9681  0.5567 -0.1439
 2383SOL     OW18610   1.511   0.168  11.451  0.4347  0.2507  0.6058
 2383SOL    HW118611   1.581   0.119  11.494  0.4901  1.5660  2.0114
 2383SOL    HW218612   1.538   0.257  11.475  0.5641  0.7830 -1.4817
 2384SOL     OW18613   2.835   4.601   6.817 -0.0493  0.3106 -0.1156
 2384SOL    HW118614   2.753   4.638   6.787 -0.3172 -1.1356 -1.1166
 2384SOL    HW218615   2.867   4.578   6.730  1.0967  1.3159  0.0310
 2385SOL     OW18616   1.613   4.331   3.697 -0.5424  0.1964 -0.1430
 2385SOL    HW118617   1.630   4.385   3.774  1.2575 -0.1704 -0.2809
 2385SOL    HW218618   1.571   4.253   3.734 -0.4185 -1.2235 -2.9645
 2386SOL     OW18619   3.996   2.780   5.150 -0.5444 -0.2948 -0.2827
 2386SOL    HW118620   3.969   2.689   5.163  1.0230 -0.5775  0.9526
 2386SOL    HW218621   4.029   2.813   5.233  0.0522 -0.6251 -0.3925
 2387SOL     OW18622   4.114   0.723   8.810 -0.3270  0.0164 -0.4861
 2387SOL    HW118623   4.029   0.757   8.835  0.4014  2.1929 -0.9308
 2387SOL    HW218624   4.112   0.636   8.850 -0.4066  0.1804 -0.1361
 2388SOL     OW18625   1.909   1.492   2.428 -0.9571 -0.2811 -0.3068
 2388SOL    HW118626   1.867   1.559   2.373 -1.6956  1.7169  2.6585
 2388SOL    HW218627   1.910   1.529   2.516 -2.5713 -1.3523  0.1485
 2389SOL     OW18628   4.660   2.010   3.364  0.4560 -0.0157 -0.6678
 2389SOL    HW118629   4.646   2.087   3.310  0.7953  0.2144 -0.4233
 2389SOL    HW218630   4.687   2.046   3.448 -1.9415 -0.8926  0.4914
 2390SOL     OW18631   2.827   2.024   6.628  0.3583  0.4241  0.5861
 2390SOL    HW118632   2.915   1.994   6.649  0.6194  0.5972 -0.2549
 2390SOL    HW218633   2.812   1.996   6.538  0.4686  3.6042 -0.4453
 2391SOL     OW18634   2.409   4.301   1.970  0.3930 -0.4529 -0.1170
 2391SOL    HW118635   2.388   4.228   1.911  1.4528 -0.2162 -0.7877
 2391SOL    HW218636   2.331   4.327   2.020  0.4575  0.2144 -0.3567
 2392SOL     OW18637   1.675   1.270   8.582  0.2971 -0.2343  0.2376
 2392SOL    HW118638   1.595   1.265   8.635 -0.0051 -1.1849 -0.3111
 2392SOL    HW218639   1.668   1.365   8.567  0.5863 -0.1636  0.5436
 2393SOL     OW18640   1.901   2.144   0.789  0.2502 -0.5014 -0.2037
 2393SOL    HW118641   1.861   2.058   0.782 -2.7944  1.0761 -1.7771
 2393SOL    HW218642   1.987   2.120   0.826  0.2526 -1.4900 -0.8658
 2394SOL     OW18643   4.554   0.399  11.389 -0.2268 -0.2392  0.5114
 2394SOL    HW118644   4.564   0.348  11.469  0.2722  0.9915  1.2401
 2394SOL    HW218645   4.554   0.328  11.325  3.2654  1.4249 -1.2900
 2395SOL     OW18646   1.199   0.058   8.401  0.3244  0.3380  0.0221
 2395SOL    HW118647   1.105   0.041   8.390  0.2336  0.1841  0.9986
 2395SOL    HW218648   1.224   4.691   8.415 -0.3327  0.2521  0.6744
 2396SOL     OW18649   0.698   2.940   8.685 -0.7765  0.0198  0.2463
 2396SOL    HW118650   0.696   2.985   8.770 -3.9695  0.7277 -0.2091
 2396SOL    HW218651   0.736   2.856   8.710  1.3290  0.1458 -2.5065
 2397SOL     OW18652   1.546   0.523   8.011 -0.0877  0.1924 -0.1056
 2397SOL    HW118653   1.536   0.586   8.082  0.9794 -1.2915  1.3538
 2397SOL    HW218654   1.582   0.450   8.062  0.3972 -0.4698 -1.3889
 2398SOL     OW18655   0.607   2.069  17.527  0.4416 -0.5535  0.0259
 2398SOL    HW118656   0.567   2.009  17.590  2.1583 -1.4329  0.2789
 2398SOL    HW218657   0.655   2.134  17.579 -2.7133  1.6949  0.1661
 2399SOL     OW18658   1.519   4.169   7.912  0.4132 -0.1172 -0.0260
 2399SOL    HW118659   1.432   4.208   7.906  0.2333 -0.5418 -0.1623
 2399SOL    HW218660   1.532   4.172   8.007  1.9515 -1.1690 -0.1939
 2400SOL     OW18661   0.081   2.058   4.000 -0.5712  0.0343 -0.0016
 2400SOL    HW118662   0.123   1.976   4.026 -1.4531  0.2461  2.0889
 2400SOL    HW218663   0.029   2.027   3.926 -0.2462 -0.7844  0.1146
 2401SOL     OW18664   0.214   1.915   7.722 -0.0620  0.3955  0.1229
 2401SOL    HW118665   0.251   1.853   7.659 -0.2081  0.3744  0.0579
 2401SOL    HW218666   0.226   2.002   7.683  0.4791  0.3555  0.1987
 2402SOL     OW18667   3.908   3.235  14.984  0.3209  0.1968 -0.1505
 2402SOL    HW118668   3.977   3.221  14.919  0.8519  0.4798  0.3486
 2402SOL    HW218669   3.929   3.322  15.018 -0.4154 -0.7936  2.7463
 2403SOL     OW18670   3.210   2.986   8.248  0.0590 -0.0126  0.6952
 2403SOL    HW118671   3.121   3.011   8.223  0.1281 -1.7488 -1.2403
 2403SOL    HW218672   3.225   2.917   8.183  0.5103  0.1335  0.6417
 2404SOL     OW18673   1.943   2.882   8.190 -0.5932  0.0086 -0.4032
 2404SOL    HW118674   1.944   2.852   8.280  2.3674 -1.0408 -0.7701
 2404SOL    HW218675   2.023   2.933   8.202 -0.8560  0.4273 -0.4320
 2405SOL     OW18676   1.434   4.081   8.196 -0.2885 -0.5731  0.4491
 2405SOL    HW118677   1.342   4.069   8.173 -0.2333 -1.7946  0.8337
 2405SOL    HW218678   1.470   3.992   8.193 -1.5807 -1.1011  0.8974
 2406SOL     OW18679   4.033   4.317  10.603 -0.5534 -0.1466  0.1292
 2406SOL    HW118680   3.967   4.289  10.540 -0.3699 -1.0384  0.3351
 2406SOL    HW218681   4.111   4.266  10.579 -0.1169 -0.3751  1.9817
 2407SOL     OW18682   0.941   0.269   8.440  0.4997  0.4843 -0.4640
 2407SOL    HW118683   0.980   0.243   8.523 -1.4334  1.2221  0.6862
 2407SOL    HW218684   0.846   0.266   8.451  0.6645  0.0498  0.7603
 2408SOL     OW18685   0.091   1.061   8.604  0.0901 -0.2308  0.0568
 2408SOL    HW118686   0.003   1.040   8.633 -0.0477  0.3450  0.0639
 2408SOL    HW218687   0.076   1.131   8.540  0.1751 -1.7999 -1.6816
 2409SOL     OW18688   1.720   1.459   6.168 -0.6113 -0.7343  0.1655
 2409SOL    HW118689   1.666   1.400   6.220 -0.2362 -0.3609  0.9654
 2409SOL    HW218690   1.709   1.538   6.219 -1.2848 -1.2353  0.7987
 2410SOL     OW18691   1.742   1.543   1.363 -0.0484 -0.3941  0.0817
 2410SOL    HW118692   1.698   1.494   1.293 -0.8239 -0.3191  0.5260
 2410SOL    HW218693   1.833   1.521   1.342 -0.1924 -0.2749 -0.6889
 2411SOL     OW18694   1.944   0.410   8.452  0.2538 -0.0884 -0.5696
 2411SOL    HW118695   1.977   0.320   8.445  1.0021 -0.0295  2.1567
 2411SOL    HW218696   2.011   0.463   8.408  0.8052 -0.3149 -0.0013
 2412SOL     OW18697   1.685   4.016   3.544  0.1857 -0.2917 -0.0753
 2412SOL    HW118698   1.756   4.010   3.480 -0.7479  2.0600 -1.3386
 2412SOL    HW218699   1.735   4.034   3.623 -0.0279  0.3258 -0.0819
 2413SOL     OW18700   1.632   3.847  14.437 -0.2178  0.2398 -0.1696
 2413SOL    HW118701   1.586   3.930  14.454  0.1338  0.2741  0.6120
 2413SOL    HW218702   1.573   3.789  14.486  0.2851  0.9386  1.2730
 2414SOL     OW18703   2.159   1.080   9.772 -0.0460  0.8683  0.6610
 2414SOL    HW118704   2.234   1.028   9.801 -0.5619 -1.7639 -2.7016
 2414SOL    HW218705   2.186   1.171   9.759 -0.8290  0.8181 -1.2458
 2415SOL     OW18706   0.324   0.815   7.358 -0.5808 -0.0301  0.2651
 2415SOL    HW118707   0.265   0.840   7.429 -0.9894 -0.4705  0.0843
 2415SOL    HW218708   0.303   0.721   7.358  0.1400 -0.1821  1.5603
 2416SOL     OW18709   2.111   0.746  10.009 -0.4732  0.6389  0.5567
 2416SOL    HW118710   2.032   0.709  10.049 -0.5023  1.0192  0.8520
 2416SOL    HW218711   2.121   0.691   9.931  0.8307  1.8716 -0.1511
 2417SOL     OW18712   3.800   3.122   0.837 -0.6398 -0.4299  0.0749
 2417SOL    HW118713   3.891   3.144   0.817 -1.5182  1.7705 -1.4670
 2417SOL    HW218714   3.776   3.142   0.927 -0.0625 -1.0624  0.3602
 2418SOL     OW18715   3.194   1.566   1.353  0.5632 -0.5457  0.0335
 2418SOL    HW118716   3.133   1.511   1.402 -0.4885 -0.7868 -1.5788
 2418SOL    HW218717   3.185   1.647   1.402  1.5661  0.6990 -1.8466
 2419SOL     OW18718   0.667   1.061   8.280  0.0428  0.5105  0.2975
 2419SOL    HW118719   0.591   1.003   8.277  1.1620 -0.9536  0.0489
 2419SOL    HW218720   0.622   1.132   8.326 -1.3075  0.8864 -1.6138
 2420SOL     OW18721   0.733   0.619   0.758  1.1342 -0.2160  0.1486
 2420SOL    HW118722   0.781   0.698   0.784  1.1527 -0.2237  0.1386
 2420SOL    HW218723   0.716   0.578   0.842  0.2382  1.7702  0.9379
 2421SOL     OW18724   4.514   4.450  10.589 -0.0179 -0.6496  0.1276
 2421SOL    HW118725   4.537   4.467  10.497  1.5051  3.1880  1.2468
 2421SOL    HW218726   4.602   4.427  10.619 -0.7970 -3.1156  0.5325
 2422SOL     OW18727   1.075   2.997   3.444  0.1160 -0.2225  0.0229
 2422SOL    HW118728   1.119   3.076   3.411  0.2728 -0.3818 -0.1531
 2422SOL    HW218729   1.145   2.934   3.465  1.0694  1.8831  3.1553
 2423SOL     OW18730   0.141   2.450  17.134  0.4470  0.5740  0.2022
 2423SOL    HW118731   0.193   2.464  17.055 -1.0437  2.0374 -0.5270
 2423SOL    HW218732   0.108   2.367  17.099  1.0611  0.8361 -0.9991
 2424SOL     OW18733   3.969   3.655   2.405  0.4312 -0.0976 -0.1441
 2424SOL    HW118734   3.913   3.725   2.440  1.3728  0.9467 -0.7544
 2424SOL    HW218735   3.927   3.571   2.426  0.7114 -0.1776  0.1018
 2425SOL     OW18736   0.133   2.330   1.349 -0.8460 -0.0274 -0.1492
 2425SOL    HW118737   0.125   2.253   1.293  0.7461 -0.3457  0.0581
 2425SOL    HW218738   0.146   2.294   1.436 -1.0294 -0.2400 -0.2094
 2426SOL     OW18739   0.526   3.447   6.797 -0.1868  0.0056  0.6245
 2426SOL    HW118740   0.526   3.355   6.824  0.7286  0.5234  2.3703
 2426SOL    HW218741   0.618   3.472   6.807  0.2686 -1.8562  0.9675
 2427SOL     OW18742   2.887   2.979   7.590 -0.8346  0.1597 -0.5110
 2427SOL    HW118743   2.820   3.040   7.621  1.4731  1.8750  1.0811
 2427SOL    HW218744   2.909   3.029   7.512 -2.5223 -1.0235 -1.7658
 2428SOL     OW18745   1.888   0.785   0.648 -0.2730 -0.5181 -0.2474
 2428SOL    HW118746   1.852   0.873   0.633 -2.2613 -0.9912  1.7519
 2428SOL    HW218747   1.918   0.767   0.559 -0.0505  0.2510 -0.3261
 2429SOL     OW18748   2.644   0.768   3.112  0.0230  0.2604  0.4371
 2429SOL    HW118749   2.594   0.734   3.038  1.7724  1.6393 -1.3899
 2429SOL    HW218750   2.644   0.697   3.175  0.1513  0.6410  0.8660
 2430SOL     OW18751   0.696   4.300   7.293 -0.1606 -0.2079  0.4635
 2430SOL    HW118752   0.715   4.297   7.387  0.9001  0.4258  0.2786
 2430SOL    HW218753   0.601   4.305   7.294 -0.2013 -1.0414 -0.9609
 2431SOL     OW18754   1.477   3.743  11.153 -0.1167 -0.3756 -0.5307
 2431SOL    HW118755   1.455   3.657  11.117  0.4529  0.2932 -2.4423
 2431SOL    HW218756   1.394   3.791  11.159 -0.1006 -0.6832  2.4644
 2432SOL     OW18757   4.624   2.352   2.426 -0.0207  0.2477 -0.9000
 2432SOL    HW118758   4.619   2.257   2.434 -0.1552  0.1450 -2.3714
 2432SOL    HW218759   4.656   2.364   2.516 -0.4789  0.6326 -0.7920
 2433SOL     OW18760   2.592   1.708   6.920 -0.0978  0.2987  0.1094
 2433SOL    HW118761   2.610   1.802   6.917 -0.8527  0.3737 -2.1174
 2433SOL    HW218762   2.535   1.712   6.843  1.6564 -1.4295 -1.2556
 2434SOL     OW18763   0.706   0.229   4.207  0.1106  0.0634  0.2958
 2434SOL    HW118764   0.658   0.155   4.169  3.8411 -1.3276 -1.7422
 2434SOL    HW218765   0.679   0.293   4.141  1.5895 -0.7369 -1.0883
 2435SOL     OW18766   3.158   1.220  14.038 -0.1205  0.4195  0.2367
 2435SOL    HW118767   3.077   1.168  14.042  0.7664 -1.1408 -1.9685
 2435SOL    HW218768   3.124   1.303  14.006  0.3182  0.9838  1.2434
 2436SOL     OW18769   3.525   3.719  14.751  0.9938  0.5316 -0.1700
 2436SOL    HW118770   3.561   3.634  14.728 -1.1341 -0.7336  1.2038
 2436SOL    HW218771   3.439   3.729  14.709  0.8197  3.0517  0.7718
 2437SOL     OW18772   3.708   1.119  17.426 -0.7905 -0.1659 -0.0402
 2437SOL    HW118773   3.765   1.042  17.421 -1.9041 -0.8361 -2.4635
 2437SOL    HW218774   3.779   1.178  17.401  0.1123 -1.7766 -1.2787
 2438SOL     OW18775   2.353   2.585   5.181  0.0508 -0.1650  0.6154
 2438SOL    HW118776   2.426   2.593   5.121 -0.3432  0.6851  0.2455
 2438SOL    HW218777   2.295   2.541   5.119  0.9927  2.1382 -1.9240
 2439SOL     OW18778   3.718   1.585  10.589 -0.1221  0.7245 -0.0544
 2439SOL    HW118779   3.655   1.538  10.534  0.5389  1.2751 -1.2603
 2439SOL    HW218780   3.753   1.517  10.647  0.0392  1.0729  0.2539
 2440SOL     OW18781   0.643   1.192   2.584 -0.4330 -0.3487 -0.4139
 2440SOL    HW118782   0.612   1.177   2.673 -1.6567 -0.9574 -0.9502
 2440SOL    HW218783   0.686   1.277   2.595 -0.1457 -0.8392  2.3508
 2441SOL     OW18784   1.269   3.526   8.387  0.3004  0.2208  0.1562
 2441SOL    HW118785   1.273   3.505   8.480 -1.5484  0.5549  0.3150
 2441SOL    HW218786   1.250   3.620   8.387  0.4781  0.2564 -3.1296
 2442SOL     OW18787   2.771   2.288   6.581  0.1673  0.3239 -0.3394
 2442SOL    HW118788   2.787   2.194   6.591 -1.0679  0.1263 -0.2402
 2442SOL    HW218789   2.853   2.329   6.609 -0.6858 -0.2326  3.0430
 2443SOL     OW18790   3.639   3.548   2.670  0.0460 -0.2686  0.5023
 2443SOL    HW118791   3.619   3.459   2.699 -4.5703 -0.0190 -1.8080
 2443SOL    HW218792   3.570   3.555   2.603  1.7227  0.3916 -1.1692
 2444SOL     OW18793   0.441   3.358   6.278 -0.2885  0.1252 -0.2154
 2444SOL    HW118794   0.519   3.348   6.332 -0.2382 -0.8764 -0.4712
 2444SOL    HW218795   0.380   3.309   6.333  0.4722  1.7277  2.0591
 2445SOL     OW18796   3.749   4.668  12.338 -0.4596 -0.4344 -0.6788
 2445SOL    HW118797   3.833   4.703  12.368 -1.1411  0.7738 -0.1777
 2445SOL    HW218798   3.749   4.667  12.243  2.5796  5.0594 -0.7291
 2446SOL     OW18799   2.859   3.062  11.977  0.0579  0.1413 -0.1599
 2446SOL    HW118800   2.765   3.066  11.963  0.1881  2.4273 -0.3854
 2446SOL    HW218801   2.908   3.095  11.902 -1.0389 -1.0803 -1.4254
 2447SOL     OW18802   2.309   0.575   8.496 -0.0919 -0.1476 -0.2172
 2447SOL    HW118803   2.246   0.620   8.440 -1.9793  0.5883  2.4770
 2447SOL    HW218804   2.343   0.647   8.551  1.0030 -0.5226 -0.3911
 2448SOL     OW18805   0.620   3.665   5.028  0.1631 -0.0505 -0.3297
 2448SOL    HW118806   0.679   3.602   5.069 -1.4468 -0.7160  0.9828
 2448SOL    HW218807   0.615   3.742   5.084  0.0976  1.5584 -2.5710
 2449SOL     OW18808   4.075   0.705   2.296 -0.0201  0.0912  0.5453
 2449SOL    HW118809   4.164   0.695   2.329  0.8608  0.9023 -1.5458
 2449SOL    HW218810   4.023   0.677   2.371 -0.8206  0.3494  0.0817
 2450SOL     OW18811   4.313   3.637  13.937  0.5714  0.2457 -0.0454
 2450SOL    HW118812   4.257   3.672  13.867  0.4713  4.3597  2.1052
 2450SOL    HW218813   4.256   3.563  13.959 -0.5831  0.3000 -2.8576
 2451SOL     OW18814   1.587   3.024   2.457 -0.1976  0.0589 -0.5023
 2451SOL    HW118815   1.505   3.025   2.408 -1.2297  0.7163  1.2306
 2451SOL    HW218816   1.601   3.117   2.478 -3.9093  0.5177 -0.1128
 2452SOL     OW18817   3.188   2.840   8.934 -0.2020 -0.2956 -0.3229
 2452SOL    HW118818   3.223   2.896   9.003  0.1933 -0.3751 -0.4557
 2452SOL    HW218819   3.103   2.883   8.940  0.1674  0.3929  0.0461
 2453SOL     OW18820   4.065   1.453  12.129 -0.1839 -0.0656 -0.3798
 2453SOL    HW118821   4.127   1.390  12.164 -0.5319 -0.8526 -1.1719
 2453SOL    HW218822   4.113   1.535  12.116 -0.3869  0.3109  1.2043
 2454SOL     OW18823   2.113   1.127   9.355 -0.1688 -0.2107 -0.4223
 2454SOL    HW118824   2.104   1.217   9.323  0.1394 -0.3376 -0.8587
 2454SOL    HW218825   2.172   1.095   9.287  1.9250 -3.0077  2.7011
 2455SOL     OW18826   2.502   1.458   5.649 -0.4219  0.5535 -0.2270
 2455SOL    HW118827   2.506   1.412   5.732 -0.8531  0.8625 -0.0371
 2455SOL    HW218828   2.416   1.432   5.617 -0.7481  1.4283 -0.0817
 2456SOL     OW18829   1.454   0.914   3.816  0.2966 -0.0895  0.0826
 2456SOL    HW118830   1.441   1.007   3.835 -1.1008 -0.6445  1.8026
 2456SOL    HW218831   1.512   0.904   3.891 -0.2980 -1.0454  0.4159
 2457SOL     OW18832   1.193   0.105   7.564 -0.3784  0.7423  0.3354
 2457SOL    HW118833   1.137   0.073   7.494  1.4128 -2.2229  0.2348
 2457SOL    HW218834   1.146   0.120   7.646  0.2490 -1.4202  1.1141
 2458SOL     OW18835   1.484   0.619   8.881  0.0782  0.1830  0.0609
 2458SOL    HW118836   1.512   0.692   8.937  0.1287  0.8900 -0.8944
 2458SOL    HW218837   1.464   0.543   8.936  0.1950 -1.3578 -2.0394
 2459SOL     OW18838   2.684   1.241   6.514  0.6421  0.1560 -0.4126
 2459SOL    HW118839   2.693   1.276   6.603  0.4694 -1.5210  0.2746
 2459SOL    HW218840   2.595   1.261   6.487  0.4117 -1.2328 -0.6661
 2460SOL     OW18841   2.574   2.250   2.864 -0.0123  0.0658  0.1381
 2460SOL    HW118842   2.506   2.317   2.863 -0.6665 -0.5808  0.8880
 2460SOL    HW218843   2.564   2.197   2.944  2.7874  1.0281  1.1642
 2461SOL     OW18844   1.488   0.733   2.746  0.4106  0.3870  0.2136
 2461SOL    HW118845   1.521   0.767   2.663  2.3676 -0.4320  0.6464
 2461SOL    HW218846   1.445   0.809   2.785  0.2619  0.5113 -0.1854
 2462SOL     OW18847   0.407   1.881   8.574  0.1844  0.1400 -0.3557
 2462SOL    HW118848   0.499   1.861   8.553  0.5550 -0.7741  2.1581
 2462SOL    HW218849   0.396   1.825   8.651 -2.2084 -0.2488 -0.9855
 2463SOL     OW18850   2.493   4.297  11.695  0.5534  0.0711  0.1870
 2463SOL    HW118851   2.535   4.211  11.697 -0.4779 -0.4172  0.8592
 2463SOL    HW218852   2.444   4.270  11.617 -0.6125 -0.9105  1.2612
 2464SOL     OW18853   0.976   3.771   4.681  0.1225 -0.2438 -0.3791
 2464SOL    HW118854   0.894   3.730   4.709 -0.1446 -0.2548 -1.1989
 2464SOL    HW218855   0.945   3.808   4.599 -0.3468 -1.0508 -0.5660
 2465SOL     OW18856   4.715   3.928   6.002 -0.2654 -0.1434  0.7457
 2465SOL    HW118857   0.081   3.938   6.036 -0.1331 -0.7623  0.5827
 2465SOL    HW218858   4.721   3.836   5.979  0.2959  0.2994 -0.8889
 2466SOL     OW18859   1.876   2.169   6.474 -0.4748 -0.3199  0.4467
 2466SOL    HW118860   1.969   2.159   6.491 -0.6378  1.2721  2.3759
 2466SOL    HW218861   1.875   2.261   6.445  2.8638  0.1390  1.7506
 2467SOL     OW18862   2.962   3.174  17.041 -0.4693 -0.5196  0.1443
 2467SOL    HW118863   2.877   3.135  17.060 -0.4897 -0.5529 -0.0182
 2467SOL    HW218864   3.003   3.100  16.996  2.8128  0.9147  0.7649
 2468SOL     OW18865   2.402   3.868   4.286 -0.0799  0.1875  0.6688
 2468SOL    HW118866   2.322   3.898   4.241  1.4763  2.7766 -0.4214
 2468SOL    HW218867   2.449   3.951   4.296  0.5732 -0.0754 -0.2175
 2469SOL     OW18868   1.496   0.546   8.623  0.2238 -0.1301 -0.2435
 2469SOL    HW118869   1.556   0.473   8.640  1.2890  0.6153 -0.7615
 2469SOL    HW218870   1.500   0.591   8.707 -1.5421 -0.5965  0.0756
 2470SOL     OW18871   3.387   3.582   5.881 -0.4064  0.0926  0.1109
 2470SOL    HW118872   3.374   3.549   5.792  2.5992  0.0341 -0.2970
 2470SOL    HW218873   3.383   3.676   5.866  2.7922 -0.0590 -1.5233
 2471SOL     OW18874   0.216   1.440   2.709 -0.5550 -0.0328  0.5150
 2471SOL    HW118875   0.279   1.506   2.677 -1.1106  0.7280  0.9890
 2471SOL    HW218876   0.220   1.373   2.641 -0.7719 -0.4330  0.8994
 2472SOL     OW18877   1.986   3.859   8.687 -0.5002  0.5063  0.9243
 2472SOL    HW118878   1.894   3.873   8.710 -0.2743 -0.8262  2.6165
 2472SOL    HW218879   2.021   3.941   8.722  1.4118  0.0491  0.1026
 2473SOL     OW18880   3.086   2.722   2.235 -0.1067  0.0283 -0.1834
 2473SOL    HW118881   3.088   2.786   2.164 -0.9566 -0.5237 -0.6947
 2473SOL    HW218882   3.051   2.776   2.306 -0.7418 -0.1144 -0.3871
 2474SOL     OW18883   1.384   3.117  10.115  0.9446 -0.1095  0.2541
 2474SOL    HW118884   1.343   3.171  10.182 -0.4218  2.0098 -2.2911
 2474SOL    HW218885   1.395   3.168  10.035 -0.3922  0.0581  0.1767
 2475SOL     OW18886   4.016   2.900   9.748 -0.3644 -0.2603  0.1359
 2475SOL    HW118887   3.979   2.814   9.727 -0.8075 -0.0677  0.1375
 2475SOL    HW218888   3.937   2.918   9.799 -0.5055 -0.1332 -0.1286
 2476SOL     OW18889   0.613   2.442   4.517 -0.3324  0.6349 -0.3683
 2476SOL    HW118890   0.674   2.439   4.444 -0.3284  1.1511 -0.3856
 2476SOL    HW218891   0.536   2.414   4.467 -1.2830 -0.8339  1.8875
 2477SOL     OW18892   3.004   3.010   4.163 -0.3728 -0.0034  0.1294
 2477SOL    HW118893   3.075   2.981   4.220 -0.7468 -3.7534 -1.3256
 2477SOL    HW218894   3.004   2.942   4.095  1.7421  0.8949 -0.7824
 2478SOL     OW18895   3.150   0.820   1.787 -0.7236 -0.9002 -0.3160
 2478SOL    HW118896   3.064   0.849   1.818 -0.2147 -0.4789  0.6812
 2478SOL    HW218897   3.129   0.787   1.699  0.1867  0.9592 -1.2321
 2479SOL     OW18898   1.091   4.638   5.774  0.2437  0.1448  0.5277
 2479SOL    HW118899   1.097   0.010   5.771  1.3222  0.0932  0.8648
 2479SOL    HW218900   1.008   4.626   5.820 -0.8521  0.6048 -1.3436
 2480SOL     OW18901   1.794   4.034   3.796  0.0104  0.3063 -0.0626
 2480SOL    HW118902   1.808   4.123   3.828  0.8965  0.2244 -0.2181
 2480SOL    HW218903   1.865   3.985   3.837 -0.1992  0.6771  0.7522
 2481SOL     OW18904   1.428   3.525   4.133 -0.1225 -0.1551  0.0301
 2481SOL    HW118905   1.520   3.551   4.133 -0.4743  1.0602  0.8990
 2481SOL    HW218906   1.387   3.555   4.214 -0.3237 -3.7701  1.2988
 2482SOL     OW18907   2.984   3.532   5.050 -0.1210  0.1745  0.1239
 2482SOL    HW118908   2.946   3.490   5.127  0.4350  0.6026  0.6392
 2482SOL    HW218909   3.070   3.491   5.040 -0.6400 -0.9727  0.3765
 2483SOL     OW18910   1.460   3.474   3.709  0.3863 -0.2665 -0.6124
 2483SOL    HW118911   1.416   3.524   3.777  1.3025  0.9368 -0.8909
 2483SOL    HW218912   1.411   3.393   3.718 -1.7090  1.0159 -0.5091
 2484SOL     OW18913   4.438   3.655   9.324  0.0223  0.0698  0.9931
 2484SOL    HW118914   4.516   3.710   9.335 -0.9326  1.7943 -0.9945
 2484SOL    HW218915   4.373   3.714   9.286 -0.1391 -0.0063  1.1529
 2485SOL     OW18916   2.879   0.066  10.130  0.1333  0.2660 -0.0128
 2485SOL    HW118917   2.890   0.144  10.074  0.3312 -0.7231 -1.3590
 2485SOL    HW218918   2.789   0.086  10.155  0.3013  1.0083  0.0114
 2486SOL     OW18919   3.649   1.343   4.958  0.5492  0.1853  0.1604
 2486SOL    HW118920   3.715   1.284   4.922  2.1443  3.3429 -2.0296
 2486SOL    HW218921   3.706   1.410   4.995  0.5853  1.3333 -1.9904
 2487SOL     OW18922   1.734   4.669   7.929  0.0929  0.3123 -0.6406
 2487SOL    HW118923   1.708   0.016   7.870  0.9980  1.3841  0.2354
 2487SOL    HW218924   1.771   4.716   8.004  1.8796 -1.0139 -0.6744
 2488SOL     OW18925   3.269   1.152   4.611 -0.2509  0.7473 -0.1801
 2488SOL    HW118926   3.362   1.173   4.607 -0.0609 -0.5621 -2.2472
 2488SOL    HW218927   3.264   1.074   4.556 -0.6932  0.7010 -0.0770
 2489SOL     OW18928   0.395   0.458  14.473 -0.2387  0.6186  0.1563
 2489SOL    HW118929   0.391   0.460  14.378 -3.9557 -1.5638  0.2528
 2489SOL    HW218930   0.318   0.406  14.496  1.2758 -1.7487 -0.1214
 2490SOL     OW18931   4.358   1.026   6.868  0.3820  0.0415 -0.5795
 2490SOL    HW118932   4.367   1.026   6.773  1.7153 -0.2051 -0.4524
 2490SOL    HW218933   4.450   1.008   6.887  0.3090  1.6544  1.2910
 2491SOL     OW18934   2.916   3.540   2.125 -0.2218  0.3676  0.0852
 2491SOL    HW118935   2.870   3.485   2.061  0.6236 -2.9219  2.2886
 2491SOL    HW218936   2.938   3.617   2.073 -0.7752 -0.0829 -0.8221
 2492SOL     OW18937   4.075   0.911   5.914 -0.2103 -0.6691 -0.2292
 2492SOL    HW118938   4.116   0.986   5.957 -0.1352 -0.4269 -0.7178
 2492SOL    HW218939   4.043   0.859   5.988 -2.6921 -0.5850 -1.2571
 2493SOL     OW18940   0.765   0.308   0.245  0.1913 -0.8302  1.1991
 2493SOL    HW118941   0.720   0.317   0.161  1.4255 -0.4364  0.5810
 2493SOL    HW218942   0.697   0.269   0.301 -2.1791  0.0106 -1.0993
 2494SOL     OW18943   0.382   1.561   5.004 -0.4035 -0.0170  0.3259
 2494SOL    HW118944   0.391   1.632   5.067 -0.7255  0.6952 -0.4262
 2494SOL    HW218945   0.287   1.550   5.005 -0.2279 -1.4007  2.1272
 2495SOL     OW18946   0.026   4.362   2.640  0.2110  0.1378  0.1468
 2495SOL    HW118947   4.657   4.382   2.627 -0.1074 -0.0738  2.0917
 2495SOL    HW218948   0.044   4.385   2.731  0.1748  1.6592 -0.2333
 2496SOL     OW18949   2.912   4.668  15.860 -0.4688 -0.1104  0.5079
 2496SOL    HW118950   2.823   4.633  15.870 -0.8889  0.4447 -1.3244
 2496SOL    HW218951   2.939   4.632  15.776 -1.6865  0.7505 -0.2690
 2497SOL     OW18952   3.968   0.575   0.199 -0.0619 -0.0320 -0.4710
 2497SOL    HW118953   3.936   0.656   0.240 -1.9239 -0.5604 -0.9155
 2497SOL    HW218954   3.989   0.521   0.274  2.2437  1.1420 -0.2595
 2498SOL     OW18955   1.814   1.578   6.498  0.1531  0.1626 -0.4197
 2498SOL    HW118956   1.842   1.584   6.407 -0.9805  0.2858 -0.7587
 2498SOL    HW218957   1.788   1.667   6.522 -0.0332  0.1203 -0.4631
 2499SOL     OW18958   2.343   3.147   8.341 -0.5842 -0.0734 -0.2997
 2499SOL    HW118959   2.382   3.121   8.424  0.0404 -2.1202 -1.2335
 2499SOL    HW218960   2.318   3.237   8.360  1.4339 -0.3833  3.7264
 2500SOL     OW18961   2.889   3.831  14.995 -1.0128 -0.1358 -0.4080
 2500SOL    HW118962   2.981   3.806  14.989 -0.9733 -0.2126  0.4759
 2500SOL    HW218963   2.850   3.744  14.992 -0.4648 -0.4731  2.3098
 2501SOL     OW18964   1.780   1.875   4.192 -0.3299 -0.4672 -0.2727
 2501SOL    HW118965   1.735   1.794   4.167 -1.3391 -0.1264  0.4493
 2501SOL    HW218966   1.712   1.923   4.239  0.3043 -1.1891  1.4130
 2502SOL     OW18967   4.249   2.116  11.878  0.2075  0.0524  0.3154
 2502SOL    HW118968   4.337   2.154  11.880  0.0448  0.3144  3.2815
 2502SOL    HW218969   4.197   2.180  11.830  0.5005  0.1906  0.1820
 2503SOL     OW18970   3.860   3.998  13.174 -0.1151 -0.3287  0.0198
 2503SOL    HW118971   3.804   4.017  13.249 -1.0089  0.7611 -0.9216
 2503SOL    HW218972   3.930   4.060  13.192  0.6687 -0.8455 -1.1951
 2504SOL     OW18973   3.198   4.577   8.365 -0.2335 -0.6504 -0.0339
 2504SOL    HW118974   3.155   4.663   8.372  1.0425  0.0043 -0.1785
 2504SOL    HW218975   3.152   4.529   8.434 -2.3122 -0.4773 -1.2972
 2505SOL     OW18976   0.493   1.243   8.427 -0.2230 -0.1117  0.5059
 2505SOL    HW118977   0.399   1.241   8.409 -0.3214  2.0351  0.8429
 2505SOL    HW218978   0.487   1.301   8.503  0.2224  0.2305  0.2765
 2506SOL     OW18979   2.516   4.134   0.691  0.2451 -0.0568  0.0799
 2506SOL    HW118980   2.605   4.130   0.657  0.5781  0.9556  0.8068
 2506SOL    HW218981   2.521   4.204   0.756 -1.8238  0.3076 -0.1516
 2507SOL     OW18982   2.041   2.054   8.733  0.0238  0.3647  0.1789
 2507SOL    HW118983   1.959   2.101   8.722 -0.8138 -0.8359  1.2717
 2507SOL    HW218984   2.036   2.010   8.818  1.0801  1.3415  0.7487
 2508SOL     OW18985   0.254   2.869  11.483 -0.2589 -0.7430 -1.1573
 2508SOL    HW118986   0.214   2.956  11.488 -3.9537 -2.5672  1.0530
 2508SOL    HW218987   0.318   2.872  11.553  0.4532  2.1257 -1.9268
 2509SOL     OW18988   3.395   4.076   8.676 -0.1721  0.4519  0.1324
 2509SOL    HW118989   3.425   4.049   8.763  0.1122  0.0884 -0.0767
 2509SOL    HW218990   3.301   4.069   8.689 -0.1353 -0.4632 -0.0914
 2510SOL     OW18991   4.346   1.720   5.731  0.0800 -0.0610 -0.8711
 2510SOL    HW118992   4.409   1.719   5.802  0.1032  0.8228 -0.8720
 2510SOL    HW218993   4.317   1.811   5.736 -0.6478 -0.2290 -1.9669
 2511SOL     OW18994   2.952   1.009  11.758  0.0617 -0.4648  0.5266
 2511SOL    HW118995   2.936   0.993  11.851 -1.0698  0.5001  0.5009
 2511SOL    HW218996   2.883   0.962  11.712  0.2083 -3.0986  2.9741
 2512SOL     OW18997   1.512   1.593   7.253  0.2452  0.4085  0.3071
 2512SOL    HW118998   1.591   1.550   7.222 -0.9351  1.1588 -3.6604
 2512SOL    HW218999   1.461   1.590   7.172  0.0436  0.4846  0.4289
 2513SOL     OW19000   0.345   3.856   4.395  0.1353  0.0582 -0.3551
 2513SOL    HW119001   0.424   3.842   4.447 -1.9144 -4.2520  1.5626
 2513SOL    HW219002   0.273   3.862   4.457  0.3870 -2.6848  0.2166
 2514SOL     OW19003   2.968   3.832   5.181 -0.0565  0.3010 -0.4170
 2514SOL    HW119004   2.996   3.914   5.221 -3.2221  1.3202 -0.3095
 2514SOL    HW219005   2.987   3.765   5.247 -1.5004  1.7726  1.4557
 2515SOL     OW19006   0.019   0.049   0.600  0.4548 -0.3104  0.8645
 2515SOL    HW119007   0.100   0.013   0.636  0.5496  0.6843  1.6349
 2515SOL    HW219008   4.698   4.688   0.593  0.3805 -0.1049 -1.1119
 2516SOL     OW19009   1.731   2.848   7.548  0.0993 -0.5558 -0.5035
 2516SOL    HW119010   1.703   2.854   7.457  1.1909  2.9239 -0.6088
 2516SOL    HW219011   1.713   2.755   7.562 -1.9773 -0.4541 -2.4449
 2517SOL     OW19012   4.159   2.613   6.592  0.3450 -0.4382  0.5162
 2517SOL    HW119013   4.130   2.588   6.680 -0.8166  0.8455  0.5066
 2517SOL    HW219014   4.184   2.525   6.566 -0.0344  0.3510 -2.4601
 2518SOL     OW19015   0.580   2.859  10.322  0.2565  0.2495  0.4235
 2518SOL    HW119016   0.527   2.780  10.329 -0.3967  0.5124 -1.3507
 2518SOL    HW219017   0.594   2.846  10.228  1.5145 -3.1781  1.0896
 2519SOL     OW19018   1.552   0.049   1.501 -0.3150  0.0543  0.5424
 2519SOL    HW119019   1.643   0.076   1.511  0.5153 -2.6348  0.1918
 2519SOL    HW219020   1.502   0.127   1.524 -0.6488  0.3580 -1.1910
 2520SOL     OW19021   4.086   0.054   7.051  0.1621 -0.4768  0.0480
 2520SOL    HW119022   4.045   4.691   7.050 -0.1504 -0.3238 -0.3331
 2520SOL    HW219023   4.118   0.056   6.961 -0.0743  0.1251 -0.0196
 2521SOL     OW19024   0.669   2.256  14.181 -0.7494 -0.0668 -0.4761
 2521SOL    HW119025   0.738   2.234  14.244 -1.1359  2.9589  0.9952
 2521SOL    HW219026   0.655   2.349  14.194 -0.3221 -0.1275  0.4089
 2522SOL     OW19027   3.083   0.377   5.944 -0.0499 -0.2146 -0.2065
 2522SOL    HW119028   2.993   0.370   5.977  0.0693  0.9285  0.3689
 2522SOL    HW219029   3.069   0.456   5.892  2.1925 -1.1025 -2.1277
 2523SOL     OW19030   3.166   1.651   4.436  0.3960  0.2257  0.2616
 2523SOL    HW119031   3.080   1.609   4.439 -0.9610  2.8284 -2.2108
 2523SOL    HW219032   3.145   1.744   4.445 -1.3365  0.1494 -3.0863
 2524SOL     OW19033   0.309   0.493   2.296  0.2849  0.2214 -0.2191
 2524SOL    HW119034   0.250   0.438   2.245  1.2067 -1.0303  0.0790
 2524SOL    HW219035   0.247   0.562   2.318  0.3544  0.5380 -1.0241
 2525SOL     OW19036   4.018   2.730   2.986  0.0611  0.6081 -0.4161
 2525SOL    HW119037   3.923   2.719   2.982  0.4308 -2.6546 -0.7502
 2525SOL    HW219038   4.033   2.707   2.894 -0.5947  0.6758 -0.5368
 2526SOL     OW19039   1.865   2.867   2.140  0.4238  0.4454 -0.1032
 2526SOL    HW119040   1.930   2.937   2.138 -0.2229  1.0825  1.4249
 2526SOL    HW219041   1.850   2.852   2.234  1.4809  1.2254  0.1878
 2527SOL     OW19042   1.593   2.640   5.752 -0.4621  0.1455 -0.4670
 2527SOL    HW119043   1.623   2.550   5.740  1.2290  0.4500  1.5325
 2527SOL    HW219044   1.662   2.684   5.702  0.0071 -0.3972 -0.2940
 2528SOL     OW19045   0.298   0.291   6.004  0.4919 -0.7362  0.4066
 2528SOL    HW119046   0.273   0.324   6.091 -1.3615 -2.9586  0.7166
 2528SOL    HW219047   0.345   0.369   5.973 -0.1505 -0.3313  0.4441
 2529SOL     OW19048   2.768   2.576  12.808 -0.3639  0.0291  0.3307
 2529SOL    HW119049   2.704   2.548  12.742  0.5861 -0.9077 -0.1993
 2529SOL    HW219050   2.845   2.553  12.755  0.0239  1.6082  0.2180
 2530SOL     OW19051   1.115   3.412   9.349  0.1317  0.0620  0.3622
 2530SOL    HW119052   1.100   3.465   9.428  0.5169  0.7661 -0.0422
 2530SOL    HW219053   1.113   3.322   9.383  0.4316 -1.2781 -3.1922
 2531SOL     OW19054   3.926   1.302   4.215 -0.1111  0.3594 -0.3758
 2531SOL    HW119055   3.867   1.323   4.142 -2.4296  0.0532  1.4009
 2531SOL    HW219056   3.951   1.212   4.194 -2.8683  0.0690 -2.4531
 2532SOL     OW19057   0.389   4.141  12.264  0.7725 -0.2497  0.3176
 2532SOL    HW119058   0.364   4.224  12.224 -2.0601 -0.8969  0.7623
 2532SOL    HW219059   0.481   4.147  12.236  0.2412  1.4253 -1.0506
 2533SOL     OW19060   3.987   3.702   8.045 -0.0965 -0.0017  0.8150
 2533SOL    HW119061   3.917   3.765   8.029 -0.0086 -0.7634 -2.5671
 2533SOL    HW219062   3.968   3.677   8.135  0.3735  0.5271  1.0639
 2534SOL     OW19063   3.955   2.698   3.811  0.3098 -0.3735 -0.4238
 2534SOL    HW119064   3.927   2.688   3.902 -2.6690 -0.8228 -1.4080
 2534SOL    HW219065   4.029   2.637   3.810  0.1080 -0.6287  0.9453
 2535SOL     OW19066   0.065   0.226   2.362  1.1083  0.3787 -0.2198
 2535SOL    HW119067   0.106   0.276   2.433 -1.0717  1.6434  0.1457
 2535SOL    HW219068   0.107   0.268   2.287 -0.9131 -0.2193 -1.7061
 2536SOL     OW19069   2.592   4.134   6.203  0.6168 -0.4090 -0.9455
 2536SOL    HW119070   2.525   4.068   6.224  0.2868 -0.8240 -3.3560
 2536SOL    HW219071   2.631   4.153   6.288  0.8425 -0.2383 -1.0892
 2537SOL     OW19072   1.911   2.876  10.551 -0.0359  0.3090  0.6556
 2537SOL    HW119073   1.848   2.804  10.551  1.9099 -1.3605 -0.8329
 2537SOL    HW219074   1.887   2.924  10.631  1.1862  1.2590  0.4542
 2538SOL     OW19075   3.931   1.038  13.552 -0.0879  0.1691  0.1238
 2538SOL    HW119076   3.902   1.122  13.518 -1.2211  0.4869  1.8768
 2538SOL    HW219077   3.901   1.055  13.642 -0.3786 -3.0382  0.6328
 2539SOL     OW19078   2.301   1.083   7.277 -0.0152 -0.4685 -0.0167
 2539SOL    HW119079   2.337   1.135   7.205 -1.5643 -0.1636 -0.5708
 2539SOL    HW219080   2.289   1.155   7.338  0.3107 -0.6646  0.2813
 2540SOL     OW19081   4.710   1.019   4.442  0.5423  0.0557  0.1471
 2540SOL    HW119082   4.688   1.012   4.350 -0.4242 -4.8728  0.7571
 2540SOL    HW219083   0.017   1.110   4.446 -1.4412  0.6101  2.3874
 2541SOL     OW19084   3.268   0.916   9.973 -0.3150  0.0178  0.1563
 2541SOL    HW119085   3.238   0.838  10.019 -0.2114 -0.7693 -1.0960
 2541SOL    HW219086   3.329   0.955  10.035 -1.8150  0.1266  1.5332
 2542SOL     OW19087   0.421   2.880   2.660  0.2413 -0.7193 -0.5072
 2542SOL    HW119088   0.421   2.857   2.567 -0.2990  1.2911 -0.9966
 2542SOL    HW219089   0.374   2.805   2.697 -0.2928 -0.1589 -0.0566
 2543SOL     OW19090   3.249   0.461   4.848  0.2497  0.1801 -0.0785
 2543SOL    HW119091   3.232   0.371   4.820 -0.5718  0.7515 -1.3555
 2543SOL    HW219092   3.343   0.464   4.828  0.0008 -0.7294 -1.3848
 2544SOL     OW19093   1.838   0.205   0.790  0.5709  0.6000 -0.1167
 2544SOL    HW119094   1.808   0.258   0.863  2.8055 -0.1095  1.3026
 2544SOL    HW219095   1.755   0.215   0.743 -0.4215  0.5339  1.6210
 2545SOL     OW19096   1.227   3.622   3.326  0.1864  0.1250  0.4145
 2545SOL    HW119097   1.280   3.697   3.351  0.7943 -0.5713  1.2160
 2545SOL    HW219098   1.296   3.566   3.290  0.5562  1.1619 -0.5025
 2546SOL     OW19099   4.313   3.689   4.877 -0.0228 -1.0523 -0.2671
 2546SOL    HW119100   4.255   3.764   4.868 -0.3968 -1.4063 -0.8074
 2546SOL    HW219101   4.259   3.613   4.853  2.2849 -2.0411 -2.2231
 2547SOL     OW19102   1.806   1.086   4.675 -0.9694 -0.1318 -0.4542
 2547SOL    HW119103   1.759   1.016   4.719 -3.0836  1.6565  0.1286
 2547SOL    HW219104   1.823   1.151   4.743 -0.5766  0.1011 -0.7732
 2548SOL     OW19105   4.176   2.550   8.823 -0.4612  0.8492 -0.1177
 2548SOL    HW119106   4.104   2.594   8.868  0.2746  1.2800  0.6537
 2548SOL    HW219107   4.215   2.626   8.779  1.9182 -0.0157  0.4598
 2549SOL     OW19108   2.520   1.504  13.080  0.2161 -0.3341 -0.3422
 2549SOL    HW119109   2.558   1.533  13.164 -0.1412 -1.0113  0.0555
 2549SOL    HW219110   2.435   1.548  13.086  0.8579  0.7610  0.9001
 2550SOL     OW19111   2.093   4.400  13.325  0.1472  0.2302  0.7947
 2550SOL    HW119112   2.089   4.454  13.404  0.3863  1.1346  0.1918
 2550SOL    HW219113   2.175   4.351  13.328  0.7738  1.0866 -1.9183
 2551SOL     OW19114   1.360   4.312  10.904  0.5296 -0.1741 -0.0902
 2551SOL    HW119115   1.355   4.392  10.955 -0.8337 -0.2287 -0.1297
 2551SOL    HW219116   1.447   4.276  10.922  0.4766  0.5490  1.5830
 2552SOL     OW19117   0.254   0.849   2.521 -0.3976  0.1427 -0.5058
 2552SOL    HW119118   0.322   0.876   2.460  1.1469 -0.5593  0.9176
 2552SOL    HW219119   0.191   0.820   2.455  0.0530  0.0217 -0.8804
 2553SOL     OW19120   2.561   4.672   3.001  0.3404  0.1267 -0.1975
 2553SOL    HW119121   2.592   0.035   2.975  1.0614 -0.2305 -0.5166
 2553SOL    HW219122   2.643   4.623   2.993 -1.1208 -2.2156 -0.6492
 2554SOL     OW19123   4.643   4.427  11.427  0.4969 -0.3857 -0.1301
 2554SOL    HW119124   4.649   4.339  11.388  0.0907 -0.1906 -0.6381
 2554SOL    HW219125   0.013   4.446  11.428  0.5245 -0.5182 -0.1027
 2555SOL     OW19126   0.877   2.666   2.174  0.0696 -0.6987 -0.6071
 2555SOL    HW119127   0.964   2.705   2.166  0.1551 -0.3507  1.8638
 2555SOL    HW219128   0.896   2.640   2.264 -2.8869  0.2365  0.3080
 2556SOL     OW19129   0.270   0.010   1.391 -0.2831 -0.0305 -0.8113
 2556SOL    HW119130   0.352   0.039   1.350  0.6058 -0.4738  0.6516
 2556SOL    HW219131   0.261   4.647   1.353  0.8126 -0.2720 -0.5240
 2557SOL     OW19132   2.989   2.004  13.397 -0.1241  0.5961  0.1052
 2557SOL    HW119133   3.005   2.089  13.438 -1.3724  0.0037  1.8015
 2557SOL    HW219134   2.902   2.014  13.359 -0.4395  2.2377  1.2353
 2558SOL     OW19135   0.604   3.897   4.558  0.0762 -0.1425 -0.0683
 2558SOL    HW119136   0.687   3.857   4.584  0.0076 -0.3330 -0.1468
 2558SOL    HW219137   0.535   3.868   4.617  0.5131  0.7782  0.9026
 2559SOL     OW19138   3.908   0.487  10.483 -0.6496  0.0543 -0.5065
 2559SOL    HW119139   3.949   0.427  10.421  1.2939  0.7389  0.1145
 2559SOL    HW219140   3.817   0.457  10.473 -0.6615 -0.7560  2.0088
 2560SOL     OW19141   4.195   3.929   8.233  0.2906  0.4020  0.2724
 2560SOL    HW119142   4.165   3.841   8.255  0.8449  0.6598  2.0234
 2560SOL    HW219143   4.264   3.904   8.171 -0.2458 -0.2149 -0.0652
 2561SOL     OW19144   0.027   2.401  11.795  0.5073  0.1010 -0.0021
 2561SOL    HW119145   0.050   2.425  11.885 -1.0807 -0.8889  0.6836
 2561SOL    HW219146   0.070   2.473  11.750  2.2113 -0.0413  1.4042
 2562SOL     OW19147   2.972   2.020   3.414 -0.1429 -0.5646  0.4689
 2562SOL    HW119148   3.030   2.009   3.338  0.0991  1.2339  0.3894
 2562SOL    HW219149   3.011   2.090   3.466  0.1787  1.9729 -3.1506
 2563SOL     OW19150   2.255   1.388   0.008 -0.6506  0.1941 -0.1235
 2563SOL    HW119151   2.304   1.333  17.643 -0.5257 -1.3672  1.3824
 2563SOL    HW219152   2.309   1.371   0.085 -2.3166 -1.0925  0.7606
 2564SOL     OW19153   1.384   0.546   6.011 -0.6361  0.3021  0.2994
 2564SOL    HW119154   1.421   0.568   5.925 -0.0148 -1.9101  0.0159
 2564SOL    HW219155   1.456   0.554   6.073 -1.5715  1.2053  1.2670
 2565SOL     OW19156   4.639   2.564   6.070 -0.0909 -0.1047  0.6199
 2565SOL    HW119157   4.699   2.551   6.143  1.9716 -0.9695 -1.2481
 2565SOL    HW219158   4.691   2.519   6.004  0.7180  1.2848  0.3161
 2566SOL     OW19159   0.257   1.716  14.073 -0.0792  0.0362 -0.2985
 2566SOL    HW119160   0.248   1.662  13.995  1.6769 -1.9442  0.8515
 2566SOL    HW219161   0.186   1.780  14.062 -1.3348 -1.1617  0.8000
 2567SOL     OW19162   1.003   1.434   3.438 -0.1669 -0.2109  0.3608
 2567SOL    HW119163   0.946   1.504   3.471 -0.9125 -1.3094  1.4269
 2567SOL    HW219164   1.092   1.454   3.468 -0.4659  1.2456  0.2757
 2568SOL     OW19165   2.959   2.872   5.370 -0.2992 -0.4348 -0.3142
 2568SOL    HW119166   2.905   2.823   5.434  0.3771  0.8838  1.2669
 2568SOL    HW219167   2.893   2.933   5.337  1.3682  1.4902 -0.0194
 2569SOL     OW19168   1.763   2.700  16.068 -0.1651 -0.2470  0.2943
 2569SOL    HW119169   1.811   2.625  16.105 -0.4933 -0.6895 -0.1762
 2569SOL    HW219170   1.765   2.689  15.973  1.9660 -0.8109  0.4094
 2570SOL     OW19171   0.608   3.363  16.361  0.2215  0.1877 -0.5804
 2570SOL    HW119172   0.589   3.300  16.291  1.0558  1.1499 -1.6596
 2570SOL    HW219173   0.643   3.438  16.314  5.2908 -2.4802 -1.0827
 2571SOL     OW19174   3.703   3.865   7.533  0.0800  0.3611 -0.2299
 2571SOL    HW119175   3.690   3.959   7.521 -1.5442  0.3850  1.6923
 2571SOL    HW219176   3.613   3.834   7.537 -0.0478  0.2600 -3.8162
 2572SOL     OW19177   3.618   3.222   1.365 -0.2181 -0.0729 -0.2219
 2572SOL    HW119178   3.546   3.163   1.385 -0.2390 -0.7906 -2.3558
 2572SOL    HW219179   3.677   3.204   1.439  0.7781 -1.5031 -1.3481
 2573SOL     OW19180   2.440   1.646   5.272 -0.1319  0.4631 -0.7498
 2573SOL    HW119181   2.408   1.702   5.201 -2.1053  0.1098 -0.1147
 2573SOL    HW219182   2.533   1.666   5.261  0.2303 -0.4665  0.6194
 2574SOL     OW19183   2.533   1.212  10.900 -0.1146  0.4726 -0.8220
 2574SOL    HW119184   2.597   1.148  10.870  1.0022  0.8862  0.6856
 2574SOL    HW219185   2.565   1.286  10.848  0.8643 -0.6281 -1.7959
 2575SOL     OW19186   3.886   1.536   6.571 -0.1526  0.0237 -0.3127
 2575SOL    HW119187   3.828   1.572   6.638  0.0573  0.7660 -0.5280
 2575SOL    HW219188   3.881   1.598   6.499  2.5956  0.6610  0.0421
 2576SOL     OW19189   0.100   1.234   2.276 -0.2406  0.1172  0.2801
 2576SOL    HW119190   0.121   1.240   2.183 -0.0566 -0.3515  0.2935
 2576SOL    HW219191   0.004   1.229   2.274 -0.2541  1.3127 -2.1507
 2577SOL     OW19192   0.729   1.716   1.197 -0.7672 -0.3569  0.3165
 2577SOL    HW119193   0.712   1.781   1.266  2.7314 -0.1231  0.9321
 2577SOL    HW219194   0.648   1.733   1.148 -1.9971 -1.2637  2.0274
 2578SOL     OW19195   3.408   1.244   6.107 -0.0400  0.1156  0.1429
 2578SOL    HW119196   3.327   1.194   6.116  0.4588 -1.1314 -2.2186
 2578SOL    HW219197   3.419   1.254   6.013  0.8302 -0.5714  0.1735
 2579SOL     OW19198   0.339   0.568   0.515  0.8364  0.0205  0.1506
 2579SOL    HW119199   0.297   0.514   0.448 -1.9211 -0.9851  2.7149
 2579SOL    HW219200   0.372   0.496   0.568 -0.5818 -0.2289  0.6956
 2580SOL     OW19201   3.978   1.087  15.365 -0.2367 -0.7190 -0.0637
 2580SOL    HW119202   3.946   1.088  15.456  1.2901  0.8501  0.4438
 2580SOL    HW219203   4.071   1.075  15.386 -0.2906 -0.2640  0.4370
 2581SOL     OW19204   0.429   2.557  10.638 -0.1281  0.0754  0.0128
 2581SOL    HW119205   0.462   2.611  10.710  2.5193 -2.1965  0.5244
 2581SOL    HW219206   0.421   2.470  10.677 -1.3354 -0.0527 -0.5394
 2582SOL     OW19207   3.699   1.999   3.487 -0.2370 -0.5003 -0.2958
 2582SOL    HW119208   3.671   2.089   3.470 -0.0866 -0.4334 -0.1919
 2582SOL    HW219209   3.786   2.010   3.525 -0.0877  0.8572 -1.0180
 2583SOL     OW19210   4.320   0.553   9.874  0.0053 -0.0111 -0.2065
 2583SOL    HW119211   4.344   0.463   9.894  0.1575  0.1767  0.4804
 2583SOL    HW219212   4.390   0.591   9.928  0.5486 -0.4646 -0.5835
 2584SOL     OW19213   1.954   1.661   5.057 -0.2586 -0.6468 -0.3424
 2584SOL    HW119214   2.011   1.699   5.123  1.7529  0.0109 -2.4466
 2584SOL    HW219215   1.941   1.575   5.095  1.6997 -1.4176 -1.4250
 2585SOL     OW19216   0.242   4.362   4.078  0.5165 -0.0657  0.8476
 2585SOL    HW119217   0.300   4.370   4.154 -3.3488  2.9052  3.4617
 2585SOL    HW219218   0.177   4.303   4.116 -1.4491  0.2675 -1.9759
 2586SOL     OW19219   1.128   1.331   2.428 -0.8407 -0.1602 -0.0060
 2586SOL    HW119220   1.114   1.414   2.383 -2.9966 -1.1466 -1.1670
 2586SOL    HW219221   1.162   1.285   2.351  3.6384  1.7746  0.7888
 2587SOL     OW19222   4.717   3.017   6.922 -0.6706  0.1979  0.4418
 2587SOL    HW119223   0.024   3.039   6.834 -0.6356 -0.5145  0.2777
 2587SOL    HW219224   4.624   3.015   6.901 -0.3688 -0.2390 -0.8585
 2588SOL     OW19225   0.503   0.683   4.066  0.0641 -0.7546  0.3133
 2588SOL    HW119226   0.580   0.666   4.120 -0.4538  0.8637  1.5494
 2588SOL    HW219227   0.521   0.621   3.995  0.7516 -1.0067  0.7019
 2589SOL     OW19228   2.121   1.379   8.480  0.7715  0.2630 -0.3138
 2589SOL    HW119229   2.072   1.298   8.469 -0.7023  0.9735  1.1948
 2589SOL    HW219230   2.122   1.427   8.397  0.9196 -1.3869 -1.2527
 2590SOL     OW19231   1.174   1.617   1.138  0.3213  0.6072  0.0753
 2590SOL    HW119232   1.254   1.645   1.182  1.7593 -0.7571 -1.6859
 2590SOL    HW219233   1.208   1.550   1.080  0.9001  2.8763 -2.1892
 2591SOL     OW19234   3.865   4.170  16.983  0.3678 -0.2190 -0.1893
 2591SOL    HW119235   3.821   4.087  16.965  2.6421 -1.8182  1.6483
 2591SOL    HW219236   3.911   4.152  17.065  0.6193 -0.5597 -0.4072
 2592SOL     OW19237   2.904   0.265  14.651  0.0024  0.1517 -0.4601
 2592SOL    HW119238   2.871   0.340  14.702 -1.2363  0.9186 -2.4014
 2592SOL    HW219239   2.847   0.199  14.689  1.1698 -0.9629 -0.6295
 2593SOL     OW19240   0.225   0.703  14.961  0.3472 -0.5030 -0.4208
 2593SOL    HW119241   0.178   0.647  15.023  0.7792  1.0713  1.3222
 2593SOL    HW219242   0.277   0.762  15.015  2.0502 -1.6610 -0.7915
 2594SOL     OW19243   0.715   2.739   5.937  0.2453 -0.5674 -0.3534
 2594SOL    HW119244   0.751   2.775   6.018 -1.1532 -1.3027  0.6031
 2594SOL    HW219245   0.626   2.768   5.959  0.4671  0.0388 -0.2628
 2595SOL     OW19246   1.706   4.709   2.264 -0.2250 -0.1721 -0.0542
 2595SOL    HW119247   1.716   0.079   2.283 -0.9652  0.0943 -0.9498
 2595SOL    HW219248   1.716   4.712   2.168  0.5283 -0.9869  0.0039
 2596SOL     OW19249   4.430   2.082   0.839  0.1415 -0.4498 -0.2343
 2596SOL    HW119250   4.396   2.028   0.768 -1.9759  4.0065 -2.6210
 2596SOL    HW219251   4.356   2.135   0.870 -0.7627 -1.1878 -1.1354
 2597SOL     OW19252   0.461   3.865  14.210 -0.1357 -0.2880  0.4496
 2597SOL    HW119253   0.376   3.821  14.208  0.4388 -1.2764 -2.3716
 2597SOL    HW219254   0.439   3.954  14.237  2.3633 -0.0264  1.5493
 2598SOL     OW19255   4.123   1.474   4.314 -0.0453  0.3668  0.0911
 2598SOL    HW119256   4.075   1.554   4.335  2.8998  2.6908 -2.0220
 2598SOL    HW219257   4.050   1.415   4.298  1.1115 -0.2145 -2.9338
 2599SOL     OW19258   3.879   3.750   4.407  0.3304  0.0492  0.2302
 2599SOL    HW119259   3.896   3.728   4.499  3.6458  1.9305  0.0883
 2599SOL    HW219260   3.957   3.729   4.356  0.2165 -1.2908  0.6144
 2600SOL     OW19261   4.428   4.566   3.395  0.2973 -0.3269 -0.2997
 2600SOL    HW119262   4.383   4.631   3.341 -2.8709 -1.1329  1.3530
 2600SOL    HW219263   4.425   4.605   3.483 -0.2956 -1.3422  0.1323
 2601SOL     OW19264   1.552   3.033   2.036 -0.0393  0.4333  1.1397
 2601SOL    HW119265   1.604   3.069   1.963 -1.1103  2.2769  1.2742
 2601SOL    HW219266   1.525   2.949   1.998 -0.9308  1.2028  0.0773
 2602SOL     OW19267   0.326   4.264   8.051 -0.3198  0.0354  0.3999
 2602SOL    HW119268   0.408   4.275   8.100 -0.4775  0.5013  0.5590
 2602SOL    HW219269   0.322   4.169   8.045 -0.6131  0.0871 -0.2762
 2603SOL     OW19270   2.060   4.718   9.188 -0.1303 -0.5632 -0.2055
 2603SOL    HW119271   2.049   0.049   9.266 -0.4144 -1.7511  0.5955
 2603SOL    HW219272   1.968   4.700   9.172 -0.1489 -1.0422  0.4022
 2604SOL     OW19273   4.629   4.158   9.433  0.0483 -0.1647  0.0420
 2604SOL    HW119274   4.717   4.119   9.434 -0.2847 -0.9719 -1.2735
 2604SOL    HW219275   4.646   4.236   9.486 -1.9912 -0.5182  1.1951
 2605SOL     OW19276   2.785   3.100  14.130  0.4023 -0.0673  0.1755
 2605SOL    HW119277   2.744   3.025  14.174  1.9021 -2.4499 -2.5845
 2605SOL    HW219278   2.750   3.169  14.187 -1.0212 -0.5356 -0.1329
 2606SOL     OW19279   2.506   0.561   5.495  0.1618  0.2500 -0.2014
 2606SOL    HW119280   2.590   0.516   5.497  0.2123  0.2839 -1.5528
 2606SOL    HW219281   2.463   0.512   5.425 -3.3659 -2.7598  4.0616
 2607SOL     OW19282   0.431   1.326   7.096 -0.4181 -0.4668  0.0251
 2607SOL    HW119283   0.515   1.370   7.107 -0.7907  0.5567 -1.1644
 2607SOL    HW219284   0.390   1.336   7.181 -0.4170  1.1843 -0.1594
 2608SOL     OW19285   0.949   3.484   2.260  0.2023 -0.0565  0.0720
 2608SOL    HW119286   0.982   3.545   2.194  0.5936 -0.7384 -0.3697
 2608SOL    HW219287   0.994   3.517   2.339  1.3747 -1.9646  0.2053
 2609SOL     OW19288   2.072   1.318  15.090  0.0159  0.0012  0.6051
 2609SOL    HW119289   2.132   1.368  15.145  1.0896  1.9015 -2.2527
 2609SOL    HW219290   1.993   1.364  15.118  1.1671  1.9399  0.7452
 2610SOL     OW19291   0.180   0.439   6.993  0.2144  0.2149 -0.4948
 2610SOL    HW119292   0.216   0.380   6.927 -0.4795 -2.8565  1.8474
 2610SOL    HW219293   0.186   0.387   7.074  1.6777 -0.3810 -0.9891
 2611SOL     OW19294   2.852   4.170   8.661 -0.2670  0.0035 -0.2835
 2611SOL    HW119295   2.831   4.141   8.572  1.2053  0.4582 -0.7814
 2611SOL    HW219296   2.766   4.180   8.701 -0.1538 -0.0539 -0.0290
 2612SOL     OW19297   0.143   2.844  12.965  0.3234  0.2839 -0.8790
 2612SOL    HW119298   0.100   2.910  13.019  0.9509  0.7828 -0.9884
 2612SOL    HW219299   0.088   2.836  12.887 -1.2219  2.2923 -0.0024
 2613SOL     OW19300   3.189   3.535  10.032 -0.5767  0.2017  0.6509
 2613SOL    HW119301   3.268   3.487  10.008 -0.8676  0.4198 -0.7687
 2613SOL    HW219302   3.142   3.514   9.951 -0.1428 -0.4639  0.5710
 2614SOL     OW19303   0.595   1.241   0.236  0.1114  0.3733 -0.2728
 2614SOL    HW119304   0.565   1.163   0.285  1.3673 -0.7456 -1.2934
 2614SOL    HW219305   0.621   1.304   0.303  0.0441  0.1927 -0.0738
 2615SOL     OW19306   2.356   4.262   7.209 -0.7813 -0.1302 -0.1012
 2615SOL    HW119307   2.373   4.256   7.115  0.0676 -0.1457  0.0450
 2615SOL    HW219308   2.261   4.255   7.211 -0.8150  0.2171 -0.4915
 2616SOL     OW19309   0.974   3.232  12.647 -0.2955  0.0170 -0.1519
 2616SOL    HW119310   1.059   3.252  12.608 -0.2373 -1.4058 -0.7488
 2616SOL    HW219311   1.006   3.192  12.728 -2.1135 -0.8066  0.1587
 2617SOL     OW19312   0.038   3.799  16.099  0.5148 -0.3038 -0.0069
 2617SOL    HW119313   0.022   3.714  16.141  1.3465  0.2142  1.3472
 2617SOL    HW219314   4.699   3.855  16.143  1.1957 -0.4950  1.1980
 2618SOL     OW19315   0.693   2.895   5.224 -0.3242 -0.2825 -0.7282
 2618SOL    HW119316   0.613   2.916   5.175  0.7757 -0.1163 -2.4752
 2618SOL    HW219317   0.679   2.801   5.236  1.5990 -0.6458 -1.2299
 2619SOL     OW19318   0.705   1.941   3.887  0.1470 -0.3105 -0.0452
 2619SOL    HW119319   0.799   1.928   3.874  0.1988 -0.3814  0.3973
 2619SOL    HW219320   0.661   1.915   3.806  1.7240 -1.2933 -0.5933
 2620SOL     OW19321   0.110   4.697  17.313 -0.1387  0.0290  0.3491
 2620SOL    HW119322   0.204   4.699  17.331  0.3347 -0.2124 -2.0562
 2620SOL    HW219323   0.085   4.642  17.387 -1.9973  2.3179  1.4232
 2621SOL     OW19324   4.330   0.150   6.024 -0.6831  0.9518 -0.4903
 2621SOL    HW119325   4.343   0.060   6.053  0.0484  0.0478 -3.6495
 2621SOL    HW219326   4.377   0.204   6.088  0.0813 -0.6239  0.2972
 2622SOL     OW19327   1.325   3.872  13.801 -0.5252 -0.1779 -0.2490
 2622SOL    HW119328   1.259   3.858  13.870  0.1324 -2.3549 -0.0594
 2622SOL    HW219329   1.273   3.902  13.726 -0.6215  0.7025  0.1666
 2623SOL     OW19330   0.614   3.282   8.700 -0.0566 -1.1692 -0.2756
 2623SOL    HW119331   0.562   3.299   8.779 -1.0511  2.2104 -1.6592
 2623SOL    HW219332   0.582   3.353   8.645  1.4049  1.3006  2.0489
 2624SOL     OW19333   2.675   1.931   5.788 -0.3142  0.0656 -0.1028
 2624SOL    HW119334   2.591   1.912   5.746 -1.1455  1.5960  0.8884
 2624SOL    HW219335   2.744   1.892   5.733 -0.5960  0.4798 -0.7601
 2625SOL     OW19336   0.597   3.429   5.287  0.3019 -0.6055 -0.4301
 2625SOL    HW119337   0.677   3.382   5.265 -0.1791 -2.3823  1.6344
 2625SOL    HW219338   0.532   3.374   5.242  0.4675 -3.4550  2.7567
 2626SOL     OW19339   1.069   4.628  14.444  0.2687  0.3193 -0.4563
 2626SOL    HW119340   0.986   4.672  14.431 -0.0732 -0.5997 -1.3302
 2626SOL    HW219341   1.104   4.653  14.358  0.6820  0.3592 -0.2809
 2627SOL     OW19342   4.160   3.378   7.554  0.0782  0.4784  0.8497
 2627SOL    HW119343   4.231   3.414   7.501  0.1617 -0.5551  0.2695
 2627SOL    HW219344   4.153   3.285   7.534  0.6506  0.5279  0.4421
 2628SOL     OW19345   3.848   3.227   6.081 -0.1612  0.7479 -0.1471
 2628SOL    HW119346   3.759   3.261   6.073 -1.1744 -1.6544  1.0549
 2628SOL    HW219347   3.826   3.140   6.115 -2.7741  1.5699  0.2672
 2629SOL     OW19348   4.636   1.488   4.581 -0.1194  0.2908  0.3575
 2629SOL    HW119349   4.605   1.443   4.660  3.0954 -1.0754  0.8219
 2629SOL    HW219350   4.636   1.423   4.511  1.7307 -0.6885  1.2860
 2630SOL     OW19351   1.943   3.863   4.413  0.0626 -0.0282 -0.3046
 2630SOL    HW119352   1.988   3.815   4.344  2.5377  0.7103  0.8014
 2630SOL    HW219353   1.862   3.811   4.418 -1.2485  1.8528 -1.9368
 2631SOL     OW19354   1.416   0.624   5.169  0.4362 -0.9854  0.4456
 2631SOL    HW119355   1.415   0.547   5.227  0.5011 -1.8049 -0.6270
 2631SOL    HW219356   1.476   0.599   5.099  0.5681 -0.5390  0.4010
 2632SOL     OW19357   2.030   4.447   7.680 -0.0021  0.2949 -0.4748
 2632SOL    HW119358   1.960   4.466   7.743  1.0453  1.0452  0.4586
 2632SOL    HW219359   2.023   4.515   7.614  0.3866  1.0578  0.2731
 2633SOL     OW19360   3.756   0.385   2.079  0.6498  0.0353  0.0834
 2633SOL    HW119361   3.727   0.299   2.051 -0.2840  0.1095  0.8518
 2633SOL    HW219362   3.709   0.401   2.161 -0.3477 -2.5145 -0.0020
 2634SOL     OW19363   4.207   1.163   8.887  0.3017  0.1197  0.3004
 2634SOL    HW119364   4.277   1.229   8.893  0.5076  0.0109 -0.7830
 2634SOL    HW219365   4.247   1.078   8.871  1.5843  0.5728  1.0476
 2635SOL     OW19366   4.119   4.215   9.705  0.2797  0.4060  0.1620
 2635SOL    HW119367   4.076   4.264   9.775 -0.5952  1.6863 -1.2409
 2635SOL    HW219368   4.131   4.286   9.641  2.4490 -0.9259 -0.8833
 2636SOL     OW19369   0.058   2.865  10.483 -0.2535 -0.3807 -0.2266
 2636SOL    HW119370   0.101   2.881  10.399  1.0896  1.0946  0.7365
 2636SOL    HW219371   0.111   2.791  10.512 -0.0314 -0.0393  0.2345
 2637SOL     OW19372   4.705   0.446   4.261 -0.2018  0.0861 -0.4997
 2637SOL    HW119373   4.646   0.370   4.258 -0.0791 -0.0585  0.6909
 2637SOL    HW219374   0.048   0.425   4.195  2.3566  0.0078  2.1042
 2638SOL     OW19375   2.771   4.135   5.799  0.4362 -0.1450 -0.3683
 2638SOL    HW119376   2.679   4.147   5.776  0.3424 -0.9723 -0.4371
 2638SOL    HW219377   2.798   4.227   5.798  1.9310 -0.5882 -0.4373
 2639SOL     OW19378   1.917   3.791   9.449 -0.8103 -0.3687 -0.3284
 2639SOL    HW119379   1.964   3.807   9.368 -1.4461 -4.1010 -1.3948
 2639SOL    HW219380   1.929   3.699   9.472 -0.1491  0.4392  2.6068
 2640SOL     OW19381   4.072   0.659   1.292 -0.1873 -0.4462 -0.2311
 2640SOL    HW119382   4.018   0.697   1.361  1.0631 -0.0156  0.4991
 2640SOL    HW219383   4.148   0.625   1.339 -1.5441 -1.8400  0.9463
 2641SOL     OW19384   1.869   1.898  11.692  0.2360 -0.2802 -0.1559
 2641SOL    HW119385   1.844   1.880  11.602 -2.3873  0.6453  0.3837
 2641SOL    HW219386   1.964   1.899  11.698  0.2065  1.2140  0.0891
 2642SOL     OW19387   4.526   3.991  17.435 -0.1603 -0.5567  0.3612
 2642SOL    HW119388   4.590   3.976  17.365  0.8665  0.9324  0.9769
 2642SOL    HW219389   4.579   3.992  17.515 -0.8578  0.3680  0.8189
 2643SOL     OW19390   0.477   3.624   1.862  0.5166 -0.0894  0.6035
 2643SOL    HW119391   0.387   3.625   1.895 -0.4093 -1.6444 -1.8550
 2643SOL    HW219392   0.487   3.716   1.836  1.6026 -0.4009 -0.0927
 2644SOL     OW19393   2.980   0.308   5.632 -0.5344 -0.1814 -0.1919
 2644SOL    HW119394   2.926   0.333   5.707  0.8389  0.0485  0.7157
 2644SOL    HW219395   2.947   0.219   5.620 -3.5293  0.9880 -0.6625
 2645SOL     OW19396   3.464   3.949   7.733 -0.2162 -0.3432  0.6960
 2645SOL    HW119397   3.550   3.977   7.766 -0.7048  0.9503  0.8695
 2645SOL    HW219398   3.433   3.914   7.816 -1.1157 -2.2787 -0.4595
 2646SOL     OW19399   1.087   4.047  17.500  0.2135  0.2475 -0.2904
 2646SOL    HW119400   1.027   4.043  17.574 -1.1237  0.6006 -1.3540
 2646SOL    HW219401   1.058   3.980  17.439 -0.5602 -1.5154  2.0030
 2647SOL     OW19402   1.818   4.253  16.058  0.4386 -0.0263 -0.5275
 2647SOL    HW119403   1.791   4.171  16.016  1.5651 -0.1452 -0.9970
 2647SOL    HW219404   1.797   4.234  16.150  1.2188 -1.8138 -0.7190
 2648SOL     OW19405   1.355   3.209   6.351 -0.2332  0.2720  0.2805
 2648SOL    HW119406   1.383   3.118   6.361 -1.4176 -0.1865 -0.6658
 2648SOL    HW219407   1.381   3.261   6.427 -0.9011 -1.1994  1.5130
 2649SOL     OW19408   0.224   0.855  16.796  0.3305 -0.5952 -0.2554
 2649SOL    HW119409   0.140   0.869  16.841 -1.0390  0.2093 -3.0321
 2649SOL    HW219410   0.207   0.844  16.702  1.0306  2.9596 -0.8248
 2650SOL     OW19411   3.941   1.617   8.492  0.3507 -0.3546  0.4981
 2650SOL    HW119412   3.998   1.543   8.513 -1.2181 -1.7957 -0.3780
 2650SOL    HW219413   3.870   1.575   8.444  1.2275 -2.0793  0.7415
 2651SOL     OW19414   3.199   1.106   2.214 -0.0724  0.1574  0.1016
 2651SOL    HW119415   3.171   1.126   2.125 -1.4972 -1.6007  0.1526
 2651SOL    HW219416   3.225   1.014   2.200  1.7000  0.9095 -1.5724
 2652SOL     OW19417   3.393   1.353   6.837  0.2052  0.6388 -0.0415
 2652SOL    HW119418   3.441   1.274   6.861 -1.1312 -0.2940 -0.4186
 2652SOL    HW219419   3.344   1.361   6.919 -0.3311  1.5256 -0.4486
 2653SOL     OW19420   4.114   3.835   6.997 -0.1890 -0.3380 -0.0127
 2653SOL    HW119421   4.113   3.751   7.043  2.0088  0.4543  1.4762
 2653SOL    HW219422   4.138   3.813   6.907  1.0467  0.3544  0.1584
 2654SOL     OW19423   0.167   1.544  13.883 -0.4978  0.1878 -0.1281
 2654SOL    HW119424   0.083   1.527  13.925 -1.1033 -0.3062 -1.5191
 2654SOL    HW219425   0.143   1.622  13.833  0.2321  0.2150 -0.4357
 2655SOL     OW19426   1.783   4.613   9.483  0.7844  0.6447  0.3383
 2655SOL    HW119427   1.866   4.574   9.512 -0.5439 -1.7071  0.9767
 2655SOL    HW219428   1.721   4.551   9.520  1.5466  0.1292  0.7509
 2656SOL     OW19429   4.256   1.337   3.351  0.1878  0.0791 -0.0187
 2656SOL    HW119430   4.290   1.409   3.297 -0.8928  0.7637  0.2217
 2656SOL    HW219431   4.160   1.337   3.346  0.2935 -0.9589 -1.8844
 2657SOL     OW19432   3.051   0.929   3.679  0.2822  0.3642 -0.5373
 2657SOL    HW119433   3.025   0.878   3.755  0.5661 -0.2536 -0.8591
 2657SOL    HW219434   3.139   0.956   3.706 -0.3494  0.6708  1.1945
 2658SOL     OW19435   0.544   3.258   7.592 -0.2528  0.0017  0.0084
 2658SOL    HW119436   0.640   3.251   7.596 -0.1432  0.0318 -2.8015
 2658SOL    HW219437   0.515   3.169   7.612 -0.8641  0.0787 -0.5266
 2659SOL     OW19438   1.790   2.799   3.966  0.6575 -0.4477  0.2940
 2659SOL    HW119439   1.792   2.890   3.934  3.3299 -0.7828 -0.5104
 2659SOL    HW219440   1.879   2.786   3.998  0.6596 -0.4521  0.2862
 2660SOL     OW19441   3.483   1.393   3.659 -0.1534  0.5702  0.5476
 2660SOL    HW119442   3.445   1.473   3.695 -2.9272  0.5293 -2.2072
 2660SOL    HW219443   3.419   1.372   3.590 -0.6731  1.8214  0.6553
 2661SOL     OW19444   2.118   3.866   2.897 -0.2516  0.0209  0.5823
 2661SOL    HW119445   2.068   3.944   2.918  1.3210  1.1231  0.2590
 2661SOL    HW219446   2.059   3.800   2.932  0.0590  0.3145  1.6437
 2662SOL     OW19447   1.998   0.068   2.389  0.5652  0.0803 -0.4928
 2662SOL    HW119448   1.968   4.701   2.392 -0.1353  0.2743 -1.5407
 2662SOL    HW219449   1.931   0.111   2.442  1.1042  0.1732  0.1111
 2663SOL     OW19450   3.619   4.703   0.645  0.4820  0.3158 -0.2324
 2663SOL    HW119451   3.523   4.711   0.653  0.4626 -0.7862  0.5818
 2663SOL    HW219452   3.642   4.673   0.732 -1.5704  0.3339  0.3239
 2664SOL     OW19453   1.166   4.582   5.017 -0.0387  0.1317 -0.0713
 2664SOL    HW119454   1.252   4.616   4.992  0.2726 -0.3021  0.4187
 2664SOL    HW219455   1.165   4.598   5.111  2.4955 -0.1360 -0.0135
 2665SOL     OW19456   0.497   4.482   3.689  0.0400 -0.5114 -0.5066
 2665SOL    HW119457   0.552   4.528   3.625  0.9309  0.3057  0.8510
 2665SOL    HW219458   0.463   4.407   3.639 -1.6464 -1.4337  2.0214
 2666SOL     OW19459   3.312   2.195   1.117  0.0894 -0.4292  0.0331
 2666SOL    HW119460   3.288   2.202   1.025 -1.4687  3.1733  0.7261
 2666SOL    HW219461   3.341   2.285   1.132 -0.0496 -0.3869  0.0425
 2667SOL     OW19462   1.934   1.011   4.995  0.1189  0.7272 -0.5217
 2667SOL    HW119463   2.001   1.079   4.985  2.3286 -1.3995 -0.1878
 2667SOL    HW219464   1.947   0.983   5.086  0.6948 -1.2142 -1.2249
 2668SOL     OW19465   4.416   1.547   7.106 -0.4654  0.0735  0.3927
 2668SOL    HW119466   4.331   1.591   7.094 -1.2114 -2.1967 -2.8082
 2668SOL    HW219467   4.469   1.624   7.125  1.4492 -0.8170 -1.3935
 2669SOL     OW19468   3.975   1.133  14.197 -0.5738  0.2140 -0.3035
 2669SOL    HW119469   4.038   1.166  14.261 -0.1176  0.0963 -0.6984
 2669SOL    HW219470   4.027   1.100  14.124  0.6321 -0.1488  0.7197
 2670SOL     OW19471   4.171   2.334  16.643 -0.0506 -0.3887 -0.1994
 2670SOL    HW119472   4.099   2.286  16.685  3.3482 -3.5222  1.9906
 2670SOL    HW219473   4.233   2.271  16.608  1.0090 -0.8674  2.4896
 2671SOL     OW19474   3.194   2.207   1.383 -0.6350  0.2591 -0.0712
 2671SOL    HW119475   3.286   2.205   1.410 -0.0913  2.7384 -1.7764
 2671SOL    HW219476   3.193   2.183   1.290 -0.0439  2.4869 -0.6566
 2672SOL     OW19477   3.832   0.774   4.328  0.2147 -0.0812  0.2059
 2672SOL    HW119478   3.881   0.699   4.294 -1.7293 -1.0470 -0.4956
 2672SOL    HW219479   3.758   0.770   4.266  1.8886 -0.0472 -1.8114
 2673SOL     OW19480   0.418   2.694   3.030 -0.0808  0.0455  0.0125
 2673SOL    HW119481   0.466   2.615   3.005  0.2291  0.7442 -1.6022
 2673SOL    HW219482   0.494   2.751   3.044 -1.3993  1.4551  1.3332
 2674SOL     OW19483   4.431   3.225   4.759 -0.1203  0.4594 -0.1280
 2674SOL    HW119484   4.439   3.205   4.665  0.0391 -1.2230  0.2556
 2674SOL    HW219485   4.516   3.234   4.802 -0.2001  3.1831 -0.4846
 2675SOL     OW19486   2.432   1.464  12.168 -0.2789 -0.2721  0.1790
 2675SOL    HW119487   2.429   1.560  12.162  0.0689 -0.3638 -1.2932
 2675SOL    HW219488   2.345   1.449  12.204  0.5091 -1.8744  1.4461
 2676SOL     OW19489   1.091   1.992   5.730  0.4781  0.1009  0.1007
 2676SOL    HW119490   1.112   1.903   5.758  0.8743  0.1046 -0.1889
 2676SOL    HW219491   1.017   1.968   5.675  0.8285 -0.2437 -0.2160
 2677SOL     OW19492   3.891   0.913   5.724  0.0695  0.3815 -0.2388
 2677SOL    HW119493   3.945   0.836   5.706  0.4581  0.6674 -0.3020
 2677SOL    HW219494   3.944   0.957   5.790 -0.4303  0.2903  0.2242
 2678SOL     OW19495   1.884   0.953   9.087  0.5764 -0.1436 -0.4027
 2678SOL    HW119496   1.968   0.934   9.045  1.2414  0.7675  0.5149
 2678SOL    HW219497   1.833   0.900   9.026 -2.7178  0.8556  1.5018
 2679SOL     OW19498   1.055   1.241   5.335 -0.6915 -0.0754 -1.2291
 2679SOL    HW119499   1.039   1.235   5.241  1.0390 -0.1863 -1.5122
 2679SOL    HW219500   1.144   1.276   5.330  0.2408 -1.7396  3.3563
 2680SOL     OW19501   3.208   0.202  12.868 -0.2837 -0.0628  0.2060
 2680SOL    HW119502   3.165   0.275  12.823  0.0618 -1.1745 -1.8705
 2680SOL    HW219503   3.301   0.224  12.863 -0.4291  0.6007  0.3963
 2681SOL     OW19504   0.381   2.850   8.004 -0.6965  0.0624  0.4901
 2681SOL    HW119505   0.383   2.940   8.036  0.6727  0.5565 -0.9841
 2681SOL    HW219506   0.339   2.799   8.074 -1.3285 -0.4215 -0.2508
 2682SOL     OW19507   2.675   0.422  16.273 -0.1094  0.3407  0.4062
 2682SOL    HW119508   2.635   0.509  16.272  1.9354  1.3055  0.2303
 2682SOL    HW219509   2.600   0.364  16.272  0.9597 -1.0699  1.9393
 2683SOL     OW19510   1.338   2.933   3.104  0.6073  0.3117 -0.0448
 2683SOL    HW119511   1.244   2.927   3.121  0.2906 -0.7586 -2.1511
 2683SOL    HW219512   1.347   3.016   3.058 -1.7722  0.8590  0.5190
 2684SOL     OW19513   4.024   4.120   8.099  0.2569 -0.4603 -0.5588
 2684SOL    HW119514   3.934   4.106   8.128 -0.6289 -0.4308 -3.3093
 2684SOL    HW219515   4.075   4.061   8.154  1.4318  1.4816  0.4573
 2685SOL     OW19516   3.206   4.410   3.752 -0.2611 -0.1243 -0.1752
 2685SOL    HW119517   3.154   4.397   3.673  0.2231 -4.5216  0.2347
 2685SOL    HW219518   3.163   4.488   3.788 -0.4981 -0.4160  0.1775
 2686SOL     OW19519   1.966   2.173   8.379  0.3214  0.4924 -0.3747
 2686SOL    HW119520   2.050   2.147   8.418  0.2108  0.5093 -0.1259
 2686SOL    HW219521   1.975   2.261   8.344  1.4903  0.0727 -1.1604
 2687SOL     OW19522   2.695   3.246   2.119  0.1856  0.3589  0.2474
 2687SOL    HW119523   2.648   3.329   2.122 -2.9625 -1.4183  1.0498
 2687SOL    HW219524   2.636   3.180   2.083 -0.5793  1.3979 -0.3979
 2688SOL     OW19525   0.243   3.782   0.661  0.8650  0.4150 -0.6146
 2688SOL    HW119526   0.268   3.715   0.598 -0.5850  1.8937 -2.7781
 2688SOL    HW219527   0.229   3.731   0.740 -3.9305 -0.7628 -2.2695
 2689SOL     OW19528   4.551   0.887   2.547 -0.2176  0.2976 -0.0865
 2689SOL    HW119529   4.478   0.922   2.496  0.2062  1.5561  0.1859
 2689SOL    HW219530   4.622   0.897   2.483  0.1843  0.1393  0.3297
 2690SOL     OW19531   0.672   1.007   5.016  0.9091  0.1698 -0.2085
 2690SOL    HW119532   0.675   1.086   5.069  0.3853 -0.9051  1.4009
 2690SOL    HW219533   0.594   1.015   4.961 -0.2875 -0.5005  1.3887
 2691SOL     OW19534   1.004   1.669   7.913  1.2534  0.3521  0.5423
 2691SOL    HW119535   0.923   1.700   7.953  0.5112 -2.6999  1.3820
 2691SOL    HW219536   1.033   1.611   7.982 -0.3648 -1.0922  0.0084
 2692SOL     OW19537   3.486   2.880   9.014  0.0837 -0.2455  0.3130
 2692SOL    HW119538   3.544   2.948   8.978 -2.5780  1.2707 -1.0764
 2692SOL    HW219539   3.424   2.929   9.066  0.0658  0.1821 -0.1053
 2693SOL     OW19540   1.308   4.274   2.272 -0.7799  0.4589  0.0355
 2693SOL    HW119541   1.360   4.348   2.242  1.3126 -0.6498  0.9589
 2693SOL    HW219542   1.238   4.270   2.206  0.0126 -1.0053 -0.7177
 2694SOL     OW19543   4.075   0.133   3.686 -0.0022 -0.6586  0.5066
 2694SOL    HW119544   4.104   0.189   3.615 -0.8608 -1.1669 -0.2402
 2694SOL    HW219545   4.091   0.194   3.759 -0.8188 -0.4907  0.5535
 2695SOL     OW19546   1.031   1.499   8.854 -0.1014 -0.0552  0.3573
 2695SOL    HW119547   1.037   1.492   8.950 -1.0277  0.6239  0.4691
 2695SOL    HW219548   1.058   1.589   8.836  0.5498 -0.5499 -1.0933
 2696SOL     OW19549   1.904   4.721   6.182  0.0384  0.1947 -0.1665
 2696SOL    HW119550   1.865   0.047   6.255  0.6351  0.5893 -0.1168
 2696SOL    HW219551   1.833   0.014   6.120  1.0071 -1.6835 -1.7623
 2697SOL     OW19552   1.110   4.402  11.481 -0.1144  0.3048  0.0917
 2697SOL    HW119553   1.081   4.360  11.562 -0.2275 -3.0313 -1.6652
 2697SOL    HW219554   1.032   4.421  11.430 -1.0324  1.5685  1.9574
 2698SOL     OW19555   1.013   1.702   4.748 -0.5742  0.3057  0.1979
 2698SOL    HW119556   0.930   1.750   4.749 -2.2190 -2.5634 -0.1994
 2698SOL    HW219557   0.994   1.626   4.693 -2.2747 -0.4872  1.8809
 2699SOL     OW19558   1.915   0.161   7.495  0.3512  0.1803 -0.1869
 2699SOL    HW119559   1.936   0.170   7.588 -1.9423 -0.8690  0.4532
 2699SOL    HW219560   1.990   0.198   7.449  1.0531  0.0821  0.8759
 2700SOL     OW19561   0.470   3.511   7.462 -0.4329  0.4000  0.5360
 2700SOL    HW119562   0.472   3.418   7.482  1.1974  0.1094 -0.9554
 2700SOL    HW219563   0.444   3.544   7.548 -1.8119  1.3788 -0.2533
 2701SOL     OW19564   3.349   0.062  10.938 -0.3277 -0.0507  0.1722
 2701SOL    HW119565   3.438   0.040  10.912 -0.7220 -0.2339 -1.0230
 2701SOL    HW219566   3.298   4.706  10.923 -1.2655  0.7503 -0.8818
 2702SOL     OW19567   3.916   1.695  13.517 -0.2629 -0.2891 -0.2659
 2702SOL    HW119568   3.847   1.650  13.469 -1.0872 -1.7475  2.2842
 2702SOL    HW219569   3.860   1.756  13.563 -0.4292 -3.2351  3.4718
 2703SOL     OW19570   3.260   4.601   5.792 -0.0261  0.1695  0.0410
 2703SOL    HW119571   3.259   4.693   5.819  1.8019  1.0419 -2.7561
 2703SOL    HW219572   3.345   4.578   5.829  0.4671 -1.9331 -2.3698
 2704SOL     OW19573   3.150   0.633   8.180  0.0081 -0.3315 -0.0578
 2704SOL    HW119574   3.170   0.649   8.088  0.5873 -1.0200 -0.0584
 2704SOL    HW219575   3.072   0.687   8.191  0.9768  1.1887 -0.5729
 2705SOL     OW19576   3.939   2.298   8.047 -0.0832  0.0816  0.3404
 2705SOL    HW119577   3.971   2.284   8.136 -0.6157 -1.5287  0.2854
 2705SOL    HW219578   3.874   2.228   8.039  0.7329 -0.6943  0.4681
 2706SOL     OW19579   3.771   0.285   6.152  0.0877  0.2819 -0.2940
 2706SOL    HW119580   3.827   0.359   6.129  0.1063  1.0469  2.2387
 2706SOL    HW219581   3.831   0.218   6.118  1.4429  1.0407  0.6219
 2707SOL     OW19582   0.707   1.464  16.911  0.5694  0.0188  0.1670
 2707SOL    HW119583   0.646   1.502  16.973  0.6499  0.8002 -0.2248
 2707SOL    HW219584   0.722   1.377  16.947 -0.8727 -0.1728  0.3078
 2708SOL     OW19585   1.688   2.664   2.818  0.3409 -0.0326 -0.5785
 2708SOL    HW119586   1.643   2.586   2.786 -0.4987 -0.3586  1.4280
 2708SOL    HW219587   1.613   2.710   2.854 -0.5120  0.2015 -2.6419
 2709SOL     OW19588   3.305   0.381   2.769 -0.6023 -0.0540 -0.0278
 2709SOL    HW119589   3.386   0.343   2.734 -0.1161 -0.6771  1.7705
 2709SOL    HW219590   3.242   0.338   2.712  1.4311 -1.7115 -0.9812
 2710SOL     OW19591   2.622   0.494   6.820  0.3034 -0.6259  1.1102
 2710SOL    HW119592   2.527   0.485   6.811  0.3219  0.2896 -0.0990
 2710SOL    HW219593   2.631   0.474   6.913  0.4281 -2.0202  0.7981
 2711SOL     OW19594   2.172   0.159  12.533 -0.0584 -0.3392  0.1480
 2711SOL    HW119595   2.223   0.138  12.612  0.8624  1.6891  0.0714
 2711SOL    HW219596   2.226   0.119  12.465  2.4561  1.4263  1.1252
 2712SOL     OW19597   4.437   1.982   2.925 -0.4201  0.3144  0.0693
 2712SOL    HW119598   4.520   2.023   2.950 -0.9259  1.9402 -0.9139
 2712SOL    HW219599   4.415   1.953   3.014 -1.1212 -0.6307 -0.4225
 2713SOL     OW19600   2.087   2.346  11.186 -0.0882  0.2516  0.1866
 2713SOL    HW119601   2.065   2.282  11.254 -1.2488 -1.2730 -1.5936
 2713SOL    HW219602   2.047   2.314  11.105 -1.3411  1.4692  0.3274
 2714SOL     OW19603   2.356   4.715   5.032  0.0721  0.3746  0.0930
 2714SOL    HW119604   2.346   0.051   4.958  1.1078  3.1377  2.1491
 2714SOL    HW219605   2.451   4.705   5.036 -0.0811 -0.6531  1.1351
 2715SOL     OW19606   4.590   4.226  14.528  0.1471  0.0857  0.2924
 2715SOL    HW119607   4.668   4.218  14.583 -1.6866 -1.0256  2.7199
 2715SOL    HW219608   4.590   4.135  14.501 -1.1612  0.5718 -1.3110
 2716SOL     OW19609   4.551   4.052   0.362 -1.1401 -0.2459 -0.2361
 2716SOL    HW119610   4.628   4.002   0.335 -0.2259  0.2361  1.5130
 2716SOL    HW219611   4.497   4.052   0.283 -1.1364  0.6334 -0.2456
 2717SOL     OW19612   0.419   3.816   4.140  0.3431  0.2852 -0.2984
 2717SOL    HW119613   0.469   3.888   4.103 -0.1451 -0.7129 -2.9324
 2717SOL    HW219614   0.400   3.848   4.228 -0.4288  0.1165 -0.4076
 2718SOL     OW19615   2.378   3.420   1.956 -0.0321 -0.6150 -0.0539
 2718SOL    HW119616   2.432   3.363   1.901  1.0400 -0.1531  0.5189
 2718SOL    HW219617   2.379   3.498   1.899  0.8313 -0.3786  0.2833
 2719SOL     OW19618   0.806   1.651  15.055  0.4415  0.0096  0.1708
 2719SOL    HW119619   0.889   1.632  15.097 -0.0760 -1.1837  0.6453
 2719SOL    HW219620   0.762   1.686  15.133  0.7545 -0.1139  0.4019
 2720SOL     OW19621   4.411   3.601   8.314  0.3719 -0.2421  0.6908
 2720SOL    HW119622   4.438   3.520   8.272  1.1871  1.6902 -2.5062
 2720SOL    HW219623   4.473   3.666   8.280 -0.1199  0.0476  0.3493
 2721SOL     OW19624   0.878   2.696   2.917  0.1225 -0.2908 -0.0336
 2721SOL    HW119625   0.861   2.609   2.880  2.8531 -0.4700 -0.8676
 2721SOL    HW219626   0.793   2.736   2.904 -1.1800 -2.4750  1.6706
 2722SOL     OW19627   0.247   0.343   5.252 -0.1413 -0.2297 -0.0982
 2722SOL    HW119628   0.255   0.400   5.176  1.9634 -1.1236 -0.5630
 2722SOL    HW219629   0.156   0.331   5.278 -0.6885  1.5579 -1.2096
 2723SOL     OW19630   1.401   2.775   5.944 -0.4306  0.2259 -0.8375
 2723SOL    HW119631   1.307   2.766   5.928 -0.5923  1.3174 -0.4731
 2723SOL    HW219632   1.438   2.734   5.865  1.7133 -0.9593  0.7898
 2724SOL     OW19633   3.830   3.479  16.777  0.8039  0.6049  0.2150
 2724SOL    HW119634   3.909   3.533  16.778  1.5068 -0.4165 -1.2907
 2724SOL    HW219635   3.757   3.533  16.746  0.9569  0.0206 -1.1480
 2725SOL     OW19636   4.575   3.964  11.479 -0.0341  0.1010 -0.3222
 2725SOL    HW119637   4.499   3.971  11.536 -0.4257  0.9245 -0.9417
 2725SOL    HW219638   4.612   4.047  11.511  1.3577 -0.5874 -0.1338
 2726SOL     OW19639   0.419   4.280   5.889  0.1392  0.2662 -0.1344
 2726SOL    HW119640   0.441   4.350   5.827  0.3276  1.3968  1.1976
 2726SOL    HW219641   0.484   4.209   5.884  0.3231  0.3398  1.0628
 2727SOL     OW19642   0.370   0.370   6.379  0.1550 -0.0920 -0.4651
 2727SOL    HW119643   0.332   0.408   6.458  1.0724  0.7182 -0.4171
 2727SOL    HW219644   0.419   0.437   6.331 -0.8792 -0.1865 -1.6604
 2728SOL     OW19645   2.971   1.022   8.634  0.3388 -0.1768 -0.5579
 2728SOL    HW119646   2.963   0.937   8.677  1.1797 -0.8813 -1.7727
 2728SOL    HW219647   2.964   1.078   8.711  2.8686  2.0474 -1.9546
 2729SOL     OW19648   1.977   3.993  13.020 -0.1476 -0.4388 -0.2827
 2729SOL    HW119649   1.954   3.948  12.939  2.1905  1.2670 -1.8872
 2729SOL    HW219650   2.070   3.969  13.022 -0.4412 -1.4434  1.2565
 2730SOL     OW19651   0.692   3.026   9.893 -0.1185  0.0606  0.3823
 2730SOL    HW119652   0.757   3.096   9.892 -0.2088  0.1468  0.7764
 2730SOL    HW219653   0.612   3.076   9.874 -0.1772  0.0564  0.6210
 2731SOL     OW19654   0.776   0.018   3.144 -0.1222  0.1267 -0.1847
 2731SOL    HW119655   0.749   4.650   3.137 -1.0624  0.4394 -0.7100
 2731SOL    HW219656   0.695   0.063   3.121 -0.0212 -1.7172 -4.2616
 2732SOL     OW19657   1.579   3.760  16.068  0.4625 -0.3426 -0.0989
 2732SOL    HW119658   1.517   3.772  16.139 -2.1976  2.3312 -2.8870
 2732SOL    HW219659   1.620   3.846  16.056 -0.4297 -0.3439 -3.1476
 2733SOL     OW19660   3.844   3.469   3.490  0.3213 -0.3017  0.3087
 2733SOL    HW119661   3.830   3.440   3.580  0.4380  2.5302  1.2482
 2733SOL    HW219662   3.859   3.384   3.450  1.8200  0.7514 -1.3212
 2734SOL     OW19663   2.150   0.420   4.523  0.1732 -0.0021  0.1101
 2734SOL    HW119664   2.142   0.443   4.431 -1.9533 -0.9996  0.0621
 2734SOL    HW219665   2.136   0.326   4.510 -1.0027  0.2210 -0.2080
 2735SOL     OW19666   2.457   3.766  15.785  0.0115  0.3796  0.0801
 2735SOL    HW119667   2.491   3.677  15.779  0.0872  0.4547 -0.5705
 2735SOL    HW219668   2.498   3.811  15.712  0.9076  0.3091  0.5407
 2736SOL     OW19669   0.341   3.943   8.719  0.7412 -0.6605 -0.3116
 2736SOL    HW119670   0.293   3.992   8.786  1.3611 -2.1270  1.1872
 2736SOL    HW219671   0.273   3.885   8.685  2.1077 -1.9829 -0.7712
 2737SOL     OW19672   2.651   2.039   5.375 -0.0028 -0.2333  0.2624
 2737SOL    HW119673   2.675   1.967   5.434  0.4409 -0.6138 -0.3846
 2737SOL    HW219674   2.711   2.027   5.302 -0.2173 -0.9298  0.2050
 2738SOL     OW19675   2.936   0.278  15.480  0.2525  0.3166  0.0159
 2738SOL    HW119676   3.018   0.238  15.508  0.1502  0.3634  0.3763
 2738SOL    HW219677   2.872   0.213  15.507  0.7506  0.4171  1.4133
 2739SOL     OW19678   0.528   0.270   9.115 -0.1061 -0.0227  0.3006
 2739SOL    HW119679   0.617   0.244   9.139 -0.2985 -0.6795  0.3226
 2739SOL    HW219680   0.556   0.346   9.064  0.5478 -0.2801  0.2705
 2740SOL     OW19681   2.614   0.687  12.970  0.1207 -0.4101 -0.1108
 2740SOL    HW119682   2.592   0.750  12.902 -2.3947 -0.9246  0.2091
 2740SOL    HW219683   2.699   0.656  12.940  0.3846  0.6192 -0.4205
 2741SOL     OW19684   1.216   4.506  10.740 -0.0039  0.9968 -0.4696
 2741SOL    HW119685   1.241   4.422  10.779  0.7898  1.5123  0.1547
 2741SOL    HW219686   1.153   4.543  10.802 -1.6934 -3.3871  0.3888
 2742SOL     OW19687   0.292   3.548   6.891  0.3759 -0.4681 -0.5874
 2742SOL    HW119688   0.380   3.512   6.879  1.1449  1.0525  0.5053
 2742SOL    HW219689   0.307   3.628   6.941 -0.8916 -0.2635 -0.5483
 2743SOL     OW19690   2.476   0.840  17.610 -0.1428 -0.1952  0.1263
 2743SOL    HW119691   2.496   0.933  17.609  1.4152 -0.5218  0.8208
 2743SOL    HW219692   2.537   0.811  17.542  0.4929  1.3298  0.0547
 2744SOL     OW19693   2.348   3.123   6.331  0.0062 -0.3081  0.4769
 2744SOL    HW119694   2.422   3.169   6.369 -0.9040  1.1662  0.4538
 2744SOL    HW219695   2.353   3.151   6.240  2.2638 -0.3610  0.5948
 2745SOL     OW19696   1.047   3.013   9.712 -0.0486 -0.4793  0.2463
 2745SOL    HW119697   1.036   2.918   9.718  0.2678 -0.5090  0.3507
 2745SOL    HW219698   1.106   3.027   9.786  0.1151 -0.0425  0.0279
 2746SOL     OW19699   0.380   4.204   9.373 -0.2132  0.1710  0.0037
 2746SOL    HW119700   0.440   4.231   9.442 -0.8476 -3.3717  1.9349
 2746SOL    HW219701   0.296   4.235   9.407  0.5607 -0.3287  2.3794
 2747SOL     OW19702   4.394   2.299   2.661 -0.2412  0.5842  0.3871
 2747SOL    HW119703   4.400   2.290   2.566  0.2565 -0.1655  0.4904
 2747SOL    HW219704   4.304   2.271   2.676 -0.1007  0.1761  0.4835
 2748SOL     OW19705   0.329   2.413  17.315 -0.4550  0.6179  0.3894
 2748SOL    HW119706   0.381   2.472  17.260  0.4088  0.3176  0.8825
 2748SOL    HW219707   0.251   2.407  17.260  0.9870 -0.1849 -1.5387
 2749SOL     OW19708   0.669   0.779   6.889 -0.0944 -0.6763  0.5544
 2749SOL    HW119709   0.750   0.767   6.839  0.1907 -0.0344  0.8702
 2749SOL    HW219710   0.688   0.854   6.945  1.9728 -1.6075  1.1207
 2750SOL     OW19711   2.090   1.134   4.225 -0.3234  0.1781 -0.1658
 2750SOL    HW119712   2.153   1.190   4.269  1.7254 -1.1896 -1.3882
 2750SOL    HW219713   2.016   1.194   4.217  1.0522  2.0149  0.9576
 2751SOL     OW19714   3.627   0.683   1.926 -0.2507  0.0321  0.0773
 2751SOL    HW119715   3.694   0.631   1.971  0.3221  0.1355 -0.6786
 2751SOL    HW219716   3.653   0.768   1.961 -1.0602  0.9137 -1.4943
 2752SOL     OW19717   3.513   4.059  14.686  0.4973 -0.2317  0.4608
 2752SOL    HW119718   3.574   3.986  14.701 -1.2461 -1.8517 -0.2311
 2752SOL    HW219719   3.574   4.132  14.676 -1.6878  1.6039  0.4258
 2753SOL     OW19720   2.293   1.578  11.806  0.2305  0.0116  0.3865
 2753SOL    HW119721   2.382   1.594  11.776 -0.1611  0.2360 -0.6323
 2753SOL    HW219722   2.245   1.597  11.725  1.0362 -0.9601 -0.3098
 2754SOL     OW19723   0.301   0.675   8.165 -0.1058  0.0287  0.0468
 2754SOL    HW119724   0.328   0.766   8.156 -1.1874  0.4029  0.6011
 2754SOL    HW219725   0.330   0.652   8.253 -1.7858 -1.2079  0.2758
 2755SOL     OW19726   1.213   0.533   8.624  0.3268 -0.2930  0.1504
 2755SOL    HW119727   1.205   0.453   8.677 -2.5389 -0.6696 -0.8549
 2755SOL    HW219728   1.308   0.541   8.624  0.2715  0.4183  0.7950
 2756SOL     OW19729   3.032   1.567   5.546  0.6814 -0.3306 -0.1313
 2756SOL    HW119730   2.955   1.513   5.530  0.9407 -0.8597  0.3946
 2756SOL    HW219731   3.096   1.530   5.485  3.1838 -0.0763  2.3308
 2757SOL     OW19732   2.362   1.766  14.694 -0.6380 -0.1420 -0.1004
 2757SOL    HW119733   2.393   1.809  14.615 -0.9046  0.8565  0.3441
 2757SOL    HW219734   2.408   1.820  14.759 -1.0479  0.1772 -0.0772
 2758SOL     OW19735   3.931   2.775   4.110 -0.0744 -0.2150  0.0893
 2758SOL    HW119736   3.965   2.859   4.082 -0.2073 -0.4952 -0.9115
 2758SOL    HW219737   3.952   2.766   4.203  1.9436 -0.1793 -0.3744
 2759SOL     OW19738   1.653   0.266   3.829 -0.2784 -0.4164 -0.1335
 2759SOL    HW119739   1.718   0.204   3.796  2.2349  0.4589  3.1777
 2759SOL    HW219740   1.701   0.304   3.903 -0.0402  0.8904 -0.9673
 2760SOL     OW19741   2.759   4.003   0.408 -0.5895  0.3416 -0.4097
 2760SOL    HW119742   2.843   4.009   0.362  0.2663  0.1873  1.1330
 2760SOL    HW219743   2.700   4.063   0.361 -0.7011  0.2307 -0.4121
 2761SOL     OW19744   3.995   2.232   6.634 -0.1300  0.1167  0.0666
 2761SOL    HW119745   4.062   2.300   6.631  0.1908 -0.2098 -0.2050
 2761SOL    HW219746   4.049   2.179   6.691 -2.1275 -0.8551  1.0689
 2762SOL     OW19747   0.976   1.846   8.228  0.2361 -0.1958 -0.0509
 2762SOL    HW119748   0.961   1.904   8.303 -1.1480 -1.0267  0.3173
 2762SOL    HW219749   0.942   1.764   8.263  1.2423  0.2773  2.0636
 2763SOL     OW19750   4.514   0.225   4.259 -0.0511 -0.3758 -0.0663
 2763SOL    HW119751   4.458   0.155   4.225 -1.3410  0.9361 -0.6139
 2763SOL    HW219752   4.539   0.190   4.344 -0.3107 -0.1124  0.1181
 2764SOL     OW19753   1.231   4.180  14.920  0.3508 -0.3933  0.0323
 2764SOL    HW119754   1.285   4.258  14.912 -2.8110  1.6995 -0.4201
 2764SOL    HW219755   1.170   4.194  14.848 -0.8207  0.9551  1.2907
 2765SOL     OW19756   3.204   0.984   0.296  0.3325 -0.0706 -0.1579
 2765SOL    HW119757   3.176   1.058   0.243 -2.0676 -1.1235 -0.3931
 2765SOL    HW219758   3.299   0.979   0.297  0.3105 -0.5218 -0.2055
 2766SOL     OW19759   4.628   2.775  16.803 -0.7455  0.4788  0.1328
 2766SOL    HW119760   4.560   2.840  16.817 -1.3668  0.0366 -0.8526
 2766SOL    HW219761   4.620   2.768  16.708 -0.9026 -2.2137  0.3419
 2767SOL     OW19762   0.253   1.580  10.467 -0.0968  0.1530  0.1424
 2767SOL    HW119763   0.211   1.645  10.410  0.1830  2.3383  2.4656
 2767SOL    HW219764   0.309   1.631  10.524 -0.6198  1.8731 -0.8756
 2768SOL     OW19765   3.293   3.902   9.468 -0.5564  0.1130 -0.0328
 2768SOL    HW119766   3.292   3.973   9.533  1.5610 -0.2950  0.4445
 2768SOL    HW219767   3.378   3.865   9.495 -1.3754 -0.2706  2.0071
 2769SOL     OW19768   3.547   1.349  15.144 -0.4217 -0.0149  0.0312
 2769SOL    HW119769   3.568   1.269  15.193  3.2511  1.3469  0.6746
 2769SOL    HW219770   3.497   1.398  15.209 -0.8730  0.5644 -0.7554
 2770SOL     OW19771   2.550   4.598   7.335 -0.2063 -0.2510 -0.3663
 2770SOL    HW119772   2.495   4.530   7.375 -2.0668  0.9239 -0.9102
 2770SOL    HW219773   2.497   4.677   7.345 -0.8510 -0.6492 -0.6248
 2771SOL     OW19774   4.540   1.771   4.007  0.4979  0.2899  0.4973
 2771SOL    HW119775   4.459   1.730   3.977  0.9630  0.8328 -1.5302
 2771SOL    HW219776   4.592   1.700   4.044 -0.6780  0.6583  2.7997
 2772SOL     OW19777   2.074   4.248  17.108  0.0611 -0.2304  0.2430
 2772SOL    HW119778   2.117   4.163  17.116 -1.2457 -0.8146  1.1029
 2772SOL    HW219779   2.045   4.246  17.017 -0.3301  1.0790  0.3451
 2773SOL     OW19780   3.583   4.349  11.452  0.2772  0.5287  0.0376
 2773SOL    HW119781   3.600   4.342  11.546 -0.8259 -0.6735  0.1405
 2773SOL    HW219782   3.672   4.344  11.419 -0.4008  0.1864 -1.7548
 2774SOL     OW19783   4.422   0.058  10.823  0.2050  0.3019  0.4258
 2774SOL    HW119784   4.407   0.005  10.902 -2.2177  2.4711  1.4353
 2774SOL    HW219785   4.365   0.011  10.762  0.6739 -1.5141  1.3670
 2775SOL     OW19786   2.151   1.670  11.577 -0.1157  0.1452  0.3150
 2775SOL    HW119787   2.072   1.619  11.555 -0.4286  1.0211 -0.6105
 2775SOL    HW219788   2.124   1.758  11.603  0.9462  0.7661 -0.6736
 2776SOL     OW19789   3.795   1.540  10.892  0.0210 -0.1529 -0.0055
 2776SOL    HW119790   3.860   1.574  10.831  0.7414  2.9823  2.5214
 2776SOL    HW219791   3.835   1.546  10.978  0.1750  2.4399 -0.2705
 2777SOL     OW19792   1.313   2.508  15.670  0.0933 -0.1575  0.1976
 2777SOL    HW119793   1.394   2.529  15.717  1.5761  0.6120 -2.7230
 2777SOL    HW219794   1.354   2.459  15.599  2.4275  0.2193  1.2817
 2778SOL     OW19795   4.503   2.712   0.590 -0.4622  0.2226  0.2128
 2778SOL    HW119796   4.553   2.762   0.655  0.1095  0.4113 -0.3704
 2778SOL    HW219797   4.420   2.759   0.584 -1.1398 -1.1174 -0.8012
 2779SOL     OW19798   0.177   1.483  14.554  0.0792 -0.2468  0.8508
 2779SOL    HW119799   0.211   1.572  14.561  0.5773 -0.2131 -1.8970
 2779SOL    HW219800   0.136   1.478  14.467 -2.0813 -1.4730  1.9172
 2780SOL     OW19801   3.887   1.767   7.368 -0.1979 -0.2597  0.1841
 2780SOL    HW119802   3.849   1.843   7.411  0.9346  0.0839  0.5931
 2780SOL    HW219803   3.883   1.701   7.437 -2.9661 -0.4990 -0.2080
 2781SOL     OW19804   0.653   4.366   4.104  0.0208 -0.1269 -0.0165
 2781SOL    HW119805   0.683   4.408   4.023  2.0195 -1.3161  0.1072
 2781SOL    HW219806   0.721   4.302   4.124 -0.9005 -0.0724  3.1657
 2782SOL     OW19807   1.398   0.034   8.831  0.2978 -0.2324 -0.3605
 2782SOL    HW119808   1.429   4.714   8.911  1.0907  2.3170  0.7264
 2782SOL    HW219809   1.378   4.690   8.767  3.2186 -0.7143 -0.7581
 2783SOL     OW19810   4.562   4.043   7.401 -0.4268 -0.4417  0.7956
 2783SOL    HW119811   4.631   3.996   7.446 -0.0856 -0.8558 -0.1663
 2783SOL    HW219812   4.561   4.127   7.447 -0.6809  0.9061 -1.6562
 2784SOL     OW19813   3.848   2.826   7.858  0.3437  0.0382  0.2925
 2784SOL    HW119814   3.874   2.786   7.941 -1.3126 -2.2138 -0.2799
 2784SOL    HW219815   3.933   2.850   7.820  0.6416 -0.7307  0.4711
 2785SOL     OW19816   0.074   0.020   9.562 -0.4720 -0.2822 -0.3489
 2785SOL    HW119817   0.150   0.077   9.574 -3.3506  3.2659  0.6336
 2785SOL    HW219818   0.115   4.664   9.527 -2.2640 -1.7229  0.8520
 2786SOL     OW19819   0.847   0.838   9.766 -0.4085 -0.1481 -0.3506
 2786SOL    HW119820   0.911   0.813   9.699 -0.3704 -0.4907 -0.1834
 2786SOL    HW219821   0.771   0.788   9.737  0.7602 -0.6786 -2.5171
 2787SOL     OW19822   4.082   3.023   3.469  0.3041  0.3701  0.3247
 2787SOL    HW119823   4.061   2.994   3.558 -0.4972 -0.8621 -0.2705
 2787SOL    HW219824   4.156   3.082   3.482  1.6329 -1.2309  0.0405
 2788SOL     OW19825   3.620   1.042  13.468 -0.0087  0.2530  0.2129
 2788SOL    HW119826   3.556   1.111  13.483 -0.2815  0.1324 -0.4168
 2788SOL    HW219827   3.697   1.093  13.443  0.4337 -0.1949  0.6611
 2789SOL     OW19828   1.323   0.295  10.415  0.2796 -0.5016 -0.3072
 2789SOL    HW119829   1.271   0.216  10.411  0.6082 -0.6598 -1.5893
 2789SOL    HW219830   1.390   0.264  10.476 -1.4199 -1.6874  0.9394
 2790SOL     OW19831   0.632   1.486   5.912 -0.0768 -0.3803 -0.1484
 2790SOL    HW119832   0.669   1.484   6.001 -1.4917  0.2348  0.4561
 2790SOL    HW219833   0.661   1.571   5.878  0.6930 -0.7162 -0.3204
 2791SOL     OW19834   4.228   0.612   1.039  0.2914 -0.3585 -0.6816
 2791SOL    HW119835   4.230   0.524   1.077 -0.8055  0.7122  1.8939
 2791SOL    HW219836   4.176   0.648   1.111  0.5425 -1.9432  0.2879
 2792SOL     OW19837   1.437   1.570   8.794 -0.7053 -0.5640  0.4363
 2792SOL    HW119838   1.517   1.570   8.847 -0.5455 -2.6084  0.1918
 2792SOL    HW219839   1.384   1.640   8.833  0.1425  0.6802 -0.6209
 2793SOL     OW19840   1.704   0.212   2.916  0.0657  0.1731 -0.1625
 2793SOL    HW119841   1.615   0.185   2.895  0.0840 -1.4118  1.7502
 2793SOL    HW219842   1.714   0.181   3.006  0.4529  0.2693 -0.1700
 2794SOL     OW19843   0.027   4.104  13.718 -0.2329  0.3348  0.4315
 2794SOL    HW119844   4.676   4.074  13.666 -0.5588  1.4884  0.2389
 2794SOL    HW219845   4.721   4.101  13.809  1.5934  0.3759  1.0297
 2795SOL     OW19846   4.347   2.590   7.387 -0.2137  0.1040  0.3376
 2795SOL    HW119847   4.438   2.583   7.359 -0.5151 -1.3898 -0.2712
 2795SOL    HW219848   4.341   2.666   7.445 -1.4686 -0.8988  1.5154
 2796SOL     OW19849   2.196   2.518   6.139 -0.6609 -0.5132  0.5442
 2796SOL    HW119850   2.165   2.554   6.223 -0.0985 -0.0640  0.5601
 2796SOL    HW219851   2.290   2.534   6.134 -1.1123  1.3366 -2.3570
 2797SOL     OW19852   3.719   4.180   9.464 -0.1784 -0.7895  0.5167
 2797SOL    HW119853   3.750   4.250   9.522 -0.5868  0.7229 -1.0991
 2797SOL    HW219854   3.661   4.124   9.515 -2.1190  0.5361 -0.2401
 2798SOL     OW19855   1.322   2.694   1.712  0.1126 -0.0609 -0.1462
 2798SOL    HW119856   1.378   2.757   1.667  0.5972  0.4372  1.1693
 2798SOL    HW219857   1.332   2.726   1.801  2.6041 -0.3723 -0.2951
 2799SOL     OW19858   0.703   0.206  16.168  0.0897 -0.8056 -0.7500
 2799SOL    HW119859   0.634   0.260  16.208  0.1993 -0.9582 -0.3520
 2799SOL    HW219860   0.781   0.232  16.217 -2.1364  1.7960  1.4148
 2800SOL     OW19861   3.010   3.066   2.321  0.0693 -0.4122 -0.2541
 2800SOL    HW119862   3.001   3.154   2.286  3.2029 -0.1447 -0.4168
 2800SOL    HW219863   3.034   3.023   2.238  1.7187  0.9555 -0.4909
 2801SOL     OW19864   0.752   2.561   5.466 -0.2274  0.2963 -0.0320
 2801SOL    HW119865   0.772   2.628   5.531 -1.2913  0.7776 -0.2041
 2801SOL    HW219866   0.805   2.485   5.490 -0.1129  0.0355 -1.1091
 2802SOL     OW19867   2.008   2.053   2.151  0.2793 -0.0900 -0.3442
 2802SOL    HW119868   1.964   2.116   2.209 -1.3822 -2.1218  0.6103
 2802SOL    HW219869   2.090   2.099   2.134  0.0087  0.1512 -0.9615
 2803SOL     OW19870   4.310   3.990  13.374 -0.2208 -0.0098 -0.0931
 2803SOL    HW119871   4.363   4.047  13.318  1.7285  1.6407  3.3887
 2803SOL    HW219872   4.226   4.024  13.345 -0.9272 -1.0316  0.7835
 2804SOL     OW19873   1.439   3.814   2.533 -0.6291  0.6531 -0.0674
 2804SOL    HW119874   1.480   3.874   2.596  0.3787 -0.0618 -0.0525
 2804SOL    HW219875   1.348   3.810   2.564 -1.4302  3.3117 -2.0611
 2805SOL     OW19876   2.962   1.919   9.314 -0.4050 -0.1760 -0.3388
 2805SOL    HW119877   2.885   1.968   9.286 -1.3569 -1.8311 -0.6079
 2805SOL    HW219878   3.028   1.951   9.253 -0.0448  0.6309  0.4625
 2806SOL     OW19879   3.543   4.100   7.452  0.4674 -0.7535 -0.5989
 2806SOL    HW119880   3.494   4.060   7.381 -0.0726  0.6828 -1.0512
 2806SOL    HW219881   3.471   4.134   7.504  0.8779 -1.0969  0.1986
 2807SOL     OW19882   3.342   3.667   1.765 -0.2451  0.2520 -0.0391
 2807SOL    HW119883   3.371   3.756   1.747 -0.7023  0.2745 -0.6743
 2807SOL    HW219884   3.354   3.661   1.859  0.1042  0.9849 -0.0399
 2808SOL     OW19885   1.605   2.839   9.410 -0.2848  0.1415  0.3323
 2808SOL    HW119886   1.601   2.836   9.505 -2.4000 -0.5597  0.2312
 2808SOL    HW219887   1.695   2.862   9.388  0.4137 -0.7122  2.3923
 2809SOL     OW19888   0.989   4.232  10.680 -0.1704  0.1319 -0.1276
 2809SOL    HW119889   0.929   4.172  10.636 -0.7322  0.5500  0.0652
 2809SOL    HW219890   1.057   4.225  10.613  0.6719  0.7201  0.6742
 2810SOL     OW19891   4.491   2.313   6.158 -0.2874  0.5501  0.0873
 2810SOL    HW119892   4.543   2.259   6.099 -1.9967 -1.1924  0.1635
 2810SOL    HW219893   4.498   2.400   6.118 -1.9824 -1.3382 -4.3986
 2811SOL     OW19894   1.667   1.926  12.609 -0.3583 -0.1628 -0.2615
 2811SOL    HW119895   1.653   2.017  12.583  2.5618  0.3839  0.0442
 2811SOL    HW219896   1.576   1.897  12.612 -0.0688 -0.7785  2.4686
 2812SOL     OW19897   3.933   2.772   7.227  0.2210 -0.0323 -0.0632
 2812SOL    HW119898   3.963   2.784   7.137 -2.0824  3.3412 -0.3836
 2812SOL    HW219899   4.008   2.804   7.277 -0.8179  1.2699  0.6629
 2813SOL     OW19900   1.089   0.061   9.576 -0.6549 -0.0210 -0.0630
 2813SOL    HW119901   1.170   0.039   9.622 -2.5680  1.1650  3.8574
 2813SOL    HW219902   1.107   0.148   9.539 -0.4886 -0.6255 -1.4369
 2814SOL     OW19903   3.491   3.069   6.157  1.3045 -0.1495  0.1863
 2814SOL    HW119904   3.546   3.148   6.149  0.9183  0.2035  1.0167
 2814SOL    HW219905   3.488   3.042   6.065  0.7472  0.9808 -0.1367
 2815SOL     OW19906   2.304   3.975   4.573 -0.1836  0.2554  0.2895
 2815SOL    HW119907   2.333   3.890   4.606 -0.5628 -0.5947 -1.5411
 2815SOL    HW219908   2.363   3.979   4.497 -3.6029  2.1558 -2.2691
 2816SOL     OW19909   2.263   0.517   6.484  0.1115  0.1981 -0.0636
 2816SOL    HW119910   2.211   0.436   6.487 -1.7270  1.4910  2.4549
 2816SOL    HW219911   2.196   0.581   6.507  1.0125  0.5918  1.4886
 2817SOL     OW19912   2.168   0.704   6.823 -0.1400 -0.3526 -0.0932
 2817SOL    HW119913   2.219   0.785   6.818  1.2375 -1.2263 -0.3819
 2817SOL    HW219914   2.091   0.732   6.773 -0.0466  0.5609  0.2807
 2818SOL     OW19915   3.494   3.088   3.755 -0.3329 -0.2212 -0.7835
 2818SOL    HW119916   3.492   3.051   3.844  3.4620 -1.0508 -1.0279
 2818SOL    HW219917   3.406   3.081   3.720 -0.5513  2.0522 -0.6999
 2819SOL     OW19918   3.223   3.906   0.810 -0.3877 -0.6719  0.0786
 2819SOL    HW119919   3.291   3.839   0.804  2.2935  2.1461 -0.8560
 2819SOL    HW219920   3.282   3.976   0.836  1.5371 -1.0560 -3.3199
 2820SOL     OW19921   3.998   4.475  12.572 -0.0774  0.2976 -0.4023
 2820SOL    HW119922   4.002   4.433  12.658  2.3819  0.1187 -0.5875
 2820SOL    HW219923   4.082   4.450  12.534  1.4122  1.8192  1.8467
 2821SOL     OW19924   2.121   0.793  14.264 -0.0335 -0.2334  0.0650
 2821SOL    HW119925   2.042   0.827  14.223  0.1051 -0.5712 -0.4845
 2821SOL    HW219926   2.086   0.753  14.344 -0.1005 -1.0940 -0.3939
 2822SOL     OW19927   3.083   1.901  13.795 -0.2563  0.2700 -0.2287
 2822SOL    HW119928   3.049   1.848  13.867 -2.1049 -0.0689 -1.3363
 2822SOL    HW219929   3.167   1.925  13.833  0.2656 -0.2346 -1.0816
 2823SOL     OW19930   3.895   4.486   6.963  0.4035  0.0623  0.4473
 2823SOL    HW119931   3.961   4.456   7.024  0.8524 -1.9027 -1.0015
 2823SOL    HW219932   3.824   4.508   7.023 -0.6764  0.4653 -0.9825
 2824SOL     OW19933   0.061   2.508   3.514  0.6068 -0.6179 -0.2210
 2824SOL    HW119934   0.123   2.500   3.587  0.3000  1.7418  0.2838
 2824SOL    HW219935   0.006   2.583   3.534  1.5590  0.0005  0.0611
 2825SOL     OW19936   3.342   1.635   3.199  0.5596 -0.6922  0.2935
 2825SOL    HW119937   3.407   1.700   3.172 -0.3322  0.2973  0.5512
 2825SOL    HW219938   3.340   1.579   3.121  1.3031 -0.9628  0.4679
 2826SOL     OW19939   3.842   0.580  15.630 -0.4744  0.2381  0.4471
 2826SOL    HW119940   3.761   0.534  15.606  0.0565 -0.9965  1.0445
 2826SOL    HW219941   3.805   0.668  15.620 -0.1095  0.1293 -1.8674
 2827SOL     OW19942   3.423   3.497   4.798  0.3682  0.1617  0.0991
 2827SOL    HW119943   3.454   3.535   4.880 -2.6461  0.8766  0.9059
 2827SOL    HW219944   3.483   3.422   4.789 -1.2022 -1.0527 -0.2454
 2828SOL     OW19945   3.484   0.456  13.832  0.0562 -0.3614  0.0224
 2828SOL    HW119946   3.569   0.478  13.794 -0.3023  1.5640  0.3190
 2828SOL    HW219947   3.440   0.469  13.748 -2.3330  0.5524  1.4133
 2829SOL     OW19948   3.342   3.503   1.545  0.1258  0.1367  0.1531
 2829SOL    HW119949   3.333   3.557   1.467 -0.2848 -2.1150 -1.3418
 2829SOL    HW219950   3.351   3.568   1.615 -0.6042 -1.2069  1.5065
 2830SOL     OW19951   2.255   4.357   6.926  0.3481 -0.5865  0.9484
 2830SOL    HW119952   2.292   4.375   6.840 -2.2142 -0.5741 -0.1358
 2830SOL    HW219953   2.254   4.449   6.951 -2.6303 -0.7156  1.3437
 2831SOL     OW19954   1.086   3.683   4.441  0.0000  0.1967 -0.4557
 2831SOL    HW119955   1.077   3.704   4.533  1.6945  2.6360 -0.8734
 2831SOL    HW219956   1.017   3.733   4.396 -0.1267  0.8981  0.5319
 2832SOL     OW19957   4.152   1.613  15.177 -0.2083  0.0963 -0.5263
 2832SOL    HW119958   4.093   1.577  15.243  0.3059  0.8980  0.3727
 2832SOL    HW219959   4.111   1.699  15.162  1.1648  0.4611 -2.1323
 2833SOL     OW19960   1.285   1.606   2.119 -0.3642 -0.1462 -0.2400
 2833SOL    HW119961   1.351   1.544   2.088 -0.7520 -0.2283 -0.9078
 2833SOL    HW219962   1.327   1.692   2.114  1.5784 -1.2243 -2.7064
 2834SOL     OW19963   1.665   3.490  16.995 -0.1663  0.8913  0.0286
 2834SOL    HW119964   1.658   3.538  16.913 -2.8715  0.2629 -0.1245
 2834SOL    HW219965   1.739   3.535  17.035 -2.5227  3.2022  1.8269
 2835SOL     OW19966   4.241   0.115  14.578  1.1847  0.2299  0.0341
 2835SOL    HW119967   4.271   0.175  14.509  0.6191 -0.9065 -1.2034
 2835SOL    HW219968   4.286   0.041  14.537 -0.6796 -1.2768  0.6504
 2836SOL     OW19969   1.387   1.637   5.284 -0.5306  0.1167 -0.0876
 2836SOL    HW119970   1.413   1.694   5.357 -0.1571  1.9251 -1.6434
 2836SOL    HW219971   1.475   1.603   5.267 -0.0326  1.2357  0.2642
 2837SOL     OW19972   2.881   3.153   1.680  0.2146  0.5833  0.1399
 2837SOL    HW119973   2.788   3.174   1.686 -0.0420  0.2066 -2.2427
 2837SOL    HW219974   2.885   3.142   1.585 -0.1877 -0.4738  0.2377
 2838SOL     OW19975   3.467   1.805  11.480 -0.4052 -0.1018  0.2229
 2838SOL    HW119976   3.507   1.729  11.438  0.3183  0.7934 -0.7158
 2838SOL    HW219977   3.524   1.816  11.556 -1.0615 -0.7149  0.8018
 2839SOL     OW19978   2.369   0.682   5.997 -0.6054  0.0234 -0.1787
 2839SOL    HW119979   2.331   0.596   6.013 -0.9533  0.0932 -0.6378
 2839SOL    HW219980   2.393   0.703   6.088 -0.0245 -1.7138  0.0645
 2840SOL     OW19981   0.730   3.079   2.276  0.1633 -0.5714 -0.0852
 2840SOL    HW119982   0.679   3.055   2.354 -1.6963 -2.1712 -1.8136
 2840SOL    HW219983   0.695   3.025   2.206  0.3653 -0.7482 -0.0473
 2841SOL     OW19984   1.519   2.321   1.656 -0.2437 -0.0497  0.3161
 2841SOL    HW119985   1.462   2.325   1.732 -0.6581 -1.1279  0.0652
 2841SOL    HW219986   1.596   2.269   1.682 -0.5500 -0.9493 -0.5535
 2842SOL     OW19987   0.592   3.616   0.584 -0.1293  0.3218 -0.1598
 2842SOL    HW119988   0.616   3.659   0.666  0.4170  2.5108 -1.4682
 2842SOL    HW219989   0.659   3.549   0.592 -1.8131 -1.2325  0.9850
 2843SOL     OW19990   2.858   1.815  17.304 -0.1528 -0.1212  0.4945
 2843SOL    HW119991   2.933   1.828  17.246 -1.1999  1.7124 -0.4332
 2843SOL    HW219992   2.901   1.791  17.386 -0.2891 -2.7806 -0.2116
 2844SOL     OW19993   0.260   2.458   3.700  0.1572  0.3151 -0.0106
 2844SOL    HW119994   0.279   2.493   3.787  1.8671 -1.1921  0.2152
 2844SOL    HW219995   0.323   2.508   3.649  1.4684 -0.0283  1.2581
 2845SOL     OW19996   0.103   0.693   8.988  0.3694  0.1194 -0.1013
 2845SOL    HW119997   0.050   0.754   8.937  1.2218 -0.7498 -1.9989
 2845SOL    HW219998   0.044   0.625   9.019  0.8012 -0.5861 -0.8484
 2846SOL     OW19999   0.533   1.628   4.809 -0.4100 -0.0946 -0.0380
 2846SOL    HW120000   0.476   1.597   4.879  0.7147 -0.5508  0.6677
 2846SOL    HW220001   0.607   1.568   4.816 -0.0930  0.2059 -0.8148
 2847SOL     OW20002   0.248   1.389   8.041  0.1712 -0.0610  0.1408
 2847SOL    HW120003   0.156   1.404   8.062 -0.6856 -0.7194 -3.1387
 2847SOL    HW220004   0.288   1.444   8.108  2.4989 -0.7653 -0.6914
 2848SOL     OW20005   3.249   0.188   2.358 -0.6435  0.4569  0.1405
 2848SOL    HW120006   3.225   0.179   2.450  0.4865  2.7544  0.6539
 2848SOL    HW220007   3.189   0.256   2.327  0.4892  1.5596  0.3402
 2849SOL     OW20008   3.131   0.639  10.070 -0.6663 -0.0586  0.2498
 2849SOL    HW120009   3.152   0.571  10.007  0.8449  2.4580 -1.9563
 2849SOL    HW220010   3.060   0.679  10.020  0.5351 -0.9180 -2.1161
 2850SOL     OW20011   1.066   3.035   8.801 -0.5797  0.2868  0.0907
 2850SOL    HW120012   1.157   3.052   8.777  0.4849 -1.3626  2.9895
 2850SOL    HW220013   1.048   2.966   8.737  0.1076 -1.1390  1.4433
 2851SOL     OW20014   2.717   2.553   8.336  0.2794 -0.0552  0.2625
 2851SOL    HW120015   2.727   2.459   8.324  0.5885 -0.1910  1.5762
 2851SOL    HW220016   2.801   2.580   8.298 -0.4625  1.7135 -0.1412
 2852SOL     OW20017   3.579   3.615   6.066 -0.3741  0.3580  0.5619
 2852SOL    HW120018   3.518   3.621   5.993  0.4098 -0.5119 -0.1516
 2852SOL    HW220019   3.517   3.601   6.138  0.5892 -0.4827  1.2216
 2853SOL     OW20020   4.620   2.108   1.474  0.5187 -0.5148  0.9446
 2853SOL    HW120021   4.638   2.127   1.381 -1.9494 -0.7341  0.4258
 2853SOL    HW220022   4.534   2.069   1.461  0.2178 -0.0481  1.5341
 2854SOL     OW20023   1.486   4.386   8.298  0.1101  0.0441 -0.1131
 2854SOL    HW120024   1.400   4.348   8.280  0.1478  0.0558 -0.3257
 2854SOL    HW220025   1.552   4.325   8.264 -0.0204 -0.5553  0.7194
 2855SOL     OW20026   2.654   1.342   7.829  0.3498  0.0228  0.0755
 2855SOL    HW120027   2.737   1.318   7.869  1.0116  0.4094 -1.0592
 2855SOL    HW220028   2.604   1.376   7.904  0.3568  1.4739 -0.5680
 2856SOL     OW20029   1.973   0.908   3.050  0.5031  0.4062  0.2625
 2856SOL    HW120030   1.885   0.940   3.031 -0.8849 -2.3390  1.9642
 2856SOL    HW220031   2.023   0.978   3.092 -1.7604 -0.3281  4.2802
 2857SOL     OW20032   0.887   0.171   6.805 -0.1686  0.3703  0.2021
 2857SOL    HW120033   0.798   0.204   6.797  0.5276  2.1918  0.0718
 2857SOL    HW220034   0.907   0.166   6.899  0.3244  0.0609  0.0837
 2858SOL     OW20035   2.997   1.653   2.289 -0.7779 -0.1790  0.2778
 2858SOL    HW120036   2.917   1.641   2.239 -1.2303  2.0007  0.4837
 2858SOL    HW220037   2.997   1.587   2.358 -0.1431 -0.4378  0.0308
 2859SOL     OW20038   3.066   0.210   1.739 -0.4248  0.3625  0.0471
 2859SOL    HW120039   2.996   0.273   1.758  1.3262  1.7685  1.8959
 2859SOL    HW220040   3.125   0.274   1.699  0.7421 -1.1584 -0.6525
 2860SOL     OW20041   2.081   2.773  16.012  0.5491  0.1258 -0.5456
 2860SOL    HW120042   2.028   2.852  16.003  1.0167  0.7103  1.7478
 2860SOL    HW220043   2.028   2.701  15.977  0.1361  0.2748 -0.2276
 2861SOL     OW20044   0.451   4.162   2.214 -0.0405  0.2950  0.6943
 2861SOL    HW120045   0.460   4.119   2.129 -0.0499 -1.0854  1.3859
 2861SOL    HW220046   0.460   4.085   2.270 -0.4772 -1.5078 -1.7323
 2862SOL     OW20047   3.320   4.601   2.937  0.4253 -0.5235  0.2079
 2862SOL    HW120048   3.388   4.656   2.975 -0.1886 -0.2882  0.9451
 2862SOL    HW220049   3.373   4.555   2.871 -1.2080 -4.9713  1.9924
 2863SOL     OW20050   4.056   4.348   7.986 -0.2845  0.0763 -0.3679
 2863SOL    HW120051   4.042   4.271   8.041  0.8594 -0.6265 -1.0581
 2863SOL    HW220052   4.150   4.335   7.980  0.0074  1.9397  0.1617
 2864SOL     OW20053   2.174   4.686   6.135  0.1562  0.9219 -0.1862
 2864SOL    HW120054   2.126   4.611   6.099  1.0517  0.4182 -0.3201
 2864SOL    HW220055   2.099   4.717   6.187  0.9088 -2.4736  2.9735
 2865SOL     OW20056   0.359   4.053   8.474  0.3166 -0.0428  0.1018
 2865SOL    HW120057   0.371   4.024   8.564  1.3309  1.1784  0.3643
 2865SOL    HW220058   0.391   4.143   8.479 -1.9017  0.8397 -1.3607
 2866SOL     OW20059   0.851   0.362   7.550  0.0937  0.2845  0.0025
 2866SOL    HW120060   0.875   0.329   7.463 -1.2132 -2.1391  0.5876
 2866SOL    HW220061   0.935   0.367   7.594 -0.7887  2.8097  1.4032
 2867SOL     OW20062   4.627   4.594   4.354  0.1321 -0.0692  0.5352
 2867SOL    HW120063   4.710   4.624   4.317 -0.7104  0.8241 -0.6170
 2867SOL    HW220064   4.609   4.655   4.425 -0.0175 -0.4575  0.8316
 2868SOL     OW20065   2.291   3.552   6.646 -0.5765  0.0665  0.2995
 2868SOL    HW120066   2.211   3.585   6.686 -1.4031  0.6308 -1.8671
 2868SOL    HW220067   2.306   3.478   6.706  1.5048 -0.4876 -0.8888
 2869SOL     OW20068   4.351   1.472   0.366  0.0348 -0.0518 -0.0582
 2869SOL    HW120069   4.348   1.550   0.311 -0.7318 -0.0405 -0.0115
 2869SOL    HW220070   4.272   1.426   0.335  0.9761 -0.5498 -1.7009
 2870SOL     OW20071   1.442   2.136  11.197 -0.1094  0.5457  0.3921
 2870SOL    HW120072   1.427   2.104  11.108  1.1976 -2.1099  1.1242
 2870SOL    HW220073   1.537   2.148  11.199  0.0497 -0.6172 -0.2331
 2871SOL     OW20074   3.901   2.461   5.473 -0.6140 -0.2421  0.5514
 2871SOL    HW120075   3.943   2.397   5.530  0.5873  0.3896  0.3578
 2871SOL    HW220076   3.814   2.421   5.471  0.1016 -1.6569 -2.4189
 2872SOL     OW20077   0.028   3.859   7.455  0.0672 -0.5173 -0.3206
 2872SOL    HW120078   0.085   3.889   7.384 -1.5803 -1.5524 -2.0702
 2872SOL    HW220079   4.693   3.799   7.410 -2.0738  0.2874  1.3802
 2873SOL     OW20080   3.823   0.670  12.711  0.0036  0.2648 -0.3446
 2873SOL    HW120081   3.767   0.719  12.651 -0.9469  1.1034  1.2362
 2873SOL    HW220082   3.792   0.703  12.795  1.3654  1.7733 -0.4439
 2874SOL     OW20083   1.985   2.481   3.908 -0.1166 -0.0323 -0.1360
 2874SOL    HW120084   1.941   2.417   3.964 -0.7957 -1.5285 -2.4100
 2874SOL    HW220085   1.974   2.443   3.821 -1.9531  1.0899 -0.3961
 2875SOL     OW20086   4.065   0.765   7.973  0.2494 -0.5186 -0.0189
 2875SOL    HW120087   4.061   0.825   8.047  1.8831 -0.9568  0.4190
 2875SOL    HW220088   4.158   0.777   7.953  0.3988 -1.6188  0.0045
 2876SOL     OW20089   2.504   2.369   7.119  0.2558  0.4261  0.5888
 2876SOL    HW120090   2.587   2.379   7.072 -0.0760 -0.2956 -0.1579
 2876SOL    HW220091   2.499   2.274   7.124 -1.0773  0.4337 -0.3606
 2877SOL     OW20092   0.710   0.604   7.209 -0.1912 -0.2937  0.1269
 2877SOL    HW120093   0.686   0.551   7.285  0.7290  0.3981  0.9133
 2877SOL    HW220094   0.800   0.634   7.228  0.0629 -0.0265 -1.4919
 2878SOL     OW20095   3.481   1.557   7.980  0.0167 -0.8672 -0.1814
 2878SOL    HW120096   3.530   1.629   8.019 -1.3906  1.7185 -3.2288
 2878SOL    HW220097   3.422   1.529   8.050 -1.8036  2.7915 -0.2279
 2879SOL     OW20098   4.117   4.179   1.966  0.4200  0.4661  0.8141
 2879SOL    HW120099   4.033   4.152   1.930  0.5456  1.1694 -0.0073
 2879SOL    HW220100   4.132   4.260   1.917  0.9976 -1.1726 -1.7375
 2880SOL     OW20101   1.165   4.190  13.205 -0.3811 -0.2505 -0.0826
 2880SOL    HW120102   1.202   4.269  13.244  0.7537 -1.1199  0.6121
 2880SOL    HW220103   1.095   4.174  13.268 -0.4821  3.0162  0.6094
 2881SOL     OW20104   0.809   1.285   6.630 -0.2282  0.3232  0.0261
 2881SOL    HW120105   0.834   1.193   6.634 -0.4978  0.2166 -0.9602
 2881SOL    HW220106   0.895   1.327   6.636  0.8270 -1.8001 -0.4048
 2882SOL     OW20107   3.327   4.255   7.271 -0.5604 -0.0173  0.7054
 2882SOL    HW120108   3.402   4.314   7.278  1.4587 -2.3832 -1.1527
 2882SOL    HW220109   3.331   4.207   7.189  0.6009  0.2801  0.5872
 2883SOL     OW20110   3.706   0.589   5.024 -0.0820  0.8893  0.6436
 2883SOL    HW120111   3.759   0.611   4.948 -0.4208  0.6743  0.3444
 2883SOL    HW220112   3.767   0.561   5.092  0.4111  1.8503  0.5865
 2884SOL     OW20113   0.919   2.058   0.784  0.3045  0.5660 -0.0552
 2884SOL    HW120114   0.947   2.141   0.745  1.1472 -1.4030 -3.6770
 2884SOL    HW220115   0.943   2.093   0.870 -1.8534  2.7118 -0.3308
 2885SOL     OW20116   1.287   0.151   4.722 -0.1977  0.5924  0.4988
 2885SOL    HW120117   1.306   0.181   4.633  0.3000 -0.7476  0.1638
 2885SOL    HW220118   1.223   0.083   4.703  0.9235  0.0633 -1.3138
 2886SOL     OW20119   2.999   2.690   1.931 -0.0698  0.1030  0.0575
 2886SOL    HW120120   2.952   2.613   1.900  2.8376 -1.9762  0.8426
 2886SOL    HW220121   2.945   2.710   2.007 -0.2200  0.0527 -0.0338
 2887SOL     OW20122   3.931   2.232   1.639 -0.1497 -0.0303  0.0058
 2887SOL    HW120123   3.891   2.294   1.701  1.5188 -1.4287  2.4904
 2887SOL    HW220124   3.918   2.148   1.683  0.9814 -0.2619 -0.1091
 2888SOL     OW20125   4.050   0.423  17.478 -0.1969 -0.6945 -1.3155
 2888SOL    HW120126   4.015   0.394  17.562 -2.0834 -1.2060 -2.2758
 2888SOL    HW220127   4.145   0.419  17.490 -0.3714 -3.3380 -0.8576
 2889SOL     OW20128   4.257   1.068   7.891 -0.0738  0.3884  0.0868
 2889SOL    HW120129   4.309   1.109   7.822 -0.1674 -0.1306 -0.2829
 2889SOL    HW220130   4.289   0.978   7.893 -0.8588  0.0444 -4.0345
 2890SOL     OW20131   3.281   1.790   5.391 -0.2182  0.0881 -0.0799
 2890SOL    HW120132   3.330   1.788   5.308  0.3574 -2.0342  0.3102
 2890SOL    HW220133   3.239   1.704   5.399  0.0435 -0.2387 -2.1345
 2891SOL     OW20134   1.894   4.295  12.949 -0.1198  0.0829 -0.1708
 2891SOL    HW120135   1.950   4.373  12.943 -0.4125  0.5682  3.2739
 2891SOL    HW220136   1.959   4.232  12.980 -0.8363 -0.0778  0.9965
 2892SOL     OW20137   2.349   4.646   7.842 -0.8766  0.2988  0.1642
 2892SOL    HW120138   2.299   4.656   7.761 -1.6579 -0.6617  0.5316
 2892SOL    HW220139   2.406   4.723   7.839 -1.7693  0.9202 -0.8834
 2893SOL     OW20140   3.628   3.308   7.666 -0.3375 -0.2704  0.1603
 2893SOL    HW120141   3.704   3.353   7.629  1.0738 -1.8576  1.1205
 2893SOL    HW220142   3.665   3.234   7.714  2.1287  0.4073 -0.7267
 2894SOL     OW20143   1.694   0.310   0.999 -0.5691  0.4363 -0.4857
 2894SOL    HW120144   1.685   0.221   1.032  0.4258  1.0313  1.4461
 2894SOL    HW220145   1.686   0.346   1.088 -0.3114  2.4582 -1.2783
 2895SOL     OW20146   0.169   1.811   4.031 -0.1103  0.0530 -0.2699
 2895SOL    HW120147   0.123   1.748   4.085 -0.9298  0.1408 -0.8551
 2895SOL    HW220148   0.216   1.751   3.973  0.2475  2.1180 -2.1607
 2896SOL     OW20149   2.712   1.688  14.042 -0.1957 -0.0671  0.4577
 2896SOL    HW120150   2.661   1.637  14.104 -1.6462  1.7755  0.7472
 2896SOL    HW220151   2.682   1.640  13.965  0.4914 -0.8142  0.6500
 2897SOL     OW20152   2.738   2.467   5.838  0.2183  0.4632 -0.4290
 2897SOL    HW120153   2.750   2.372   5.838  0.4613  0.4951 -0.7570
 2897SOL    HW220154   2.717   2.480   5.746 -1.5596  2.8756  0.2855
 2898SOL     OW20155   0.534   4.649  16.659  0.2748  0.0803  0.4068
 2898SOL    HW120156   0.553   4.605  16.576  4.7669 -0.3748  1.6394
 2898SOL    HW220157   0.550   0.018  16.641  1.4707 -0.4056 -0.9799
 2899SOL     OW20158   3.557   0.114   6.944 -0.0546 -0.2482  0.4586
 2899SOL    HW120159   3.503   0.151   6.875  1.1404 -0.4633 -0.5915
 2899SOL    HW220160   3.609   0.054   6.890 -2.8397 -1.2856 -1.0742
 2900SOL     OW20161   2.313   3.408   9.224 -0.5835 -0.1634 -0.2205
 2900SOL    HW120162   2.357   3.343   9.169 -0.3648  0.1129 -0.3739
 2900SOL    HW220163   2.284   3.363   9.303  2.0641 -2.0722 -0.3463
 2901SOL     OW20164   2.172   2.620   7.973  0.4436 -0.6334  0.5902
 2901SOL    HW120165   2.112   2.686   7.937  1.7787  0.8378  1.0634
 2901SOL    HW220166   2.259   2.630   7.936 -0.3495  1.2753 -0.7522
 2902SOL     OW20167   1.128   4.464   1.426 -0.3156  0.3348  0.1006
 2902SOL    HW120168   1.202   4.525   1.421 -0.5790  0.5582 -1.3675
 2902SOL    HW220169   1.178   4.383   1.418 -1.0096 -0.3706  3.0852
 2903SOL     OW20170   1.768   4.466   9.882  0.0270 -0.0459  0.7469
 2903SOL    HW120171   1.772   4.420   9.966 -0.7182  1.1403  1.4436
 2903SOL    HW220172   1.795   4.551   9.918  0.7022 -0.2087  0.6155
 2904SOL     OW20173   1.322   1.757   4.175  0.1492  0.0404  0.6748
 2904SOL    HW120174   1.326   1.733   4.268 -0.0992 -0.6002  0.5164
 2904SOL    HW220175   1.241   1.714   4.147  0.6718 -1.0273  0.7878
 2905SOL     OW20176   3.008   1.440   3.237 -0.0009  0.2242  0.1000
 2905SOL    HW120177   3.058   1.520   3.251 -1.6393  1.2281  0.1556
 2905SOL    HW220178   2.976   1.420   3.324 -1.2526 -1.3065 -0.7123
 2906SOL     OW20179   4.252   3.263   2.638 -0.3775 -0.1489 -0.0641
 2906SOL    HW120180   4.205   3.318   2.701 -0.7304  0.2640 -0.6917
 2906SOL    HW220181   4.186   3.263   2.569 -0.4734 -0.5353  0.0280
 2907SOL     OW20182   2.190   4.204  14.785  0.5051  0.3071 -0.0370
 2907SOL    HW120183   2.192   4.244  14.698  0.1651 -0.3229 -0.3354
 2907SOL    HW220184   2.125   4.135  14.770  0.7641  0.1599 -0.4924
 2908SOL     OW20185   0.913   3.911  13.658 -0.1770 -0.2611 -0.9216
 2908SOL    HW120186   0.907   3.927  13.752  1.0015  1.3205 -1.1234
 2908SOL    HW220187   0.988   3.967  13.640  1.0634 -1.6894 -0.1693
 2909SOL     OW20188   4.381   4.055  15.494 -0.6009 -0.0013 -0.2789
 2909SOL    HW120189   4.353   4.058  15.403 -1.2497  0.1748 -0.0777
 2909SOL    HW220190   4.325   3.983  15.524  0.2508 -0.1348  1.0030
 2910SOL     OW20191   1.902   0.608   2.659 -0.5146  0.4126 -0.5960
 2910SOL    HW120192   1.864   0.537   2.711  0.8354  0.1083 -0.0178
 2910SOL    HW220193   1.954   0.648   2.729 -1.0279 -0.7612  0.4521
 2911SOL     OW20194   0.823   4.464   5.798  0.0988 -0.2298 -0.2741
 2911SOL    HW120195   0.779   4.446   5.714 -1.0339  0.4687  0.1788
 2911SOL    HW220196   0.806   4.555   5.822 -0.2705 -0.2428 -0.4781
 2912SOL     OW20197   2.012   4.680   3.252 -0.1402 -0.3641 -0.5827
 2912SOL    HW120198   1.960   4.679   3.171  1.1477 -0.2185 -1.4221
 2912SOL    HW220199   2.101   4.681   3.216  0.0652  2.0368  0.0091
 2913SOL     OW20200   2.342   3.866  13.098 -0.0562 -0.1396  0.3226
 2913SOL    HW120201   2.357   3.912  13.181 -0.0261  1.1029 -0.3603
 2913SOL    HW220202   2.413   3.902  13.045 -2.2366  2.2785 -0.9992
 2914SOL     OW20203   0.396   1.226  13.090  0.5994 -0.3708 -0.1676
 2914SOL    HW120204   0.375   1.304  13.141 -0.4530 -0.7950  0.0417
 2914SOL    HW220205   0.480   1.205  13.131  0.3826 -0.5420  0.1868
 2915SOL     OW20206   2.481   3.213   9.132 -0.0636  0.0024 -0.5068
 2915SOL    HW120207   2.479   3.122   9.162 -0.3198  0.4235  0.7507
 2915SOL    HW220208   2.562   3.215   9.081 -0.0762 -2.2979 -0.6431
 2916SOL     OW20209   4.291   2.025   5.999  0.2238  0.5279 -0.1491
 2916SOL    HW120210   4.202   2.062   5.998  0.7425  1.5994 -4.4735
 2916SOL    HW220211   4.315   2.041   6.091 -0.9304 -3.2552  0.8207
 2917SOL     OW20212   4.624   3.465   6.309  0.0236  0.0366 -0.5160
 2917SOL    HW120213   4.654   3.549   6.273  3.8828 -0.5475  1.3600
 2917SOL    HW220214   4.563   3.434   6.242  0.5051 -1.9362 -0.0437
 2918SOL     OW20215   1.021   4.390   1.679  0.0563 -0.2152  0.3955
 2918SOL    HW120216   1.021   4.455   1.750 -0.0434 -0.6610  0.8010
 2918SOL    HW220217   1.056   4.445   1.609  0.0821  0.9092  1.2812
 2919SOL     OW20218   3.583   2.611   8.016  0.0252 -0.1256  0.2031
 2919SOL    HW120219   3.617   2.611   7.927  2.4838 -1.7773  1.1392
 2919SOL    HW220220   3.497   2.583   7.984 -0.3208  0.4644  0.5919
 2920SOL     OW20221   3.530   2.889   6.356  0.0938  0.2896 -0.4188
 2920SOL    HW120222   3.496   2.952   6.292 -1.3686  1.6512  1.6970
 2920SOL    HW220223   3.589   2.845   6.295  1.2480 -2.6641  2.8616
 2921SOL     OW20224   2.534   2.578  15.641  0.0262  0.0112 -0.2490
 2921SOL    HW120225   2.452   2.547  15.680  1.8855 -1.7965  2.2144
 2921SOL    HW220226   2.574   2.493  15.619  1.1257  0.0761  1.4638
 2922SOL     OW20227   2.647   0.752  15.411 -0.6606  0.0571  0.4999
 2922SOL    HW120228   2.710   0.767  15.481 -0.6416  0.3340  0.4235
 2922SOL    HW220229   2.563   0.758  15.457 -0.4744 -0.9668  0.9711
 2923SOL     OW20230   1.028   2.787   1.328  0.4770 -0.0877  0.0933
 2923SOL    HW120231   0.934   2.791   1.345  0.2612  0.1617 -1.1835
 2923SOL    HW220232   1.032   2.691   1.334  2.1262  0.0447  1.0005
 2924SOL     OW20233   3.453   2.944   7.522  1.1163  0.3594 -0.4166
 2924SOL    HW120234   3.399   2.885   7.574  0.9622  0.1044 -0.8714
 2924SOL    HW220235   3.413   2.938   7.435 -0.1052 -0.4562  0.2064
 2925SOL     OW20236   4.219   2.351   6.569 -0.8464  0.2218 -0.2276
 2925SOL    HW120237   4.311   2.378   6.574 -0.4577 -0.4815 -3.0544
 2925SOL    HW220238   4.218   2.305   6.485 -3.5531  1.5374 -0.9146
 2926SOL     OW20239   2.896   3.396  12.507  0.2489 -0.8411  0.3565
 2926SOL    HW120240   2.807   3.364  12.525 -0.4323  0.7121 -0.2605
 2926SOL    HW220241   2.933   3.324  12.456 -0.2839 -0.2422 -0.8486
 2927SOL     OW20242   0.405   0.784   0.319  0.1707  0.5853 -0.0985
 2927SOL    HW120243   0.370   0.770   0.231 -1.9107 -0.2103  0.8638
 2927SOL    HW220244   0.419   0.699   0.361 -0.2335  0.7439  0.3582
 2928SOL     OW20245   2.468   1.020   3.524 -0.6928  0.1349 -0.1204
 2928SOL    HW120246   2.496   0.983   3.441  3.0267 -1.8998  2.0391
 2928SOL    HW220247   2.441   1.107   3.497  0.6392  0.1881 -1.2765
 2929SOL     OW20248   4.629   4.531   5.146  0.1685 -0.0073  0.2177
 2929SOL    HW120249   4.575   4.516   5.223 -1.0273  3.0581 -0.0278
 2929SOL    HW220250   4.567   4.529   5.073 -0.7711  1.0652  0.9887
 2930SOL     OW20251   0.416   4.219   5.124 -0.0876  0.2803  0.2096
 2930SOL    HW120252   0.341   4.275   5.144 -0.4852 -0.5599  1.0754
 2930SOL    HW220253   0.472   4.228   5.201  1.1851  1.4953 -0.8718
 2931SOL     OW20254   2.995   0.852  12.402 -0.3488  0.2080  0.0227
 2931SOL    HW120255   3.008   0.780  12.341  0.9693  1.7335 -1.5119
 2931SOL    HW220256   2.983   0.926  12.343 -0.1923  0.5489  0.4144
 2932SOL     OW20257   2.354   1.242   2.226  0.1794  0.2169  0.7273
 2932SOL    HW120258   2.394   1.324   2.196 -0.9617  1.0581  1.5165
 2932SOL    HW220259   2.269   1.264   2.187 -0.4654 -2.5872  0.5220
 2933SOL     OW20260   3.039   3.395   0.604 -0.2536 -0.1190  0.4950
 2933SOL    HW120261   3.076   3.319   0.648  0.0442 -0.6569 -0.6686
 2933SOL    HW220262   3.122   3.440   0.595 -0.2615 -0.3474 -0.7967
 2934SOL     OW20263   2.772   1.358   4.300 -0.0025 -0.4889  0.3862
 2934SOL    HW120264   2.843   1.299   4.324  1.1935 -0.2197 -2.5451
 2934SOL    HW220265   2.742   1.383   4.388 -0.7250 -0.5157  0.1424
 2935SOL     OW20266   0.463   0.621  15.163  0.3055  0.1420 -0.0704
 2935SOL    HW120267   0.460   0.689  15.096 -0.7601 -0.7549 -0.9223
 2935SOL    HW220268   0.373   0.588  15.158  0.2553  0.0471  1.3982
 2936SOL     OW20269   3.091   1.820  14.471 -0.1937  0.4068 -0.1292
 2936SOL    HW120270   3.008   1.823  14.424  1.5252 -0.4954 -3.2328
 2936SOL    HW220271   3.120   1.729  14.477  1.2489  0.9403  1.0790
 2937SOL     OW20272   1.632   3.749   4.042 -0.4793  0.5081  0.2154
 2937SOL    HW120273   1.626   3.764   3.948 -0.3529 -0.2432  0.0921
 2937SOL    HW220274   1.704   3.806   4.070 -0.3803  0.7029 -0.4514
 2938SOL     OW20275   3.258   1.216   0.150  0.6071 -0.1147  0.3144
 2938SOL    HW120276   3.265   1.270   0.228  1.4622  0.7221 -0.3434
 2938SOL    HW220277   3.196   1.273   0.104  0.7691 -0.8667 -0.8269
 2939SOL     OW20278   3.288   1.876  14.002 -0.3369  0.1665  0.3106
 2939SOL    HW120279   3.344   1.798  14.004 -1.5782 -0.7317 -0.4756
 2939SOL    HW220280   3.351   1.944  14.025 -0.5798  0.8932 -1.1763
 2940SOL     OW20281   1.549   3.514   1.444  0.0586 -0.1099 -0.0886
 2940SOL    HW120282   1.600   3.440   1.477 -0.4799 -0.6604 -0.5073
 2940SOL    HW220283   1.463   3.473   1.436  0.3734 -1.1414  1.9562
 2941SOL     OW20284   3.094   1.420  16.766 -0.1015  0.5289 -0.6977
 2941SOL    HW120285   3.083   1.334  16.807  0.4965  0.6349 -0.3155
 2941SOL    HW220286   3.117   1.401  16.675  0.2725 -2.5927  0.0434
 2942SOL     OW20287   3.087   1.141   7.037 -0.0018 -0.2218  0.5632
 2942SOL    HW120288   3.147   1.082   6.991 -0.4484 -0.1331 -0.1337
 2942SOL    HW220289   3.005   1.110   6.998  1.7588  0.6100 -3.7678
 2943SOL     OW20290   3.790   3.014  16.791  0.0153 -0.3083 -0.2184
 2943SOL    HW120291   3.844   3.089  16.816 -0.2330 -0.8288  1.8695
 2943SOL    HW220292   3.858   2.949  16.769  0.8728  1.1052 -1.7164
 2944SOL     OW20293   3.871   1.774   5.717 -0.0139  0.0662 -0.3166
 2944SOL    HW120294   3.914   1.690   5.729 -0.5343 -0.3950 -1.6533
 2944SOL    HW220295   3.852   1.771   5.623  0.3349 -1.0129 -0.3493
 2945SOL     OW20296   0.485   0.938  16.879  0.4368 -0.5832 -1.2872
 2945SOL    HW120297   0.555   0.874  16.863  2.1401  0.6467  1.2541
 2945SOL    HW220298   0.412   0.912  16.823  0.4704 -1.5098 -0.9020
 2946SOL     OW20299   1.986   4.519  14.513  0.5475  0.0974  0.0530
 2946SOL    HW120300   1.933   4.510  14.434 -1.6347 -1.8644  1.7357
 2946SOL    HW220301   1.924   4.570  14.566  3.1665  0.9007  2.3498
 2947SOL     OW20302   3.713   0.997   2.891  0.1384  0.2580 -0.2029
 2947SOL    HW120303   3.676   0.926   2.942 -0.4392  0.7130  0.0075
 2947SOL    HW220304   3.635   1.043   2.860  0.5185  0.2563 -1.1720
 2948SOL     OW20305   2.403   3.674  15.450  0.4044  0.6261 -0.2654
 2948SOL    HW120306   2.478   3.712  15.495  1.0168 -1.4402  0.4609
 2948SOL    HW220307   2.333   3.733  15.479  1.3223  1.1912  0.7749
 2949SOL     OW20308   0.152   3.861  15.627 -0.2942 -0.4013  0.0482
 2949SOL    HW120309   0.087   3.803  15.667 -0.4196 -0.0129  0.4105
 2949SOL    HW220310   0.185   3.897  15.709 -0.8865  2.5229 -0.9809
 2950SOL     OW20311   1.638   1.664   1.598 -0.2695 -0.2805  0.5942
 2950SOL    HW120312   1.732   1.649   1.590 -0.2128  0.3828  0.0720
 2950SOL    HW220313   1.611   1.686   1.509 -0.9318 -1.6845  0.4516
 2951SOL     OW20314   2.214   3.079   9.041 -0.0767 -0.2675 -0.7724
 2951SOL    HW120315   2.178   3.001   9.083  1.2021  0.2843  1.3183
 2951SOL    HW220316   2.279   3.034   8.987  2.3342 -1.3487  3.0833
 2952SOL     OW20317   1.825   2.404   0.352  0.1990  0.4537  0.1884
 2952SOL    HW120318   1.774   2.388   0.432 -0.2289  1.0613  0.0347
 2952SOL    HW220319   1.873   2.480   0.383  0.8235 -0.0148  0.3678
 2953SOL     OW20320   0.382   1.237   4.729  0.5164 -0.2424  0.0966
 2953SOL    HW120321   0.287   1.235   4.717  0.5581 -1.7030 -0.0469
 2953SOL    HW220322   0.384   1.146   4.759  0.9087 -0.1158  0.4502
 2954SOL     OW20323   4.142   3.490   7.995 -0.0334 -0.1331 -0.4990
 2954SOL    HW120324   4.108   3.578   8.014  0.2803  0.3950 -2.3917
 2954SOL    HW220325   4.062   3.439   7.983  0.1050 -0.3533 -0.4826
 2955SOL     OW20326   1.250   0.901   4.828 -0.2959  0.1858 -0.2190
 2955SOL    HW120327   1.217   0.925   4.742 -0.5458 -0.2604 -0.2474
 2955SOL    HW220328   1.278   0.810   4.813  1.2766  0.7322 -0.5448
 2956SOL     OW20329   3.700   3.878   9.753 -0.1571  0.6160  0.0870
 2956SOL    HW120330   3.683   3.829   9.833  0.7526  0.3102  0.0984
 2956SOL    HW220331   3.774   3.936   9.775  0.9848  0.0414 -2.2012
 2957SOL     OW20332   0.962   0.357   2.649  0.3874  0.7275  0.2680
 2957SOL    HW120333   1.002   0.432   2.692 -0.6103  0.7017  1.2605
 2957SOL    HW220334   0.869   0.360   2.672  0.4121 -0.2954  0.4995
 2958SOL     OW20335   0.179   2.525   5.250 -0.2669  0.1848  0.0201
 2958SOL    HW120336   0.156   2.497   5.339  0.5077 -0.4846  0.0039
 2958SOL    HW220337   0.196   2.442   5.206  3.6929  1.1894 -0.3076
 2959SOL     OW20338   1.683   2.186   8.392  0.2791 -0.4128 -0.6475
 2959SOL    HW120339   1.690   2.096   8.361  0.0580 -0.7380  0.2373
 2959SOL    HW220340   1.775   2.187   8.416 -0.2687  1.4852  1.3929
 2960SOL     OW20341   0.907   0.031   2.086 -0.1483  0.2837 -0.3840
 2960SOL    HW120342   0.963   0.103   2.116 -1.0112  0.3386  1.0984
 2960SOL    HW220343   0.870   4.713   2.164 -0.2727  1.4336  0.1806
 2961SOL     OW20344   0.348   1.245   9.001 -0.4846 -0.1034  0.4111
 2961SOL    HW120345   0.313   1.162   9.033 -3.5099  0.9383 -0.2216
 2961SOL    HW220346   0.412   1.285   9.060 -0.2702  2.2179 -1.3683
 2962SOL     OW20347   3.060   4.235   4.466 -0.2497 -0.3492 -0.3978
 2962SOL    HW120348   3.137   4.184   4.442 -0.4763 -0.6017 -0.5926
 2962SOL    HW220349   3.072   4.318   4.420  0.4034  0.3732  1.0963
 2963SOL     OW20350   0.020   4.000   1.984  0.2102  0.3012  0.4448
 2963SOL    HW120351   4.672   4.029   2.040  0.6816 -1.0283  1.7436
 2963SOL    HW220352   0.093   4.021   2.043  0.4481  3.9251 -1.1424
 2964SOL     OW20353   0.881   3.993   1.356 -0.5102 -0.1522 -0.1289
 2964SOL    HW120354   0.945   3.974   1.287 -0.7731  2.5543 -1.1039
 2964SOL    HW220355   0.921   4.064   1.407  0.1822  0.4579 -1.5288
 2965SOL     OW20356   4.009   3.115   7.178 -0.6868  0.6405 -0.5771
 2965SOL    HW120357   4.032   3.208   7.179 -2.3386  1.0004  2.0083
 2965SOL    HW220358   4.093   3.070   7.169 -0.1854  1.8587 -1.9254
 2966SOL     OW20359   2.220   0.599  15.891 -0.1832  0.4037 -0.2400
 2966SOL    HW120360   2.224   0.646  15.808 -2.0909  0.5011 -0.2801
 2966SOL    HW220361   2.164   0.656  15.943  0.9815 -0.0911  1.5870
 2967SOL     OW20362   1.991   4.501   1.850  0.1610 -0.1630 -0.3776
 2967SOL    HW120363   1.931   4.445   1.800  0.6152 -1.6538  0.7419
 2967SOL    HW220364   1.962   4.591   1.834 -0.8016 -0.3015  0.5687
 2968SOL     OW20365   2.626   0.116  15.993 -0.3492  0.6683 -0.3532
 2968SOL    HW120366   2.568   0.151  16.060 -0.6732  0.4483 -0.5179
 2968SOL    HW220367   2.709   0.160  16.013 -1.3577  3.0595 -1.3715
 2969SOL     OW20368   2.658   0.088   4.565 -0.4450  0.3920 -0.4026
 2969SOL    HW120369   2.750   0.063   4.558 -0.6718 -0.5799  0.0373
 2969SOL    HW220370   2.629   0.002   4.598  0.9396 -0.5793 -1.7207
 2970SOL     OW20371   0.465   0.376   3.179 -0.4047  0.2528 -0.1234
 2970SOL    HW120372   0.503   0.463   3.166  0.6199 -0.3961 -1.5374
 2970SOL    HW220373   0.525   0.321   3.128 -0.5638  0.4582 -0.5321
 2971SOL     OW20374   1.064   4.520  10.520 -0.0711 -0.0227 -0.1726
 2971SOL    HW120375   1.090   4.429  10.512  3.2860  0.8693  0.5384
 2971SOL    HW220376   1.129   4.539  10.588  0.0141  0.6659 -0.4505
 2972SOL     OW20377   0.186   1.109  16.016  0.2329 -0.2192 -0.2461
 2972SOL    HW120378   0.156   1.121  16.105 -1.8192 -1.4780 -0.7807
 2972SOL    HW220379   0.201   1.199  15.987  2.1595 -1.2530 -2.5504
 2973SOL     OW20380   4.094   1.388   6.977  0.0458 -0.1007  0.2589
 2973SOL    HW120381   4.005   1.416   6.956 -1.0129 -2.1719  2.0350
 2973SOL    HW220382   4.093   1.380   7.072 -0.0943  1.0042  0.3436
 2974SOL     OW20383   4.669   1.125   3.493  0.3300 -0.5392 -0.3979
 2974SOL    HW120384   4.682   1.173   3.411  2.0097 -0.5101 -0.1192
 2974SOL    HW220385   4.605   1.060   3.467  0.8389 -0.3404 -2.1598
 2975SOL     OW20386   0.623   4.603   3.477  0.1940  0.5150 -0.1176
 2975SOL    HW120387   0.631   4.598   3.382  3.5080 -0.7083  0.2331
 2975SOL    HW220388   0.654   4.693   3.484  1.9670 -0.0667 -0.6318
 2976SOL     OW20389   2.931   1.801  13.596  0.4844  0.1726  0.2910
 2976SOL    HW120390   2.938   1.863  13.524 -2.0959  0.7416  0.5496
 2976SOL    HW220391   2.969   1.846  13.671 -0.6022  0.8877  0.4021
 2977SOL     OW20392   3.710   0.815   2.437 -0.2351  0.2059 -0.3618
 2977SOL    HW120393   3.787   0.859   2.400 -0.6749  0.9881 -0.3477
 2977SOL    HW220394   3.641   0.841   2.376 -0.7769  1.0752  0.6166
 2978SOL     OW20395   4.617   2.070   2.493  0.1130 -0.3419 -0.1707
 2978SOL    HW120396   4.602   2.001   2.430 -2.6819 -0.0634  0.1940
 2978SOL    HW220397   4.556   2.044   2.562 -0.2037  0.9506  0.0494
 2979SOL     OW20398   2.980   2.681   7.464 -0.1388  0.0478  0.3111
 2979SOL    HW120399   2.916   2.717   7.402  2.3207 -0.8456 -2.7236
 2979SOL    HW220400   3.046   2.748   7.446  1.4853 -1.2248  1.5720
 2980SOL     OW20401   3.607   0.530   2.348 -0.3714  0.2177  0.0113
 2980SOL    HW120402   3.700   0.547   2.363  0.4660 -2.9244 -1.6056
 2980SOL    HW220403   3.556   0.609   2.328  1.5315  1.9280  2.0048
 2981SOL     OW20404   4.403   3.941   2.880  0.1868  0.4786  0.2717
 2981SOL    HW120405   4.334   3.927   2.816 -0.2807 -0.1328  0.9147
 2981SOL    HW220406   4.355   3.958   2.961 -0.1353 -0.3542  0.2549
 2982SOL     OW20407   0.469   2.629  15.918  0.1011 -0.4086 -0.4044
 2982SOL    HW120408   0.543   2.689  15.906  0.5032 -1.0661 -1.1832
 2982SOL    HW220409   0.474   2.599  15.828 -3.0960  3.0318 -1.7076
 2983SOL     OW20410   3.262   3.970   2.061  0.0285  0.1690 -0.1849
 2983SOL    HW120411   3.334   3.908   2.049 -1.3827 -1.3431 -0.8756
 2983SOL    HW220412   3.193   3.913   2.095  1.4809 -0.7860  1.1161
 2984SOL     OW20413   1.885   3.644  12.471  0.3620  0.5586 -0.1158
 2984SOL    HW120414   1.793   3.656  12.496  0.1714  1.3685 -1.1771
 2984SOL    HW220415   1.911   3.728  12.433  0.5699  1.0938  1.2109
 2985SOL     OW20416   0.195   3.542  16.730  0.1846 -0.1571 -0.7286
 2985SOL    HW120417   0.230   3.589  16.654 -3.6946  1.3251 -1.6354
 2985SOL    HW220418   0.134   3.483  16.685 -1.7032  1.5429 -0.4420
 2986SOL     OW20419   2.860   3.362  16.873 -0.0907  0.6940 -0.5059
 2986SOL    HW120420   2.911   3.305  16.929  0.0393 -0.4141 -1.7506
 2986SOL    HW220421   2.847   3.432  16.937 -0.0317 -1.9305  2.3425
 2987SOL     OW20422   1.022   3.676   7.914 -0.1493  0.1693 -0.1597
 2987SOL    HW120423   0.989   3.595   7.876  2.0556 -1.0198  0.4554
 2987SOL    HW220424   1.016   3.644   8.004  0.2053  2.8187  0.8067
 2988SOL     OW20425   1.950   1.045   6.865  0.7854 -0.0508 -0.1905
 2988SOL    HW120426   1.972   0.990   6.941  0.8140  0.2499  0.0206
 2988SOL    HW220427   1.996   1.126   6.884 -0.8159  0.3228  2.2509
 2989SOL     OW20428   3.262   0.834   6.551  0.1906  0.1018  0.0392
 2989SOL    HW120429   3.301   0.920   6.537 -0.4646  0.4288  0.2461
 2989SOL    HW220430   3.183   0.862   6.597 -0.7485  3.0121 -3.3199
 2990SOL     OW20431   3.794   3.833   6.881  0.0990  0.1479  0.3260
 2990SOL    HW120432   3.875   3.840   6.831 -1.8432 -0.4819 -2.9450
 2990SOL    HW220433   3.735   3.808   6.809 -1.3416  1.0352  1.2058
 2991SOL     OW20434   0.662   2.657   1.058 -0.5442 -0.4689  0.4200
 2991SOL    HW120435   0.672   2.565   1.085 -2.1141 -0.5825  0.5823
 2991SOL    HW220436   0.748   2.683   1.024 -0.1191 -0.1311  1.7492
 2992SOL     OW20437   4.550   1.905   1.812  0.0929  0.4960  0.0899
 2992SOL    HW120438   4.534   1.987   1.764 -2.9856 -0.8862 -1.2589
 2992SOL    HW220439   4.511   1.925   1.897  0.5663  0.1754  0.3823
 2993SOL     OW20440   3.722   2.257   8.505 -0.2381  0.0657 -0.1159
 2993SOL    HW120441   3.708   2.220   8.593  3.0791 -0.7876  0.0561
 2993SOL    HW220442   3.654   2.323   8.491  0.3635  0.2844 -1.9269
 2994SOL     OW20443   2.886   3.160   5.034 -0.5432 -0.2415  0.2377
 2994SOL    HW120444   2.823   3.130   4.968 -0.0605 -1.0421  0.1398
 2994SOL    HW220445   2.942   3.204   4.970 -0.1539  1.0832  1.5005
 2995SOL     OW20446   2.171   0.924   0.027  0.5211  0.5268 -0.3330
 2995SOL    HW120447   2.124   1.005   0.009 -2.1431 -0.8734  0.2413
 2995SOL    HW220448   2.155   0.875  17.643  0.2828 -2.1928  1.3710
 2996SOL     OW20449   0.709   3.755  11.701  0.3392  0.2462 -0.0540
 2996SOL    HW120450   0.635   3.711  11.744 -1.2759  1.2597 -1.8210
 2996SOL    HW220451   0.660   3.803  11.635 -1.0624  2.0166  2.2836
 2997SOL     OW20452   2.097   1.551  10.910  0.5280  0.4481 -0.1726
 2997SOL    HW120453   2.156   1.491  10.955 -1.2744 -0.5575  0.8556
 2997SOL    HW220454   2.070   1.483  10.848  1.5950 -0.3485  0.2405
 2998SOL     OW20455   4.012   3.870   9.490  0.4905 -0.2473 -0.0796
 2998SOL    HW120456   4.033   3.946   9.435 -1.5655  0.3709 -0.0024
 2998SOL    HW220457   4.090   3.861   9.546  0.8098 -0.0105 -0.4889
 2999SOL     OW20458   1.548   2.251   1.222 -0.1624 -0.2404 -0.2665
 2999SOL    HW120459   1.584   2.190   1.157 -1.8285 -0.8923 -0.5690
 2999SOL    HW220460   1.614   2.252   1.291  0.1471 -1.0105 -0.5490
 3000SOL     OW20461   3.367   2.082  17.310 -0.5481 -0.3989  0.1967
 3000SOL    HW120462   3.345   2.000  17.267 -0.2512  0.5881 -1.8183
 3000SOL    HW220463   3.278   2.114  17.323 -0.5198 -0.1380 -0.2477
 3001SOL     OW20464   3.336   0.039  10.562  0.5088  0.1896 -0.2064
 3001SOL    HW120465   3.263   0.101  10.567 -0.9273 -1.4771 -0.5162
 3001SOL    HW220466   3.404   0.089  10.607 -1.0520  0.6022  1.6893
 3002SOL     OW20467   3.452   3.682   4.567  0.2623 -0.3230 -0.2174
 3002SOL    HW120468   3.446   3.628   4.646 -2.2214 -0.3111 -0.4100
 3002SOL    HW220469   3.525   3.644   4.517  1.4330 -1.2315  2.1693
 3003SOL     OW20470   3.548   1.935   0.994  0.5120 -0.2334 -0.7828
 3003SOL    HW120471   3.612   1.955   1.063  1.1120  0.8100 -1.6574
 3003SOL    HW220472   3.474   1.915   1.052 -0.8823  1.8610 -1.8167
 3004SOL     OW20473   3.447   3.597   6.308 -0.4473  0.5156  0.1301
 3004SOL    HW120474   3.519   3.639   6.355  1.0116 -1.5685 -0.2698
 3004SOL    HW220475   3.386   3.620   6.378 -0.7588 -0.5086  0.1892
 3005SOL     OW20476   2.144   0.358   5.180 -0.2402 -0.3332 -0.2716
 3005SOL    HW120477   2.079   0.414   5.221  0.7848  0.4052  0.3588
 3005SOL    HW220478   2.187   0.401   5.106 -2.4130 -0.9793 -1.8992
 3006SOL     OW20479   1.281   1.700   4.752  0.0242  0.0621 -0.0288
 3006SOL    HW120480   1.294   1.645   4.829  0.0984 -0.4839 -0.4318
 3006SOL    HW220481   1.186   1.706   4.744 -0.2268 -1.1066  2.1914
 3007SOL     OW20482   0.532   4.261   5.377 -0.8390  0.0499 -0.0204
 3007SOL    HW120483   0.510   4.206   5.452  0.5761 -0.1855  0.2266
 3007SOL    HW220484   0.552   4.347   5.413  1.6723 -1.4088  2.0180
 3008SOL     OW20485   1.219   4.594   3.196  0.3225 -0.6529 -0.3723
 3008SOL    HW120486   1.297   4.556   3.238  0.7756 -0.5881 -1.1647
 3008SOL    HW220487   1.238   4.688   3.196 -2.8526 -0.0018 -0.6656
 3009SOL     OW20488   3.274   3.706   6.474  0.0741 -0.7581 -0.4351
 3009SOL    HW120489   3.269   3.793   6.514 -0.5961  0.0011 -2.1998
 3009SOL    HW220490   3.202   3.723   6.414 -0.3018 -1.1496 -0.0956
 3010SOL     OW20491   1.287   2.179   8.645 -0.3327  0.0360  0.3749
 3010SOL    HW120492   1.335   2.149   8.569 -0.3182 -0.0042  0.4001
 3010SOL    HW220493   1.358   2.221   8.694  1.7550 -0.3618 -2.3650
 3011SOL     OW20494   3.642   4.123   2.195 -0.3703 -0.5602  0.0815
 3011SOL    HW120495   3.650   4.062   2.122 -2.2794 -0.6195 -0.0645
 3011SOL    HW220496   3.553   4.155   2.181 -0.3729 -0.3313  0.6066
 3012SOL     OW20497   2.517   4.100   4.387 -1.1429  0.5409  0.4450
 3012SOL    HW120498   2.477   4.175   4.431 -1.3087  0.9966 -0.4798
 3012SOL    HW220499   2.606   4.094   4.421 -0.2962 -1.8323 -2.1767
 3013SOL     OW20500   2.591   0.116   4.277  0.5659  0.0974  0.0217
 3013SOL    HW120501   2.586   0.147   4.368 -1.8989 -1.2062  0.3356
 3013SOL    HW220502   2.685   0.095   4.276  0.6818  0.6230  0.0608
 3014SOL     OW20503   2.929   3.165   1.414  0.0155 -0.2165 -0.1563
 3014SOL    HW120504   2.990   3.188   1.344 -0.5016  1.9641  0.1367
 3014SOL    HW220505   2.846   3.155   1.367 -1.0872  2.6596  1.2393
 3015SOL     OW20506   1.675   2.737  10.425 -0.4613 -0.0090 -1.5293
 3015SOL    HW120507   1.646   2.673  10.360  1.7801 -1.7424 -0.8159
 3015SOL    HW220508   1.634   2.700  10.503  1.0992 -2.0868 -1.7015
 3016SOL     OW20509   3.613   0.376  15.560 -0.0748 -0.4219  0.2202
 3016SOL    HW120510   3.660   0.306  15.516  1.1324 -0.3867  1.4390
 3016SOL    HW220511   3.592   0.429  15.483  1.0596 -1.2487 -0.6516
 3017SOL     OW20512   0.012   3.481   4.818 -0.0134  0.2372 -0.0882
 3017SOL    HW120513   0.008   3.401   4.871 -0.4097 -0.4398 -1.1345
 3017SOL    HW220514   0.034   3.449   4.730  1.2752  0.5236  0.1316
 3018SOL     OW20515   3.472   0.716   4.484 -0.2568 -0.0350 -0.5019
 3018SOL    HW120516   3.446   0.636   4.530  0.8830 -1.0533 -1.6427
 3018SOL    HW220517   3.417   0.782   4.526 -1.2381 -0.8498 -0.5082
 3019SOL     OW20518   0.314   0.609  11.507 -0.2189  0.5932 -0.0832
 3019SOL    HW120519   0.346   0.699  11.509 -1.0159  0.8519  1.0046
 3019SOL    HW220520   0.258   0.606  11.429  0.7739 -1.1997 -0.7320
 3020SOL     OW20521   2.268   1.094   8.807  0.0872  0.0809 -0.0489
 3020SOL    HW120522   2.364   1.095   8.815  0.3680  1.0275 -3.4062
 3020SOL    HW220523   2.244   1.186   8.798  1.4523  0.3369 -1.0871
 3021SOL     OW20524   0.416   3.900   7.829 -0.1146 -0.4956 -0.1869
 3021SOL    HW120525   0.458   3.981   7.799  0.8676 -0.3968  1.4793
 3021SOL    HW220526   0.357   3.883   7.755 -1.2817  0.6191  0.4851
 3022SOL     OW20527   2.293   4.028  15.779  0.1895 -0.3606  0.3012
 3022SOL    HW120528   2.281   3.950  15.725 -0.0021 -1.5345  2.0430
 3022SOL    HW220529   2.355   4.085  15.733 -0.0466 -1.0611 -0.8939
 3023SOL     OW20530   1.306   1.498  11.032 -0.3586 -0.1585 -0.1574
 3023SOL    HW120531   1.317   1.404  11.050 -0.0770  0.3249  2.1909
 3023SOL    HW220532   1.214   1.489  11.009 -0.8554  0.8206  1.4890
 3024SOL     OW20533   4.411   3.636   1.499  0.1958  0.4857  0.2577
 3024SOL    HW120534   4.489   3.689   1.516  1.4700 -0.9422 -1.0918
 3024SOL    HW220535   4.385   3.673   1.415 -1.4183 -1.1285  0.0425
 3025SOL     OW20536   4.203   1.494   8.825  0.0132  0.0034 -0.1806
 3025SOL    HW120537   4.152   1.413   8.836 -2.3689  1.2342 -2.2971
 3025SOL    HW220538   4.207   1.509   8.731 -1.0208  0.8363 -0.0975
 3026SOL     OW20539   3.401   4.477   4.099 -0.1964  0.1370  0.1672
 3026SOL    HW120540   3.363   4.426   4.170 -2.0900  0.2994 -0.7397
 3026SOL    HW220541   3.418   4.566   4.130 -2.1032  0.8510 -0.8463
 3027SOL     OW20542   4.681   4.257   6.629 -0.0757 -0.4871 -0.1463
 3027SOL    HW120543   4.626   4.331   6.656  0.6097  0.3498 -1.0189
 3027SOL    HW220544   0.012   4.288   6.557  1.8330  0.1972  1.5876
 3028SOL     OW20545   3.977   1.391   3.313  0.5390 -0.1806  0.2959
 3028SOL    HW120546   3.976   1.485   3.331 -0.7868  0.2217 -1.8327
 3028SOL    HW220547   4.014   1.388   3.224 -1.8066  0.9761 -0.7058
 3029SOL     OW20548   1.704   0.849   7.925  0.3937 -0.5881  0.3813
 3029SOL    HW120549   1.675   0.853   8.016  1.1481  0.3198  0.5906
 3029SOL    HW220550   1.739   0.761   7.911  0.5646 -0.7190  1.6626
 3030SOL     OW20551   2.096   2.631   4.299 -0.3150 -0.1719  0.1832
 3030SOL    HW120552   2.119   2.542   4.272 -1.5824 -0.1141 -1.1416
 3030SOL    HW220553   2.178   2.674   4.277 -1.4667  2.2732  0.7023
 3031SOL     OW20554   0.769   1.421   3.668 -0.9135 -0.2002  0.4000
 3031SOL    HW120555   0.740   1.329   3.672  1.2487 -0.9840 -1.9119
 3031SOL    HW220556   0.856   1.420   3.709 -0.7824 -0.0756  0.1268
 3032SOL     OW20557   0.402   3.248   2.316 -0.3643 -0.1117 -0.0896
 3032SOL    HW120558   0.479   3.198   2.290 -0.0598  0.4675 -0.3000
 3032SOL    HW220559   0.358   3.256   2.232  2.5213 -1.6514 -1.7637
 3033SOL     OW20560   2.086   2.978   6.407  0.2707 -0.1197  0.5796
 3033SOL    HW120561   2.125   2.941   6.486  1.4611 -1.4814 -0.6354
 3033SOL    HW220562   2.165   3.021   6.374 -0.3646 -0.2234 -1.0729
 3034SOL     OW20563   0.396   1.142   9.290  0.1921  0.3895  0.3836
 3034SOL    HW120564   0.456   1.070   9.312  1.9223  0.9942 -2.3125
 3034SOL    HW220565   0.454   1.217   9.276 -1.1116  1.2075 -0.6126
 3035SOL     OW20566   0.949   3.766   6.807 -0.1770 -0.6036  0.4132
 3035SOL    HW120567   0.942   3.823   6.731  3.1637  1.9834  2.0262
 3035SOL    HW220568   0.966   3.834   6.873  1.6087  0.2107 -0.8803
 3036SOL     OW20569   2.737   4.458   5.327  0.4596  0.5475  0.0584
 3036SOL    HW120570   2.729   4.550   5.351  2.6030  0.0823  2.5327
 3036SOL    HW220571   2.817   4.447   5.276 -0.4378 -2.6697 -0.6656
 3037SOL     OW20572   4.556   4.557   2.586  0.1360 -0.1386 -0.0241
 3037SOL    HW120573   4.526   4.647   2.572 -0.3628 -0.3419 -0.2890
 3037SOL    HW220574   4.624   4.555   2.520 -0.2104  1.2187 -0.4242
 3038SOL     OW20575   1.426   0.928   3.336 -0.3471 -0.4113 -0.2118
 3038SOL    HW120576   1.462   0.988   3.270  0.9780 -0.6491  0.3085
 3038SOL    HW220577   1.380   0.862   3.285  0.9033 -0.1587 -1.6557
 3039SOL     OW20578   1.529   1.851   2.568 -0.4339 -0.0698 -0.2067
 3039SOL    HW120579   1.573   1.876   2.487  0.2157 -0.6187 -0.0166
 3039SOL    HW220580   1.601   1.823   2.623 -0.4191  0.2805 -0.0481
 3040SOL     OW20581   1.498   3.849   8.808  0.2150 -0.2932  0.3013
 3040SOL    HW120582   1.403   3.859   8.812  0.2132  1.0341 -2.9564
 3040SOL    HW220583   1.524   3.917   8.870  1.3948  1.4092 -2.0335
 3041SOL     OW20584   2.121   0.031   4.006  0.0320 -0.5298 -0.1461
 3041SOL    HW120585   2.166   4.685   4.052 -1.9249 -1.2148  0.7354
 3041SOL    HW220586   2.030   0.012   4.029  0.2418 -0.0779  1.0753
 3042SOL     OW20587   0.702   3.895   8.058 -0.3681 -0.0814 -0.2659
 3042SOL    HW120588   0.736   3.949   7.987 -1.8940  1.6773  0.3390
 3042SOL    HW220589   0.654   3.829   8.008 -1.6292 -0.0275  0.8654
 3043SOL     OW20590   1.597   4.385  11.503 -0.0551  0.6867  0.3815
 3043SOL    HW120591   1.672   4.375  11.445  0.6289  1.3509  1.1414
 3043SOL    HW220592   1.553   4.302  11.486 -0.7401  0.9999  0.6207
 3044SOL     OW20593   2.838   1.991   6.129 -0.7311 -0.4013 -0.0958
 3044SOL    HW120594   2.810   1.942   6.052 -3.2972  0.5630  0.2156
 3044SOL    HW220595   2.933   1.995   6.112 -0.5605 -0.8152  0.7941
 3045SOL     OW20596   0.988   0.472  12.292  0.3309  0.1584 -0.7689
 3045SOL    HW120597   1.051   0.445  12.359 -1.1839  0.2090  0.6740
 3045SOL    HW220598   1.001   0.401  12.230 -1.3433  0.1409 -1.0897
 3046SOL     OW20599   0.022   2.286  11.525  0.4809  0.4664 -0.3064
 3046SOL    HW120600   4.696   2.319  11.600 -2.9055 -0.3358 -2.1821
 3046SOL    HW220601   0.114   2.309  11.535  0.6378  0.4636 -1.6603
 3047SOL     OW20602   0.464   2.158   2.603 -0.2575  0.2576  0.0526
 3047SOL    HW120603   0.420   2.243   2.602 -1.3538 -0.3199  0.0038
 3047SOL    HW220604   0.492   2.139   2.514  1.9013 -0.3087  0.8354
 3048SOL     OW20605   3.773   0.835   2.094 -0.1481 -0.3415 -0.2562
 3048SOL    HW120606   3.700   0.845   2.156 -0.1471 -0.8859 -0.1674
 3048SOL    HW220607   3.849   0.854   2.149 -0.0130 -0.8699 -0.2623
 3049SOL     OW20608   3.119   4.674   3.782  0.0817  0.2027 -0.2126
 3049SOL    HW120609   3.034   4.686   3.740  0.2137  0.5280 -0.3884
 3049SOL    HW220610   3.190   4.707   3.727 -1.2552  0.8470 -1.5504
 3050SOL     OW20611   3.990   0.826  14.563  0.5585 -0.0198 -0.0073
 3050SOL    HW120612   3.980   0.796  14.473 -0.1074 -0.2298  0.1359
 3050SOL    HW220613   4.069   0.780  14.592  1.2372  1.1092 -0.1030
 3051SOL     OW20614   2.977   2.017   4.615 -0.1134  0.0557 -0.0127
 3051SOL    HW120615   2.929   2.073   4.553  0.4246 -0.6029 -1.0322
 3051SOL    HW220616   2.948   2.054   4.698  1.8525  0.9439  0.2604
 3052SOL     OW20617   2.962   3.451   3.302 -0.3495 -0.4342 -0.2841
 3052SOL    HW120618   2.892   3.422   3.360 -0.6554  0.9185  0.0347
 3052SOL    HW220619   2.997   3.531   3.341  0.8766 -1.0451 -0.1486
 3053SOL     OW20620   3.888   1.705   6.361  0.0215 -0.1937  0.4361
 3053SOL    HW120621   3.947   1.747   6.424  0.2627  0.9268 -0.5231
 3053SOL    HW220622   3.882   1.770   6.291 -2.0704 -0.5874  0.2580
 3054SOL     OW20623   0.209   3.592  14.920 -0.3937 -0.3148 -0.3665
 3054SOL    HW120624   0.115   3.604  14.904 -0.3810  1.1439  0.7716
 3054SOL    HW220625   0.246   3.652  14.856  1.1742 -0.5600  0.3045
 3055SOL     OW20626   1.012   2.270   0.653  0.1014  0.0996  0.1458
 3055SOL    HW120627   0.999   2.301   0.563  0.3739 -0.5390 -0.1214
 3055SOL    HW220628   1.106   2.248   0.656 -0.0482 -0.6960 -0.7033
 3056SOL     OW20629   4.248   0.318   1.050  0.2528  0.0631 -0.3521
 3056SOL    HW120630   4.339   0.304   1.023 -0.1512 -1.9348 -0.7253
 3056SOL    HW220631   4.258   0.313   1.145  0.1206  2.0393 -0.2406
 3057SOL     OW20632   0.506   3.658   3.910 -0.1375  0.4599  0.3535
 3057SOL    HW120633   0.452   3.646   3.832  0.2870  0.6895  0.0235
 3057SOL    HW220634   0.457   3.717   3.967 -0.2881  1.8346 -1.1877
 3058SOL     OW20635   1.061   1.300   8.665  0.0044  0.0421 -0.2432
 3058SOL    HW120636   1.070   1.214   8.706 -2.3326 -0.7632 -1.4066
 3058SOL    HW220637   1.076   1.356   8.741 -0.9808  2.3310 -1.7347
 3059SOL     OW20638   4.433   3.986   8.562 -0.3443  0.1917 -0.3508
 3059SOL    HW120639   4.437   3.908   8.617 -0.4619  0.1320 -0.4266
 3059SOL    HW220640   4.370   4.044   8.606 -1.2372 -3.5306  3.2843
 3060SOL     OW20641   0.585   4.517   3.186  0.0341  0.7529 -0.3757
 3060SOL    HW120642   0.511   4.571   3.213 -1.8793 -2.3148  0.4716
 3060SOL    HW220643   0.551   4.429   3.171  2.2494 -0.3454  1.0146
 3061SOL     OW20644   3.896   0.714   3.490 -0.2943 -0.1986 -0.4016
 3061SOL    HW120645   3.819   0.735   3.543  1.4623  1.3657  1.5490
 3061SOL    HW220646   3.930   0.651   3.552  0.4996  1.0998  0.4773
 3062SOL     OW20647   4.686   3.765   8.408 -0.4578 -0.2547  0.3880
 3062SOL    HW120648   4.697   3.824   8.333 -0.1192  0.2454  0.8356
 3062SOL    HW220649   4.688   3.677   8.369 -1.8600  0.3518 -1.0886
 3063SOL     OW20650   1.720   1.224   2.162 -0.5032  0.7403  0.1734
 3063SOL    HW120651   1.753   1.283   2.094 -0.4076  2.3503  1.5962
 3063SOL    HW220652   1.646   1.274   2.198 -0.9597  0.4393 -0.3447
 3064SOL     OW20653   2.679   3.414   2.630 -0.0205  0.1073 -0.7442
 3064SOL    HW120654   2.618   3.463   2.575 -1.8486 -2.4537 -1.0174
 3064SOL    HW220655   2.714   3.355   2.563  3.3460 -1.6629  2.5592
 3065SOL     OW20656   3.238   3.130   9.636 -0.1378 -0.1667  0.5956
 3065SOL    HW120657   3.181   3.103   9.708  0.5990 -1.5943  0.6512
 3065SOL    HW220658   3.181   3.186   9.584  2.2534 -0.8308 -2.7729
 3066SOL     OW20659   4.343   2.871  14.841  0.0036  0.5735 -0.7530
 3066SOL    HW120660   4.317   2.828  14.760 -1.1592  0.0280 -0.0797
 3066SOL    HW220661   4.438   2.877  14.834  0.2243 -0.5817  1.0696
 3067SOL     OW20662   0.906   4.394   7.117  0.8516  0.0406  0.0655
 3067SOL    HW120663   0.971   4.408   7.186  0.7150 -1.0968  0.4368
 3067SOL    HW220664   0.836   4.350   7.164 -0.1924  1.3765 -0.2581
 3068SOL     OW20665   4.326   0.307   4.560  0.4088  0.6790  0.0476
 3068SOL    HW120666   4.402   0.366   4.564  0.9759 -0.0358 -0.0818
 3068SOL    HW220667   4.348   0.242   4.626 -3.5294 -1.5377 -0.8738
 3069SOL     OW20668   0.648   3.590   1.562 -0.4675  0.2981  0.3086
 3069SOL    HW120669   0.676   3.677   1.589 -1.9812  1.0543 -0.5896
 3069SOL    HW220670   0.615   3.611   1.475  1.2638  1.2053 -0.1219
 3070SOL     OW20671   1.843   0.672  17.525 -0.4213 -0.1810  0.1072
 3070SOL    HW120672   1.937   0.673  17.506 -1.0399  1.9049 -2.8191
 3070SOL    HW220673   1.802   0.599  17.480  1.7684  0.1699 -2.4247
 3071SOL     OW20674   0.626   1.833   3.434 -0.1574 -0.3060  0.0069
 3071SOL    HW120675   0.679   1.889   3.377  1.4599 -0.8860  0.9366
 3071SOL    HW220676   0.574   1.784   3.370 -0.1104  0.7118 -0.8163
 3072SOL     OW20677   0.558   1.655   2.970  0.8404  0.0058  0.1849
 3072SOL    HW120678   0.481   1.625   3.018 -0.0581 -0.4972 -1.5813
 3072SOL    HW220679   0.589   1.571   2.937  0.8173  0.5144 -1.1101
 3073SOL     OW20680   4.481   0.843   2.226 -0.5837  0.3142 -0.0549
 3073SOL    HW120681   4.567   0.843   2.184  0.1262  0.5845  1.3883
 3073SOL    HW220682   4.436   0.923   2.201 -1.3784 -0.8401 -2.3460
 3074SOL     OW20683   3.500   3.796  12.216  0.2750 -0.1048 -0.2930
 3074SOL    HW120684   3.409   3.787  12.244  0.5976 -0.1210  0.7197
 3074SOL    HW220685   3.532   3.767  12.301  1.3069 -0.2678 -0.7387
 3075SOL     OW20686   2.853   0.870  17.608 -0.1385  0.2503  0.0559
 3075SOL    HW120687   2.908   0.905  17.537 -0.9708 -1.7790 -1.5945
 3075SOL    HW220688   2.773   0.835  17.568 -0.5236 -1.1586  2.0665
 3076SOL     OW20689   0.074   0.108   3.099 -0.2047 -0.3157 -0.0963
 3076SOL    HW120690   0.098   0.057   3.176 -0.4432  0.3450  0.4115
 3076SOL    HW220691   0.107   0.051   3.029  0.3591 -0.9878  0.7128
 3077SOL     OW20692   3.267   3.229   6.835 -0.2582 -0.1737 -0.2521
 3077SOL    HW120693   3.231   3.164   6.896 -1.8659 -1.0529 -2.1145
 3077SOL    HW220694   3.355   3.253   6.862 -0.7004 -0.3955  1.3901
 3078SOL     OW20695   1.745   0.553   9.173  0.1340  0.1740  0.1051
 3078SOL    HW120696   1.741   0.523   9.082  1.9786 -1.8133  0.6908
 3078SOL    HW220697   1.663   0.602   9.179  0.0649  0.0847 -0.1055
 3079SOL     OW20698   3.793   3.907  16.938 -0.1186 -0.0926  0.1469
 3079SOL    HW120699   3.813   3.868  16.853 -1.4813  0.3249 -0.3600
 3079SOL    HW220700   3.780   3.835  16.999  2.5839 -0.5011  0.2580
 3080SOL     OW20701   2.585   3.148   3.962  0.0227  0.2904  0.0435
 3080SOL    HW120702   2.532   3.186   4.032 -0.1116  1.3271 -0.6292
 3080SOL    HW220703   2.559   3.195   3.884 -2.1846 -0.3617  0.3967
 3081SOL     OW20704   0.338   4.128   0.429  0.2801  0.0280 -0.5834
 3081SOL    HW120705   0.419   4.139   0.379  0.8210  0.5645  0.4037
 3081SOL    HW220706   0.367   4.104   0.517 -0.1327  2.5759  0.2642
 3082SOL     OW20707   3.032   0.397  12.784 -0.4101 -0.2759 -0.1741
 3082SOL    HW120708   2.969   0.456  12.824  1.1831  1.8675 -0.8293
 3082SOL    HW220709   3.010   0.415  12.693  1.6942 -0.0714 -0.6397
 3083SOL     OW20710   3.854   0.245   8.045 -0.1489 -0.2726 -0.1393
 3083SOL    HW120711   3.935   0.293   8.027 -0.6029  0.6905  0.3647
 3083SOL    HW220712   3.797   0.317   8.070 -0.1725 -0.6234  0.8190
 3084SOL     OW20713   0.515   0.975   0.804  0.2781  0.5587  0.7755
 3084SOL    HW120714   0.554   0.931   0.728 -3.8899  0.4535 -1.3122
 3084SOL    HW220715   0.567   0.931   0.871  0.4956  2.8090  2.0978
 3085SOL     OW20716   0.920   1.076   5.519  0.2064  0.5090  0.3081
 3085SOL    HW120717   0.934   1.147   5.457 -1.0284  0.0168 -0.5296
 3085SOL    HW220718   1.010   1.046   5.524  0.0348  0.1131  1.0338
 3086SOL     OW20719   3.913   4.040   9.807  0.1476 -0.0684  0.2060
 3086SOL    HW120720   3.942   4.092   9.732 -0.2596 -0.3982 -0.1778
 3086SOL    HW220721   3.861   4.101   9.859 -1.9515 -2.3931  0.8316
 3087SOL     OW20722   4.695   2.587   0.455  0.3844 -0.0373 -0.5916
 3087SOL    HW120723   4.638   2.648   0.502 -0.5599 -0.9439 -0.5661
 3087SOL    HW220724   4.640   2.514   0.427  0.3293 -0.0364 -0.4868
 3088SOL     OW20725   3.154   1.436   0.889  0.5936 -0.6027  0.1026
 3088SOL    HW120726   3.162   1.505   0.955 -0.9653 -1.9083  1.6763
 3088SOL    HW220727   3.105   1.370   0.939 -0.0671 -0.7256 -0.7112
 3089SOL     OW20728   1.198   3.558   1.843 -0.3932  0.0390  0.3112
 3089SOL    HW120729   1.154   3.499   1.905 -0.8865 -0.0037 -0.0817
 3089SOL    HW220730   1.144   3.636   1.859 -2.6656 -1.4342 -0.2408
 3090SOL     OW20731   3.143   1.296  10.641  0.1949  0.5393 -0.5756
 3090SOL    HW120732   3.067   1.351  10.621  0.2265  0.3653 -1.1739
 3090SOL    HW220733   3.102   1.233  10.700  1.7011 -1.2257 -1.3914
 3091SOL     OW20734   1.321   1.631   2.563 -0.8241  0.6123 -0.2461
 3091SOL    HW120735   1.231   1.660   2.544 -0.7070  0.1030 -1.5638
 3091SOL    HW220736   1.376   1.698   2.523 -0.6830  1.1624  0.8714
 3092SOL     OW20737   1.685   2.736   9.079  0.2470 -0.0975 -0.5134
 3092SOL    HW120738   1.660   2.657   9.031 -0.7477 -0.6122  0.8440
 3092SOL    HW220739   1.631   2.797   9.030 -0.0194  0.4802  0.5009
 3093SOL     OW20740   2.340   3.731   0.502  0.3358 -0.5022  0.2641
 3093SOL    HW120741   2.298   3.647   0.518  0.5165 -0.3693  1.4782
 3093SOL    HW220742   2.392   3.751   0.580  0.3443 -0.3201  0.2123
 3094SOL     OW20743   4.300   1.172   2.993  0.0695  0.2627  0.1586
 3094SOL    HW120744   4.295   1.173   2.898  3.9971  0.4275 -0.0328
 3094SOL    HW220745   4.213   1.146   3.025 -0.6531  1.6158 -0.7123
 3095SOL     OW20746   3.417   3.856  12.755  0.0821  0.3351 -0.6429
 3095SOL    HW120747   3.380   3.769  12.773 -0.3563  0.8211  0.7465
 3095SOL    HW220748   3.487   3.858  12.820 -1.4102  1.7703  0.9116
 3096SOL     OW20749   1.348   4.321  14.451  0.1658 -1.1745 -0.1734
 3096SOL    HW120750   1.267   4.348  14.493  0.1628 -0.4188 -0.6592
 3096SOL    HW220751   1.367   4.393  14.391 -0.4330 -0.4694  0.4919
 3097SOL     OW20752   1.595   0.242   9.181  0.2612 -0.0905 -0.6444
 3097SOL    HW120753   1.570   0.181   9.250 -1.4082  0.9190 -0.3460
 3097SOL    HW220754   1.641   0.314   9.224 -0.5309  0.0475 -0.0049
 3098SOL     OW20755   2.811   4.587   7.377  0.3907  0.4075  0.0604
 3098SOL    HW120756   2.825   4.494   7.395  3.0980  0.6395 -0.8053
 3098SOL    HW220757   2.720   4.601   7.353 -0.5132 -1.2420  2.6286
 3099SOL     OW20758   4.535   0.312   3.133 -1.1584  0.0010 -0.2176
 3099SOL    HW120759   4.617   0.288   3.176 -0.6007  1.3627 -0.5167
 3099SOL    HW220760   4.523   0.406   3.149  0.2443  0.3348 -1.1398
 3100SOL     OW20761   1.752   4.560  13.025 -0.1058  0.7279  0.3628
 3100SOL    HW120762   1.708   4.624  13.081 -2.5854 -1.6818  1.1713
 3100SOL    HW220763   1.839   4.561  13.065  0.6303  2.3152 -1.2237
 3101SOL     OW20764   1.651   3.385   1.927 -0.4601 -0.4579 -1.2714
 3101SOL    HW120765   1.673   3.311   1.870 -0.5665 -1.8094  0.4459
 3101SOL    HW220766   1.573   3.409   1.879 -0.7102 -0.0690 -0.6627
 3102SOL     OW20767   2.607   0.538  13.684 -0.5937  0.2373 -0.1315
 3102SOL    HW120768   2.600   0.527  13.779  0.0324  1.5692  0.0761
 3102SOL    HW220769   2.547   0.470  13.655 -0.3249  0.2581 -0.7383
 3103SOL     OW20770   1.173   4.460   9.531 -0.1840 -0.3374 -0.8186
 3103SOL    HW120771   1.150   4.470   9.624  1.1544  0.2865 -0.5580
 3103SOL    HW220772   1.154   4.368   9.512 -0.0514 -0.9060  1.8144
 3104SOL     OW20773   3.718   1.555   7.570  0.6937  0.4215  0.3786
 3104SOL    HW120774   3.679   1.503   7.641  1.3928  0.5193  0.8347
 3104SOL    HW220775   3.634   1.586   7.537  0.1903 -0.4730  0.8252
 3105SOL     OW20776   3.798   0.086   3.601  0.2268  0.1405  0.8896
 3105SOL    HW120777   3.891   0.075   3.623 -0.0431 -0.2551  1.8210
 3105SOL    HW220778   3.758   0.026   3.664 -2.7829  1.0245 -0.1758
 3106SOL     OW20779   0.217   1.317   0.220 -0.4444 -0.2245  0.1808
 3106SOL    HW120780   0.255   1.229   0.228 -0.7164 -0.3195  0.4037
 3106SOL    HW220781   0.168   1.314   0.138 -0.7651  1.8522  0.2995
 3107SOL     OW20782   1.670   0.385   0.400  0.4569 -0.5746 -0.3680
 3107SOL    HW120783   1.629   0.330   0.467  0.5107  2.3245  2.0271
 3107SOL    HW220784   1.664   0.471   0.440 -1.7831 -0.1960 -1.5490
 3108SOL     OW20785   2.003   0.291   5.858  0.0838 -0.3895 -0.2214
 3108SOL    HW120786   2.099   0.294   5.858  0.1124 -1.6422 -1.2514
 3108SOL    HW220787   1.995   0.196   5.848 -1.2787 -0.5108  1.9556
 3109SOL     OW20788   3.182   1.079   7.283 -0.3574 -0.4764  0.4708
 3109SOL    HW120789   3.266   1.117   7.308 -0.2516 -0.5015  0.1461
 3109SOL    HW220790   3.168   1.112   7.195 -0.1764  0.2527  0.7181
 3110SOL     OW20791   3.896   1.647   3.421  0.4085  0.4309 -0.2034
 3110SOL    HW120792   3.807   1.615   3.407  0.0873  1.1140  0.2793
 3110SOL    HW220793   3.897   1.733   3.378  0.3331 -0.5861 -2.2469
 3111SOL     OW20794   3.893   4.076   5.466  0.4331  0.0990  0.4205
 3111SOL    HW120795   3.979   4.044   5.493  0.9355 -0.1896 -1.4638
 3111SOL    HW220796   3.918   4.102   5.377 -0.7626 -1.7174 -0.4576
 3112SOL     OW20797   2.252   2.888   5.955 -0.3552 -0.3134  0.3134
 3112SOL    HW120798   2.289   2.876   6.043 -1.0285 -0.0143  0.6319
 3112SOL    HW220799   2.259   2.982   5.937 -2.9680  0.1376  1.7401
 3113SOL     OW20800   1.991   2.931   2.752 -0.2979  0.1509  0.3383
 3113SOL    HW120801   1.963   2.841   2.765  0.7893 -0.3401 -0.6793
 3113SOL    HW220802   1.974   2.971   2.837 -0.6552 -0.8613  0.7428
 3114SOL     OW20803   2.002   1.020   2.112 -0.4969  0.2548  0.2163
 3114SOL    HW120804   1.936   0.951   2.101 -1.5790  1.6956 -2.3788
 3114SOL    HW220805   2.012   1.042   2.019  0.6801  2.2379  0.8047
 3115SOL     OW20806   3.705   0.753   3.683 -0.1701 -0.1512  0.4237
 3115SOL    HW120807   3.612   0.758   3.664 -0.0258  0.4321 -0.1306
 3115SOL    HW220808   3.709   0.672   3.733 -0.4799  0.2657  1.1269
 3116SOL     OW20809   2.538   0.911   1.969  0.2708  0.4854 -0.1536
 3116SOL    HW120810   2.513   1.003   1.980  0.4238  0.5878 -0.6747
 3116SOL    HW220811   2.513   0.871   2.052 -0.7662 -0.0598 -0.7258
 3117SOL     OW20812   2.263   0.599   8.989  0.1506 -0.5458  0.1331
 3117SOL    HW120813   2.260   0.535   8.918 -0.3494 -0.9608  0.5312
 3117SOL    HW220814   2.178   0.583   9.031  0.0671 -1.0723 -0.2383
 3118SOL     OW20815   4.406   0.618   5.468 -0.5065 -0.0242  0.4761
 3118SOL    HW120816   4.444   0.574   5.544  1.3044  0.5279 -0.0996
 3118SOL    HW220817   4.473   0.684   5.449  1.6655 -1.4430  3.1526
 3119SOL     OW20818   1.020   0.740   6.435  0.4364 -0.3763 -0.7109
 3119SOL    HW120819   1.107   0.758   6.400  1.4753 -0.4608  1.7987
 3119SOL    HW220820   1.046   0.678   6.504  0.7720 -0.1275 -0.6116
 3120SOL     OW20821   3.656   3.838   8.652 -0.8401  0.1733 -0.1770
 3120SOL    HW120822   3.745   3.816   8.680 -1.8688 -1.8525  1.5020
 3120SOL    HW220823   3.647   3.769   8.585  2.3644 -0.2441 -0.2191
 3121SOL     OW20824   1.540   4.219   9.469  0.1936 -0.5860  0.1709
 3121SOL    HW120825   1.524   4.127   9.446  2.2749 -0.2921 -2.3155
 3121SOL    HW220826   1.539   4.213   9.565  2.5023  0.1931  0.2237
 3122SOL     OW20827   2.407   1.380   0.253  0.5489 -0.1604  0.2188
 3122SOL    HW120828   2.478   1.444   0.254 -0.8256  1.4141 -3.3208
 3122SOL    HW220829   2.432   1.332   0.332  1.6254  0.1766  0.0871
 3123SOL     OW20830   0.806   3.395   2.672 -0.3727  0.1061 -0.5294
 3123SOL    HW120831   0.721   3.439   2.665 -0.4820  0.3768  2.5537
 3123SOL    HW220832   0.815   3.385   2.766  3.4848 -0.5730 -0.9640
 3124SOL     OW20833   2.163   3.326   2.073 -0.5939  0.2886 -0.2608
 3124SOL    HW120834   2.154   3.386   2.147 -0.1447 -1.4473  1.2026
 3124SOL    HW220835   2.236   3.366   2.027  0.3817 -1.3549 -0.1382
 3125SOL     OW20836   0.148   2.610   6.551  0.3614 -0.5386  0.3797
 3125SOL    HW120837   0.095   2.672   6.501  0.8612  1.2315  2.1044
 3125SOL    HW220838   0.196   2.669   6.608  1.6270 -0.6082 -0.6186
 3126SOL     OW20839   4.649   3.713   5.687 -0.4147  0.0413 -0.2692
 3126SOL    HW120840   4.578   3.682   5.630 -0.7245  0.7534 -0.2747
 3126SOL    HW220841   4.640   3.808   5.685 -0.3057  0.0497 -0.3248
 3127SOL     OW20842   1.865   3.334   5.379 -0.4757  0.6707 -0.0169
 3127SOL    HW120843   1.927   3.317   5.308 -0.0412 -1.8057  0.9490
 3127SOL    HW220844   1.822   3.249   5.392  0.3186  0.0125 -1.6060
 3128SOL     OW20845   3.271   3.018   3.901 -0.1415  0.0130  0.2059
 3128SOL    HW120846   3.200   2.960   3.928  0.5158 -1.3769 -1.0170
 3128SOL    HW220847   3.347   2.971   3.935  0.8992  0.9333 -0.8915
 3129SOL     OW20848   4.446   1.040   9.097 -0.3373  0.6082  0.3354
 3129SOL    HW120849   4.509   1.104   9.131 -0.6184  1.4354 -0.6932
 3129SOL    HW220850   4.422   1.075   9.011  0.8015 -0.4964 -0.4487
 3130SOL     OW20851   2.965   3.659   2.787  0.1293  0.0111 -0.3689
 3130SOL    HW120852   2.976   3.584   2.846  0.7191 -0.7203 -1.3827
 3130SOL    HW220853   2.870   3.668   2.793  0.3826  1.3439  1.4796
 3131SOL     OW20854   3.111   4.128   5.204 -0.7825 -0.4385 -0.0380
 3131SOL    HW120855   3.029   4.153   5.247  0.6391  0.5861  2.0798
 3131SOL    HW220856   3.175   4.147   5.273 -0.9389 -1.0163  0.2740
 3132SOL     OW20857   3.970   4.454  13.633 -0.2403 -0.2275  0.2094
 3132SOL    HW120858   3.935   4.470  13.545  1.2372  1.9069  0.0272
 3132SOL    HW220859   4.021   4.373  13.625  1.4139  1.0593 -2.0990
 3133SOL     OW20860   0.939   4.695   4.857 -0.2382 -0.3693  0.6274
 3133SOL    HW120861   0.987   4.686   4.775  0.5867 -0.6580  1.1493
 3133SOL    HW220862   0.998   4.645   4.913  0.9843  2.5866  1.9745
 3134SOL     OW20863   2.645   1.364   1.812  0.3296 -0.2798  0.0401
 3134SOL    HW120864   2.615   1.275   1.832 -0.1416 -0.3815 -1.1133
 3134SOL    HW220865   2.584   1.412   1.868 -0.3166  0.4908 -1.3191
 3135SOL     OW20866   4.622   0.896  16.615 -0.3011  0.2290 -0.2828
 3135SOL    HW120867   4.608   0.864  16.704 -2.4687  0.2535 -0.6255
 3135SOL    HW220868   4.567   0.974  16.616 -0.1727  0.3539 -1.7393
 3136SOL     OW20869   0.883   0.011   2.378  0.1187  0.8962  0.2294
 3136SOL    HW120870   0.975   0.035   2.373  0.2875  0.2883  0.4363
 3136SOL    HW220871   0.832   0.084   2.412 -0.4127  0.4754  0.3532
 3137SOL     OW20872   3.224   3.803   0.469 -0.3205  0.0353 -0.3520
 3137SOL    HW120873   3.246   3.734   0.407 -0.7380  0.0488 -0.5145
 3137SOL    HW220874   3.264   3.769   0.549  1.3730 -0.1719 -1.2885
 3138SOL     OW20875   0.707   2.742   9.317  0.2870  0.0562 -0.0330
 3138SOL    HW120876   0.619   2.755   9.284 -0.5812 -2.7051  1.2133
 3138SOL    HW220877   0.738   2.701   9.236  0.2888  2.2176 -1.1358
 3139SOL     OW20878   0.157   3.170  15.136  0.0354 -0.1623  0.4600
 3139SOL    HW120879   0.064   3.175  15.112 -0.4956 -4.8266  1.5170
 3139SOL    HW220880   0.186   3.261  15.127  0.6627 -0.6953 -3.0314
 3140SOL     OW20881   2.718   3.620   4.260  0.1217 -0.2574 -0.3709
 3140SOL    HW120882   2.768   3.614   4.341 -1.0284  1.2622  0.4573
 3140SOL    HW220883   2.718   3.529   4.233 -0.5415 -0.8943  1.7420
 3141SOL     OW20884   4.101   2.549   7.666 -0.1596  0.2445  0.3152
 3141SOL    HW120885   4.163   2.621   7.674 -0.0050 -0.1582  2.5303
 3141SOL    HW220886   4.063   2.537   7.752 -0.0422 -1.0086  0.2041
 3142SOL     OW20887   4.577   0.887   5.670 -0.1159 -0.0192 -0.2909
 3142SOL    HW120888   4.496   0.879   5.721 -0.1129 -3.5809 -0.8602
 3142SOL    HW220889   4.640   0.823   5.704 -0.8623 -1.0937 -0.9237
 3143SOL     OW20890   0.376   2.274  16.509  0.4041 -0.2112  0.4615
 3143SOL    HW120891   0.334   2.189  16.492 -0.2670 -0.0224  1.2145
 3143SOL    HW220892   0.311   2.331  16.468  2.3622  0.9513 -1.0501
 3144SOL     OW20893   2.332   2.397  11.385  0.2373  0.2075 -0.3470
 3144SOL    HW120894   2.261   2.355  11.433  0.3898 -0.0895 -0.3843
 3144SOL    HW220895   2.374   2.332  11.329  1.2165 -0.1542  0.8104
 3145SOL     OW20896   1.845   3.693   2.434  0.5506 -0.1248  0.5390
 3145SOL    HW120897   1.832   3.725   2.523 -2.0903  0.2284  0.0168
 3145SOL    HW220898   1.853   3.778   2.390 -1.0709  0.8755  2.1793
 3146SOL     OW20899   3.264   3.015   2.439 -0.3316  0.2343 -0.0841
 3146SOL    HW120900   3.296   3.102   2.419  1.0366  0.4167  2.8955
 3146SOL    HW220901   3.170   3.024   2.421 -0.6857  0.9960  2.1713
 3147SOL     OW20902   1.557   2.348   2.657 -0.4372 -0.7841 -0.0823
 3147SOL    HW120903   1.496   2.422   2.646  1.0154 -0.0237 -3.0647
 3147SOL    HW220904   1.503   2.282   2.614  0.5565 -0.5503 -1.6742
 3148SOL     OW20905   4.496   1.661   1.714  0.7064 -0.0421 -0.3505
 3148SOL    HW120906   4.568   1.669   1.652  0.7904  1.9766  0.0105
 3148SOL    HW220907   4.487   1.754   1.734  3.8501  0.1173  0.1947
 3149SOL     OW20908   1.830   2.101   7.993 -0.6468 -0.2732  0.2234
 3149SOL    HW120909   1.737   2.096   8.016 -0.4964 -1.5198  0.5615
 3149SOL    HW220910   1.841   2.192   7.965  2.0530 -0.3623  0.9933
 3150SOL     OW20911   3.242   3.411   2.691 -0.2711 -0.2050 -0.7738
 3150SOL    HW120912   3.207   3.340   2.637  1.0349 -0.2826 -1.5187
 3150SOL    HW220913   3.188   3.405   2.769  1.9801 -0.4462  0.7839
 3151SOL     OW20914   4.416   0.090   3.016  0.8618  0.2175 -0.4501
 3151SOL    HW120915   4.384   0.138   2.940 -0.6626  0.4486  0.3261
 3151SOL    HW220916   4.489   0.144   3.048  1.3670 -2.3604  2.7533
 3152SOL     OW20917   0.237   2.152  10.976  0.2841  0.3799 -0.1613
 3152SOL    HW120918   0.191   2.084  11.025 -0.0797  0.9427  0.2864
 3152SOL    HW220919   0.221   2.234  11.023 -1.5766  1.1197 -2.0978
 3153SOL     OW20920   2.901   4.389  10.524  0.2831  0.0918  0.4069
 3153SOL    HW120921   2.950   4.470  10.539 -0.5897  0.7300 -0.1713
 3153SOL    HW220922   2.907   4.381  10.428  1.5298  0.8448  0.4312
 3154SOL     OW20923   0.266   0.878   5.745 -0.0061 -0.2328 -0.3203
 3154SOL    HW120924   0.350   0.835   5.760  0.3631  0.7484  0.4296
 3154SOL    HW220925   0.292   0.944   5.681  0.6045 -1.1558 -1.0275
 3155SOL     OW20926   4.000   4.322   8.680  0.0322  0.5479  0.2504
 3155SOL    HW120927   4.011   4.362   8.766  2.8100 -1.9448  1.0496
 3155SOL    HW220928   4.071   4.258   8.677  0.4483  0.9454  1.5125
 3156SOL     OW20929   3.452   2.240   1.466 -0.0316 -0.1680  0.1459
 3156SOL    HW120930   3.485   2.324   1.435  0.0514  0.4487  1.9243
 3156SOL    HW220931   3.540   2.203   1.472  0.0433  0.0943  0.6954
 3157SOL     OW20932   2.497   4.007   9.437 -0.1222  0.3427  0.3919
 3157SOL    HW120933   2.498   4.049   9.523 -0.3189  0.6494  0.2461
 3157SOL    HW220934   2.531   3.922   9.463 -1.9581 -1.0711 -1.8102
 3158SOL     OW20935   3.660   0.672   9.430 -0.4707 -0.1187 -0.5351
 3158SOL    HW120936   3.655   0.627   9.346 -0.8956 -0.8010 -0.1517
 3158SOL    HW220937   3.595   0.623   9.481  0.5517 -1.9465 -1.0013
 3159SOL     OW20938   0.865   1.769   3.019 -0.2688  0.6017 -0.3822
 3159SOL    HW120939   0.886   1.711   3.092 -2.0961 -0.2600 -0.5460
 3159SOL    HW220940   0.771   1.756   3.002 -0.0200 -0.4821 -0.9097
 3160SOL     OW20941   1.206   3.488   6.185 -0.1631  0.3500 -0.1498
 3160SOL    HW120942   1.273   3.430   6.146 -0.0060  0.4309 -0.0005
 3160SOL    HW220943   1.227   3.573   6.146  0.5640 -0.2682 -1.1245
 3161SOL     OW20944   0.594   3.034   2.501  0.5344  0.4591 -0.2202
 3161SOL    HW120945   0.550   2.955   2.532  1.0615 -0.5432 -2.0325
 3161SOL    HW220946   0.550   3.107   2.545 -0.0035  0.0885 -0.1345
 3162SOL     OW20947   1.171   1.247   3.148  0.2048  0.2984  0.0326
 3162SOL    HW120948   1.165   1.197   3.067  0.2002 -3.7808  2.5248
 3162SOL    HW220949   1.092   1.218   3.194 -0.8066 -0.1871 -1.9993
 3163SOL     OW20950   0.471   4.331   9.669  0.1281  0.1807 -0.3730
 3163SOL    HW120951   0.452   4.400   9.732 -0.2662 -1.9432  1.8149
 3163SOL    HW220952   0.549   4.373   9.631  0.9917 -2.0479 -1.0884
 3164SOL     OW20953   2.769   2.904   7.911 -0.0532  0.3384 -0.2576
 3164SOL    HW120954   2.785   2.826   7.964  0.3828  0.6869  0.1354
 3164SOL    HW220955   2.855   2.943   7.928  0.6135 -1.2077 -0.1430
 3165SOL     OW20956   4.527   3.077   8.499  0.1121 -0.1415 -0.0569
 3165SOL    HW120957   4.618   3.070   8.529  0.3162 -2.0089 -1.1320
 3165SOL    HW220958   4.517   3.005   8.437 -0.9253 -1.6191  1.8085
 3166SOL     OW20959   0.717   4.526   7.948 -0.3104 -0.2895  0.7435
 3166SOL    HW120960   0.750   4.540   7.860 -0.6383  3.4349  1.2203
 3166SOL    HW220961   0.627   4.496   7.935 -0.1026 -0.8193  0.5339
 3167SOL     OW20962   4.534   3.615  10.714  0.1364 -0.2323 -0.1022
 3167SOL    HW120963   4.527   3.603  10.620 -2.9070  4.4407 -0.4175
 3167SOL    HW220964   4.616   3.664  10.726 -1.3346  2.0558  0.4386
 3168SOL     OW20965   0.984   1.172   5.064  0.5749  0.0391  0.0861
 3168SOL    HW120966   0.986   1.077   5.077 -2.0608 -0.0503 -0.0701
 3168SOL    HW220967   0.889   1.187   5.059  0.5314 -0.1754  0.2613
 3169SOL     OW20968   3.549   2.632  17.163  0.6594  0.3279 -0.0919
 3169SOL    HW120969   3.559   2.600  17.253  0.6424  0.8017  0.0819
 3169SOL    HW220970   3.559   2.559  17.102 -2.1216 -1.0141  1.0720
 3170SOL     OW20971   1.665   3.755   4.422  0.0205 -0.1155 -0.3610
 3170SOL    HW120972   1.589   3.698   4.424  0.5122 -0.7378  0.7282
 3170SOL    HW220973   1.634   3.834   4.378  0.4177  0.1269 -0.2060
 3171SOL     OW20974   3.097   2.286   3.598 -0.2958  0.2174  0.9313
 3171SOL    HW120975   3.064   2.372   3.572  1.7010  1.2176  1.6542
 3171SOL    HW220976   3.164   2.319   3.658 -0.4092  1.3303  0.4461
 3172SOL     OW20977   1.588   1.896   4.605 -0.1592 -0.4795  0.2580
 3172SOL    HW120978   1.681   1.919   4.610 -0.0862 -0.7303  0.0751
 3172SOL    HW220979   1.567   1.929   4.517  2.1078 -0.8929 -0.4473
 3173SOL     OW20980   3.831   4.247   7.697 -0.2351  0.4274  0.3502
 3173SOL    HW120981   3.822   4.290   7.612 -0.4569  1.5884  0.9559
 3173SOL    HW220982   3.826   4.325   7.753  1.1220  2.0698 -1.7943
 3174SOL     OW20983   0.662   2.851   4.452  0.0262 -0.6522  0.2163
 3174SOL    HW120984   0.685   2.795   4.526 -0.0060 -0.4252  0.3974
 3174SOL    HW220985   0.578   2.817   4.423  0.4266 -0.6686 -0.9471
 3175SOL     OW20986   3.187   3.795  15.533  0.1466  0.1129  0.1128
 3175SOL    HW120987   3.141   3.711  15.544 -0.2074  0.4368  1.1467
 3175SOL    HW220988   3.180   3.831  15.621  0.2048 -3.1165  1.4553
 3176SOL     OW20989   2.686   2.458   9.840  0.5172 -0.3752 -0.0098
 3176SOL    HW120990   2.738   2.447   9.760 -0.7279  0.0643 -0.8863
 3176SOL    HW220991   2.604   2.410   9.835  0.1991  0.1432  0.2059
 3177SOL     OW20992   4.223   3.688   0.730 -0.2778  0.2969  0.6611
 3177SOL    HW120993   4.274   3.739   0.794  1.1623 -1.8208  1.1940
 3177SOL    HW220994   4.203   3.751   0.661 -2.6561 -1.6353 -0.4062
 3178SOL     OW20995   1.523   2.742   6.181  0.4473 -0.0218  0.0624
 3178SOL    HW120996   1.476   2.659   6.189 -0.2661  0.1045 -2.7793
 3178SOL    HW220997   1.490   2.764   6.095 -1.1252  0.0943  0.6943
 3179SOL     OW20998   2.234   2.874   6.608  0.2820 -0.0399 -0.5239
 3179SOL    HW120999   2.315   2.881   6.557  1.5766 -0.3657  1.5333
 3179SOL    HW221000   2.242   2.802   6.670  3.0854  0.7610  0.0237
 3180SOL     OW21001   0.195   4.490   1.276 -0.4770  0.2554  0.5969
 3180SOL    HW121002   0.148   4.461   1.353 -0.6542 -3.1727 -0.8195
 3180SOL    HW221003   0.156   4.447   1.200 -0.7099  1.1719  0.1970
 3181SOL     OW21004   2.418   0.432  10.655  0.6042  0.4673 -0.0990
 3181SOL    HW121005   2.394   0.446  10.563  2.2636  1.1618 -0.4126
 3181SOL    HW221006   2.513   0.435  10.651  0.7121 -0.4789  1.8088
 3182SOL     OW21007   1.934   1.454   7.914  0.1189  0.2638  0.6073
 3182SOL    HW121008   1.911   1.496   7.831 -1.6421 -1.7198  0.0811
 3182SOL    HW221009   2.024   1.484   7.929  0.8132 -0.1374 -2.5680
 3183SOL     OW21010   0.890   3.870   2.929 -0.0069 -0.0591 -0.3008
 3183SOL    HW121011   0.795   3.881   2.935  0.0013  1.1185 -2.7358
 3183SOL    HW221012   0.901   3.794   2.873  0.7919 -0.7421  0.7802
 3184SOL     OW21013   3.908   2.190  14.580 -0.6772  0.5182  0.0845
 3184SOL    HW121014   3.859   2.267  14.609 -1.4749  0.9435 -2.3499
 3184SOL    HW221015   3.994   2.232  14.577  0.1448 -1.1267  0.5335
 3185SOL     OW21016   1.142   1.023   0.923  0.2497  0.3903  0.2895
 3185SOL    HW121017   1.224   1.064   0.951  0.4802  0.2416 -0.1622
 3185SOL    HW221018   1.116   0.972   1.000 -2.4453 -2.9628 -2.8263
 3186SOL     OW21019   3.462   2.857   5.518 -0.5131 -0.4523 -0.0325
 3186SOL    HW121020   3.441   2.817   5.602 -2.1253  1.6751  0.5876
 3186SOL    HW221021   3.373   2.879   5.493 -0.0745  1.2043 -0.1318
 3187SOL     OW21022   0.481   4.363   1.301 -0.1532  0.2831  0.3241
 3187SOL    HW121023   0.541   4.309   1.249 -0.4462  0.1770  0.0959
 3187SOL    HW221024   0.403   4.308   1.289 -0.1295  0.1501  0.7728
 3188SOL     OW21025   2.578   4.258   5.393  0.0807 -0.4072 -0.2483
 3188SOL    HW121026   2.624   4.342   5.387 -2.0073  0.8885  1.8224
 3188SOL    HW221027   2.621   4.209   5.323 -1.9793 -0.9710 -1.1014
 3189SOL     OW21028   4.012   1.606   4.826 -0.1667 -0.2115 -0.3259
 3189SOL    HW121029   3.940   1.644   4.876 -1.1492  0.4277 -2.2431
 3189SOL    HW221030   4.019   1.657   4.746 -1.3881  1.5357  0.6936
 3190SOL     OW21031   3.884   4.318   0.388 -0.5252 -0.2625 -0.4916
 3190SOL    HW121032   3.811   4.258   0.403  1.1788 -2.2424 -0.2360
 3190SOL    HW221033   3.839   4.400   0.409 -0.0463 -0.2199  0.3637
 3191SOL     OW21034   2.723   2.271  13.685  0.6124  0.4570  0.6980
 3191SOL    HW121035   2.757   2.222  13.760 -1.1132  0.9381  1.7827
 3191SOL    HW221036   2.804   2.314  13.659 -0.4110  1.9577  0.0325
 3192SOL     OW21037   2.729   1.712   1.240  0.2656  0.8336 -0.1951
 3192SOL    HW121038   2.760   1.730   1.329  1.6262  0.8556 -0.6744
 3192SOL    HW221039   2.792   1.767   1.193  0.3083  0.5036 -0.5247
 3193SOL     OW21040   4.154   3.054   3.060 -0.2219  0.2946  0.2529
 3193SOL    HW121041   4.212   2.978   3.061 -0.1875  0.2926 -1.1805
 3193SOL    HW221042   4.118   3.047   2.971  1.1446 -1.8717 -0.1257
 3194SOL     OW21043   1.963   3.300   7.776 -0.2798  0.5079 -0.0429
 3194SOL    HW121044   2.003   3.381   7.746 -1.1538  1.1296  0.4502
 3194SOL    HW221045   1.970   3.242   7.700  1.2040 -0.0288  0.5146
 3195SOL     OW21046   4.712   3.402   2.165  0.3489 -0.3372 -0.1024
 3195SOL    HW121047   4.691   3.413   2.072 -0.4109  1.7230  0.3130
 3195SOL    HW221048   4.625   3.402   2.203 -0.3693  2.5360 -1.7543
 3196SOL     OW21049   2.226   2.897   5.456 -0.3619  0.2375 -0.3340
 3196SOL    HW121050   2.132   2.881   5.449 -0.8436  2.5887  0.5485
 3196SOL    HW221051   2.250   2.847   5.534 -0.0584  0.5459 -0.2273
 3197SOL     OW21052   1.792   0.613   9.838  0.3255  0.0016 -0.1281
 3197SOL    HW121053   1.785   0.663   9.757  1.4561  0.0558 -0.1954
 3197SOL    HW221054   1.700   0.596   9.859 -0.0705  2.9216  0.4715
 3198SOL     OW21055   4.212   2.790   9.084  0.2789  0.0533 -0.1098
 3198SOL    HW121056   4.134   2.765   9.132 -1.0363  0.4978 -2.0087
 3198SOL    HW221057   4.193   2.878   9.053 -1.3372 -0.4757 -0.5836
 3199SOL     OW21058   4.108   1.089   4.791 -0.4777  0.1095 -0.1378
 3199SOL    HW121059   4.108   1.183   4.812  1.0711 -0.0074  0.4248
 3199SOL    HW221060   4.196   1.071   4.825 -0.1423  1.6698 -0.1767
 3200SOL     OW21061   2.033   0.493   0.966  0.1511 -0.0016 -0.1862
 3200SOL    HW121062   1.982   0.467   0.889 -0.0297  0.7699 -0.3237
 3200SOL    HW221063   2.085   0.562   0.924 -0.9480  0.4910 -0.7506
 3201SOL     OW21064   3.524   0.460   4.851 -0.2758 -0.2912 -0.4527
 3201SOL    HW121065   3.567   0.511   4.920  0.2748 -3.1740  1.3329
 3201SOL    HW221066   3.574   0.379   4.859 -1.0335 -0.7527 -0.4315
 3202SOL     OW21067   2.784   1.334  16.902  0.1216 -0.2456  0.2337
 3202SOL    HW121068   2.718   1.400  16.883  0.2678 -0.0260  0.5014
 3202SOL    HW221069   2.825   1.372  16.979 -0.4284 -1.3598  1.0860
 3203SOL     OW21070   2.712   1.234  10.278  0.2103  0.1493  0.0448
 3203SOL    HW121071   2.655   1.198  10.210  1.2151 -2.6660  0.7177
 3203SOL    HW221072   2.789   1.179  10.264  1.9542  2.2091  1.6152
 3204SOL     OW21073   0.460   2.102   3.801 -0.0453 -0.3338  0.1764
 3204SOL    HW121074   0.423   2.018   3.826 -1.0958  0.6308  1.9034
 3204SOL    HW221075   0.381   2.152   3.782  0.9982  2.2286  2.5146
 3205SOL     OW21076   3.767   2.446  11.808  0.5276  0.1441  0.2094
 3205SOL    HW121077   3.723   2.524  11.772 -1.2413 -1.5149 -1.1881
 3205SOL    HW221078   3.858   2.470  11.825  0.5626 -1.6539  2.4407
 3206SOL     OW21079   4.125   3.099   7.498  0.0821 -0.3888 -0.1524
 3206SOL    HW121080   4.101   3.042   7.425  2.1951 -0.0172 -1.1204
 3206SOL    HW221081   4.213   3.067   7.517  0.0439  0.1146  0.8259
 3207SOL     OW21082   3.317   0.373   6.109  0.2367  0.0027  0.0731
 3207SOL    HW121083   3.247   0.352   6.046  1.1020  0.5691 -1.0878
 3207SOL    HW221084   3.276   0.443   6.160  0.6576  0.9677 -0.9093
 3208SOL     OW21085   0.886   1.633   5.686  0.0407 -0.2627  0.2939
 3208SOL    HW121086   0.899   1.584   5.605 -1.8484  0.4774 -0.4433
 3208SOL    HW221087   0.974   1.662   5.710  0.8627 -1.0185 -1.8071
 3209SOL     OW21088   1.506   0.788  12.394 -0.4616  0.7127  0.1693
 3209SOL    HW121089   1.432   0.745  12.437  0.0060  1.0756  1.3552
 3209SOL    HW221090   1.515   0.739  12.313 -0.3929  0.9336  0.0427
 3210SOL     OW21091   0.923   4.185  11.174 -0.1079  0.4207  0.4061
 3210SOL    HW121092   0.936   4.110  11.233 -0.5364 -0.1858 -0.2711
 3210SOL    HW221093   0.986   4.179  11.103  1.0981 -1.6675  1.6258
 3211SOL     OW21094   4.174   2.258  14.530  0.3153 -0.7005  0.4569
 3211SOL    HW121095   4.154   2.349  14.554  0.9392  0.0921 -1.9940
 3211SOL    HW221096   4.258   2.271  14.485 -0.5920  1.3593 -0.6598
 3212SOL     OW21097   1.147   1.378   5.929 -0.1786  0.6662  0.4276
 3212SOL    HW121098   1.103   1.354   6.010  1.5256  0.4891  1.3111
 3212SOL    HW221099   1.145   1.473   5.947 -2.7652  1.1689 -2.6293
 3213SOL     OW21100   4.236   3.264   9.705  0.1890  0.0693  0.6366
 3213SOL    HW121101   4.326   3.261   9.675 -0.1862  0.1855 -0.4727
 3213SOL    HW221102   4.209   3.212   9.629  0.8635 -0.3576  0.6880
 3214SOL     OW21103   1.527   0.605  13.553  0.1031  0.6175  0.1743
 3214SOL    HW121104   1.577   0.571  13.627 -1.7691 -1.0186  0.7116
 3214SOL    HW221105   1.595   0.640  13.496  0.6692  1.4486  1.3588
 3215SOL     OW21106   3.198   4.603   5.101 -0.4634 -0.1316 -0.0180
 3215SOL    HW121107   3.242   4.582   5.183 -0.8010  1.7767  0.6468
 3215SOL    HW221108   3.244   4.532   5.057  1.0790  0.8821 -0.0510
 3216SOL     OW21109   4.185   2.459  12.228 -0.3497 -0.0543  0.1073
 3216SOL    HW121110   4.117   2.392  12.235 -1.1456  0.7105 -0.2959
 3216SOL    HW221111   4.208   2.454  12.135 -1.1337  1.8346 -0.1716
 3217SOL     OW21112   3.146   0.237   4.501 -0.2348  0.3037  0.2351
 3217SOL    HW121113   3.231   0.280   4.502  0.3018 -0.7442 -0.2445
 3217SOL    HW221114   3.157   0.177   4.575  1.3257  0.0607 -0.2061
 3218SOL     OW21115   2.041   1.231   7.181 -0.7183 -0.1566  0.0459
 3218SOL    HW121116   2.118   1.223   7.238 -0.3146  1.1215 -0.3201
 3218SOL    HW221117   1.979   1.197   7.246 -0.4139 -0.8491 -0.0209
 3219SOL     OW21118   0.208   2.956  10.187  0.4577  0.5568 -0.3180
 3219SOL    HW121119   0.114   2.956  10.173  0.3266  0.6264  0.5798
 3219SOL    HW221120   0.221   2.862  10.194 -4.4520  0.0314  1.5401
 3220SOL     OW21121   1.852   0.202   5.548  0.1982 -0.1179 -0.1982
 3220SOL    HW121122   1.804   0.254   5.612 -0.0582 -1.4229  0.6745
 3220SOL    HW221123   1.907   0.266   5.504 -1.2774  1.4764  0.2815
 3221SOL     OW21124   1.771   0.426  17.399  0.1644 -0.8611  0.1411
 3221SOL    HW121125   1.688   0.437  17.445  1.6207 -0.4956  2.6867
 3221SOL    HW221126   1.748   0.345  17.353  3.8719 -2.5669  1.2196
 3222SOL     OW21127   4.417   3.585   5.945 -0.0012  0.4588  0.1321
 3222SOL    HW121128   4.442   3.543   5.863 -1.6052  1.6911 -0.9825
 3222SOL    HW221129   4.499   3.581   5.994  0.2237  1.5258 -0.1705
 3223SOL     OW21130   0.253   1.105   8.040  0.4004 -0.1640  0.2460
 3223SOL    HW121131   0.288   1.194   8.036 -1.7519  0.6938  0.3913
 3223SOL    HW221132   0.173   1.102   7.988  1.0630  0.8233 -0.8119
 3224SOL     OW21133   1.656   0.296   3.449  0.6596 -0.3713 -0.2682
 3224SOL    HW121134   1.728   0.286   3.512  0.9341  0.9636 -0.3790
 3224SOL    HW221135   1.635   0.389   3.461  1.4627 -0.1956 -0.2478
 3225SOL     OW21136   2.753   4.539   0.268 -0.8194  0.2157 -0.7196
 3225SOL    HW121137   2.679   4.486   0.238 -1.4825  0.5918  0.2902
 3225SOL    HW221138   2.741   4.518   0.361  0.4898 -0.1817 -0.6339
 3226SOL     OW21139   2.849   3.525   9.078  0.0959 -0.0195  0.6352
 3226SOL    HW121140   2.816   3.611   9.051 -1.4012  0.0955  2.8176
 3226SOL    HW221141   2.789   3.506   9.150 -1.5082  2.0241 -0.1459
 3227SOL     OW21142   0.922   2.473  12.318 -0.1888 -0.2549 -0.2505
 3227SOL    HW121143   0.832   2.480  12.287 -0.8230 -0.3306  1.5421
 3227SOL    HW221144   0.913   2.488  12.412 -1.3028 -0.0630 -0.3967
 3228SOL     OW21145   0.138   0.617  11.295 -0.2744 -0.0336 -0.2060
 3228SOL    HW121146   0.081   0.694  11.288 -1.1086 -0.5210  1.4415
 3228SOL    HW221147   0.126   0.585  11.205 -1.1828  0.6966 -0.3524
 3229SOL     OW21148   3.563   4.463   2.306 -0.5142  0.0223  0.0140
 3229SOL    HW121149   3.595   4.474   2.216 -3.3603 -0.1874 -1.0226
 3229SOL    HW221150   3.494   4.528   2.316  1.2193  1.6752  1.2354
 3230SOL     OW21151   3.997   2.582  16.721  0.0854  0.6407 -0.7991
 3230SOL    HW121152   4.042   2.630  16.791  1.9843 -0.7382 -1.0797
 3230SOL    HW221153   4.012   2.490  16.740 -1.0697  1.1031  2.4675
 3231SOL     OW21154   4.478   3.555   5.524 -0.1762  0.5343  0.5003
 3231SOL    HW121155   4.450   3.464   5.531 -0.0253  0.4389 -0.1010
 3231SOL    HW221156   4.514   3.553   5.435  0.2296  2.2785  0.6340
 3232SOL     OW21157   2.997   0.378   5.096 -0.4557  0.0018 -0.3695
 3232SOL    HW121158   3.014   0.410   5.185  1.8752  0.7349 -1.0796
 3232SOL    HW221159   3.039   0.443   5.041  0.4565 -1.8388 -1.8380
 3233SOL     OW21160   1.304   0.977  11.085  0.1195 -0.4961 -0.0365
 3233SOL    HW121161   1.225   0.987  11.031 -0.3441  0.8740  0.8822
 3233SOL    HW221162   1.351   0.920  11.024  0.4740  1.8135 -1.9630
 3234SOL     OW21163   0.208   1.794   8.339 -0.2488  0.0861  0.3089
 3234SOL    HW121164   0.136   1.851   8.367  0.2012  0.5695  0.4900
 3234SOL    HW221165   0.278   1.828   8.395  0.2536 -1.8100  0.8261
 3235SOL     OW21166   3.728   4.118   5.875  0.1472  0.0282  0.3605
 3235SOL    HW121167   3.723   4.198   5.927  4.5345  0.4814  0.1296
 3235SOL    HW221168   3.802   4.066   5.905 -1.5721 -1.8527  1.3369
 3236SOL     OW21169   2.844   3.398   4.139 -0.9976 -0.2565  0.1197
 3236SOL    HW121170   2.861   3.321   4.084  4.8770 -0.8285  2.7547
 3236SOL    HW221171   2.918   3.409   4.198 -0.5776 -1.7069 -0.1278
 3237SOL     OW21172   3.691   2.380  12.801  0.6334 -0.3394 -0.4893
 3237SOL    HW121173   3.690   2.372  12.706 -0.5695  0.1071 -0.5203
 3237SOL    HW221174   3.634   2.456  12.814 -0.3845 -0.8304 -2.0563
 3238SOL     OW21175   2.086   4.481   5.986 -0.5867  0.6243  0.3252
 3238SOL    HW121176   2.152   4.412   5.977  1.4080  2.5061  0.6257
 3238SOL    HW221177   2.008   4.428   5.967  0.5688 -0.6388 -0.9787
 3239SOL     OW21178   3.066   1.193   5.573  0.0203 -0.1979 -0.1763
 3239SOL    HW121179   3.034   1.103   5.567 -0.5035 -0.0207 -0.0133
 3239SOL    HW221180   3.082   1.202   5.667 -1.5461  2.6370 -0.1649
 3240SOL     OW21181   2.671   3.845   2.973 -0.0235 -1.0551  0.6852
 3240SOL    HW121182   2.675   3.762   2.926  1.5479 -0.1967 -0.6767
 3240SOL    HW221183   2.576   3.854   2.972  0.0296 -0.0348  2.7529
 3241SOL     OW21184   1.829   1.782  10.030  0.0669  0.1217 -0.0762
 3241SOL    HW121185   1.884   1.729  10.088 -1.7329  1.3284  2.7306
 3241SOL    HW221186   1.891   1.809   9.963 -0.5088 -0.2444 -0.7449
 3242SOL     OW21187   1.422   2.375   9.419 -0.4513  0.4152  0.2939
 3242SOL    HW121188   1.459   2.461   9.402  2.0411 -0.9680 -1.2891
 3242SOL    HW221189   1.489   2.320   9.379 -0.5537  0.9285 -0.5876
 3243SOL     OW21190   3.520   0.746   6.943  0.2980  0.1470 -0.6434
 3243SOL    HW121191   3.533   0.653   6.962  1.4850  0.5456  0.4582
 3243SOL    HW221192   3.607   0.781   6.959  0.0013  1.0677 -1.0144
 3244SOL     OW21193   2.311   4.574   6.782 -0.2005  0.2074 -0.2515
 3244SOL    HW121194   2.357   4.515   6.722  0.0439 -0.7209  0.8418
 3244SOL    HW221195   2.253   4.625   6.726 -0.3751  0.4200  0.1249
 3245SOL     OW21196   0.937   4.623   9.100 -0.3089 -0.1563  0.2468
 3245SOL    HW121197   1.001   4.647   9.167 -0.4513  1.0039 -0.0355
 3245SOL    HW221198   0.963   4.532   9.083  2.3876  0.7002 -0.2021
 3246SOL     OW21199   0.568   1.226   4.505 -0.2112  0.2989  0.3294
 3246SOL    HW121200   0.515   1.241   4.583 -1.6150  0.8674 -0.7259
 3246SOL    HW221201   0.552   1.132   4.499 -0.3763  0.3658 -0.3234
 3247SOL     OW21202   1.867   1.989  13.563 -0.2790 -0.1222 -0.0397
 3247SOL    HW121203   1.778   2.014  13.540 -0.4244 -2.5583 -2.1275
 3247SOL    HW221204   1.876   2.037  13.645 -2.6838 -1.5151  1.0452
 3248SOL     OW21205   3.784   0.202  12.128  0.5733  0.1297  0.2047
 3248SOL    HW121206   3.803   0.228  12.218  0.8224 -2.1264  0.8004
 3248SOL    HW221207   3.828   0.274  12.083 -1.7210  1.4912  0.1381
 3249SOL     OW21208   3.227   3.700   7.236  0.4253 -0.2691  0.0728
 3249SOL    HW121209   3.271   3.615   7.243  1.6300  0.3863  0.4817
 3249SOL    HW221210   3.139   3.682   7.202  0.1561  2.3390 -0.5920
 3250SOL     OW21211   2.316   0.643   7.448  0.0725 -0.0070  0.0291
 3250SOL    HW121212   2.395   0.595   7.425  0.6796  1.3829 -0.8041
 3250SOL    HW221213   2.336   0.678   7.534 -0.7898  3.1481 -1.0244
 3251SOL     OW21214   3.326   4.134   4.615 -0.0406  0.4657 -0.2346
 3251SOL    HW121215   3.254   4.072   4.624  0.6056  0.0803  2.2885
 3251SOL    HW221216   3.394   4.071   4.591 -0.9977 -0.4970 -0.4172
 3252SOL     OW21217   1.116   1.169  16.724  0.1662  0.5364  0.8823
 3252SOL    HW121218   1.119   1.264  16.723  1.6769  0.5035  1.0234
 3252SOL    HW221219   1.089   1.147  16.635  1.7744  2.0420  0.0249
 3253SOL     OW21220   1.144   4.704  16.264  0.1760 -0.6633  0.5133
 3253SOL    HW121221   1.239   4.698  16.254  0.3084  0.8843  0.8716
 3253SOL    HW221222   1.120   4.619  16.301  2.8100 -1.7450 -0.2696
 3254SOL     OW21223   4.411   1.971   0.241  0.1170 -0.3568 -0.0817
 3254SOL    HW121224   4.325   2.002   0.271  0.7333  0.8592  0.4434
 3254SOL    HW221225   4.445   2.052   0.203  1.8499 -0.9822  0.1291
 3255SOL     OW21226   3.640   1.139  15.345  0.1049 -0.0694 -0.0106
 3255SOL    HW121227   3.732   1.124  15.323 -0.1090  1.8392 -2.2611
 3255SOL    HW221228   3.626   1.108  15.434 -1.5790 -0.2053 -0.3269
 3256SOL     OW21229   3.764   2.771   3.617 -0.5369 -0.1651 -0.3188
 3256SOL    HW121230   3.822   2.745   3.546  1.0915 -0.6475  1.1838
 3256SOL    HW221231   3.823   2.740   3.685 -0.4568  0.0709 -0.2812
 3257SOL     OW21232   4.028   0.613  14.842  0.1152  0.7890 -0.3935
 3257SOL    HW121233   3.985   0.667  14.775 -2.1149 -1.1901 -0.5638
 3257SOL    HW221234   3.973   0.535  14.847  0.8285  0.3744  0.7825
 3258SOL     OW21235   1.154   0.342   8.280 -0.5421  0.4230 -0.1413
 3258SOL    HW121236   1.130   0.314   8.192  3.2895 -0.4853 -0.9226
 3258SOL    HW221237   1.093   0.298   8.339 -0.5431  1.3238  0.5308
 3259SOL     OW21238   3.236   1.006   9.503 -0.6923 -0.0813  0.1545
 3259SOL    HW121239   3.281   0.953   9.569 -1.1767 -0.5643  0.0901
 3259SOL    HW221240   3.166   0.954   9.466  0.5583 -0.6785 -1.3563
 3260SOL     OW21241   0.502   3.754   2.158 -0.2286  0.1219  0.7144
 3260SOL    HW121242   0.525   3.834   2.110 -1.8929 -0.5264 -1.1886
 3260SOL    HW221243   0.468   3.709   2.080  1.7155  0.8503 -0.5463
 3261SOL     OW21244   0.267   2.668   2.793  0.0980 -0.3224  0.2030
 3261SOL    HW121245   0.307   2.686   2.878 -1.0991 -1.3995  0.9830
 3261SOL    HW221246   0.254   2.574   2.799  3.0991 -0.8843 -1.8869
 3262SOL     OW21247   1.855   4.312   8.546  0.2576  0.1919 -0.5089
 3262SOL    HW121248   1.946   4.313   8.517  0.7030 -2.7411  0.8139
 3262SOL    HW221249   1.829   4.220   8.542 -0.9054  0.5360 -1.0119
 3263SOL     OW21250   1.147   3.153   9.457  0.3821  0.1144  0.4917
 3263SOL    HW121251   1.104   3.111   9.532  1.5050 -1.1288  0.4387
 3263SOL    HW221252   1.218   3.092   9.437 -0.8993 -0.6290 -1.7738
 3264SOL     OW21253   1.900   1.761  13.022 -0.4150 -0.8282 -0.5087
 3264SOL    HW121254   1.888   1.822  12.949 -0.3550 -1.1723 -0.8065
 3264SOL    HW221255   1.994   1.769  13.041 -0.4611 -0.6340 -0.3648
 3265SOL     OW21256   1.435   3.119  12.095 -0.2609 -0.5772 -0.0600
 3265SOL    HW121257   1.496   3.109  12.022 -0.7959 -1.5468 -0.3812
 3265SOL    HW221258   1.359   3.067  12.068  0.2694 -1.0759 -0.5789
 3266SOL     OW21259   1.702   0.196  12.968 -0.8029 -0.2396  0.2958
 3266SOL    HW121260   1.632   0.253  12.999 -1.6094 -0.2834 -1.4128
 3266SOL    HW221261   1.719   0.156  13.053 -1.1061  0.0866  0.5106
 3267SOL     OW21262   4.173   0.156   1.989  0.1712 -0.8051 -0.6164
 3267SOL    HW121263   4.098   0.205   1.955  1.5561  1.9074  0.2435
 3267SOL    HW221264   4.240   0.224   1.988 -0.1000 -0.5439 -0.8278
 3268SOL     OW21265   0.413   2.114   1.492  0.0230  0.5280  0.2251
 3268SOL    HW121266   0.323   2.137   1.515 -0.0619  1.8347 -1.4199
 3268SOL    HW221267   0.441   2.030   1.530 -1.6235  0.2039  0.7549
 3269SOL     OW21268   0.787   1.145  16.527  0.2924  0.3407 -0.5313
 3269SOL    HW121269   0.802   1.213  16.592 -1.9396 -0.7412  1.1106
 3269SOL    HW221270   0.716   1.184  16.476  1.6982  0.9268 -2.0520
 3270SOL     OW21271   0.578   1.309  17.425  0.0721 -0.0031  0.3813
 3270SOL    HW121272   0.644   1.249  17.391 -1.6682 -1.9332  0.4435
 3270SOL    HW221273   0.573   1.290  17.518 -1.4104  2.1571  0.7303
 3271SOL     OW21274   3.133   4.494  15.895 -0.1494 -0.0477  0.2727
 3271SOL    HW121275   3.186   4.573  15.884  2.5565 -1.8848  0.0982
 3271SOL    HW221276   3.049   4.538  15.906 -0.7221 -1.1592  0.3994
 3272SOL     OW21277   2.458   1.967   5.985 -0.4969  0.2040  0.2759
 3272SOL    HW121278   2.494   1.890   5.942  0.4714  0.4385  0.6851
 3272SOL    HW221279   2.416   2.012   5.912 -0.4297  0.2900  0.2902
 3273SOL     OW21280   1.681   2.230   5.476  0.1370  0.3142  0.0578
 3273SOL    HW121281   1.757   2.288   5.477 -0.0570  0.5623  0.0806
 3273SOL    HW221282   1.721   2.143   5.485 -0.4496 -0.2060 -2.3692
 3274SOL     OW21283   1.334   1.271   8.382 -0.6499  0.2462 -0.0506
 3274SOL    HW121284   1.315   1.339   8.446 -2.5617  1.5668 -2.0461
 3274SOL    HW221285   1.286   1.205   8.432  0.4977 -1.6877 -1.5209
 3275SOL     OW21286   4.515   3.052   2.245  0.0546 -0.7038 -0.1190
 3275SOL    HW121287   4.457   3.018   2.176  0.4784 -0.9503 -0.3565
 3275SOL    HW221288   4.501   3.146   2.235  0.0364 -0.8594 -1.6379
 3276SOL     OW21289   1.202   4.317   4.980 -0.0960  0.1063 -0.2662
 3276SOL    HW121290   1.208   4.412   4.985  2.8708 -0.1754  1.3570
 3276SOL    HW221291   1.138   4.312   4.909  1.4377 -1.3764 -1.5542
 3277SOL     OW21292   2.719   2.620   0.694 -0.0439 -0.3311  0.1420
 3277SOL    HW121293   2.713   2.605   0.600 -2.8204  0.1213  0.2381
 3277SOL    HW221294   2.811   2.645   0.702 -0.4741  1.5895 -0.9475
 3278SOL     OW21295   0.397   0.127   5.208  0.0200 -0.0688  0.3841
 3278SOL    HW121296   0.341   0.203   5.224 -1.2989 -1.0062  0.1767
 3278SOL    HW221297   0.329   0.060   5.199  0.3214 -0.4424  0.8800
 3279SOL     OW21298   3.827   0.506   7.526 -0.1650 -0.3514  0.0820
 3279SOL    HW121299   3.848   0.433   7.584 -0.4594 -1.2169 -0.9020
 3279SOL    HW221300   3.824   0.460   7.443 -0.2581 -0.5179  0.1782
 3280SOL     OW21301   0.832   4.069   3.995 -0.1891  0.6717  0.0535
 3280SOL    HW121302   0.913   4.119   4.006  0.4097 -0.0683 -0.9895
 3280SOL    HW221303   0.831   4.036   3.905  0.8127 -0.6032  0.5131
 3281SOL     OW21304   1.941   0.999   0.209 -0.2116 -0.5212 -0.2009
 3281SOL    HW121305   2.014   0.937   0.196  0.2099 -0.0863  0.0695
 3281SOL    HW221306   1.914   1.032   0.124  2.1111  0.0328 -0.7340
 3282SOL     OW21307   1.118   0.285   7.004  0.1752  0.5935 -1.0175
 3282SOL    HW121308   1.194   0.229   7.024  1.2610  1.3443 -3.0215
 3282SOL    HW221309   1.132   0.308   6.912  0.8343 -2.4548 -1.6734
 3283SOL     OW21310   1.043   1.833   0.805  0.2950  0.4629  0.5682
 3283SOL    HW121311   1.023   1.803   0.894 -0.4130  0.4001  0.3875
 3283SOL    HW221312   0.977   1.901   0.791  0.0451 -0.1711 -1.2544
 3284SOL     OW21313   3.357   0.025   0.685 -0.4771  0.1973  1.1117
 3284SOL    HW121314   3.290   4.716   0.746  1.1086 -2.3047  1.5055
 3284SOL    HW221315   3.363   0.120   0.692 -2.1333  0.2476  1.8868
 3285SOL     OW21316   4.027   0.684   7.325 -0.3559 -0.2982 -0.0277
 3285SOL    HW121317   3.996   0.594   7.310  0.7696 -0.9013  1.3159
 3285SOL    HW221318   4.068   0.667   7.409  0.8746  4.7875  0.3702
 3286SOL     OW21319   1.637   1.460   4.913  0.3746  0.4882 -0.2847
 3286SOL    HW121320   1.600   1.538   4.873  2.1986  1.1612 -0.6560
 3286SOL    HW221321   1.578   1.402   4.864  0.0094  1.1093 -0.5714
 3287SOL     OW21322   1.468   1.481  14.924  0.2962 -0.1072 -0.4150
 3287SOL    HW121323   1.491   1.390  14.944  1.8145  0.3545 -0.0496
 3287SOL    HW221324   1.502   1.518  15.005  0.0850 -2.2666  0.6632
 3288SOL     OW21325   0.920   0.960   8.299 -0.2534  0.2931  0.4445
 3288SOL    HW121326   0.832   0.997   8.305  0.3791  1.7424  0.7416
 3288SOL    HW221327   0.916   0.918   8.385 -2.7555 -1.0662 -0.3269
 3289SOL     OW21328   1.255   3.822   0.097  0.2791  0.6792  0.1393
 3289SOL    HW121329   1.318   3.751   0.110 -0.8314  0.0937  2.2175
 3289SOL    HW221330   1.230   3.804   0.006  0.5755  1.0472 -0.0183
 3290SOL     OW21331   1.580   2.830   5.104 -0.5134 -0.0647 -0.4325
 3290SOL    HW121332   1.495   2.873   5.113 -0.8451 -0.9490  0.6868
 3290SOL    HW221333   1.564   2.769   5.031  0.2827 -1.4285  0.5302
 3291SOL     OW21334   4.318   1.963   6.289 -0.0736  0.1113  0.5433
 3291SOL    HW121335   4.231   1.971   6.328  0.7397 -0.2517  2.4468
 3291SOL    HW221336   4.371   1.908   6.346  0.6344  1.2113  0.9466
 3292SOL     OW21337   3.466   3.541   6.638 -0.2519 -0.0306  0.7598
 3292SOL    HW121338   3.379   3.541   6.598 -0.5183 -0.7501  1.3499
 3292SOL    HW221339   3.477   3.446   6.638 -0.1258 -0.0096  1.9663
 3293SOL     OW21340   0.459   2.406  14.467  0.1941 -0.4726 -0.2266
 3293SOL    HW121341   0.530   2.424  14.404  0.4930 -2.4109 -0.4648
 3293SOL    HW221342   0.461   2.310  14.463  2.0089 -0.5404  3.0166
 3294SOL     OW21343   1.595   3.652   8.228  0.2672  0.4406  0.3217
 3294SOL    HW121344   1.635   3.594   8.163 -0.3549  1.4980 -1.0153
 3294SOL    HW221345   1.641   3.617   8.303 -0.5222  0.7404  0.9411
 3295SOL     OW21346   0.596   2.320  16.690  0.2769 -0.5070 -0.0667
 3295SOL    HW121347   0.523   2.329  16.629  1.1384  0.8707 -0.8815
 3295SOL    HW221348   0.625   2.230  16.675  0.5896 -0.1216 -1.7677
 3296SOL     OW21349   1.552   0.518   3.205  0.2820  0.1435  0.3104
 3296SOL    HW121350   1.569   0.594   3.149  2.3888  0.5885  1.5757
 3296SOL    HW221351   1.582   0.440   3.158  0.4022 -0.9419  2.2005
 3297SOL     OW21352   2.122   3.787   7.743  0.1257 -0.0564  0.2211
 3297SOL    HW121353   2.057   3.855   7.726  0.7895  1.1352  2.4599
 3297SOL    HW221354   2.200   3.840   7.727 -0.6226  1.1442  0.5483
 3298SOL     OW21355   1.238   2.713  11.689  0.0871 -0.2006  0.1200
 3298SOL    HW121356   1.310   2.761  11.731  0.5416  0.2117 -1.1400
 3298SOL    HW221357   1.190   2.776  11.637  0.3929  1.9797  2.4941
 3299SOL     OW21358   4.288   1.999   9.427 -0.1564 -0.0911  0.3896
 3299SOL    HW121359   4.278   1.916   9.473  0.8027  0.1765  1.0993
 3299SOL    HW221360   4.280   2.066   9.496  3.5426  0.2095  0.5401
 3300SOL     OW21361   0.804   4.308   3.156 -0.0593 -0.3376 -0.0127
 3300SOL    HW121362   0.866   4.378   3.134  0.1152 -0.0070  1.5235
 3300SOL    HW221363   0.767   4.336   3.239  2.6459  1.6953  0.4851
 3301SOL     OW21364   1.462   1.423   2.011  0.5050 -0.1797 -0.0266
 3301SOL    HW121365   1.459   1.465   1.925 -0.5795  0.8237  0.5126
 3301SOL    HW221366   1.513   1.346   1.984 -1.2937 -0.5230 -2.4128
 3302SOL     OW21367   4.034   3.297   5.284  0.2905  0.2601 -0.3078
 3302SOL    HW121368   4.001   3.225   5.337  0.7257  0.9072  0.8512
 3302SOL    HW221369   3.961   3.339   5.240  1.5296  2.0292 -0.6960
 3303SOL     OW21370   4.208   2.529   5.343 -0.3472  0.7500 -0.4269
 3303SOL    HW121371   4.114   2.511   5.344 -0.5864  2.1853  1.8441
 3303SOL    HW221372   4.222   2.562   5.255 -0.4069 -0.9207 -1.0638
 3304SOL     OW21373   1.813   3.097   4.959  0.0621 -0.4060 -0.2282
 3304SOL    HW121374   1.786   3.046   4.882  0.7288 -1.5440  0.2930
 3304SOL    HW221375   1.890   3.043   4.975 -0.7613 -1.7776 -0.8768
 3305SOL     OW21376   0.360   0.360  11.326 -0.3316 -0.6163 -0.5698
 3305SOL    HW121377   0.289   0.424  11.320  0.6158  0.5022  0.1731
 3305SOL    HW221378   0.347   0.332  11.416 -0.3110  1.1891 -0.0057
 3306SOL     OW21379   4.365   1.891  13.316  0.1098 -0.5542  0.1787
 3306SOL    HW121380   4.375   1.899  13.411 -0.8362  0.3200  0.2043
 3306SOL    HW221381   4.397   1.802  13.300 -1.1608 -1.1822  1.0924
 3307SOL     OW21382   4.660   2.953   9.071 -0.1772 -0.3038 -0.2614
 3307SOL    HW121383   4.635   2.989   8.986  0.6989  0.3159 -0.2497
 3307SOL    HW221384   0.029   2.931   9.061 -0.4975 -0.9209 -1.8653
 3308SOL     OW21385   2.994   0.925   5.624 -0.6202  0.2483  0.1309
 3308SOL    HW121386   2.967   0.916   5.716 -0.9836 -0.2876 -0.0295
 3308SOL    HW221387   2.907   0.924   5.585 -0.3249 -0.2026 -0.5089
 3309SOL     OW21388   1.447   1.962   7.438 -0.2737  0.4687  0.4004
 3309SOL    HW121389   1.369   1.997   7.481  1.2705  0.3981  3.2115
 3309SOL    HW221390   1.490   2.044   7.414 -1.0219  0.8455  0.3658
 3310SOL     OW21391   1.530   0.283   2.369 -0.6469 -0.2880  0.1700
 3310SOL    HW121392   1.543   0.360   2.424 -1.3970  0.1718 -0.2965
 3310SOL    HW221393   1.617   0.281   2.328 -0.3268 -1.3119  0.9070
 3311SOL     OW21394   2.842   3.177   8.229  0.0598  0.2205  0.2312
 3311SOL    HW121395   2.864   3.183   8.322  2.3570  2.3219 -0.4613
 3311SOL    HW221396   2.747   3.180   8.241  0.3025  0.6227  2.0613
 3312SOL     OW21397   4.369   0.462   6.253 -0.2748  0.0148  0.1584
 3312SOL    HW121398   4.293   0.415   6.288  0.7132 -1.9871 -0.3538
 3312SOL    HW221399   4.326   0.536   6.210  0.6641  0.6869  0.3655
 3313SOL     OW21400   1.833   3.279   7.004 -0.0051 -0.1392  0.3144
 3313SOL    HW121401   1.926   3.300   7.003 -0.0420  0.0917  1.7243
 3313SOL    HW221402   1.818   3.260   7.097  2.1438  1.1430  0.9223
 3314SOL     OW21403   0.315   0.875  10.943 -0.4356  0.6187  0.0111
 3314SOL    HW121404   0.336   0.827  11.023 -0.3410 -1.3702 -1.1972
 3314SOL    HW221405   0.322   0.801  10.883  1.4194  1.1411 -0.3976
 3315SOL     OW21406   0.034   2.939   2.366 -0.4601 -0.2900  0.1022
 3315SOL    HW121407   4.686   2.939   2.303 -0.2973 -0.9965 -0.0896
 3315SOL    HW221408   0.038   2.847   2.394 -1.9352 -0.6107 -0.7546
 3316SOL     OW21409   1.348   0.813   7.102  0.5024  0.4106 -0.1270
 3316SOL    HW121410   1.440   0.810   7.076  0.6515  2.1773  0.1905
 3316SOL    HW221411   1.331   0.726   7.138  1.2479  0.1094 -0.5059
 3317SOL     OW21412   4.194   3.835   4.350 -0.1724  0.0069  0.5634
 3317SOL    HW121413   4.253   3.816   4.424 -1.7072 -1.4232  1.4044
 3317SOL    HW221414   4.136   3.903   4.385 -0.4802  0.2413 -0.4211
 3318SOL     OW21415   3.975   3.611  13.916 -0.3132 -0.1995 -0.1933
 3318SOL    HW121416   4.040   3.615  13.845  1.2210  0.3550  1.2596
 3318SOL    HW221417   3.917   3.686  13.903  0.1161  0.3949  1.3975
 3319SOL     OW21418   2.125   4.217   7.812 -0.5888 -0.3897 -0.0754
 3319SOL    HW121419   2.098   4.296   7.765  1.7143  0.5112  0.1582
 3319SOL    HW221420   2.166   4.257   7.888  0.4004 -0.4293 -0.6008
 3320SOL     OW21421   4.039   0.211   2.265 -0.4495 -0.0963  0.2321
 3320SOL    HW121422   4.107   0.277   2.254 -1.1607  0.6187  0.1713
 3320SOL    HW221423   4.067   0.142   2.204  2.6713 -0.7521  2.4335
 3321SOL     OW21424   3.242   3.996   4.218  0.0628  0.3093  0.1835
 3321SOL    HW121425   3.278   3.912   4.245  0.7037  0.3198 -0.6357
 3321SOL    HW221426   3.236   3.976   4.124  0.1878  0.6897  0.0946
 3322SOL     OW21427   0.649   0.201   7.461 -0.1635  0.2724  0.8966
 3322SOL    HW121428   0.695   0.217   7.544  0.3110  0.2133  0.6426
 3322SOL    HW221429   0.591   0.125   7.470  1.1579 -0.8822 -0.4399
 3323SOL     OW21430   2.499   2.618   0.933 -0.1992  0.4113 -0.3087
 3323SOL    HW121431   2.439   2.685   0.899 -0.1655  0.0320 -1.1095
 3323SOL    HW221432   2.450   2.600   1.013  0.3926  2.0726  0.4324
 3324SOL     OW21433   3.022   4.690   1.606  0.8534  0.7495  0.0759
 3324SOL    HW121434   3.033   0.045   1.659 -0.0433  1.9111 -1.4616
 3324SOL    HW221435   3.007   4.622   1.672  0.0865  1.6572  0.8322
 3325SOL     OW21436   4.515   1.063  12.624  0.1499  0.6121 -0.4983
 3325SOL    HW121437   4.429   1.068  12.580 -1.3536  0.3211  2.4136
 3325SOL    HW221438   4.561   0.997  12.574  2.5767  0.5671  1.8142
 3326SOL     OW21439   3.098   1.844   8.095 -0.0162 -0.3012  0.3110
 3326SOL    HW121440   3.182   1.813   8.129  1.1615  0.4715 -1.8430
 3326SOL    HW221441   3.140   1.893   8.024 -0.2365 -2.4995 -1.3320
 3327SOL     OW21442   1.809   2.854   2.423  0.1022  0.2168  0.2538
 3327SOL    HW121443   1.781   2.767   2.452 -0.4716  0.6254  0.9378
 3327SOL    HW221444   1.735   2.900   2.464 -0.2677  1.5211 -1.8667
 3328SOL     OW21445   3.277   0.684   5.361  0.2290 -0.5072 -0.3251
 3328SOL    HW121446   3.267   0.760   5.304 -0.6337 -0.2153  0.2097
 3328SOL    HW221447   3.332   0.628   5.306 -0.1353  1.7439 -2.9809
 3329SOL     OW21448   2.736   1.291   2.569 -0.0288 -0.3877  1.3273
 3329SOL    HW121449   2.645   1.265   2.562  0.6096 -2.1528 -0.5217
 3329SOL    HW221450   2.731   1.375   2.615 -0.0427  0.5090 -0.2748
 3330SOL     OW21451   1.484   0.435  15.722  0.0063 -0.2730  0.0612
 3330SOL    HW121452   1.560   0.471  15.676 -0.0554  0.3432  0.4411
 3330SOL    HW221453   1.466   0.371  15.653 -0.8822 -1.3812  1.3318
 3331SOL     OW21454   4.451   0.503  15.410 -0.3141  0.2820 -0.3877
 3331SOL    HW121455   4.413   0.585  15.379 -1.8488  0.5487  2.1677
 3331SOL    HW221456   4.402   0.446  15.352 -0.9261  1.5794 -1.1361
 3332SOL     OW21457   0.488   2.092   3.262  0.1982  0.2664 -0.1598
 3332SOL    HW121458   0.568   2.050   3.231  0.7180  1.2278 -0.1342
 3332SOL    HW221459   0.532   2.161   3.313  0.7566 -0.0254 -0.2408
 3333SOL     OW21460   0.810   3.137   9.130  0.1958 -0.2495 -0.0572
 3333SOL    HW121461   0.852   3.081   9.195  1.7656 -1.1378 -1.8684
 3333SOL    HW221462   0.868   3.212   9.142  0.2780 -0.5179  1.2265
 3334SOL     OW21463   2.780   1.272   7.083 -0.1859 -0.2656 -0.0754
 3334SOL    HW121464   2.772   1.196   7.025  0.1782 -1.2228  1.1168
 3334SOL    HW221465   2.713   1.333   7.052  0.7780 -0.5852 -2.7693
 3335SOL     OW21466   2.493   0.966   9.836  0.0203 -0.0360  0.2473
 3335SOL    HW121467   2.425   0.997   9.895  0.5916  2.4117 -0.3698
 3335SOL    HW221468   2.438   0.931   9.765 -0.1019  1.0755 -0.2130
 3336SOL     OW21469   1.171   1.938   0.490  0.5111  0.3030  0.1280
 3336SOL    HW121470   1.129   1.986   0.419 -0.5092  0.7118  1.0154
 3336SOL    HW221471   1.232   2.001   0.530  0.9399  1.0010 -1.6091
 3337SOL     OW21472   1.765   3.045   3.878 -0.2710 -0.0812 -0.2133
 3337SOL    HW121473   1.757   3.128   3.925  0.7603  0.3569 -0.8066
 3337SOL    HW221474   1.814   3.078   3.802 -1.0803  0.2002 -0.6107
 3338SOL     OW21475   1.476   3.479   5.587  0.2191  0.9507 -0.5315
 3338SOL    HW121476   1.552   3.511   5.539 -0.0279  0.4756 -1.2324
 3338SOL    HW221477   1.511   3.433   5.663  0.2913  0.1946 -1.0263
 3339SOL     OW21478   2.006   3.094   8.445  0.4877 -0.3935  0.1415
 3339SOL    HW121479   2.083   3.102   8.501  0.4071  0.8397  0.0735
 3339SOL    HW221480   1.980   3.003   8.458  1.5764 -0.8830 -1.1638
 3340SOL     OW21481   2.197   1.232   7.950 -0.1736  0.3434 -0.0334
 3340SOL    HW121482   2.264   1.239   8.018 -0.4932  1.1406  0.1958
 3340SOL    HW221483   2.160   1.147   7.973  1.9586 -0.4733  0.3789
 3341SOL     OW21484   3.894   2.036   2.651  0.0279  0.2698 -0.1518
 3341SOL    HW121485   3.936   1.976   2.713  1.5086  1.1000 -0.3365
 3341SOL    HW221486   3.836   1.977   2.602  1.4906 -0.6230 -0.8010
 3342SOL     OW21487   4.052   1.471   3.966 -0.5256 -1.1654 -0.1982
 3342SOL    HW121488   3.978   1.509   4.014 -0.2289 -2.1629  1.0599
 3342SOL    HW221489   4.018   1.506   3.884  3.9413  0.1061 -1.5123
 3343SOL     OW21490   1.987   4.482  13.628 -0.7167  0.1073  0.3811
 3343SOL    HW121491   1.906   4.440  13.598  0.1041 -0.3850 -1.1589
 3343SOL    HW221492   2.044   4.407  13.647 -1.2979 -1.1986 -3.1139
 3344SOL     OW21493   3.096   0.355  16.386 -0.3962  0.4035 -0.6622
 3344SOL    HW121494   3.050   0.348  16.303 -0.5460  2.0223 -0.7131
 3344SOL    HW221495   3.182   0.387  16.359  1.3454 -1.4661  2.7022
 3345SOL     OW21496   3.917   1.385   7.467 -0.1520  0.0199 -0.5380
 3345SOL    HW121497   3.969   1.372   7.547  1.6729 -1.3602 -1.9658
 3345SOL    HW221498   3.838   1.432   7.493  0.2217 -0.0795  0.8047
 3346SOL     OW21499   1.892   2.553   0.751  0.1623  0.1623 -0.0493
 3346SOL    HW121500   1.946   2.603   0.811  0.3714 -0.5638  0.3710
 3346SOL    HW221501   1.948   2.549   0.673  0.2810 -0.1148  0.0483
 3347SOL     OW21502   3.850   3.815  12.970 -0.2475 -0.3410 -0.0628
 3347SOL    HW121503   3.768   3.775  12.998 -0.5048  0.7910  0.8248
 3347SOL    HW221504   3.862   3.875  13.044 -0.4952 -0.9608  0.4868
 3348SOL     OW21505   0.091   2.841   7.277 -0.3598  0.3448  0.4438
 3348SOL    HW121506   0.155   2.845   7.206 -0.1534 -0.8326  0.5671
 3348SOL    HW221507   0.085   2.935   7.294  0.4201  1.2701 -4.4424
 3349SOL     OW21508   2.383   3.841   2.986 -0.5962  0.1675  0.0571
 3349SOL    HW121509   2.293   3.867   2.966 -0.5806  1.3089  1.4821
 3349SOL    HW221510   2.388   3.745   2.982 -2.6435  0.1301 -1.6250
 3350SOL     OW21511   2.198   0.185   3.370 -0.2772  0.0792  0.1095
 3350SOL    HW121512   2.250   0.121   3.321  0.9842  0.3669  1.0648
 3350SOL    HW221513   2.130   0.189   3.303  1.0119 -1.1955 -1.2688
 3351SOL     OW21514   1.830   1.086  15.010 -0.2385  0.1511  0.0645
 3351SOL    HW121515   1.899   1.139  14.969  2.3891 -2.0004  1.7110
 3351SOL    HW221516   1.824   1.008  14.954 -0.1690  0.5866 -0.5554
 3352SOL     OW21517   4.291   3.241   4.385 -0.5390  0.1073 -0.0539
 3352SOL    HW121518   4.268   3.252   4.293  0.5050 -0.6520 -0.4166
 3352SOL    HW221519   4.211   3.209   4.425  0.9772 -1.3012  1.8745
 3353SOL     OW21520   1.475   2.865  11.701  0.2481 -0.5975  0.2208
 3353SOL    HW121521   1.493   2.793  11.641 -5.0321 -1.4385 -0.3904
 3353SOL    HW221522   1.528   2.935  11.663  0.2014 -0.6834 -0.0015
 3354SOL     OW21523   2.463   1.150   6.851  0.5613 -0.3054  0.2561
 3354SOL    HW121524   2.555   1.124   6.849  0.9307  0.8843  1.4560
 3354SOL    HW221525   2.470   1.231   6.800 -2.1353  0.2770  0.8386
 3355SOL     OW21526   1.142   2.525   2.503 -0.2719 -0.0669 -0.4384
 3355SOL    HW121527   1.120   2.616   2.481 -0.8659 -0.6234 -2.1725
 3355SOL    HW221528   1.060   2.483   2.475 -1.0580  2.5376 -2.1149
 3356SOL     OW21529   0.800   3.029   2.745 -0.8862  0.5740 -0.2987
 3356SOL    HW121530   0.737   3.088   2.703 -1.4766  0.1242 -0.0339
 3356SOL    HW221531   0.744   2.959   2.777 -0.6880 -0.0295 -1.2723
 3357SOL     OW21532   2.549   2.826   7.417 -0.4390  0.0371 -0.2334
 3357SOL    HW121533   2.504   2.743   7.401  0.7271 -1.0084  1.9398
 3357SOL    HW221534   2.623   2.794   7.469  0.4424  1.0986 -0.8292
 3358SOL     OW21535   1.996   2.579  12.454  0.2399 -0.5540 -0.7534
 3358SOL    HW121536   2.037   2.657  12.417 -1.3443  0.4745 -0.3777
 3358SOL    HW221537   1.973   2.519  12.383 -0.2424 -2.2997  0.8728
 3359SOL     OW21538   0.580   2.911   0.871  0.1655  0.1259 -0.0058
 3359SOL    HW121539   0.672   2.934   0.859  0.3524  0.1483  1.3975
 3359SOL    HW221540   0.526   2.978   0.828 -2.3422 -0.5776  2.0229
 3360SOL     OW21541   1.091   2.306   2.676  0.0366  0.1594 -0.2664
 3360SOL    HW121542   1.126   2.375   2.620  0.7538 -1.0373 -1.3115
 3360SOL    HW221543   1.024   2.266   2.619 -0.0826  0.6127 -0.4413
 3361SOL     OW21544   3.631   2.791   5.322 -0.5985 -0.0119  0.1472
 3361SOL    HW121545   3.708   2.787   5.379 -1.5679 -1.3252  1.3736
 3361SOL    HW221546   3.572   2.826   5.388  2.7067  1.8190  2.1356
 3362SOL     OW21547   3.639   4.089   8.515  0.2013  0.0633  0.3585
 3362SOL    HW121548   3.562   4.089   8.572 -0.6035  2.1306 -0.7500
 3362SOL    HW221549   3.670   4.004   8.546  0.6393  0.0021 -0.2483
 3363SOL     OW21550   0.753   2.002  13.291  0.0123 -0.6149 -0.3755
 3363SOL    HW121551   0.782   1.912  13.273  0.1631 -0.6561  0.0801
 3363SOL    HW221552   0.667   1.997  13.333 -0.2375 -0.7922 -0.9076
 3364SOL     OW21553   0.185   0.336  15.939 -0.1046  0.0503 -0.5639
 3364SOL    HW121554   0.180   0.241  15.929 -2.0694  0.2962 -1.8486
 3364SOL    HW221555   0.266   0.339  15.990 -0.3266  0.1438 -0.2150
 3365SOL     OW21556   1.910   1.826   5.442  0.0803  0.7369 -0.1483
 3365SOL    HW121557   1.956   1.906   5.420 -1.1568  1.7386  0.8756
 3365SOL    HW221558   1.842   1.862   5.500 -0.8895 -1.3632  0.0350
 3366SOL     OW21559   1.245   3.572   9.982 -0.4830 -0.0254  0.1729
 3366SOL    HW121560   1.245   3.476   9.974  0.3109 -0.0677  0.6397
 3366SOL    HW221561   1.338   3.596   9.989 -0.6011  0.9530 -1.6421
 3367SOL     OW21562   4.285   4.063   7.454  0.3376  0.2422 -0.3456
 3367SOL    HW121563   4.228   3.990   7.433  0.2254  0.1280  0.3533
 3367SOL    HW221564   4.370   4.029   7.426 -0.5238 -0.6628 -1.8362
 3368SOL     OW21565   4.372   3.753  15.340  0.3780 -0.0094 -0.0092
 3368SOL    HW121566   4.438   3.815  15.308  0.0491  1.0445  1.3624
 3368SOL    HW221567   4.367   3.789  15.429 -0.3028  1.5166 -0.6631
 3369SOL     OW21568   2.485   0.671  11.353 -0.7617  0.2925  0.2206
 3369SOL    HW121569   2.407   0.618  11.338  0.1719 -1.1384  0.4239
 3369SOL    HW221570   2.535   0.628  11.284  0.4828 -1.3413  2.1183
 3370SOL     OW21571   2.686   3.996   2.029  0.2475  0.5790  0.7289
 3370SOL    HW121572   2.771   4.024   2.062 -1.5319  1.3737  4.6633
 3370SOL    HW221573   2.662   3.933   2.098 -0.6625  0.3970  0.2574
 3371SOL     OW21574   2.432   3.086   1.001  0.2113  0.4608  0.0917
 3371SOL    HW121575   2.483   3.072   0.920 -1.4541 -1.1466 -0.6636
 3371SOL    HW221576   2.448   3.180   1.012  1.8043  0.0813  0.9739
 3372SOL     OW21577   0.744   3.083   9.525  0.6291  0.1808  0.6535
 3372SOL    HW121578   0.751   3.031   9.605  2.4844 -0.6403 -0.0584
 3372SOL    HW221579   0.815   3.041   9.477 -1.4908 -2.0717 -0.5388
 3373SOL     OW21580   0.648   2.360   6.300  0.2846  0.1784 -0.0792
 3373SOL    HW121581   0.556   2.347   6.274 -0.4287  3.0755  0.9991
 3373SOL    HW221582   0.640   2.430   6.364  0.7083  1.1624 -1.0992
 3374SOL     OW21583   3.227   4.519  10.583 -0.0061  0.1791 -0.0902
 3374SOL    HW121584   3.286   4.593  10.598  0.0677  0.1915 -0.4575
 3374SOL    HW221585   3.144   4.551  10.618 -1.2002 -2.1057 -0.8284
 3375SOL     OW21586   3.077   4.131  15.415 -0.0538 -0.1698 -0.0073
 3375SOL    HW121587   3.121   4.063  15.466 -1.5852 -0.1402  1.3636
 3375SOL    HW221588   2.991   4.091  15.415 -0.2809  0.2841  1.5720
 3376SOL     OW21589   3.125   3.418  15.611  0.2431  0.8882  0.2715
 3376SOL    HW121590   3.046   3.473  15.618 -0.3146  0.2304 -1.0142
 3376SOL    HW221591   3.113   3.368  15.531  1.3761  2.2119 -0.7161
 3377SOL     OW21592   3.833   0.652   8.023  0.2377 -0.1801 -0.0614
 3377SOL    HW121593   3.783   0.716   8.073 -1.3477  0.0687 -1.9725
 3377SOL    HW221594   3.914   0.701   8.006 -0.7362  1.1369 -0.8814
 3378SOL     OW21595   3.198   0.182  13.668  0.0489  0.6464  0.4644
 3378SOL    HW121596   3.139   0.254  13.691 -1.5110 -0.7904  1.0171
 3378SOL    HW221597   3.236   0.219  13.588 -1.0239  2.3075  0.7230
 3379SOL     OW21598   3.026   0.672   4.466  0.0282  0.0767  0.1251
 3379SOL    HW121599   3.079   0.739   4.510 -1.2697  1.5496 -0.5901
 3379SOL    HW221600   2.993   0.706   4.383  2.4909  0.4055 -0.7158
 3380SOL     OW21601   3.395   2.463   4.368 -0.2913  0.1144 -0.4315
 3380SOL    HW121602   3.369   2.492   4.455  0.3780 -1.4799  0.3025
 3380SOL    HW221603   3.465   2.400   4.387 -1.0668 -0.8688 -0.8041
 3381SOL     OW21604   1.975   3.018   6.112 -0.0351  0.3277 -0.0689
 3381SOL    HW121605   2.068   2.997   6.121 -0.4786 -1.8986 -0.5780
 3381SOL    HW221606   1.957   3.097   6.163 -1.0792  0.4217 -0.5802
 3382SOL     OW21607   2.486   4.603   3.815 -0.4257  0.5211  0.3764
 3382SOL    HW121608   2.579   4.586   3.801 -0.5236 -0.7167  1.2174
 3382SOL    HW221609   2.492   4.657   3.893 -0.7440 -3.8716  3.4397
 3383SOL     OW21610   2.421   1.289   3.454 -0.1142 -0.0618 -0.2485
 3383SOL    HW121611   2.386   1.352   3.516 -0.1098  0.9143 -1.2366
 3383SOL    HW221612   2.512   1.286   3.484 -0.4817  3.1959  1.1131
 3384SOL     OW21613   2.565   2.840   5.478  0.2649 -0.2927  0.1096
 3384SOL    HW121614   2.654   2.838   5.512 -0.5907  0.2547  2.3956
 3384SOL    HW221615   2.554   2.923   5.433 -1.7347  0.4741  1.9748
 3385SOL     OW21616   4.309   0.826   9.263  0.3749 -0.6654  0.0178
 3385SOL    HW121617   4.325   0.868   9.179  0.7751 -2.2657 -0.6942
 3385SOL    HW221618   4.401   0.827   9.287  0.7751  1.9496 -1.6728
 3386SOL     OW21619   0.952   1.596   3.211  0.6648 -0.4787 -0.4716
 3386SOL    HW121620   1.010   1.666   3.242  0.0679 -0.6339  0.9968
 3386SOL    HW221621   1.002   1.522   3.246 -2.9344 -2.9416 -0.4665
 3387SOL     OW21622   3.565   4.633   3.118  0.4929  0.4536 -0.3129
 3387SOL    HW121623   3.651   4.673   3.122 -0.3358  2.0948  0.9643
 3387SOL    HW221624   3.579   4.546   3.079 -0.6098  0.6757 -1.2307
 3388SOL     OW21625   0.187   0.354   3.070  0.0259 -0.5683  0.0186
 3388SOL    HW121626   0.146   0.269   3.055 -2.3163  0.9002 -2.0262
 3388SOL    HW221627   0.260   0.346   3.130  0.3157  0.6936 -0.1532
 3389SOL     OW21628   0.188   4.616   2.196  0.1216  0.3737 -0.2201
 3389SOL    HW121629   0.245   4.540   2.186  0.4343  0.5228  0.4346
 3389SOL    HW221630   0.237   4.690   2.160  0.5320 -0.2014 -0.8400
 3390SOL     OW21631   1.818   0.028  10.210  0.3800 -0.6070  0.0615
 3390SOL    HW121632   1.725   0.037  10.231  0.5281  0.4257  0.2541
 3390SOL    HW221633   1.868   0.074  10.277  1.6183  0.4635 -1.6031
 3391SOL     OW21634   0.773   1.735   4.319  0.4000 -0.5087 -0.0916
 3391SOL    HW121635   0.786   1.734   4.414 -2.0042  1.0108  0.2735
 3391SOL    HW221636   0.685   1.696   4.319  0.0085  0.3114  1.8734
 3392SOL     OW21637   1.284   2.601   6.251 -0.0046 -0.1045  0.6356
 3392SOL    HW121638   1.220   2.597   6.323 -2.3110 -3.7771 -1.6064
 3392SOL    HW221639   1.316   2.690   6.263  0.2670 -0.5987  3.5080
 3393SOL     OW21640   2.506   4.020   7.313  0.0205  0.5512 -0.0108
 3393SOL    HW121641   2.455   4.087   7.360  0.1737 -1.3429  2.8662
 3393SOL    HW221642   2.433   3.980   7.265 -0.1486 -1.1084  1.6244
 3394SOL     OW21643   2.468   0.975   5.897 -0.4048 -0.9389  0.1243
 3394SOL    HW121644   2.504   0.896   5.856 -0.0354 -1.1787  0.9310
 3394SOL    HW221645   2.511   0.975   5.982  1.6331  0.8160 -0.9134
 3395SOL     OW21646   0.007   3.697   3.298 -0.5983 -0.1769 -0.0649
 3395SOL    HW121647   0.101   3.715   3.293 -1.2119  2.6408 -1.4603
 3395SOL    HW221648   4.720   3.732   3.387 -2.1308 -3.2783  0.9713
 3396SOL     OW21649   3.411   0.361   5.341  0.7127 -0.2798 -0.1076
 3396SOL    HW121650   3.382   0.278   5.304 -1.6032  1.3452 -1.9453
 3396SOL    HW221651   3.348   0.373   5.412  0.2111  0.2579 -0.6329
 3397SOL     OW21652   0.049   2.887   4.102 -0.2241 -0.5425  0.3441
 3397SOL    HW121653   0.068   2.977   4.128  0.1649  0.4293 -3.3217
 3397SOL    HW221654   0.004   2.901   4.018 -2.4534  1.5326  1.8740
 3398SOL     OW21655   3.702   2.576   5.161  0.0497 -0.3457 -0.6566
 3398SOL    HW121656   3.691   2.651   5.219  0.1873 -1.0894  0.3357
 3398SOL    HW221657   3.635   2.596   5.095 -0.6190  1.3228  0.5294
 3399SOL     OW21658   1.638   4.044   5.874  0.4302 -0.0856 -0.1829
 3399SOL    HW121659   1.616   4.106   5.943  3.0470  1.1300 -0.4492
 3399SOL    HW221660   1.596   4.088   5.799 -1.5899  0.2632  1.1512
 3400SOL     OW21661   2.783   3.393   8.043 -0.3589 -0.5547  0.4605
 3400SOL    HW121662   2.872   3.421   8.065  0.7022 -3.1624 -0.4021
 3400SOL    HW221663   2.767   3.323   8.107 -1.9527  1.4983  2.2702
 3401SOL     OW21664   1.075   0.442  11.004 -0.4122 -0.5938 -0.0102
 3401SOL    HW121665   1.115   0.378  11.063  2.8137  1.4678 -0.0208
 3401SOL    HW221666   1.039   0.496  11.074 -1.9982 -2.3796  0.5749
 3402SOL     OW21667   3.922   4.361   5.466  0.2340  0.2572  0.0444
 3402SOL    HW121668   4.008   4.357   5.506  0.9144 -0.3497 -1.4822
 3402SOL    HW221669   3.887   4.275   5.486  0.0181  0.7934  1.9572
 3403SOL     OW21670   2.334   2.994  16.453 -0.0494  0.1072  0.5496
 3403SOL    HW121671   2.264   2.986  16.389  1.5470 -0.7468 -1.0951
 3403SOL    HW221672   2.404   2.965  16.395 -0.4991 -0.1921  0.1627
 3404SOL     OW21673   4.223   4.634   3.817  0.0443 -0.1319  0.1518
 3404SOL    HW121674   4.307   4.649   3.773  0.2415  0.1924  0.6479
 3404SOL    HW221675   4.168   4.691   3.762  1.7120  0.3968 -0.9774
 3405SOL     OW21676   4.649   1.808   5.745 -0.1318 -0.4695  0.2815
 3405SOL    HW121677   0.009   1.839   5.779 -0.4608  1.1638 -0.4056
 3405SOL    HW221678   4.595   1.816   5.824  0.9614 -1.2154  1.0971
 3406SOL     OW21679   2.587   0.207   8.091 -0.2583  0.5448  0.4334
 3406SOL    HW121680   2.493   0.218   8.101 -0.3882 -0.5262  0.4134
 3406SOL    HW221681   2.594   0.184   7.998  1.7592 -2.9584  1.4405
 3407SOL     OW21682   1.899   0.370   3.591  0.0554  0.0803 -0.5331
 3407SOL    HW121683   1.953   0.420   3.653  0.0023 -1.5786  0.8691
 3407SOL    HW221684   1.937   0.394   3.507 -0.8477  0.4941 -0.8255
 3408SOL     OW21685   1.290   1.036   9.312 -0.1549 -0.1936  0.1025
 3408SOL    HW121686   1.214   1.094   9.306  0.5193  0.5446 -1.3911
 3408SOL    HW221687   1.365   1.095   9.311 -0.5312  0.2424 -2.4764
 3409SOL     OW21688   3.364   3.020   5.905 -0.4400  0.0424  0.3003
 3409SOL    HW121689   3.284   2.979   5.938  0.4309  0.2363  2.6532
 3409SOL    HW221690   3.332   3.108   5.886 -1.3084 -0.0761  1.2584
 3410SOL     OW21691   1.852   1.925   4.650  0.5085 -0.2841  0.3274
 3410SOL    HW121692   1.894   1.840   4.636 -1.2950 -1.4894  2.2818
 3410SOL    HW221693   1.908   1.980   4.596  1.4656 -0.6309  0.9756
 3411SOL     OW21694   0.436   0.124   2.837 -0.2530 -0.3344 -0.1793
 3411SOL    HW121695   0.361   0.153   2.784  0.5875  0.2791 -1.0306
 3411SOL    HW221696   0.443   0.029   2.835 -0.9634 -0.3568 -1.7682
 3412SOL     OW21697   3.757   1.972   6.344  0.1523  0.1429  0.2655
 3412SOL    HW121698   3.729   1.880   6.343 -1.5617  0.6643  0.1670
 3412SOL    HW221699   3.683   2.005   6.394  1.2116  4.3854 -0.9647
 3413SOL     OW21700   1.185   2.743   5.598  0.4644  0.8296 -0.1414
 3413SOL    HW121701   1.129   2.683   5.647  0.4796  0.4142 -0.6365
 3413SOL    HW221702   1.151   2.822   5.640 -0.6465  0.8629 -1.0709
 3414SOL     OW21703   0.943   4.069   5.113  0.2034  0.0748 -0.0896
 3414SOL    HW121704   1.016   4.051   5.054  0.6743  0.8243  0.2616
 3414SOL    HW221705   0.989   4.043   5.193 -0.4524 -0.4984  0.1040
 3415SOL     OW21706   4.164   2.216   9.884  0.8516  0.3503  0.3579
 3415SOL    HW121707   4.194   2.178   9.967 -0.7173  1.2668  1.3558
 3415SOL    HW221708   4.215   2.297   9.878  1.2923  0.1420  1.3091
 3416SOL     OW21709   4.386   1.753   0.399  0.0919  0.0249 -0.2389
 3416SOL    HW121710   4.395   1.838   0.355 -0.5683  0.2669  0.0952
 3416SOL    HW221711   4.476   1.735   0.425 -1.0352 -3.5106  1.2542
 3417SOL     OW21712   0.401   0.041   7.659 -0.1247  0.2333  0.2275
 3417SOL    HW121713   0.391   4.671   7.643 -0.8230  0.5587 -1.2026
 3417SOL    HW221714   0.364   0.056   7.746 -1.6637 -0.3892 -0.3276
 3418SOL     OW21715   3.738   3.554   8.910 -0.2077 -0.0671 -0.0875
 3418SOL    HW121716   3.802   3.624   8.902 -0.8945  0.3110 -2.5038
 3418SOL    HW221717   3.793   3.500   8.853 -0.1823  0.6942 -0.7861
 3419SOL     OW21718   2.216   3.641   3.210 -0.6586 -0.2049  0.0340
 3419SOL    HW121719   2.236   3.558   3.254  0.3386 -0.2865 -0.5722
 3419SOL    HW221720   2.244   3.614   3.122 -0.2046 -3.1846  1.0840
 3420SOL     OW21721   0.054   0.175   1.343  0.0705  0.2288  0.5433
 3420SOL    HW121722   0.090   0.237   1.405  0.8749  0.3860 -0.0738
 3420SOL    HW221723   0.102   0.097   1.372  1.9300  1.4480  0.7440
 3421SOL     OW21724   2.146   3.777  12.921  0.3580 -0.2470 -0.1189
 3421SOL    HW121725   2.197   3.734  12.853 -3.0661 -1.5792 -1.8398
 3421SOL    HW221726   2.215   3.798  12.984  0.0331  1.8039 -0.4526
 3422SOL     OW21727   1.861   4.242   1.489  0.1687  0.3428  0.3849
 3422SOL    HW121728   1.861   4.149   1.512 -1.9919 -0.3849 -2.4605
 3422SOL    HW221729   1.944   4.257   1.444 -1.0252  1.8958 -1.3385
 3423SOL     OW21730   0.146   4.683   5.307  0.3705 -0.4834  0.1522
 3423SOL    HW121731   0.086   4.615   5.338  1.1280 -1.1037  0.2751
 3423SOL    HW221732   0.094   0.018   5.252  2.8949  0.2748 -1.4267
 3424SOL     OW21733   1.569   0.853  14.898 -0.1845 -0.5291 -0.1219
 3424SOL    HW121734   1.497   0.904  14.935  0.9742 -0.7754  2.4698
 3424SOL    HW221735   1.512   0.781  14.869  1.3436 -1.3900 -1.0167
 3425SOL     OW21736   4.369   3.937   2.090  0.2074 -0.4501 -0.0776
 3425SOL    HW121737   4.442   3.997   2.105 -1.0174  0.9942  0.0849
 3425SOL    HW221738   4.409   3.852   2.070 -0.1227 -1.0156  1.6593
 3426SOL     OW21739   3.816   0.247   8.888 -0.0756  0.3632  0.1964
 3426SOL    HW121740   3.853   0.171   8.933  0.1685 -0.1292 -0.8410
 3426SOL    HW221741   3.724   0.222   8.885 -0.6122  2.3178  0.5578
 3427SOL     OW21742   1.393   2.297   2.385 -0.4192  0.3335  0.1327
 3427SOL    HW121743   1.338   2.369   2.417  1.2713  1.8447 -0.3699
 3427SOL    HW221744   1.396   2.239   2.461 -2.3134 -1.1722 -0.9526
 3428SOL     OW21745   1.403   2.822   8.687  0.7992  1.0713 -0.7650
 3428SOL    HW121746   1.430   2.828   8.779 -1.5229  0.3696 -0.0200
 3428SOL    HW221747   1.380   2.913   8.666  1.7795  1.1723 -1.3355
 3429SOL     OW21748   0.409   1.001   4.879  0.1188  0.1634 -0.4427
 3429SOL    HW121749   0.446   0.934   4.822 -0.7154  0.0975 -0.9004
 3429SOL    HW221750   0.319   0.970   4.873  0.6126 -1.3825 -0.0362
 3430SOL     OW21751   3.231   3.389   2.041  0.2883 -0.0568 -0.0340
 3430SOL    HW121752   3.158   3.340   2.079 -0.4450  0.5448 -0.6620
 3430SOL    HW221753   3.287   3.410   2.115 -0.1358 -1.3658  0.6625
 3431SOL     OW21754   1.089   1.206   2.891 -0.1719 -0.3654  0.0048
 3431SOL    HW121755   1.018   1.263   2.922 -0.2817 -1.7379  2.2845
 3431SOL    HW221756   1.049   1.164   2.815 -2.4923  0.8180  0.5701
 3432SOL     OW21757   1.425   4.271   4.195  0.4607 -0.7264  0.2524
 3432SOL    HW121758   1.471   4.350   4.223  1.3602 -0.5445 -1.7075
 3432SOL    HW221759   1.342   4.277   4.242  1.8947 -0.7773  2.7773
 3433SOL     OW21760   1.732   0.057   6.958  0.1179 -0.0137  0.2577
 3433SOL    HW121761   1.714   0.128   7.020  0.0867 -0.2038  0.4639
 3433SOL    HW221762   1.703   4.702   7.004 -1.3573  0.8575  0.8079
 3434SOL     OW21763   3.960   4.268   6.804 -0.3036  0.1416 -0.3379
 3434SOL    HW121764   3.902   4.339   6.834  0.9887  1.3871 -0.7749
 3434SOL    HW221765   3.965   4.222   6.888  2.0392  1.6383  0.3420
 3435SOL     OW21766   2.449   0.172   3.727  0.1293 -0.3887 -0.5608
 3435SOL    HW121767   2.414   0.165   3.638 -1.2485 -0.7485  0.0053
 3435SOL    HW221768   2.425   0.085   3.760  2.2018 -0.6518  0.2166
 3436SOL     OW21769   2.457   4.148   4.765 -0.1855 -0.1501 -0.4713
 3436SOL    HW121770   2.409   4.076   4.806  0.1771  0.3567  0.8345
 3436SOL    HW221771   2.395   4.166   4.694 -0.6113  0.3347  0.0265
 3437SOL     OW21772   3.713   0.003   4.451  0.1203 -0.1087  0.2843
 3437SOL    HW121773   3.782   4.716   4.385  0.1636  2.5820 -0.0946
 3437SOL    HW221774   3.662   4.649   4.430 -0.5555  0.6535 -0.8558
 3438SOL     OW21775   1.154   3.823  11.661  0.8072 -0.4849  0.6171
 3438SOL    HW121776   1.236   3.775  11.650  0.4952 -1.1819  1.3191
 3438SOL    HW221777   1.181   3.901  11.710  1.0348 -1.5307  2.1811
 3439SOL     OW21778   1.709   1.960   0.801 -0.1035 -0.1372  0.2751
 3439SOL    HW121779   1.645   1.952   0.730  0.2438  0.1542 -0.0634
 3439SOL    HW221780   1.740   1.870   0.817 -0.2030 -0.2629 -0.2561
 3440SOL     OW21781   0.063   3.958   4.159 -0.6852 -0.1249  0.1844
 3440SOL    HW121782   0.032   3.993   4.076  1.3981 -0.6119 -0.8217
 3440SOL    HW221783   0.152   3.931   4.134 -0.2621  0.9922  0.5031
 3441SOL     OW21784   3.661   0.144  11.054 -0.6354  0.4038  0.6620
 3441SOL    HW121785   3.579   0.160  11.101  0.4660  1.6194  2.1673
 3441SOL    HW221786   3.709   0.210  11.104  1.1827 -0.3643 -0.0826
 3442SOL     OW21787   1.719   0.900   4.874  0.2417  0.1250 -0.1208
 3442SOL    HW121788   1.657   0.963   4.910 -0.9023  0.0830 -2.0253
 3442SOL    HW221789   1.806   0.927   4.905  0.5974 -0.6071 -0.4784
 3443SOL     OW21790   4.431   3.367  13.587 -0.4248  0.6826  0.1600
 3443SOL    HW121791   4.473   3.369  13.501  0.8157  1.5327  0.8011
 3443SOL    HW221792   4.340   3.397  13.577 -0.4926 -0.5484 -3.0026
 3444SOL     OW21793   2.302   0.393   7.973 -0.3525 -0.1063 -0.1094
 3444SOL    HW121794   2.245   0.470   7.972 -1.7097 -1.1198 -2.1612
 3444SOL    HW221795   2.375   0.432   8.021 -0.0026 -0.5857 -0.2433
 3445SOL     OW21796   0.474   4.127  17.355 -0.0732 -0.5217  0.8351
 3445SOL    HW121797   0.490   4.210  17.401 -0.4701 -0.9220  1.7070
 3445SOL    HW221798   0.562   4.097  17.336 -0.9067 -2.0853 -0.5045
 3446SOL     OW21799   2.515   1.091   3.775 -0.2624  0.4438 -0.3152
 3446SOL    HW121800   2.480   1.058   3.692 -0.9905 -2.1990  1.0621
 3446SOL    HW221801   2.609   1.076   3.765  0.0792  1.8872  0.8152
 3447SOL     OW21802   0.158   2.561  11.363  0.0770 -0.3080  0.4099
 3447SOL    HW121803   0.143   2.656  11.368  3.2041  0.1512  1.4079
 3447SOL    HW221804   0.090   2.524  11.419  0.5991 -1.4921  0.2581
 3448SOL     OW21805   2.346   1.647   7.274 -0.2943 -0.1587 -0.0385
 3448SOL    HW121806   2.418   1.671   7.332 -0.2481  1.8672 -0.9121
 3448SOL    HW221807   2.277   1.707   7.304  1.2849  0.3173  2.7091
 3449SOL     OW21808   3.768   3.520   8.554  0.5925  0.0876 -0.1966
 3449SOL    HW121809   3.797   3.489   8.640 -0.6863 -0.0055  0.2094
 3449SOL    HW221810   3.727   3.442   8.515 -0.0876 -0.0996  0.8709
 3450SOL     OW21811   1.037   1.407   6.730 -0.0468  0.2324  0.3043
 3450SOL    HW121812   1.057   1.335   6.791  0.4309 -0.4875 -0.7061
 3450SOL    HW221813   1.125   1.429   6.699  0.1626  2.5742  2.5863
 3451SOL     OW21814   1.927   1.851  17.008 -0.1754  0.1316  0.5186
 3451SOL    HW121815   1.954   1.760  17.018 -1.3378 -0.4100 -1.2998
 3451SOL    HW221816   1.970   1.894  17.082 -1.1813 -0.3575  1.3825
 3452SOL     OW21817   2.411   3.217   4.166 -0.0367  0.7571 -0.3539
 3452SOL    HW121818   2.410   3.302   4.210 -0.4514 -0.2911  1.6205
 3452SOL    HW221819   2.397   3.156   4.238 -0.3999  0.8348 -0.3617
 3453SOL     OW21820   2.930   0.567   2.024  0.0863  0.0786 -0.2281
 3453SOL    HW121821   2.913   0.654   1.987 -0.8884  0.0660  0.1876
 3453SOL    HW221822   2.986   0.593   2.097  1.0279  2.2972 -1.7168
 3454SOL     OW21823   0.326   0.698   6.508 -0.1316 -0.3534 -0.1866
 3454SOL    HW121824   0.421   0.690   6.493  0.2202  1.8238  0.9348
 3454SOL    HW221825   0.334   0.743   6.591  2.0720  0.1375 -0.6469
 3455SOL     OW21826   4.253   2.457   1.960  0.0582  0.1979 -0.4797
 3455SOL    HW121827   4.280   2.546   1.938  2.2370 -0.4264 -0.3526
 3455SOL    HW221828   4.219   2.424   1.877 -0.3967  0.7873 -0.5256
 3456SOL     OW21829   0.901   1.916   7.146 -0.1816 -0.7438 -0.5426
 3456SOL    HW121830   0.957   1.839   7.143  1.5928  0.5219  0.2255
 3456SOL    HW221831   0.815   1.878   7.128 -0.8830  0.5738  0.0457
 3457SOL     OW21832   3.910   3.864  14.014  0.3173  0.3071 -0.1911
 3457SOL    HW121833   3.902   3.791  14.075 -1.7837  0.8675  0.2275
 3457SOL    HW221834   3.815   3.872  14.001  0.3561  1.8375  0.4006
 3458SOL     OW21835   1.397   1.615   4.996  0.1498  0.2496 -0.5029
 3458SOL    HW121836   1.393   1.519   4.998  0.2780  0.2341 -0.8781
 3458SOL    HW221837   1.394   1.637   5.089 -0.5067 -1.4033 -0.1300
 3459SOL     OW21838   2.874   1.667   6.987  0.4121  0.0486 -0.2945
 3459SOL    HW121839   2.897   1.710   7.069 -1.1464 -1.0152  0.7041
 3459SOL    HW221840   2.787   1.704   6.972  0.8626  0.1577 -2.6718
 3460SOL     OW21841   0.084   1.414   3.784  0.5311 -0.1690  0.2031
 3460SOL    HW121842   0.085   1.459   3.700  2.6814 -3.2472 -1.4091
 3460SOL    HW221843   0.052   1.483   3.842  1.2067 -0.6020  1.0928
 3461SOL     OW21844   3.646   4.353  10.299 -0.1752  0.2668 -0.6632
 3461SOL    HW121845   3.582   4.382  10.233 -0.7871 -0.0840 -0.2189
 3461SOL    HW221846   3.595   4.358  10.380 -0.2246 -0.2216 -0.6648
 3462SOL     OW21847   2.762   4.620   3.840  0.1507 -0.1237 -0.2506
 3462SOL    HW121848   2.805   4.643   3.757 -1.1108 -1.5861 -1.3050
 3462SOL    HW221849   2.736   4.708   3.867 -0.8424 -0.4111 -0.2844
 3463SOL     OW21850   1.773   1.090   5.282  0.1102  0.0569 -0.1435
 3463SOL    HW121851   1.861   1.058   5.262 -0.0716 -0.8654  0.5429
 3463SOL    HW221852   1.728   1.012   5.314  0.8690 -1.5884 -3.1139
 3464SOL     OW21853   2.069   0.573  15.197  0.0638 -0.6630 -0.4888
 3464SOL    HW121854   2.071   0.571  15.293 -1.7608  0.5037 -0.4174
 3464SOL    HW221855   2.094   0.485  15.172  3.0679 -0.0250  0.2397
 3465SOL     OW21856   1.310   1.151   2.621  0.3517  0.3895  0.7121
 3465SOL    HW121857   1.394   1.139   2.576  0.0015  0.5333  0.0110
 3465SOL    HW221858   1.249   1.167   2.549  1.5583  1.1714 -0.1439
 3466SOL     OW21859   1.151   0.585  14.599  0.0300 -0.3770 -0.1691
 3466SOL    HW121860   1.165   0.677  14.579 -0.2234 -0.2477  0.2554
 3466SOL    HW221861   1.070   0.572  14.550 -1.0897 -0.5086  1.7160
 3467SOL     OW21862   2.370   2.330   3.539  0.3380  0.0898 -0.7373
 3467SOL    HW121863   2.379   2.259   3.475 -0.0629 -0.3251 -0.3307
 3467SOL    HW221864   2.465   2.328   3.555 -0.0016 -1.1902  1.1657
 3468SOL     OW21865   0.860   3.842   8.268  0.0007  0.3882  0.2168
 3468SOL    HW121866   0.949   3.857   8.238  0.0202 -1.2848 -0.5501
 3468SOL    HW221867   0.804   3.847   8.191  2.9551  0.1232 -1.9404
 3469SOL     OW21868   3.371   0.735   9.298 -0.0578  0.4371  0.1296
 3469SOL    HW121869   3.429   0.714   9.370  0.4786 -0.5233 -0.5765
 3469SOL    HW221870   3.290   0.754   9.346 -0.0735  0.0721  0.2467
 3470SOL     OW21871   0.163   4.344   9.566 -0.1335 -0.4371 -0.2255
 3470SOL    HW121872   0.206   4.328   9.650  2.1505  2.3084 -0.8366
 3470SOL    HW221873   0.073   4.370   9.580  0.9438  3.4078 -0.4342
 3471SOL     OW21874   2.118   3.224   2.666 -0.3021 -0.0616 -0.7397
 3471SOL    HW121875   2.155   3.218   2.578 -1.9145  0.5288 -1.4428
 3471SOL    HW221876   2.026   3.206   2.649 -1.3445  2.4149  2.4174
 3472SOL     OW21877   1.426   0.051   6.569  0.0498 -0.1702  0.2112
 3472SOL    HW121878   1.350   0.012   6.526 -0.4327 -0.1798  1.0749
 3472SOL    HW221879   1.418   0.144   6.546 -1.1655 -0.8724 -2.1299
 3473SOL     OW21880   3.721   4.348   4.233 -0.5250  0.1406  0.1299
 3473SOL    HW121881   3.710   4.302   4.317 -0.7292  0.3768  0.2310
 3473SOL    HW221882   3.658   4.419   4.238 -1.3812 -0.6974  1.4312
 3474SOL     OW21883   3.413   2.493   3.141  0.7603  0.1338  0.2784
 3474SOL    HW121884   3.430   2.466   3.231 -2.8866  0.7113  1.1278
 3474SOL    HW221885   3.465   2.427   3.094  2.0177  0.4624  1.2169
 3475SOL     OW21886   0.703   0.909   0.999  0.1440 -0.6432  0.0373
 3475SOL    HW121887   0.783   0.903   0.948 -1.2569 -0.7311 -2.1726
 3475SOL    HW221888   0.748   0.866   1.071 -1.0588 -2.1834 -0.1168
 3476SOL     OW21889   4.518   4.543   6.468 -0.0548  0.0019 -0.1104
 3476SOL    HW121890   4.548   4.456   6.440  2.6861  1.9151 -3.0458
 3476SOL    HW221891   4.465   4.506   6.539  0.1297 -1.7236 -0.8617
 3477SOL     OW21892   3.389   2.266   2.740 -0.2026 -0.0009 -0.2297
 3477SOL    HW121893   3.469   2.282   2.690 -0.7239  0.8655 -0.7920
 3477SOL    HW221894   3.368   2.173   2.729 -0.5952  0.0715 -0.1154
 3478SOL     OW21895   3.984   0.186  14.371  0.0249  0.0190 -0.1084
 3478SOL    HW121896   4.077   0.198  14.355  0.0751 -0.0298  0.1474
 3478SOL    HW221897   3.979   0.107  14.426 -2.1352  2.0665  2.6526
 3479SOL     OW21898   4.586   4.336   5.383 -0.4596 -0.2633 -0.4438
 3479SOL    HW121899   4.617   4.272   5.318  0.7343 -0.4637  0.3225
 3479SOL    HW221900   4.508   4.290   5.416 -1.1157  2.7758  2.1922
 3480SOL     OW21901   3.863   1.000  15.140  0.0063  0.0384  0.2805
 3480SOL    HW121902   3.912   1.031  15.217  1.4208 -0.2487 -0.4949
 3480SOL    HW221903   3.892   0.909  15.135 -0.4984 -0.2177  1.8133
 3481SOL     OW21904   1.198   1.785   7.580  0.0348 -0.3453 -0.1976
 3481SOL    HW121905   1.198   1.708   7.524 -2.6585 -0.3686 -0.1415
 3481SOL    HW221906   1.233   1.743   7.659  0.0335  1.7254  0.9169
 3482SOL     OW21907   1.213   4.243   8.924  0.1784 -0.6134  0.1265
 3482SOL    HW121908   1.280   4.258   8.857 -2.2345 -2.2917 -2.6668
 3482SOL    HW221909   1.254   4.235   9.010  1.4680 -2.5812 -0.6849
 3483SOL     OW21910   2.820   1.986   1.202  0.3681  0.4556 -0.1687
 3483SOL    HW121911   2.825   2.068   1.252 -0.4811  0.2030  0.3501
 3483SOL    HW221912   2.730   1.992   1.169  0.3093  0.0359 -0.0797
 3484SOL     OW21913   3.961   0.928   7.700  0.2149  0.8523  0.0372
 3484SOL    HW121914   3.986   0.867   7.769 -1.2907  0.8963  0.6298
 3484SOL    HW221915   3.955   1.006   7.756 -0.9305  0.0562  1.0322
 3485SOL     OW21916   2.421   2.103   8.625 -0.4006 -0.0844 -0.0144
 3485SOL    HW121917   2.513   2.112   8.602 -0.7902 -0.0786 -1.5468
 3485SOL    HW221918   2.399   2.182   8.675 -0.3660 -0.3760  0.4636
 3486SOL     OW21919   4.658   1.346   7.054  0.0020 -0.2539  0.6078
 3486SOL    HW121920   4.687   1.355   7.145  0.5932  0.5228  0.3408
 3486SOL    HW221921   4.586   1.409   7.046 -1.6269 -2.1681  0.1863
 3487SOL     OW21922   4.105   0.161   0.133  0.0982  0.5530  0.0207
 3487SOL    HW121923   4.155   0.181   0.212  1.1823  2.6770 -1.1978
 3487SOL    HW221924   4.109   0.247   0.091 -2.3429  0.9953  0.6507
 3488SOL     OW21925   3.781   3.545   3.087 -0.7704 -0.4259 -0.3213
 3488SOL    HW121926   3.734   3.592   3.018 -0.0243  0.7560 -0.0104
 3488SOL    HW221927   3.718   3.541   3.158 -1.1132 -0.6031 -0.6338
 3489SOL     OW21928   0.103   0.271   9.078  0.0054  0.3040 -0.9414
 3489SOL    HW121929   0.075   0.187   9.116  1.3041  0.4927  0.4297
 3489SOL    HW221930   0.126   0.313   9.161 -0.0546 -0.4660 -0.5352
 3490SOL     OW21931   0.848   0.917   1.224  0.1252 -0.3877  0.6067
 3490SOL    HW121932   0.865   0.999   1.178 -1.7607 -0.8955 -0.9887
 3490SOL    HW221933   0.933   0.879   1.247 -0.1830 -0.7887  1.0918
 3491SOL     OW21934   4.255   3.698   2.419 -0.3091 -0.2155  0.2057
 3491SOL    HW121935   4.284   3.698   2.328  1.8015  0.2728  0.8753
 3491SOL    HW221936   4.164   3.667   2.416  0.4680 -2.5141  0.7564
 3492SOL     OW21937   3.361   4.660   7.490 -0.5970 -0.2578 -0.1053
 3492SOL    HW121938   3.412   4.719   7.544  0.2602  1.1363 -2.4173
 3492SOL    HW221939   3.383   4.685   7.400 -2.0849  0.8602 -0.1515
 3493SOL     OW21940   0.541   2.382   2.365  0.4598 -0.3911 -0.0240
 3493SOL    HW121941   0.531   2.291   2.336  0.0120 -0.3466  0.0055
 3493SOL    HW221942   0.606   2.369   2.434  1.0624  1.0485 -0.3121
 3494SOL     OW21943   4.012   1.247   2.700 -0.4308  0.7361  0.1649
 3494SOL    HW121944   4.025   1.312   2.632 -2.6458 -0.8596 -1.8045
 3494SOL    HW221945   3.982   1.307   2.768 -0.2450  2.1708 -1.0314
 3495SOL     OW21946   2.401   3.720  12.821  0.2262  0.1264 -0.0740
 3495SOL    HW121947   2.438   3.647  12.870 -0.8142 -0.0498  0.4505
 3495SOL    HW221948   2.427   3.796  12.873 -0.2013  0.7206 -0.7270
 3496SOL     OW21949   4.533   3.729   8.093  0.2108  0.1580  0.7760
 3496SOL    HW121950   4.479   3.795   8.051  0.2528 -0.0406  0.4076
 3496SOL    HW221951   4.497   3.648   8.056  0.5206  0.5530 -0.3941
 3497SOL     OW21952   0.461   3.856   4.806  0.1387  0.0670 -0.9091
 3497SOL    HW121953   0.446   3.880   4.898 -0.9690  1.5697 -1.4724
 3497SOL    HW221954   0.379   3.808   4.793 -1.3063  3.2077 -3.3946
 3498SOL     OW21955   0.989   0.102   3.309 -0.2594 -0.0574 -0.3289
 3498SOL    HW121956   1.057   0.039   3.334 -0.2190  0.4137  0.7119
 3498SOL    HW221957   0.929   0.058   3.249  0.6369 -0.9921 -0.5418
 3499SOL     OW21958   2.037   1.464   7.514 -0.4271 -0.2736  0.2452
 3499SOL    HW121959   2.101   1.483   7.582  1.4996 -0.3239 -1.5414
 3499SOL    HW221960   1.995   1.397   7.567  0.2901 -0.3465  0.7313
 3500SOL     OW21961   3.370   3.214   3.003  0.2275 -0.4977  0.2962
 3500SOL    HW121962   3.383   3.120   3.005 -0.5722 -0.5609  2.8708
 3500SOL    HW221963   3.281   3.234   3.031  0.3262  0.2123  0.1147
 3501SOL     OW21964   2.492   3.514   2.457 -0.4790 -0.2221 -0.0957
 3501SOL    HW121965   2.552   3.506   2.382  1.4812 -0.0370  1.4584
 3501SOL    HW221966   2.470   3.607   2.463  1.2681  0.2339 -0.6852
 3502SOL     OW21967   3.458   0.136   7.647  0.1876  0.6693  0.0258
 3502SOL    HW121968   3.428   0.213   7.600 -1.0774  1.7400  2.6133
 3502SOL    HW221969   3.505   0.175   7.721 -1.6785  0.9586  1.0685
 3503SOL     OW21970   2.033   0.499   7.957  0.1434 -0.2230 -0.3779
 3503SOL    HW121971   1.992   0.415   7.979  0.1013 -0.2952 -0.7301
 3503SOL    HW221972   1.958   0.531   7.906  1.1717  3.1360  0.2230
 3504SOL     OW21973   0.659   4.311   1.548 -0.0732 -0.0429  0.4122
 3504SOL    HW121974   0.578   4.341   1.506  0.1114 -0.3524 -0.1587
 3504SOL    HW221975   0.698   4.392   1.580  0.3511 -0.2944  0.5378
 3505SOL     OW21976   0.270   2.842   6.249 -0.5960  0.3119  0.0085
 3505SOL    HW121977   0.362   2.870   6.251 -0.5730  0.1591  1.0066
 3505SOL    HW221978   0.244   2.873   6.162 -3.8079  0.2829  0.9573
 3506SOL     OW21979   2.197   0.767  13.439 -0.0091 -0.5361  0.4924
 3506SOL    HW121980   2.236   0.680  13.427 -2.0625 -1.6655  1.9332
 3506SOL    HW221981   2.181   0.766  13.534 -1.5209  0.0283  0.2533
 3507SOL     OW21982   2.476   0.785   7.661 -0.1636 -0.3559  0.2656
 3507SOL    HW121983   2.412   0.819   7.723 -0.2518  0.7688 -0.4409
 3507SOL    HW221984   2.496   0.855   7.599 -0.7100 -0.9849 -0.6283
 3508SOL     OW21985   4.433   0.753  12.294 -0.5454 -0.0382 -0.5011
 3508SOL    HW121986   4.356   0.771  12.240 -0.9282 -1.1870 -0.3395
 3508SOL    HW221987   4.468   0.680  12.243  0.3117 -0.6241  0.9229
 3509SOL     OW21988   3.531   4.510   9.495 -0.2108 -0.3319  0.4643
 3509SOL    HW121989   3.596   4.489   9.562  0.7884 -0.3729 -0.5234
 3509SOL    HW221990   3.533   4.606   9.499  2.5249 -0.3682 -0.2229
 3510SOL     OW21991   0.388   2.391   5.615  0.2284 -0.3189  0.0990
 3510SOL    HW121992   0.425   2.348   5.537  1.0256  0.1371  0.2311
 3510SOL    HW221993   0.332   2.456   5.573 -0.4141  0.1871  1.7529
 3511SOL     OW21994   4.618   4.281   7.973  0.3128  0.5756 -0.1358
 3511SOL    HW121995   4.626   4.215   8.042 -0.9510 -0.4328 -0.9442
 3511SOL    HW221996   4.680   4.348   8.001  0.1108  1.3487 -1.5559
 3512SOL     OW21997   3.818   1.980   7.819 -0.2850  0.2423  0.0971
 3512SOL    HW121998   3.770   2.022   7.890 -0.6621 -3.4198  2.0285
 3512SOL    HW221999   3.875   2.056   7.808 -1.4376  0.8300 -1.8004
 3513SOL     OW22000   1.844   3.446   4.767  0.5189  0.4437  0.2132
 3513SOL    HW122001   1.890   3.367   4.738 -0.3618 -0.0142  0.0618
 3513SOL    HW222002   1.766   3.452   4.713  0.5814  0.8212  0.1633
 3514SOL     OW22003   1.805   0.945   8.587  0.7680 -0.1254 -0.2064
 3514SOL    HW122004   1.825   1.036   8.565 -0.1218 -0.6544 -3.0842
 3514SOL    HW222005   1.880   0.894   8.556 -0.9332 -2.8784  0.2395
 3515SOL     OW22006   1.537   4.013  13.008  0.6708 -0.4576 -0.2414
 3515SOL    HW122007   1.592   4.091  13.018 -1.2214  0.7304  0.8644
 3515SOL    HW222008   1.512   4.030  12.917 -0.7728 -0.9590  0.0692
 3516SOL     OW22009   2.368   3.469   8.229 -0.1881  0.0626  0.1421
 3516SOL    HW122010   2.351   3.452   8.322  0.8237 -1.2814  0.0795
 3516SOL    HW222011   2.460   3.495   8.236 -0.6668  2.2094 -1.7293
 3517SOL     OW22012   2.637   1.103  10.063  0.1752  0.3413 -0.7795
 3517SOL    HW122013   2.547   1.137  10.068 -0.2136 -0.3148 -3.1099
 3517SOL    HW222014   2.617   1.016  10.026  2.1989  0.8223 -2.9422
 3518SOL     OW22015   4.492   4.243  15.923  0.4185  0.4924 -0.2951
 3518SOL    HW122016   4.581   4.211  15.908  1.1936  2.6953 -0.3745
 3518SOL    HW222017   4.449   4.230  15.838 -1.4819  0.8230  0.6241
 3519SOL     OW22018   3.058   2.444   2.272  1.0207 -1.0239 -0.2397
 3519SOL    HW122019   3.063   2.539   2.264  1.9511 -1.0529 -0.0266
 3519SOL    HW222020   2.986   2.422   2.212 -0.2191 -2.6563  1.8599
 3520SOL     OW22021   1.996   3.496   8.496  0.2211 -0.4235 -0.2064
 3520SOL    HW122022   1.916   3.549   8.497  0.2888 -0.3147 -0.4457
 3520SOL    HW222023   1.981   3.421   8.554 -0.7900 -0.6967 -0.8296
 3521SOL     OW22024   3.039   3.403   6.013 -0.0497  0.3433  0.5067
 3521SOL    HW122025   3.103   3.457   6.059  1.0925  1.8088 -2.8086
 3521SOL    HW222026   2.999   3.468   5.955  0.9434 -1.0686 -1.7547
 3522SOL     OW22027   1.272   2.078   2.251  0.0431 -0.8799 -0.7891
 3522SOL    HW122028   1.298   2.064   2.160 -4.8755 -1.3596 -2.1154
 3522SOL    HW222029   1.321   2.154   2.281 -1.4369 -0.8376  1.5039
 3523SOL     OW22030   0.994   2.911   9.030  0.0508 -0.7539 -0.4419
 3523SOL    HW122031   0.995   2.965   8.951 -1.5940  1.0262  0.7363
 3523SOL    HW222032   0.989   2.989   9.086  1.5991  0.4741 -1.9953
 3524SOL     OW22033   4.516   1.486   9.204  0.5018 -0.6689 -0.0554
 3524SOL    HW122034   4.474   1.461   9.286 -2.2529 -3.3157 -2.2724
 3524SOL    HW222035   4.446   1.534   9.159  1.1276 -0.0560 -0.3715
 3525SOL     OW22036   0.726   4.435   4.522 -0.7942  0.5931 -0.4591
 3525SOL    HW122037   0.696   4.344   4.525  0.6851  0.0591 -1.5649
 3525SOL    HW222038   0.727   4.456   4.615 -0.2285 -0.3871 -0.2361
 3526SOL     OW22039   3.705   0.474   1.443  0.2281 -0.7224 -0.5906
 3526SOL    HW122040   3.633   0.421   1.478  1.0315 -1.0290  0.5818
 3526SOL    HW222041   3.716   0.535   1.516 -0.3404 -1.3507  0.0297
 3527SOL     OW22042   1.301   0.443   6.276 -0.5338  0.1727 -0.0573
 3527SOL    HW122043   1.206   0.434   6.284 -0.4544  0.6326  1.3247
 3527SOL    HW222044   1.321   0.528   6.237 -1.4245  1.4894  2.3929
 3528SOL     OW22045   0.125   0.016   4.213  0.5307  0.1099  0.6124
 3528SOL    HW122046   0.156   0.051   4.296  1.5415  0.4706  0.0913
 3528SOL    HW222047   0.191   0.053   4.154 -0.4320 -0.1798 -0.6561
 3529SOL     OW22048   1.332   0.906   7.434 -0.1748 -0.1999  0.4420
 3529SOL    HW122049   1.248   0.949   7.419 -0.8394 -0.9646  1.9404
 3529SOL    HW222050   1.361   0.907   7.343 -0.7243 -0.8233  0.2627
 3530SOL     OW22051   4.561   0.284  12.225  0.0501  0.3963 -0.2516
 3530SOL    HW122052   4.618   0.253  12.296  1.5771 -1.5085 -2.2960
 3530SOL    HW222053   4.479   0.266  12.270  0.3584 -2.2095 -0.7105
 3531SOL     OW22054   2.766   0.370   4.434 -0.2349  0.2640 -0.3766
 3531SOL    HW122055   2.825   0.439   4.464  0.2123 -1.1016  1.9225
 3531SOL    HW222056   2.777   0.301   4.500  0.4859 -0.4189 -1.2164
 3532SOL     OW22057   1.819   3.840   1.768  0.1933  0.2104 -0.5210
 3532SOL    HW122058   1.841   3.754   1.804 -3.2321 -0.1014  0.8843
 3532SOL    HW222059   1.798   3.811   1.680 -1.2559 -1.1315  0.2631
 3533SOL     OW22060   2.572   2.926  16.355 -0.1086 -0.2032  0.0959
 3533SOL    HW122061   2.579   3.021  16.366 -0.5348 -0.1822  0.1886
 3533SOL    HW222062   2.592   2.898  16.444 -1.7799 -0.0991  0.5111
 3534SOL     OW22063   4.458   2.788   5.302 -0.2802 -0.0759 -0.1154
 3534SOL    HW122064   4.429   2.874   5.332  0.5113 -0.0741  0.6561
 3534SOL    HW222065   4.495   2.804   5.215  0.8091  1.1586  0.5854
 3535SOL     OW22066   4.505   1.605   2.827  0.7909 -0.1015  0.2176
 3535SOL    HW122067   4.413   1.596   2.804  1.1426 -0.6859 -0.9532
 3535SOL    HW222068   4.537   1.524   2.787  1.1623  0.3607 -0.4175
 3536SOL     OW22069   3.089   1.211   1.968 -0.3764  0.2850 -0.3467
 3536SOL    HW122070   3.057   1.181   1.883 -1.4392  0.5604 -0.0405
 3536SOL    HW222071   3.180   1.232   1.947 -0.9537  1.6853 -1.4502
 3537SOL     OW22072   3.453   4.200  15.134  0.1829  0.0709  0.0296
 3537SOL    HW122073   3.483   4.274  15.185 -0.5480  1.3193 -1.3592
 3537SOL    HW222074   3.422   4.226  15.047 -1.4536  0.3686  0.6977
 3538SOL     OW22075   2.308   3.191   3.440  0.4078  0.4897  0.0803
 3538SOL    HW122076   2.260   3.123   3.393 -0.4609  1.9977 -1.1863
 3538SOL    HW222077   2.334   3.139   3.516  0.5735  1.1284  0.4610
 3539SOL     OW22078   2.938   4.140   2.042 -0.8318 -0.1881  0.1062
 3539SOL    HW122079   2.873   4.209   2.033 -0.5061  0.5401  3.4307
 3539SOL    HW222080   2.992   4.180   2.110  0.5481 -1.4032 -0.2690
 3540SOL     OW22081   4.545   1.865   8.272  0.3521 -0.1318  0.0812
 3540SOL    HW122082   4.610   1.810   8.229 -0.6150  0.0068 -1.5801
 3540SOL    HW222083   4.547   1.942   8.214 -1.2907  1.2219  1.8116
 3541SOL     OW22084   1.430   4.616  10.588  0.2126 -0.1007  0.4304
 3541SOL    HW122085   1.486   4.540  10.603  0.9725  0.3436 -0.1822
 3541SOL    HW222086   1.367   4.610  10.660  0.1441 -0.5715  0.3277
 3542SOL     OW22087   1.451   1.615  15.919 -0.4935 -0.0688 -0.2437
 3542SOL    HW122088   1.363   1.587  15.945  0.9115 -2.3202  2.1322
 3542SOL    HW222089   1.477   1.537  15.869  1.0834  0.3277 -0.0136
 3543SOL     OW22090   3.500   1.171   2.306 -0.2208 -0.1931 -0.1090
 3543SOL    HW122091   3.428   1.177   2.244  0.0051 -0.0458 -0.3609
 3543SOL    HW222092   3.454   1.186   2.388  0.0159  0.3245 -0.0677
 3544SOL     OW22093   2.144   4.236   6.633 -0.3083  0.5003  0.1641
 3544SOL    HW122094   2.068   4.191   6.670 -0.5085 -1.6960 -2.8287
 3544SOL    HW222095   2.105   4.320   6.607 -0.0268  0.0381 -1.7559
 3545SOL     OW22096   4.599   0.097   9.711  0.5607  0.5621  0.1621
 3545SOL    HW122097   4.668   0.065   9.653 -0.2351 -3.1875  1.2525
 3545SOL    HW222098   4.611   0.052   9.795 -0.4173 -0.5812 -0.3120
 3546SOL     OW22099   2.969   0.141  13.207 -0.2027 -0.0693  0.3384
 3546SOL    HW122100   3.047   0.176  13.165  0.0536 -1.9868 -0.7942
 3546SOL    HW222101   2.913   0.112  13.135 -0.2373  1.3901 -0.2398
 3547SOL     OW22102   0.913   0.575  11.173 -0.4015  0.4480 -0.9106
 3547SOL    HW122103   0.936   0.664  11.145 -3.1150  2.3069  2.7993
 3547SOL    HW222104   0.871   0.611  11.251 -0.4077 -0.2442 -0.5903
 3548SOL     OW22105   1.869   2.427   5.642 -0.7499 -0.2567  0.3846
 3548SOL    HW122106   1.829   2.407   5.726  0.1859 -1.1720  0.6120
 3548SOL    HW222107   1.912   2.508   5.668 -0.6041  0.4337 -1.9920
 3549SOL     OW22108   1.833   0.582   5.831 -0.1923  0.5107  0.0564
 3549SOL    HW122109   1.908   0.554   5.883  0.1529  1.4591  0.0614
 3549SOL    HW222110   1.880   0.651   5.785 -0.8882  0.9130 -0.0549
 3550SOL     OW22111   2.122   3.705   6.801 -0.5969 -0.2573  0.4814
 3550SOL    HW122112   2.120   3.667   6.889  0.7170  0.3712  0.7791
 3550SOL    HW222113   2.043   3.667   6.762 -0.4707  0.2061 -0.2172
 3551SOL     OW22114   4.476   0.020  15.321 -0.0054  0.2172  0.1158
 3551SOL    HW122115   4.509   4.660  15.356  0.1521  0.2091 -0.0498
 3551SOL    HW222116   4.393   0.013  15.369 -0.0750  3.0353  0.3903
 3552SOL     OW22117   4.258   2.447  11.313 -0.1940  0.2487 -0.0172
 3552SOL    HW122118   4.213   2.443  11.398  0.7370  0.4787  0.4811
 3552SOL    HW222119   4.339   2.401  11.330 -1.9491 -1.6562  3.0755
 3553SOL     OW22120   0.584   0.738   9.695 -0.0273  0.1078 -0.1471
 3553SOL    HW122121   0.518   0.807   9.694 -0.7271 -0.5821 -1.4881
 3553SOL    HW222122   0.530   0.662   9.716  0.2831  0.1298  0.7340
 3554SOL     OW22123   1.077   2.775   2.403  0.1624  0.3364 -0.1023
 3554SOL    HW122124   1.117   2.849   2.447  0.9792 -0.2765  0.1746
 3554SOL    HW222125   0.989   2.780   2.442 -0.1546  1.7930 -1.0036
 3555SOL     OW22126   0.681   0.701   1.527  0.4692 -0.6298 -0.2668
 3555SOL    HW122127   0.730   0.727   1.606  0.0431 -0.9856  0.1119
 3555SOL    HW222128   0.659   0.789   1.495  0.9522 -0.6271 -0.6054
 3556SOL     OW22129   0.125   0.702   7.005 -0.2103 -0.4500 -0.1505
 3556SOL    HW122130   0.107   0.727   7.095 -3.4038 -0.9645 -0.6277
 3556SOL    HW222131   0.106   0.608   7.002 -0.6146 -0.4250  1.8119
 3557SOL     OW22132   2.710   1.643   4.353 -0.3766  0.0386 -0.2198
 3557SOL    HW122133   2.639   1.618   4.412  2.3155  1.0104  3.3880
 3557SOL    HW222134   2.785   1.613   4.403  0.9561  3.4777 -0.1212
 3558SOL     OW22135   2.634   4.050  11.037  0.1076 -0.2372 -0.4407
 3558SOL    HW122136   2.688   3.988  10.988 -1.0421 -1.5821 -0.0275
 3558SOL    HW222137   2.694   4.122  11.057  0.4477  0.0627 -2.4924
 3559SOL     OW22138   3.110   3.566   8.582  0.5600 -0.2920  0.2400
 3559SOL    HW122139   3.179   3.632   8.587  0.1008  0.2708 -0.9491
 3559SOL    HW222140   3.061   3.581   8.663  2.0781  1.2168  0.8976
 3560SOL     OW22141   3.211   0.234   6.433 -0.1091 -0.0799 -0.4118
 3560SOL    HW122142   3.217   0.217   6.339 -2.7428 -0.7005 -0.4770
 3560SOL    HW222143   3.248   0.155   6.470  0.6952  0.7446  0.5373
 3561SOL     OW22144   2.930   1.405   2.396 -0.2985 -0.3701 -0.5776
 3561SOL    HW122145   2.902   1.364   2.314 -2.1761 -0.5992  0.1736
 3561SOL    HW222146   2.879   1.356   2.460  1.1350 -2.2016 -0.8345
 3562SOL     OW22147   2.842   4.466   7.074  0.6950  0.0140  0.1871
 3562SOL    HW122148   2.908   4.512   7.127 -0.1679  1.0859  0.3457
 3562SOL    HW222149   2.834   4.520   6.995 -1.0842 -1.3242 -0.5586
 3563SOL     OW22150   0.830   3.206  12.414 -0.2094 -0.0440 -0.6811
 3563SOL    HW122151   0.861   3.185  12.502 -0.9202 -0.4796 -0.5347
 3563SOL    HW222152   0.847   3.300  12.412  1.4703 -0.3589 -0.9617
 3564SOL     OW22153   1.384   1.876   1.055 -0.0242  0.5363  0.1854
 3564SOL    HW122154   1.460   1.918   1.093  1.6626 -2.4909  0.1852
 3564SOL    HW222155   1.311   1.907   1.110 -1.5314 -3.4506  0.4367
 3565SOL     OW22156   0.784   3.388   0.621  0.5415  0.0362 -0.3083
 3565SOL    HW122157   0.874   3.378   0.654  0.1784  2.3923  1.3928
 3565SOL    HW222158   0.729   3.366   0.696 -1.0025  0.5615 -1.2959
 3566SOL     OW22159   1.531   1.561   7.833  0.1804  0.0347 -0.0569
 3566SOL    HW122160   1.465   1.585   7.767  0.5929  1.7203  0.1428
 3566SOL    HW222161   1.575   1.645   7.837 -0.5262  0.4927 -1.6416
 3567SOL     OW22162   1.681   4.699   5.708 -0.1928  0.0912 -0.0363
 3567SOL    HW122163   1.624   4.665   5.638 -0.7317  1.2126 -0.1424
 3567SOL    HW222164   1.757   0.008   5.660  1.2184 -0.2831  1.9886
 3568SOL     OW22165   0.246   0.918   0.529  0.2765 -0.0260 -0.7195
 3568SOL    HW122166   0.307   0.850   0.500 -0.3192 -1.4955  1.4551
 3568SOL    HW222167   0.244   0.906   0.624  0.2368 -1.2572 -0.8654
 3569SOL     OW22168   1.561   2.183  12.559  0.1571  0.7141  0.3298
 3569SOL    HW122169   1.578   2.228  12.477  1.5730 -1.0189 -0.3411
 3569SOL    HW222170   1.487   2.232  12.593 -0.2601  0.3316 -0.0128
 3570SOL     OW22171   3.202   1.468   4.247 -0.0146  0.4392  0.4851
 3570SOL    HW122172   3.188   1.533   4.316  2.3117 -0.1568  1.5055
 3570SOL    HW222173   3.277   1.418   4.279  0.9523  0.5601 -1.5265
 3571SOL     OW22174   1.840   0.949   2.418 -0.7432 -0.0867  0.1808
 3571SOL    HW122175   1.888   1.030   2.432 -0.4743 -0.2446  0.1768
 3571SOL    HW222176   1.904   0.878   2.424 -0.4905  0.1303  0.0331
 3572SOL     OW22177   4.075   0.153   7.296 -0.2288  0.1354 -0.5233
 3572SOL    HW122178   4.108   0.133   7.208  0.8881 -1.0620  0.1629
 3572SOL    HW222179   4.008   0.085   7.304  0.9984 -1.0461 -0.2696
 3573SOL     OW22180   3.441   1.756   0.063 -0.4978 -0.3200  0.5889
 3573SOL    HW122181   3.446   1.664   0.037 -1.0090 -0.1143 -0.2669
 3573SOL    HW222182   3.382   1.796  17.695 -1.2633 -1.6188  0.4769
 3574SOL     OW22183   1.966   2.826   8.449  0.2917 -0.7481  0.1979
 3574SOL    HW122184   2.033   2.758   8.458 -0.0383 -0.8039  2.1166
 3574SOL    HW222185   1.894   2.796   8.504 -0.4741  0.8574  0.0775
 3575SOL     OW22186   3.551   4.127   9.226  0.0372 -0.3507 -0.0665
 3575SOL    HW122187   3.629   4.156   9.273 -0.0489  0.1174 -0.2029
 3575SOL    HW222188   3.484   4.182   9.266 -1.2457 -1.6573 -0.4255
 3576SOL     OW22189   3.195   4.273  16.034 -0.0804  0.3167 -0.6634
 3576SOL    HW122190   3.252   4.238  15.966  0.7084  1.0003 -0.3528
 3576SOL    HW222191   3.185   4.354  15.984 -0.5792  0.6869  0.0323
 3577SOL     OW22192   0.082   1.370   6.017 -0.2402  0.5285 -0.0201
 3577SOL    HW122193   0.069   1.290   5.967  0.2603 -0.1050  0.8697
 3577SOL    HW222194   4.718   1.408   6.026 -0.5147  0.3249 -1.7790
 3578SOL     OW22195   4.009   3.482  14.676  0.0806 -0.1064  0.5895
 3578SOL    HW122196   3.939   3.547  14.667  0.1808 -0.3390 -2.0860
 3578SOL    HW222197   4.087   3.528  14.706  0.2977 -1.1620  1.6323
 3579SOL     OW22198   2.486   2.694   4.478 -0.5673 -0.2490  0.2160
 3579SOL    HW122199   2.473   2.600   4.493 -2.0292  0.0042  0.5336
 3579SOL    HW222200   2.569   2.720   4.516  0.2714 -1.3448 -0.8395
 3580SOL     OW22201   2.154   1.154   3.165  0.2115  0.3449  0.1812
 3580SOL    HW122202   2.147   1.181   3.073 -2.5150  0.2362  0.3457
 3580SOL    HW222203   2.078   1.198   3.204 -0.2641 -0.6148  0.3415
 3581SOL     OW22204   3.064   3.715  11.795  0.2332 -0.2873 -0.2593
 3581SOL    HW122205   3.144   3.762  11.770 -1.0129  2.3469  0.7685
 3581SOL    HW222206   3.000   3.747  11.732  1.1023  2.5135  0.2669
 3582SOL     OW22207   0.623   3.105   1.924  0.2583  0.0230 -0.0988
 3582SOL    HW122208   0.690   3.133   1.861  0.0062 -2.6708 -1.5691
 3582SOL    HW222209   0.657   3.017   1.940  1.6562  0.2149 -2.0688
 3583SOL     OW22210   1.657   2.184  13.985 -0.0000 -0.0723  0.0601
 3583SOL    HW122211   1.655   2.145  14.072  0.3315  0.4323  0.2961
 3583SOL    HW222212   1.604   2.113  13.949  1.5034 -1.5862  0.8634
 3584SOL     OW22213   2.857   2.438  14.387 -0.3034 -0.6337  0.2598
 3584SOL    HW122214   2.827   2.502  14.451 -0.9093  1.2281 -1.8767
 3584SOL    HW222215   2.843   2.475  14.300  0.3021  0.5921  0.6940
 3585SOL     OW22216   4.377   2.552   6.906  0.1815  1.0422 -0.0833
 3585SOL    HW122217   4.282   2.544   6.909  0.4315 -1.6103  0.8336
 3585SOL    HW222218   4.397   2.571   6.814  2.3185 -0.1926  0.1214
 3586SOL     OW22219   3.157   3.227   1.676  0.1377  0.6500 -0.1374
 3586SOL    HW122220   3.158   3.313   1.719 -0.8670  0.8238 -0.4495
 3586SOL    HW222221   3.066   3.217   1.648 -0.1690  0.2013  1.0383
 3587SOL     OW22222   1.941   2.948   8.735  0.1539  0.6625 -0.2247
 3587SOL    HW122223   1.874   2.960   8.802  1.3342  0.6213  0.9545
 3587SOL    HW222224   1.971   2.859   8.751  1.3695  0.9935 -0.6836
 3588SOL     OW22225   3.034   3.184   6.171 -0.0447 -0.8613  0.5930
 3588SOL    HW122226   2.949   3.194   6.214 -0.4802 -2.1798  0.0363
 3588SOL    HW222227   3.034   3.265   6.120 -0.4809 -1.7654 -0.8454
 3589SOL     OW22228   0.605   2.597   8.594  0.6817  0.5156 -0.5226
 3589SOL    HW122229   0.590   2.584   8.688  0.3548  1.0669 -0.4982
 3589SOL    HW222230   0.525   2.645   8.573  0.2133 -0.7393 -1.6123
 3590SOL     OW22231   2.328   0.157   2.942  0.0658  0.9689 -0.0633
 3590SOL    HW122232   2.279   0.150   2.861 -0.6578  1.0792  0.3632
 3590SOL    HW222233   2.260   0.171   3.008  0.6519 -2.2658  1.2513
 3591SOL     OW22234   2.496   0.900   6.369  0.0769 -0.1141  0.2501
 3591SOL    HW122235   2.404   0.907   6.396  0.5195  2.5370  1.0148
 3591SOL    HW222236   2.531   0.875   6.454 -1.3479 -1.3062  0.5018
 3592SOL     OW22237   4.719   0.095  16.324 -0.0698  0.2851  0.1778
 3592SOL    HW122238   0.053   0.158  16.280 -1.3009  1.1951 -0.1204
 3592SOL    HW222239   0.044   0.080  16.405 -0.1632  1.6434  0.4917
 3593SOL     OW22240   0.373   4.631  17.314  0.1341 -0.3425  0.2520
 3593SOL    HW122241   0.372   4.580  17.233  1.9382  0.5678 -0.3417
 3593SOL    HW222242   0.449   4.606  17.367 -1.3760  0.2830  2.7070
 3594SOL     OW22243   1.883   0.279   8.082  0.0715 -0.6406  0.0319
 3594SOL    HW122244   1.862   0.186   8.088  1.5766 -0.9820 -0.2209
 3594SOL    HW222245   1.808   0.320   8.126  0.9968 -0.4915  1.4832
 3595SOL     OW22246   4.584   2.287   3.520  0.3073 -0.4644 -0.0541
 3595SOL    HW122247   4.519   2.321   3.459  2.1644  1.2151 -1.0960
 3595SOL    HW222248   4.642   2.363   3.526 -0.1887  0.0115 -1.3469
 3596SOL     OW22249   3.191   2.147  14.271 -0.2874  0.0016 -0.1635
 3596SOL    HW122250   3.164   2.227  14.316 -0.4953 -1.3074  2.0604
 3596SOL    HW222251   3.222   2.093  14.344 -0.3431  0.7905  0.4315
 3597SOL     OW22252   3.124   3.663   4.520  0.0703  0.2704 -0.2639
 3597SOL    HW122253   3.204   3.680   4.472  1.2023  0.9818  1.8662
 3597SOL    HW222254   3.108   3.739   4.577 -3.9087 -0.4123 -0.4642
 3598SOL     OW22255   4.381   3.738   4.599 -0.0156  0.1376 -0.3461
 3598SOL    HW122256   4.358   3.744   4.692 -1.2557  0.4800 -0.6746
 3598SOL    HW222257   4.399   3.644   4.601  1.2670  0.3890  0.1356
 3599SOL     OW22258   4.655   2.312   0.787 -0.2557  0.2879 -0.1455
 3599SOL    HW122259   0.016   2.268   0.788  0.7241  2.1146 -2.3051
 3599SOL    HW222260   4.599   2.235   0.774  2.5698 -1.3638 -2.3257
 3600SOL     OW22261   0.016   0.998  14.898 -0.1860  0.2652  0.3654
 3600SOL    HW122262   0.070   0.977  14.974 -1.5808  1.6627  1.7243
 3600SOL    HW222263   0.076   0.984  14.825 -2.5179  1.8710 -1.8411
 3601SOL     OW22264   3.138   2.071   7.050 -0.8200 -0.7007 -0.2322
 3601SOL    HW122265   3.214   2.015   7.041 -0.7430 -0.7148  0.4914
 3601SOL    HW222266   3.117   2.066   7.143  4.4208  0.0843  0.9791
 3602SOL     OW22267   3.187   3.439   4.706  0.2098  0.6151 -0.3521
 3602SOL    HW122268   3.272   3.467   4.739 -1.1360  2.1097  1.8206
 3602SOL    HW222269   3.159   3.520   4.664 -0.6409  0.2182 -0.5475
 3603SOL     OW22270   1.364   0.127   2.206  0.1294  0.1283 -0.0601
 3603SOL    HW122271   1.413   0.182   2.267  0.6290  0.5269 -0.8244
 3603SOL    HW222272   1.407   0.155   2.126  0.6484 -0.4020  0.0328
 3604SOL     OW22273   1.682   4.693   1.962 -0.0764  0.2044 -0.0356
 3604SOL    HW122274   1.743   4.713   1.892  2.0649 -3.0116  0.9238
 3604SOL    HW222275   1.666   4.600   1.948 -0.9566  0.0741  1.8546
 3605SOL     OW22276   1.828   0.050   8.206  0.3506 -0.4323 -0.3924
 3605SOL    HW122277   1.736   0.068   8.184  0.6608  2.2899  0.5889
 3605SOL    HW222278   1.824   0.043   8.302  0.9818  1.6100 -0.2294
 3606SOL     OW22279   2.548   3.497   2.180  0.1201 -0.9699  0.0416
 3606SOL    HW122280   2.493   3.473   2.105 -0.6569 -0.0002  0.2990
 3606SOL    HW222281   2.533   3.588   2.205 -0.8518 -0.6221 -1.8543
 3607SOL     OW22282   2.145   2.350   8.031  0.4326 -0.5407 -0.2884
 3607SOL    HW122283   2.180   2.436   8.007  0.4004  0.0899  2.0027
 3607SOL    HW222284   2.054   2.363   8.003  0.6529  1.3730 -0.1351
 3608SOL     OW22285   4.471   3.729  11.345 -0.1587 -0.9991 -0.2950
 3608SOL    HW122286   4.475   3.800  11.408 -2.1330 -1.7876  0.7128
 3608SOL    HW222287   4.537   3.674  11.388  0.5132  0.5184  0.6162
 3609SOL     OW22288   3.392   1.171   1.913 -0.1504  0.8809  0.4666
 3609SOL    HW122289   3.416   1.145   1.824 -1.2222 -0.1372  0.4747
 3609SOL    HW222290   3.383   1.082   1.947  1.1029  0.4167 -0.4151
 3610SOL     OW22291   2.838   1.782   4.860 -0.0559 -0.1434 -0.0961
 3610SOL    HW122292   2.899   1.836   4.810 -2.6085  1.7289 -1.1334
 3610SOL    HW222293   2.871   1.694   4.839 -0.6491 -1.0748  2.7890
 3611SOL     OW22294   2.096   0.673   4.318 -0.2255 -0.0946 -0.2879
 3611SOL    HW122295   2.187   0.674   4.346 -0.1351  2.0129 -0.6117
 3611SOL    HW222296   2.110   0.593   4.267  0.6879 -1.1053  1.5701
 3612SOL     OW22297   1.784   4.559   1.098 -0.1792 -0.3343  0.2671
 3612SOL    HW122298   1.840   4.627   1.135 -1.1014  0.0587  0.9180
 3612SOL    HW222299   1.752   4.521   1.180 -0.8792 -0.3430 -0.0112
 3613SOL     OW22300   0.660   0.111   8.115  0.1712 -0.1184  0.2230
 3613SOL    HW122301   0.703   0.033   8.080 -0.6520 -0.7528  0.6058
 3613SOL    HW222302   0.733   0.170   8.099  0.5132 -1.0582 -1.7419
 3614SOL     OW22303   1.820   2.523   5.381  0.5517 -0.2326 -0.0775
 3614SOL    HW122304   1.830   2.511   5.475  0.0724  1.3019  0.1680
 3614SOL    HW222305   1.746   2.584   5.388  0.2707 -0.4545 -1.0746
 3615SOL     OW22306   1.262   0.780   5.852  0.4500  0.4109 -0.3211
 3615SOL    HW122307   1.288   0.850   5.912 -0.0135  0.5611 -0.2956
 3615SOL    HW222308   1.334   0.717   5.859  1.0477  1.0853 -0.4136
 3616SOL     OW22309   1.126   2.621   5.995 -0.1296 -0.1490  0.4286
 3616SOL    HW122310   1.207   2.592   6.037 -0.3954  0.3634  1.2884
 3616SOL    HW222311   1.118   2.710   6.029 -1.0986 -0.0637 -0.0163
 3617SOL     OW22312   3.796   1.123  17.681  0.7168  0.4094  0.2472
 3617SOL    HW122313   3.871   1.163  17.638 -0.5445  1.5479 -0.9256
 3617SOL    HW222314   3.742   1.105  17.604  1.3345 -0.5393  0.0473
 3618SOL     OW22315   4.053   0.975   8.135 -0.0349 -0.2906 -0.0600
 3618SOL    HW122316   4.144   0.991   8.110 -1.0107  1.3435 -2.5516
 3618SOL    HW222317   4.042   1.000   8.227 -3.8043 -2.5875  0.1019
 3619SOL     OW22318   4.474   2.943   8.799  0.5282  0.0119 -0.1282
 3619SOL    HW122319   4.496   3.026   8.843  1.3959  0.0920 -0.7130
 3619SOL    HW222320   4.561   2.906   8.783  0.1094  0.5430 -3.7225
 3620SOL     OW22321   4.125   2.699   3.224 -0.8752  0.8507  0.0353
 3620SOL    HW122322   4.085   2.722   3.141 -1.9728 -0.0216  0.3208
 3620SOL    HW222323   4.204   2.753   3.220 -0.9998  0.9976 -0.3624
 3621SOL     OW22324   0.021   4.395  14.856 -0.1255 -0.5484  0.1629
 3621SOL    HW122325   0.027   4.315  14.908 -0.1532  0.0366  1.0643
 3621SOL    HW222326   0.095   4.374  14.799 -1.1224 -0.4007 -1.1816
 3622SOL     OW22327   2.336   1.702  12.212 -0.1589 -0.0300  0.1269
 3622SOL    HW122328   2.264   1.738  12.160 -0.1436  2.1018  1.5616
 3622SOL    HW222329   2.345   1.785  12.260  1.4848 -1.0294  1.5496
 3623SOL     OW22330   0.213   0.342  14.260  0.0810 -0.4062  0.5723
 3623SOL    HW122331   0.204   0.268  14.199  0.7581  0.4776 -0.5960
 3623SOL    HW222332   0.281   0.394  14.217 -0.1565 -0.4514  0.1399
 3624SOL     OW22333   1.845   1.831   2.996 -0.1921  0.0321 -0.2527
 3624SOL    HW122334   1.878   1.762   3.054 -0.4711  0.7586  0.7719
 3624SOL    HW222335   1.913   1.822   2.929 -0.2144  1.2956 -0.4581
 3625SOL     OW22336   1.664   0.208   7.412  0.2066 -0.5877 -0.2319
 3625SOL    HW122337   1.750   0.182   7.446  0.2953  0.5477  0.4342
 3625SOL    HW222338   1.653   0.280   7.474  1.8901 -0.3394 -0.2138
 3626SOL     OW22339   3.468   1.888   2.349  0.0395 -0.2518  0.1738
 3626SOL    HW122340   3.508   1.921   2.269 -0.2526  0.8828  0.4945
 3626SOL    HW222341   3.375   1.905   2.334  0.6306 -0.7647 -3.9970
 3627SOL     OW22342   2.678   3.997   7.498  0.4249  0.4672 -0.6464
 3627SOL    HW122343   2.600   4.015   7.446  1.3259  3.2922 -1.0440
 3627SOL    HW222344   2.715   4.085   7.499  0.0123  0.6474 -1.6121
 3628SOL     OW22345   4.457   1.006   8.430 -0.0868 -0.1077  0.4751
 3628SOL    HW122346   4.380   0.965   8.390  0.6116 -0.2430 -0.7506
 3628SOL    HW222347   4.525   0.956   8.384  0.2366 -1.0443  1.9602
 3629SOL     OW22348   0.457   0.375  17.340  0.3531 -0.0807  0.3746
 3629SOL    HW122349   0.374   0.331  17.321  1.5802 -2.2325  0.0408
 3629SOL    HW222350   0.468   0.421  17.257 -2.1600 -0.5560 -0.2270
 3630SOL     OW22351   2.112   0.152   7.327  0.1039  0.3134 -0.2123
 3630SOL    HW122352   2.143   0.094   7.257  1.3975  0.9096 -0.1324
 3630SOL    HW222353   2.191   0.207   7.325  0.0613  0.3426 -1.0141
 3631SOL     OW22354   2.979   4.623  10.675 -0.0103 -0.1783 -0.1314
 3631SOL    HW122355   2.997   4.636  10.768  1.1765 -0.1606 -0.3587
 3631SOL    HW222356   2.895   4.670  10.670 -0.4899 -0.8959  1.2356
 3632SOL     OW22357   1.473   4.561  11.676  0.1673  0.1329  0.4677
 3632SOL    HW122358   1.535   4.511  11.622  1.9082  0.3270  2.2808
 3632SOL    HW222359   1.408   4.592  11.613  1.0572  0.2514 -0.3984
 3633SOL     OW22360   1.780   4.634   8.822  0.1277 -0.0436 -0.2611
 3633SOL    HW122361   1.765   4.701   8.888 -1.1715  1.9091 -2.5769
 3633SOL    HW222362   1.730   4.557   8.852  1.7493 -0.6225  0.9868
 3634SOL     OW22363   2.857   2.056  15.002 -0.4434 -0.3407  0.1366
 3634SOL    HW122364   2.766   2.027  15.010 -0.9190  0.6066 -1.9322
 3634SOL    HW222365   2.851   2.145  14.970  2.1128 -0.1392  0.2484
 3635SOL     OW22366   0.327   2.686   6.920  0.1888  0.8165 -0.3951
 3635SOL    HW122367   0.400   2.624   6.923  0.7324  1.3621 -2.0679
 3635SOL    HW222368   0.375   2.765   6.893  1.2274  0.6794  1.0481
 3636SOL     OW22369   2.928   2.876   0.571 -0.1928  0.5396  0.1647
 3636SOL    HW122370   2.999   2.836   0.523  0.8784  1.7416  0.7409
 3636SOL    HW222371   2.903   2.948   0.513 -0.1566  0.6208  0.2498
 3637SOL     OW22372   4.537   2.032   5.655 -0.0720  0.0931 -0.1276
 3637SOL    HW122373   4.570   1.951   5.696  0.8155  0.4375 -0.1503
 3637SOL    HW222374   4.591   2.039   5.576  0.1444 -2.0881 -0.1799
 3638SOL     OW22375   1.925   3.762   7.065 -0.3861 -0.2868 -0.0778
 3638SOL    HW122376   1.944   3.852   7.039 -0.6011  0.6439  2.9246
 3638SOL    HW222377   1.833   3.756   7.038 -0.3259 -2.5390  0.2605
 3639SOL     OW22378   3.454   1.685  15.365  0.5112 -0.4739 -0.8743
 3639SOL    HW122379   3.464   1.771  15.324 -0.6831 -1.0511 -2.3892
 3639SOL    HW222380   3.430   1.708  15.455 -2.6831 -2.2888 -1.2442
 3640SOL     OW22381   3.456   1.076  17.354  0.4745  0.2968 -0.0051
 3640SOL    HW122382   3.549   1.090  17.376 -0.0795  2.1291  1.1917
 3640SOL    HW222383   3.439   0.986  17.380 -1.2022  1.4490  2.8628
 3641SOL     OW22384   0.944   2.512  13.152 -0.1047  0.7434 -0.1663
 3641SOL    HW122385   1.011   2.480  13.212 -1.1096 -2.9341 -0.9901
 3641SOL    HW222386   0.905   2.431  13.119  3.1668  0.1705 -2.5896
 3642SOL     OW22387   1.552   4.387   4.874 -0.8189  0.1039  0.0984
 3642SOL    HW122388   1.643   4.364   4.891 -0.5692  1.9936  1.3653
 3642SOL    HW222389   1.558   4.464   4.817  0.1168  0.3310  0.5050
 3643SOL     OW22390   2.855   2.910   2.998  0.2650 -0.0225  0.2381
 3643SOL    HW122391   2.777   2.858   2.978 -1.0313  2.0979 -0.2318
 3643SOL    HW222392   2.866   2.965   2.920 -1.8434  2.2377  1.5641
 3644SOL     OW22393   4.680   2.910   2.671  0.7188 -0.1749  0.2264
 3644SOL    HW122394   0.005   2.986   2.705  1.3576 -0.2586 -0.5004
 3644SOL    HW222395   4.613   2.950   2.616  1.5287 -1.2767 -1.5430
 3645SOL     OW22396   1.363   2.055   6.818 -0.0741 -0.9342 -0.0949
 3645SOL    HW122397   1.336   2.032   6.729 -1.9561 -0.2248  0.2948
 3645SOL    HW222398   1.390   2.146   6.812  0.1492 -1.1617 -2.3439
 3646SOL     OW22399   2.071   3.317   4.009 -0.2026  0.2683 -0.0183
 3646SOL    HW122400   2.109   3.404   4.000 -1.7858  0.8042 -1.5335
 3646SOL    HW222401   1.980   3.347   4.018 -0.4608 -0.8726  1.1947
 3647SOL     OW22402   3.469   3.750   0.599 -0.5270 -0.0844  0.5416
 3647SOL    HW122403   3.462   3.707   0.685  0.2147 -4.5968 -1.6598
 3647SOL    HW222404   3.503   3.675   0.552 -2.0468  0.0405 -0.7304
 3648SOL     OW22405   2.800   0.364   3.642 -0.1629  0.3568  0.0165
 3648SOL    HW122406   2.714   0.373   3.684 -0.6718 -1.1447 -0.7100
 3648SOL    HW222407   2.780   0.297   3.577  1.0759 -0.1525  0.1706
 3649SOL     OW22408   2.601   3.455   9.255 -0.5103  0.3343 -0.0274
 3649SOL    HW122409   2.540   3.441   9.182  0.0618 -1.0767 -0.2242
 3649SOL    HW222410   2.590   3.378   9.312 -0.0106 -0.2383 -0.7095
 3650SOL     OW22411   1.273   2.326   5.567 -0.3512  0.1838 -0.3011
 3650SOL    HW122412   1.241   2.367   5.648  1.2142 -1.1179  0.9842
 3650SOL    HW222413   1.270   2.403   5.510 -2.8853  0.2774 -0.0219
 3651SOL     OW22414   3.385   1.389  10.887 -0.1391 -0.2744 -0.6981
 3651SOL    HW122415   3.384   1.398  10.792 -1.4023 -0.3459 -0.6961
 3651SOL    HW222416   3.470   1.346  10.892  1.6309  3.3275 -0.3779
 3652SOL     OW22417   2.995   2.647   7.728  0.3028  0.7428 -0.0060
 3652SOL    HW122418   3.006   2.686   7.641 -2.2195  2.4273  0.4215
 3652SOL    HW222419   2.909   2.686   7.745  0.5674 -1.2206  5.5525
 3653SOL     OW22420   4.409   3.846   5.525  0.0316  0.6514 -0.2870
 3653SOL    HW122421   4.476   3.861   5.458  0.8718 -0.8485  0.2146
 3653SOL    HW222422   4.413   3.751   5.537  2.3329  0.5790 -1.5122
 3654SOL     OW22423   1.110   0.232   2.090  0.5928 -0.2874 -0.6212
 3654SOL    HW122424   1.117   0.322   2.123 -2.4641  0.7890 -3.0181
 3654SOL    HW222425   1.197   0.213   2.125 -0.4057 -0.8500  1.5881
 3655SOL     OW22426   0.471   2.107  14.480 -0.5940 -0.5081  0.0902
 3655SOL    HW122427   0.406   2.044  14.449 -0.7562  0.3462 -1.3328
 3655SOL    HW222428   0.542   2.079  14.421  0.7482  0.8915  1.0334
 3656SOL     OW22429   3.596   2.214   7.420  0.4277 -0.1564  0.8519
 3656SOL    HW122430   3.521   2.236   7.365 -1.0775 -0.0420  2.9325
 3656SOL    HW222431   3.547   2.151   7.473  1.1080 -1.2164  0.1979
 3657SOL     OW22432   2.630   1.681  11.297 -0.5270  0.0470 -0.2898
 3657SOL    HW122433   2.546   1.709  11.336 -0.6339 -1.6572  0.6889
 3657SOL    HW222434   2.606   1.689  11.205  0.2398  0.0115 -0.4911
 3658SOL     OW22435   1.070   1.713   9.393  0.5556 -0.4218  0.0426
 3658SOL    HW122436   1.066   1.760   9.309  0.3945 -1.8135 -0.7241
 3658SOL    HW222437   1.131   1.645   9.367  0.8951  0.6442 -1.9913
 3659SOL     OW22438   3.383   2.284   6.909 -0.5579 -0.3920 -0.1025
 3659SOL    HW122439   3.478   2.284   6.911 -0.5426  0.1312 -0.7130
 3659SOL    HW222440   3.370   2.359   6.852 -2.2652 -0.1422  0.6113
 3660SOL     OW22441   1.982   1.932   4.406 -0.0599 -0.7651  0.2121
 3660SOL    HW122442   1.944   1.875   4.339 -1.4297  3.2870 -2.4659
 3660SOL    HW222443   2.073   1.903   4.402  0.6451  1.4742 -0.1258
 3661SOL     OW22444   1.646   0.510   4.537 -0.3256  0.3894 -0.2660
 3661SOL    HW122445   1.651   0.605   4.547 -2.5988  0.5425 -0.5679
 3661SOL    HW222446   1.721   0.486   4.591  2.4787  1.9830 -3.4677
 3662SOL     OW22447   0.917   1.091  14.069  0.0416 -0.0311 -0.2263
 3662SOL    HW122448   0.974   1.062  14.140  0.2868  0.8487 -0.0646
 3662SOL    HW222449   0.838   1.090  14.123 -1.6067 -2.3062 -2.6923
 3663SOL     OW22450   2.590   2.364  17.660  0.0737  0.2449  0.1996
 3663SOL    HW122451   2.655   2.301  17.693 -0.8456 -0.3725  0.8420
 3663SOL    HW222452   2.546   2.303  17.601 -0.3109  0.6356  0.0908
 3664SOL     OW22453   2.148   1.701   4.803 -0.7580 -0.2318 -0.8816
 3664SOL    HW122454   2.083   1.681   4.735 -0.4519 -2.5011 -0.5177
 3664SOL    HW222455   2.095   1.702   4.883 -0.6119  1.4673 -0.8100
 3665SOL     OW22456   4.334   0.557   9.176  0.3859 -0.0249  0.0202
 3665SOL    HW122457   4.282   0.498   9.230 -0.1085 -0.0021 -0.4216
 3665SOL    HW222458   4.326   0.638   9.226  0.4992 -0.2914  0.4713
 3666SOL     OW22459   3.916   1.097   1.974 -0.3115 -0.0222  0.3776
 3666SOL    HW122460   3.990   1.123   2.029  2.4235 -2.3138 -2.2129
 3666SOL    HW222461   3.882   1.013   2.004  0.2692 -0.3404  0.1659
 3667SOL     OW22462   2.678   3.603  11.276 -0.0656  0.3128 -0.6153
 3667SOL    HW122463   2.656   3.695  11.260 -2.3433  0.0690  1.1646
 3667SOL    HW222464   2.623   3.580  11.351  0.0291 -1.1395 -0.9991
 3668SOL     OW22465   3.347   3.438   4.418  0.7437 -0.0017 -0.0506
 3668SOL    HW122466   3.414   3.420   4.351  0.0830  4.1916 -1.8501
 3668SOL    HW222467   3.343   3.534   4.416 -0.7776 -0.0802 -0.2658
 3669SOL     OW22468   2.449   0.566   6.265 -0.0037 -0.0812  0.2251
 3669SOL    HW122469   2.394   0.597   6.337  0.0361 -0.7834  0.5498
 3669SOL    HW222470   2.468   0.477   6.292  2.8833  0.2943 -0.5586
 3670SOL     OW22471   3.660   3.813   8.260 -0.2262 -0.1593 -0.2501
 3670SOL    HW122472   3.599   3.882   8.288  1.3552  0.3913  1.8288
 3670SOL    HW222473   3.709   3.848   8.186 -3.2125 -1.4150 -2.8288
 3671SOL     OW22474   3.075   3.761  10.790 -0.3030 -0.0816  0.0667
 3671SOL    HW122475   3.155   3.767  10.738 -0.8739 -0.1323 -0.7987
 3671SOL    HW222476   3.051   3.669  10.793  0.1873 -0.3100 -3.1451
 3672SOL     OW22477   4.145   3.892   1.834  0.5213  0.0887 -1.0228
 3672SOL    HW122478   4.178   3.811   1.797 -0.7338 -1.4220  1.1872
 3672SOL    HW222479   4.100   3.851   1.908  2.2164 -1.4621 -0.8624
 3673SOL     OW22480   3.646   4.698   4.142  0.5068 -0.6408 -0.2638
 3673SOL    HW122481   3.560   0.015   4.130  1.0609  0.4895 -0.4422
 3673SOL    HW222482   3.620   4.636   4.210  1.2173  0.4503  1.0246
 3674SOL     OW22483   3.925   3.215  16.870  0.1433 -0.5766  0.0737
 3674SOL    HW122484   3.981   3.219  16.793  0.0635 -0.9551 -0.0037
 3674SOL    HW222485   3.886   3.303  16.868 -0.8885 -1.0048  1.2356
 3675SOL     OW22486   1.728   1.920   3.297 -0.1615  0.1810 -0.7625
 3675SOL    HW122487   1.669   1.916   3.372  2.8812 -2.4504  1.4671
 3675SOL    HW222488   1.766   1.833   3.303 -1.2644 -0.3266 -1.1700
 3676SOL     OW22489   2.699   1.324   3.032  0.1873  0.5035 -0.6274
 3676SOL    HW122490   2.794   1.334   3.039  0.0008  1.2048  1.0252
 3676SOL    HW222491   2.668   1.414   3.039  0.9132  0.8243 -1.5462
 3677SOL     OW22492   2.870   4.222  13.017  0.4113  0.1363  0.0847
 3677SOL    HW122493   2.919   4.207  12.936  0.2009  0.4888 -0.1071
 3677SOL    HW222494   2.798   4.162  12.998  0.7014 -0.1561 -0.0893
 3678SOL     OW22495   4.176   1.276   9.593  0.2188  0.6406  0.0191
 3678SOL    HW122496   4.260   1.231   9.594 -0.7542 -1.1953 -0.7760
 3678SOL    HW222497   4.127   1.203   9.554  3.2266 -0.7014 -1.2032
 3679SOL     OW22498   2.856   4.265   7.291 -0.4525 -0.7453  0.3899
 3679SOL    HW122499   2.931   4.233   7.341  0.0485 -0.2141 -0.0140
 3679SOL    HW222500   2.786   4.275   7.355  0.3105 -1.4222  1.3188
 3680SOL     OW22501   4.674   1.229   7.961  0.2768  0.0717 -0.0118
 3680SOL    HW122502   4.611   1.264   7.897 -0.9514 -0.5473  0.8668
 3680SOL    HW222503   4.697   1.296   8.026  0.2746 -1.5298  1.6408
 3681SOL     OW22504   1.891   0.880  13.695 -0.3869 -0.2939  0.3694
 3681SOL    HW122505   1.934   0.903  13.612  1.0857  1.7271  1.6979
 3681SOL    HW222506   1.958   0.831  13.742  1.3615  2.3213  0.6071
 3682SOL     OW22507   2.260   2.741   7.316 -0.5556  0.4794 -0.4902
 3682SOL    HW122508   2.317   2.764   7.243 -1.0098  1.4823 -0.5297
 3682SOL    HW222509   2.315   2.674   7.355 -0.7750  1.8572  2.1619
 3683SOL     OW22510   4.130   3.080   8.560 -0.4390  0.7075 -0.3604
 3683SOL    HW122511   4.110   3.164   8.600 -1.7615  1.5274 -2.7773
 3683SOL    HW222512   4.220   3.091   8.529 -0.5101  2.7978  0.2223
 3684SOL     OW22513   4.209   0.282   6.370  0.3679  0.1717 -0.5796
 3684SOL    HW122514   4.114   0.286   6.377  0.1606 -2.8612 -2.0206
 3684SOL    HW222515   4.222   0.191   6.344 -0.7742 -0.2425  0.3018
 3685SOL     OW22516   0.032   0.744   7.257 -0.0316 -0.2374  0.8964
 3685SOL    HW122517   0.097   0.760   7.325 -0.9952  1.4160  1.4385
 3685SOL    HW222518   4.687   0.809   7.272 -0.8774 -0.8765 -0.2577
 3686SOL     OW22519   3.702   3.012  13.999  0.0387 -0.3242  0.6288
 3686SOL    HW122520   3.791   2.987  14.022 -0.2061 -0.0961  1.8517
 3686SOL    HW222521   3.665   2.937  14.046  2.3813 -1.5454  0.5030
 3687SOL     OW22522   0.626   4.600   8.463  0.0057 -0.0794 -0.3595
 3687SOL    HW122523   0.563   4.529   8.451  0.7623 -0.7374 -0.4845
 3687SOL    HW222524   0.604   4.663   8.394  1.5580 -0.1520 -0.9397
 3688SOL     OW22525   1.238   2.924   4.140 -0.1102 -0.4383  0.3343
 3688SOL    HW122526   1.325   2.955   4.117  0.2148 -1.8603 -0.3427
 3688SOL    HW222527   1.260   2.831   4.142 -0.7000 -0.5540  1.5044
 3689SOL     OW22528   0.627   0.347   7.936 -0.3702  0.1157  0.5459
 3689SOL    HW122529   0.663   0.361   8.023  3.2910 -1.7737 -0.7003
 3689SOL    HW222530   0.654   0.429   7.894 -1.0174  0.1026  0.1048
 3690SOL     OW22531   1.213   4.354   8.203  0.0001  0.3685 -0.5765
 3690SOL    HW122532   1.177   4.266   8.193  1.0051  0.2275 -2.8714
 3690SOL    HW222533   1.227   4.360   8.109  0.4420 -0.3264 -0.5539
 3691SOL     OW22534   1.074   1.624   4.313  0.0791  0.8487  0.3662
 3691SOL    HW122535   0.997   1.624   4.369  0.3257 -1.1046  0.7192
 3691SOL    HW222536   1.141   1.594   4.374 -0.1478  0.4130  0.3983
 3692SOL     OW22537   2.408   4.143   8.976 -0.1474  0.6828 -0.9583
 3692SOL    HW122538   2.380   4.194   9.051 -1.8682  0.1373 -1.2367
 3692SOL    HW222539   2.369   4.189   8.902 -3.2640  1.1482  1.0180
 3693SOL     OW22540   0.470   2.077   5.899  0.4412 -0.4789 -0.0097
 3693SOL    HW122541   0.526   2.040   5.831 -1.2955 -0.8157 -1.2461
 3693SOL    HW222542   0.463   2.160   5.853  3.0089  1.5066  3.1466
 3694SOL     OW22543   1.477   1.584  10.526  0.1215  0.1440 -0.3494
 3694SOL    HW122544   1.476   1.490  10.544 -2.0797  0.1902 -0.1942
 3694SOL    HW222545   1.497   1.600  10.434 -1.7668  2.3659 -0.3766
 3695SOL     OW22546   1.797   4.137   2.517 -0.7366 -0.1393 -0.0771
 3695SOL    HW122547   1.713   4.180   2.505 -0.2686  0.5501 -0.9340
 3695SOL    HW222548   1.800   4.110   2.608 -0.0344  3.8883  1.0849
 3696SOL     OW22549   0.117   1.716   7.895 -0.7692 -0.4153 -0.1192
 3696SOL    HW122550   0.142   1.771   7.821  0.3492  0.7524  1.1380
 3696SOL    HW222551   0.201   1.685   7.927 -0.4488  1.2020  0.5907
 3697SOL     OW22552   4.400   4.053   5.724 -0.4684  0.1000  0.2512
 3697SOL    HW122553   4.422   3.977   5.671 -1.9007  0.0500 -0.2929
 3697SOL    HW222554   4.490   4.079   5.742 -0.7297  0.9950  0.2900
 3698SOL     OW22555   4.651   0.137   8.764  0.2989  0.2350 -0.6208
 3698SOL    HW122556   4.606   0.054   8.782 -0.7650  1.4601  2.4847
 3698SOL    HW222557   4.595   0.196   8.815 -0.2892 -0.8168 -0.0470
 3699SOL     OW22558   3.244   0.895   6.960 -0.4083 -0.0370 -0.5983
 3699SOL    HW122559   3.310   0.842   6.915  0.9262  2.0223 -1.0754
 3699SOL    HW222560   3.302   0.946   7.018  1.1248 -0.9213 -1.3435
 3700SOL     OW22561   3.581   4.169  10.725  0.2105  0.3524 -0.7369
 3700SOL    HW122562   3.537   4.207  10.801 -1.1681 -1.5379 -0.6049
 3700SOL    HW222563   3.673   4.189  10.742  0.3779 -1.1288  0.0622
 3701SOL     OW22564   0.443   3.951   5.057 -0.2186  0.1620  0.4216
 3701SOL    HW122565   0.430   4.046   5.051  3.1118  0.6211  0.3452
 3701SOL    HW222566   0.481   3.939   5.144 -0.8528  1.9090  0.9566
 3702SOL     OW22567   0.607   0.362   5.663 -0.2025  0.0182 -0.3325
 3702SOL    HW122568   0.528   0.357   5.609 -0.8145 -1.9936  0.7568
 3702SOL    HW222569   0.651   0.424   5.604  1.0073  1.9135  2.5539
 3703SOL     OW22570   2.686   2.385  14.685 -0.2775  0.1749 -0.2251
 3703SOL    HW122571   2.742   2.356  14.756  0.2481 -0.5388 -0.9237
 3703SOL    HW222572   2.660   2.471  14.717 -1.0810  0.1256 -0.7331
 3704SOL     OW22573   2.630   2.056   4.931  0.0300 -0.1219 -0.0491
 3704SOL    HW122574   2.596   2.143   4.954  0.8570 -0.6066  3.1114
 3704SOL    HW222575   2.697   2.084   4.870 -1.3815  0.1438 -1.4747
 3705SOL     OW22576   1.409   3.785   7.196  0.1119  0.3326  0.7549
 3705SOL    HW122577   1.416   3.786   7.292 -1.6734 -0.7852  0.9128
 3705SOL    HW222578   1.453   3.703   7.172 -0.7651  0.0971 -0.0561
 3706SOL     OW22579   4.270   1.215   7.360 -0.0947  0.1875 -0.3845
 3706SOL    HW122580   4.225   1.146   7.410 -0.4542 -0.7343 -1.9835
 3706SOL    HW222581   4.301   1.159   7.289 -0.1315  0.6576 -0.7652
 3707SOL     OW22582   2.531   1.673   7.521  0.4635 -0.4221 -0.4848
 3707SOL    HW122583   2.495   1.673   7.610  0.2044  0.5013 -0.5879
 3707SOL    HW222584   2.546   1.768   7.530 -0.8000 -0.2430 -0.1921
 3708SOL     OW22585   2.224   0.421   1.935 -0.0416  0.5975  0.2665
 3708SOL    HW122586   2.299   0.368   1.907  0.5614  1.3365  0.4578
 3708SOL    HW222587   2.219   0.494   1.873  0.2811  1.1564  0.9038
 3709SOL     OW22588   1.043   0.566  16.416  0.0027  0.3346 -0.5928
 3709SOL    HW122589   1.062   0.569  16.323 -1.4494 -0.1154 -0.9041
 3709SOL    HW222590   1.044   0.659  16.436  2.0026  0.1781  0.0816
 3710SOL     OW22591   0.538   1.471  17.140 -0.0539 -0.1944 -0.7189
 3710SOL    HW122592   0.513   1.413  17.211  0.2395  0.5110 -0.0369
 3710SOL    HW222593   0.605   1.525  17.182 -2.3873  2.2031 -0.0879
 3711SOL     OW22594   3.068   1.674  15.708 -0.2933  0.4112 -0.3997
 3711SOL    HW122595   3.007   1.707  15.642  0.9384 -2.1035 -2.7810
 3711SOL    HW222596   3.012   1.669  15.785  0.2552  0.7771  0.0167
 3712SOL     OW22597   3.692   3.767   0.378  0.1170  0.8802 -0.1724
 3712SOL    HW122598   3.623   3.798   0.319  1.2280  1.2032 -1.2887
 3712SOL    HW222599   3.646   3.689   0.410  0.5316  1.5733  2.0569
 3713SOL     OW22600   3.271   1.448  17.023  0.3799  0.5061 -0.1655
 3713SOL    HW122601   3.263   1.544  17.022 -0.3125  0.4454 -0.9671
 3713SOL    HW222602   3.271   1.428  16.929  2.0359  1.5005 -0.3709
 3714SOL     OW22603   2.503   2.647   8.178 -0.5871 -0.6788  0.1645
 3714SOL    HW122604   2.578   2.624   8.233 -1.0736 -1.9654  0.3055
 3714SOL    HW222605   2.493   2.740   8.197  2.5155 -0.3781  0.2459
 3715SOL     OW22606   2.073   3.685   1.993 -0.1436 -0.5466  0.0924
 3715SOL    HW122607   2.005   3.650   1.936 -1.3131  2.1046 -0.1384
 3715SOL    HW222608   2.072   3.640   2.077  0.3987  0.0896  0.4451
 3716SOL     OW22609   3.107   3.582  14.538  0.3226 -0.0639  0.0786
 3716SOL    HW122610   3.148   3.506  14.496 -0.0303  1.4099 -2.9701
 3716SOL    HW222611   3.028   3.608  14.491 -0.1728  0.5286  1.2695
 3717SOL     OW22612   4.677   2.835   8.634 -0.0188  0.0913 -0.0936
 3717SOL    HW122613   4.706   2.916   8.593 -1.9966  0.1187 -1.4391
 3717SOL    HW222614   4.705   2.774   8.565 -0.0026 -0.0256  0.0159
 3718SOL     OW22615   1.064   1.033   8.943  0.5729  0.0755  0.4084
 3718SOL    HW122616   1.139   0.993   8.898 -0.1154  0.0467 -0.7240
 3718SOL    HW222617   1.089   1.125   8.951 -0.2238  0.2832  0.5064
 3719SOL     OW22618   0.214   3.284   7.344  0.4863 -0.0789 -0.7396
 3719SOL    HW122619   0.207   3.338   7.423 -1.5061 -2.7225  0.8694
 3719SOL    HW222620   0.154   3.213   7.366  0.6377 -0.4532 -1.5330
 3720SOL     OW22621   1.325   1.357   3.713 -0.1948 -0.0687  0.7431
 3720SOL    HW122622   1.302   1.444   3.681  2.7226  0.7239  0.8157
 3720SOL    HW222623   1.349   1.310   3.633  1.7874 -0.8409  1.7935
 3721SOL     OW22624   0.180   0.119   5.811 -0.0839  0.8211 -0.5114
 3721SOL    HW122625   0.236   0.178   5.862  0.6740  0.7012 -1.2008
 3721SOL    HW222626   0.096   0.161   5.830 -1.1232 -0.3981 -2.3530
 3722SOL     OW22627   3.185   1.293  16.546  0.0726 -0.5429 -0.2291
 3722SOL    HW122628   3.120   1.322  16.482 -1.2835  2.3180  2.4873
 3722SOL    HW222629   3.223   1.229  16.485 -0.6944 -1.2034 -0.0175
 3723SOL     OW22630   3.185   1.089   4.120 -0.2540 -0.2386  0.6595
 3723SOL    HW122631   3.267   1.082   4.169  1.4768  2.1561 -1.8815
 3723SOL    HW222632   3.212   1.109   4.030  0.1090 -0.6178  0.6864
 3724SOL     OW22633   4.644   2.330   5.308 -0.0736  0.5963  0.1825
 3724SOL    HW122634   4.570   2.270   5.302 -0.5752  1.1331  0.9987
 3724SOL    HW222635   4.601   2.405   5.267 -3.9707 -1.5610  0.3435
 3725SOL     OW22636   3.591   4.230  16.330 -0.0269  0.5112  0.2105
 3725SOL    HW122637   3.550   4.184  16.257  2.9126 -2.5476  0.4716
 3725SOL    HW222638   3.663   4.169  16.343 -1.5090 -0.3308  4.3770
 3726SOL     OW22639   1.447   3.252   1.621 -0.6526  0.2956  0.4093
 3726SOL    HW122640   1.419   3.194   1.550 -2.6088  2.1623 -0.3497
 3726SOL    HW222641   1.542   3.250   1.628 -0.4849  0.1746 -1.8745
 3727SOL     OW22642   4.461   2.502   5.534  1.1436 -0.1250 -0.1313
 3727SOL    HW122643   4.446   2.460   5.449 -0.5711  2.1847 -0.9957
 3727SOL    HW222644   4.495   2.437   5.595  1.3346  0.3881  0.3166
 3728SOL     OW22645   2.970   3.181   8.612 -0.1857 -0.0666 -0.2201
 3728SOL    HW122646   2.968   3.206   8.704 -0.6319 -4.2796  0.8859
 3728SOL    HW222647   2.951   3.087   8.612 -2.5416  0.4069  1.3095
 3729SOL     OW22648   2.524   3.376   0.920  0.3245 -0.2441  0.1684
 3729SOL    HW122649   2.553   3.433   0.991 -0.3357  0.9133 -0.4912
 3729SOL    HW222650   2.474   3.445   0.877  0.4217  0.1032  0.6157
 3730SOL     OW22651   3.589   2.281   3.033 -0.2674 -0.1403 -0.1477
 3730SOL    HW122652   3.581   2.232   3.115 -2.5635  0.6645  0.1171
 3730SOL    HW222653   3.621   2.223   2.965 -0.3556 -0.5130  0.1279
 3731SOL     OW22654   2.450   0.255  11.922 -0.0957 -0.3263 -0.3631
 3731SOL    HW122655   2.405   0.242  11.839 -0.8195  4.7980 -0.7908
 3731SOL    HW222656   2.516   0.188  11.905 -0.1479  0.3234 -3.0883
 3732SOL     OW22657   4.537   0.497   5.671  0.2886  0.1919 -0.6296
 3732SOL    HW122658   4.519   0.407   5.645 -1.7507  0.6216 -0.7509
 3732SOL    HW222659   4.612   0.480   5.727 -0.0349 -2.1804 -0.9401
 3733SOL     OW22660   0.070   2.558   4.595  0.0539  0.5175  0.0081
 3733SOL    HW122661   0.130   2.563   4.521  0.8249 -0.3288  0.5703
 3733SOL    HW222662   0.096   2.485   4.652  0.4404  2.0235  1.7424
 3734SOL     OW22663   1.922   4.717  13.474  0.6812 -0.2025 -0.6481
 3734SOL    HW122664   1.864   4.677  13.409  0.7329 -0.4714 -0.5290
 3734SOL    HW222665   1.936   4.640  13.529  3.7870  0.7721 -0.0968
 3735SOL     OW22666   1.059   3.925   4.918  1.1655 -0.9708 -0.1588
 3735SOL    HW122667   1.012   3.870   4.855 -0.5812  0.6012 -0.1971
 3735SOL    HW222668   1.130   3.870   4.952  1.4251 -0.9516 -0.6770
 3736SOL     OW22669   2.050   2.200  16.378  0.0713  0.4153  0.5563
 3736SOL    HW122670   2.029   2.284  16.418 -1.7384  0.8296 -1.2470
 3736SOL    HW222671   2.066   2.224  16.286  0.1008 -3.4432 -0.4443
 3737SOL     OW22672   3.042   2.997  15.394 -0.4865  0.0148  0.0212
 3737SOL    HW122673   3.111   2.995  15.460  0.9065 -1.2011 -1.4808
 3737SOL    HW222674   2.975   2.944  15.439  1.0053  0.2861  2.5763
 3738SOL     OW22675   1.906   3.694   5.142 -0.1899 -0.0374  0.0143
 3738SOL    HW122676   1.861   3.752   5.081  1.9756  0.8498 -0.7155
 3738SOL    HW222677   1.874   3.605   5.124 -1.2519  0.4158 -0.3709
 3739SOL     OW22678   3.942   4.384   2.843 -0.5600  0.1015  0.5514
 3739SOL    HW122679   3.943   4.289   2.827 -0.2084  0.5427 -2.1303
 3739SOL    HW222680   4.032   4.415   2.850 -0.0090 -1.4050  0.0165
 3740SOL     OW22681   2.261   1.581  13.035  0.0393  0.6420 -0.3731
 3740SOL    HW122682   2.230   1.658  13.084  2.1664  1.4716 -0.3032
 3740SOL    HW222683   2.220   1.609  12.954  0.0877  1.8310  0.0083
 3741SOL     OW22684   2.498   1.517  11.624 -0.4896  0.2420 -0.1280
 3741SOL    HW122685   2.587   1.483  11.629 -0.3375  0.8903  1.8479
 3741SOL    HW222686   2.446   1.440  11.601  0.6381 -0.7668  0.7441
 3742SOL     OW22687   4.098   2.964   2.201  0.1263 -0.0027  0.2007
 3742SOL    HW122688   4.088   3.038   2.141  1.4291 -0.1836 -0.2485
 3742SOL    HW222689   4.183   2.938   2.165 -0.4524 -2.3015  0.4926
 3743SOL     OW22690   2.951   1.171   6.755 -0.0330 -0.2947 -0.2201
 3743SOL    HW122691   2.950   1.121   6.673 -3.5155  0.9002 -0.8924
 3743SOL    HW222692   3.021   1.235   6.741  1.5764 -1.6058  1.7757
 3744SOL     OW22693   2.041   4.134   2.251  0.6767 -0.4329  0.5222
 3744SOL    HW122694   2.002   4.194   2.187 -2.1192 -0.8171  1.8428
 3744SOL    HW222695   2.102   4.197   2.290 -1.2681  0.3037  2.4099
 3745SOL     OW22696   1.154   3.475   6.725  0.4245 -0.0141 -0.3725
 3745SOL    HW122697   1.059   3.475   6.726  0.4432 -2.7148  0.9178
 3745SOL    HW222698   1.161   3.500   6.633 -1.4384 -0.1628 -0.5435
 3746SOL     OW22699   0.814   4.307   6.534 -0.0882  0.1688 -0.0537
 3746SOL    HW122700   0.757   4.233   6.556  0.3490  0.0404  0.6748
 3746SOL    HW222701   0.783   4.355   6.611  2.0836 -0.1495  1.0211
 3747SOL     OW22702   2.591   0.257   2.429 -0.1616 -0.1505  0.3028
 3747SOL    HW122703   2.568   0.189   2.365  0.4335  0.9316 -1.0650
 3747SOL    HW222704   2.573   0.225   2.517 -0.2204 -0.4939  0.1679
 3748SOL     OW22705   4.546   3.075   5.171  0.0659  0.9888  0.4904
 3748SOL    HW122706   4.572   2.994   5.128 -0.3088  1.7519 -1.2005
 3748SOL    HW222707   4.599   3.069   5.250  0.0402  1.8368  0.5739
 3749SOL     OW22708   1.502   4.167   6.463 -0.4430 -0.3261 -0.2515
 3749SOL    HW122709   1.509   4.177   6.558 -1.7903 -1.2499 -0.0444
 3749SOL    HW222710   1.580   4.114   6.446  0.6458  1.8555 -2.1085
 3750SOL     OW22711   2.066   2.666   1.185 -0.1863 -0.2539 -0.3845
 3750SOL    HW122712   2.009   2.590   1.187 -0.3809 -0.0772  0.7666
 3750SOL    HW222713   2.090   2.669   1.277 -0.1877 -0.6172 -0.3721
 3751SOL     OW22714   1.024   1.020  15.868 -0.6151 -0.2618  0.0669
 3751SOL    HW122715   1.049   1.104  15.831  1.5034 -1.5092 -1.3420
 3751SOL    HW222716   1.112   0.982  15.869 -1.0800 -1.3189  1.6584
 3752SOL     OW22717   3.405   1.655  14.461 -0.0245 -0.3019 -0.1237
 3752SOL    HW122718   3.482   1.635  14.516 -0.7412 -1.8088  0.3157
 3752SOL    HW222719   3.335   1.604  14.502  1.8237 -2.5816  0.2195
 3753SOL     OW22720   4.659   1.504   3.187  0.1716 -0.1638  0.3837
 3753SOL    HW122721   4.654   1.591   3.147  0.8861 -1.1430 -1.8275
 3753SOL    HW222722   4.607   1.450   3.128  1.6489 -0.5074 -0.5830
 3754SOL     OW22723   1.535   2.509  15.084  0.8337  0.2240 -0.3185
 3754SOL    HW122724   1.600   2.440  15.069 -0.1175 -0.7960  0.2334
 3754SOL    HW222725   1.597   2.581  15.086 -1.3954  2.2413 -2.5707
 3755SOL     OW22726   2.914   0.745  15.591  0.5249  0.3490 -0.4632
 3755SOL    HW122727   2.971   0.812  15.554  1.2033  1.2395  2.1919
 3755SOL    HW222728   2.951   0.744  15.680  1.8275 -0.6639 -1.0075
 3756SOL     OW22729   3.308   1.845  15.572  0.2316  0.3681 -0.0640
 3756SOL    HW122730   3.384   1.849  15.630  0.7613  1.0685 -0.8107
 3756SOL    HW222731   3.263   1.771  15.613  4.2454 -2.1573 -0.1849
 3757SOL     OW22732   1.387   3.282   5.175  0.0234 -0.3889  0.3448
 3757SOL    HW122733   1.385   3.377   5.182 -0.5798 -0.5713  2.4742
 3757SOL    HW222734   1.480   3.271   5.155  0.2195  0.7289  0.6506
 3758SOL     OW22735   1.997   0.401   9.651  0.3370 -0.0969  0.5727
 3758SOL    HW122736   2.075   0.452   9.628  1.4583 -2.8519 -1.6931
 3758SOL    HW222737   1.939   0.455   9.596  2.5399  0.4231 -1.2583
 3759SOL     OW22738   2.073   0.011   5.013 -1.0343  0.6293 -0.4706
 3759SOL    HW122739   2.156   4.691   4.995 -0.9410  1.9762 -3.3048
 3759SOL    HW222740   2.044   0.030   4.924  0.3837  1.4011 -0.7737
 3760SOL     OW22741   4.273   3.482  14.314  0.3578  0.3471  0.4949
 3760SOL    HW122742   4.230   3.513  14.234 -0.1789 -0.1399  0.5983
 3760SOL    HW222743   4.284   3.390  14.288 -1.3381 -1.1891  5.3072
 3761SOL     OW22744   3.001   2.144  15.881  0.0367  0.5845  0.4856
 3761SOL    HW122745   3.026   2.090  15.806  2.4413  2.4399 -0.0502
 3761SOL    HW222746   3.029   2.232  15.853 -1.2041  0.8084 -0.0535
 3762SOL     OW22747   1.156   3.414   2.651 -0.1118 -0.0935 -0.2367
 3762SOL    HW122748   1.230   3.353   2.649  0.1366  0.1716  0.9920
 3762SOL    HW222749   1.183   3.479   2.586  0.7287 -0.7262 -0.5146
 3763SOL     OW22750   0.622   2.902   7.858 -0.2369  0.0444 -0.1635
 3763SOL    HW122751   0.601   2.828   7.801  2.6460 -0.0391 -1.0760
 3763SOL    HW222752   0.541   2.895   7.910  0.6010  0.7010  1.2236
 3764SOL     OW22753   4.688   1.223   8.340 -0.2996 -0.1137 -0.4424
 3764SOL    HW122754   4.636   1.303   8.332 -0.9982 -0.2572  2.6839
 3764SOL    HW222755   4.616   1.167   8.314 -1.6745  0.6160  1.7579
 3765SOL     OW22756   2.806   4.482   4.750  0.0660 -0.3558 -0.1049
 3765SOL    HW122757   2.884   4.431   4.774 -1.9964 -2.6616  1.5880
 3765SOL    HW222758   2.836   4.571   4.771 -1.2052  0.2296 -0.7910
 3766SOL     OW22759   3.902   4.124   2.960  0.1119 -0.1013  0.6597
 3766SOL    HW122760   3.816   4.119   2.918  0.9625 -0.6696 -1.0499
 3766SOL    HW222761   3.878   4.093   3.047  2.5995  0.8102  1.6765
 3767SOL     OW22762   2.669   1.213   7.554 -0.1683  0.1568  0.1438
 3767SOL    HW122763   2.672   1.219   7.650 -0.3525 -0.1656  0.1691
 3767SOL    HW222764   2.713   1.296   7.535  0.5704 -0.0847  0.8058
 3768SOL     OW22765   0.673   4.501   5.476 -0.4826 -0.2200  0.2433
 3768SOL    HW122766   0.659   4.593   5.452 -0.8339  0.3270  2.5662
 3768SOL    HW222767   0.740   4.474   5.413 -0.8034 -1.1902  0.3217
 3769SOL     OW22768   0.869   3.868   7.409  0.2862  0.1168  0.5535
 3769SOL    HW122769   0.916   3.803   7.356 -1.3208  0.7061 -1.5946
 3769SOL    HW222770   0.855   3.819   7.490  0.5010 -1.2196 -0.2225
 3770SOL     OW22771   2.019   3.087   7.252  0.2235  0.1421 -0.1698
 3770SOL    HW122772   2.030   3.003   7.297 -2.5467  0.1603  0.5343
 3770SOL    HW222773   2.104   3.108   7.212  1.6763 -1.0220  2.2844
 3771SOL     OW22774   2.856   1.930   2.111 -0.3005  0.1556 -0.5100
 3771SOL    HW122775   2.792   1.982   2.063 -0.3961 -1.4752 -2.1426
 3771SOL    HW222776   2.811   1.940   2.195  1.7663  0.1124  0.6114
 3772SOL     OW22777   1.582   1.491   5.466  0.0266 -0.2599 -0.3514
 3772SOL    HW122778   1.567   1.480   5.372 -2.7207  1.2277 -0.0924
 3772SOL    HW222779   1.672   1.466   5.486 -0.7735 -0.3009  3.1562
 3773SOL     OW22780   4.116   0.293   5.681  0.5784  0.0174  0.9781
 3773SOL    HW122781   4.077   0.374   5.714 -1.2773  0.1760 -1.6806
 3773SOL    HW222782   4.052   0.222   5.674  1.1826 -0.6120  1.7181
 3774SOL     OW22783   1.800   4.643   9.203  0.2127  0.3226 -0.5323
 3774SOL    HW122784   1.784   4.646   9.298  2.3440  0.4204 -0.1649
 3774SOL    HW222785   1.750   4.568   9.172 -0.9857 -0.3418  2.9343
 3775SOL     OW22786   0.189   1.252   4.029  0.7742 -0.2548 -0.2599
 3775SOL    HW122787   0.153   1.303   3.957 -0.3723  1.6842  1.6837
 3775SOL    HW222788   0.282   1.257   4.007  0.6655  1.1234 -0.3949
 3776SOL     OW22789   4.222   1.169   9.261  0.0793  0.0434  0.1854
 3776SOL    HW122790   4.258   1.158   9.349 -1.0029 -2.0704  0.3632
 3776SOL    HW222791   4.285   1.122   9.206  0.6206 -0.7370  1.4654
 3777SOL     OW22792   4.437   1.426  11.611  0.3862 -0.4145  0.0330
 3777SOL    HW122793   4.486   1.450  11.690  0.3681 -0.8649  0.1819
 3777SOL    HW222794   4.345   1.441  11.632 -0.5025 -2.1783 -2.5593
 3778SOL     OW22795   4.498   3.722  14.263  0.6310  0.1248  0.5404
 3778SOL    HW122796   4.434   3.766  14.207 -0.1678  0.3842  1.6323
 3778SOL    HW222797   4.525   3.655  14.201 -0.6242 -0.0303  0.1596
 3779SOL     OW22798   1.618   1.837   5.351 -0.2308 -0.0587 -0.4767
 3779SOL    HW122799   1.587   1.862   5.264 -2.4295 -2.4344 -0.3864
 3779SOL    HW222800   1.708   1.807   5.339 -0.1796  0.1950 -0.7007
 3780SOL     OW22801   2.772   1.614   7.834 -0.3787  0.0313 -0.1757
 3780SOL    HW122802   2.694   1.567   7.807  0.5365 -2.4145  1.4825
 3780SOL    HW222803   2.737   1.703   7.838  0.7244  0.4908 -0.5955
 3781SOL     OW22804   3.720   4.396  16.935 -0.3023 -0.5298 -0.8085
 3781SOL    HW122805   3.783   4.324  16.941  0.3155  0.2242  1.8610
 3781SOL    HW222806   3.648   4.345  16.973 -0.1595 -1.3028 -1.5659
 3782SOL     OW22807   0.312   4.591   3.894 -0.3874  0.0504  0.0901
 3782SOL    HW122808   0.300   4.510   3.944  0.9635 -0.7129 -0.8392
 3782SOL    HW222809   0.380   4.561   3.834 -2.1489 -0.9423 -1.4368
 3783SOL     OW22810   1.154   3.366  11.166 -0.1482  0.6715  0.0295
 3783SOL    HW122811   1.231   3.420  11.152  0.0054  0.2942 -0.5876
 3783SOL    HW222812   1.082   3.426  11.148 -0.3917  0.4191  0.1545
 3784SOL     OW22813   2.880   0.534  14.417 -0.4253 -0.7724  0.1960
 3784SOL    HW122814   2.851   0.444  14.428 -3.8973  0.5278  1.9137
 3784SOL    HW222815   2.944   0.520  14.347 -1.4707  0.0459 -0.9268
 3785SOL     OW22816   2.317   3.967   3.220 -0.4859  0.0876 -0.0270
 3785SOL    HW122817   2.323   3.909   3.143 -1.0079  0.8818 -0.6625
 3785SOL    HW222818   2.297   3.900   3.285 -0.6908  0.4127  0.2428
 3786SOL     OW22819   0.075   1.604   8.505 -0.5287 -0.0724 -0.0579
 3786SOL    HW122820   0.156   1.607   8.555 -0.1032 -0.3958 -0.7241
 3786SOL    HW222821   0.103   1.624   8.415  1.4650 -2.1012  0.1031
 3787SOL     OW22822   2.583   2.820  17.684  0.7745 -0.2579  0.0436
 3787SOL    HW122823   2.655   2.862  17.638  0.1010  3.6855  2.5660
 3787SOL    HW222824   2.531   2.785  17.611  0.1440 -1.3458  1.0053
 3788SOL     OW22825   0.788   0.182  13.813  0.3337  0.0453 -0.1347
 3788SOL    HW122826   0.748   0.262  13.848 -0.2035  0.8686 -2.5978
 3788SOL    HW222827   0.841   0.218  13.741 -0.9479  2.0042 -0.1016
 3789SOL     OW22828   3.249   4.021   6.515  0.3215 -0.5461  0.4478
 3789SOL    HW122829   3.312   3.995   6.581  1.6243  0.4536 -0.4032
 3789SOL    HW222830   3.170   4.038   6.566  0.2831 -2.6438  1.0854
 3790SOL     OW22831   4.672   4.142   5.202 -0.1947  0.1265  0.1091
 3790SOL    HW122832   4.711   4.149   5.114 -2.2241 -0.9934 -0.8792
 3790SOL    HW222833   4.615   4.066   5.197 -0.3741  0.2803 -0.1763
 3791SOL     OW22834   1.459   1.274   8.741  0.5644 -0.1092 -0.3783
 3791SOL    HW122835   1.367   1.246   8.747  0.9945 -1.4125  0.1037
 3791SOL    HW222836   1.458   1.366   8.765 -2.5161  0.7823 -3.8723
 3792SOL     OW22837   1.954   0.504   3.833  0.4980  0.0133 -0.3493
 3792SOL    HW122838   2.004   0.545   3.903  0.1013  1.2333 -0.7811
 3792SOL    HW222839   1.908   0.432   3.877 -0.0818 -1.5208 -3.3904
 3793SOL     OW22840   1.723   4.335  15.444 -0.2618  0.5275  0.4173
 3793SOL    HW122841   1.785   4.262  15.440  0.6397  1.3961 -1.2421
 3793SOL    HW222842   1.772   4.410  15.411  1.1293 -0.2277  0.7878
 3794SOL     OW22843   1.410   2.084  13.327 -0.6231  0.5712  0.3914
 3794SOL    HW122844   1.339   2.076  13.391 -0.8842  0.0993  0.0427
 3794SOL    HW222845   1.360   2.094  13.246  0.1829  1.7795  0.0342
 3795SOL     OW22846   3.581   3.066   4.534 -0.8152  0.2347 -0.4389
 3795SOL    HW122847   3.648   3.039   4.596  0.3456  1.0059 -1.3394
 3795SOL    HW222848   3.505   3.054   4.591  0.5596 -0.2603  1.2937
 3796SOL     OW22849   4.651   0.767   1.074 -0.0167 -0.0625  0.3475
 3796SOL    HW122850   0.018   0.796   1.063 -0.6973  0.9218 -2.7464
 3796SOL    HW222851   4.647   0.748   1.168  0.3730  1.0184  0.5759
 3797SOL     OW22852   4.156   4.348  13.170 -0.3215 -0.1359  0.2164
 3797SOL    HW122853   4.209   4.276  13.136 -0.6508 -1.0504  1.6178
 3797SOL    HW222854   4.159   4.405  13.094 -0.5322  0.6077  0.7668
 3798SOL     OW22855   4.556   0.122  10.525  0.5306  0.3079 -0.3451
 3798SOL    HW122856   4.478   0.068  10.515 -0.8005  2.1893  0.0011
 3798SOL    HW222857   4.509   0.203  10.545  1.6252  0.8333  0.1522
 3799SOL     OW22858   3.359   1.830  17.201  0.1383  0.0157 -0.0277
 3799SOL    HW122859   3.393   1.741  17.212 -1.8469 -0.7170  0.2243
 3799SOL    HW222860   3.422   1.863  17.138 -1.6887  1.4545 -1.0739
 3800SOL     OW22861   1.880   1.358   2.884  0.1013 -0.2565  0.1073
 3800SOL    HW122862   1.787   1.355   2.904  0.4043 -1.1345  1.3593
 3800SOL    HW222863   1.868   1.328   2.794  0.2524  0.6679 -0.2237
 3801SOL     OW22864   0.067   1.348  17.668 -0.1128 -0.2067  0.2261
 3801SOL    HW122865   0.056   1.443  17.677 -0.8504 -0.2205 -0.5095
 3801SOL    HW222866   4.699   1.321  17.666 -0.4485  0.8818  0.8546
 3802SOL     OW22867   3.963   2.996  16.296 -0.4115 -0.0350 -0.1477
 3802SOL    HW122868   3.979   2.929  16.229 -0.6366 -0.5804  0.3453
 3802SOL    HW222869   3.966   2.933  16.368 -0.8916 -0.4009 -0.4468
 3803SOL     OW22870   3.233   4.180   9.568  0.1050 -0.0107  0.4529
 3803SOL    HW122871   3.151   4.215   9.533  0.3935  0.3621  0.1503
 3803SOL    HW222872   3.295   4.211   9.503 -0.3960 -0.5466 -0.2767
 3804SOL     OW22873   2.176   2.686   3.045 -0.0540  0.2361  0.0346
 3804SOL    HW122874   2.122   2.679   3.124 -0.7694 -0.9947 -0.5601
 3804SOL    HW222875   2.170   2.781   3.033  1.7713  0.5111  1.3574
 3805SOL     OW22876   0.392   0.010   9.089  0.2233  0.2579 -0.5406
 3805SOL    HW122877   0.321   0.011   9.024 -0.7953  1.6947  0.6049
 3805SOL    HW222878   0.393   0.102   9.115  0.0805 -0.0755  0.6264
 3806SOL     OW22879   1.725   2.396   5.892 -1.0239  0.0239 -0.6190
 3806SOL    HW122880   1.652   2.415   5.951  0.8569  2.4471  0.9112
 3806SOL    HW222881   1.789   2.389   5.962 -1.7912  0.0960  0.0867
 3807SOL     OW22882   2.544   3.853  11.232 -0.1233  0.0797  0.5367
 3807SOL    HW122883   2.588   3.910  11.169 -0.3449 -0.2759  0.0654
 3807SOL    HW222884   2.454   3.888  11.230 -0.5483 -1.1609 -1.2137
 3808SOL     OW22885   4.602   3.160   8.889 -0.0770 -0.8566 -0.1812
 3808SOL    HW122886   4.622   3.225   8.956 -0.9069  0.8039 -1.5502
 3808SOL    HW222887   4.645   3.192   8.809 -0.0976  3.1661  1.4081
 3809SOL     OW22888   1.365   2.475   3.389  0.3486 -0.0417  0.1956
 3809SOL    HW122889   1.354   2.464   3.295 -0.2197 -1.8806  0.4774
 3809SOL    HW222890   1.448   2.429   3.399 -1.0538 -2.9653 -1.4561
 3810SOL     OW22891   3.132   2.196  17.368 -0.5913  0.0520  0.4068
 3810SOL    HW122892   3.115   2.290  17.374 -1.2727 -0.1192  1.0577
 3810SOL    HW222893   3.089   2.167  17.287  1.2754  1.3955 -1.0773
 3811SOL     OW22894   1.209   1.319   7.497 -0.4805 -0.5880 -0.4737
 3811SOL    HW122895   1.189   1.402   7.540  0.2513 -0.2216 -0.8533
 3811SOL    HW222896   1.245   1.272   7.572  0.9427  2.1723  0.5566
 3812SOL     OW22897   0.106   2.304   3.924  0.1292  0.4075 -0.4915
 3812SOL    HW122898   0.196   2.318   3.893  0.3596  2.1768  0.9858
 3812SOL    HW222899   0.107   2.210   3.939 -2.2881  0.8305  2.4246
 3813SOL     OW22900   2.324   2.504   4.138 -0.0469  0.3562 -0.1738
 3813SOL    HW122901   2.297   2.448   4.065 -1.7178  0.7803  0.1107
 3813SOL    HW222902   2.348   2.586   4.095 -1.7490  0.9896  0.0570
 3814SOL     OW22903   4.408   4.008   9.126 -0.2685  0.1019 -0.6492
 3814SOL    HW122904   4.437   3.918   9.144  0.3842  0.0730 -1.8473
 3814SOL    HW222905   4.315   3.989   9.113 -0.1599  0.7527 -2.2837
 3815SOL     OW22906   3.127   0.621   5.034 -0.1558  0.5614  0.2230
 3815SOL    HW122907   3.175   0.559   4.979 -0.8843  1.3695 -1.2996
 3815SOL    HW222908   3.202   0.667   5.071 -0.2246 -1.1510  2.5581
 3816SOL     OW22909   2.991   3.391   2.873  0.2748 -0.1812  0.1371
 3816SOL    HW122910   3.031   3.351   2.950  0.1668 -1.0776 -0.2694
 3816SOL    HW222911   2.930   3.320   2.851 -0.4703  0.7155 -0.6580
 3817SOL     OW22912   0.640   2.610   7.739 -0.5410 -0.1157 -0.5868
 3817SOL    HW122913   0.631   2.613   7.644 -1.6846 -0.0941 -0.4744
 3817SOL    HW222914   0.588   2.536   7.768 -0.3511  0.2220  0.6389
 3818SOL     OW22915   3.452   3.733   7.487 -0.6081 -0.4680 -0.8206
 3818SOL    HW122916   3.412   3.650   7.512  0.2025 -1.1501 -1.7816
 3818SOL    HW222917   3.395   3.782   7.547  3.3863 -0.0726  2.6087
 3819SOL     OW22918   0.803   2.683   8.813  0.0971  0.7848  0.3903
 3819SOL    HW122919   0.830   2.687   8.905  1.3133  0.2679  0.0654
 3819SOL    HW222920   0.709   2.671   8.826 -0.6122  2.2611 -3.5091
 3820SOL     OW22921   2.887   1.061   2.512  0.1537 -0.1154 -0.5367
 3820SOL    HW122922   2.851   1.149   2.527 -0.8696 -0.7699  0.9022
 3820SOL    HW222923   2.856   1.001   2.580  0.6889 -0.5927 -0.7216
 3821SOL     OW22924   3.753   1.961   8.263  0.1223 -0.0979 -0.0816
 3821SOL    HW122925   3.820   1.962   8.194 -0.1895  0.8196 -0.3599
 3821SOL    HW222926   3.808   1.958   8.342  1.5985 -0.7250 -1.1172
 3822SOL     OW22927   0.391   1.116  17.045  0.1934 -0.2366 -0.1569
 3822SOL    HW122928   0.416   1.045  16.986 -1.7228  0.8723 -2.2775
 3822SOL    HW222929   0.470   1.110  17.099 -0.5961 -0.3194  0.9914
 3823SOL     OW22930   2.646   4.500  12.232  0.2890 -0.4198  0.3731
 3823SOL    HW122931   2.588   4.497  12.309 -0.2570  0.1854 -0.0196
 3823SOL    HW222932   2.728   4.485  12.278 -1.7138 -1.6316  3.6388
 3824SOL     OW22933   2.197   0.632   2.184  0.4323 -0.2806 -0.0571
 3824SOL    HW122934   2.235   0.545   2.200  0.9208  0.2023  1.4118
 3824SOL    HW222935   2.196   0.668   2.272  0.4824 -0.0365 -0.1571
 3825SOL     OW22936   4.283   2.046   7.330  0.0477 -0.1125  0.3078
 3825SOL    HW122937   4.197   2.009   7.348  0.7664 -1.5874  0.7266
 3825SOL    HW222938   4.283   2.136   7.363  1.3694 -0.0095  0.0173
 3826SOL     OW22939   2.818   1.581   6.674 -0.0224  0.0403  0.5987
 3826SOL    HW122940   2.796   1.540   6.757 -0.5030 -3.1379 -1.1279
 3826SOL    HW222941   2.734   1.590   6.630  0.7201  0.9964 -0.6487
 3827SOL     OW22942   0.375   4.245   9.097 -1.0708  0.2211 -0.6112
 3827SOL    HW122943   0.391   4.248   9.191  1.5454 -3.4895 -0.9457
 3827SOL    HW222944   0.380   4.338   9.076  1.8572  0.1748 -0.1489
 3828SOL     OW22945   2.541   0.787   0.251  0.2520  0.2486  0.2738
 3828SOL    HW122946   2.576   0.745   0.329  0.7284  2.4781  1.2551
 3828SOL    HW222947   2.611   0.850   0.233 -0.7702  0.9181 -1.3795
 3829SOL     OW22948   2.917   4.240  10.758  0.3142 -0.2759  0.2663
 3829SOL    HW122949   2.839   4.184  10.759  1.4976 -1.9648 -3.3919
 3829SOL    HW222950   2.913   4.281  10.672  1.1772  1.1404  0.9144
 3830SOL     OW22951   3.931   3.544   6.632  0.0200  0.5058 -0.3521
 3830SOL    HW122952   3.936   3.613   6.698 -0.1221  1.4489 -1.3320
 3830SOL    HW222953   3.966   3.583   6.552 -0.6479  0.1704 -0.8049
 3831SOL     OW22954   3.009   2.717   8.778  0.3439 -1.0297  0.0338
 3831SOL    HW122955   3.078   2.754   8.833 -0.2337  1.2616 -0.7954
 3831SOL    HW222956   3.031   2.740   8.688 -0.5207 -1.9490 -0.4197
 3832SOL     OW22957   1.152   3.187  15.776  0.0461  0.1102  0.3901
 3832SOL    HW122958   1.221   3.251  15.756  0.7392 -0.6976  0.2222
 3832SOL    HW222959   1.123   3.219  15.861 -0.6972 -2.1368  0.9825
 3833SOL     OW22960   0.068   0.122   0.917 -0.2967  0.1806  0.0183
 3833SOL    HW122961   0.044   0.044   0.966 -0.6120 -0.7077 -1.5458
 3833SOL    HW222962   0.071   0.091   0.826  0.5838 -0.3177  0.2116
 3834SOL     OW22963   4.024   2.074   7.428  0.6444  0.3224 -0.4623
 3834SOL    HW122964   4.063   2.044   7.510  0.1436 -2.1698 -1.1327
 3834SOL    HW222965   3.934   2.082   7.457  0.4844  0.3981 -0.9772
 3835SOL     OW22966   0.636   0.892   5.898 -0.1014  0.2429  0.1758
 3835SOL    HW122967   0.729   0.884   5.877  0.0973  0.3777  0.9991
 3835SOL    HW222968   0.635   0.988   5.908  0.0732  0.2786 -0.1577
 3836SOL     OW22969   0.305   2.783   1.921 -0.1962 -0.2411  0.2216
 3836SOL    HW122970   0.265   2.856   1.968 -0.7221  0.2913 -1.0740
 3836SOL    HW222971   0.362   2.826   1.857  0.1531  0.5101  1.0267
 3837SOL     OW22972   0.083   1.545   5.017 -0.6495  0.2466 -0.5636
 3837SOL    HW122973   4.720   1.518   5.047 -1.4586  2.8291 -0.6498
 3837SOL    HW222974   0.085   1.512   4.927 -1.1211  1.6793 -1.0886
 3838SOL     OW22975   0.472   1.379  16.705 -0.1185 -0.6553  0.0216
 3838SOL    HW122976   0.550   1.361  16.759  0.2741 -3.1244 -1.3510
 3838SOL    HW222977   0.403   1.369  16.770 -1.7450 -0.2742 -1.6792
 3839SOL     OW22978   2.626   2.637   1.726 -0.3941  0.2138 -0.0266
 3839SOL    HW122979   2.585   2.615   1.642  1.9233  0.9618 -1.3692
 3839SOL    HW222980   2.620   2.732   1.719  2.6877  0.5574  1.8226
 3840SOL     OW22981   2.547   1.514   7.104 -0.5149 -0.1688  0.3802
 3840SOL    HW122982   2.471   1.567   7.128 -0.8250 -0.2350 -0.4383
 3840SOL    HW222983   2.588   1.577   7.045  1.5221 -1.1564  0.7590
 3841SOL     OW22984   3.706   1.896   6.982 -0.0327 -0.0147  0.7218
 3841SOL    HW122985   3.737   1.945   6.907 -1.1603 -0.7494 -0.2207
 3841SOL    HW222986   3.769   1.824   6.988  0.4229  0.4867  1.9833
 3842SOL     OW22987   0.905   2.911   0.857 -0.0476  0.4118 -0.1402
 3842SOL    HW122988   0.896   2.866   0.773 -1.9848  2.7350 -1.1712
 3842SOL    HW222989   0.892   2.832   0.909  1.0914 -0.1860 -0.7725
 3843SOL     OW22990   3.450   0.964   7.140 -0.4704  0.4911 -0.1582
 3843SOL    HW122991   3.501   0.890   7.173 -0.1614 -0.5730 -3.0163
 3843SOL    HW222992   3.477   1.017   7.216 -1.1002 -0.7838  0.9630
 3844SOL     OW22993   2.199   0.382  14.635 -0.3971 -0.4239  0.0291
 3844SOL    HW122994   2.125   0.338  14.595 -1.5722  0.4160  1.2843
 3844SOL    HW222995   2.186   0.350  14.724 -1.2040 -0.0322  0.0493
 3845SOL     OW22996   0.588   2.359   7.858 -0.5285  0.0417 -0.1342
 3845SOL    HW122997   0.513   2.321   7.904 -1.3363 -2.4395 -3.5068
 3845SOL    HW222998   0.651   2.348   7.928 -0.3777  1.2374 -0.0820
 3846SOL     OW22999   2.735   1.086   6.873 -0.4302  0.1019  0.4843
 3846SOL    HW123000   2.764   0.998   6.894 -0.7104 -0.5094 -1.6588
 3846SOL    HW223001   2.811   1.121   6.825  0.3444  0.9142  2.2967
 3847SOL     OW23002   1.453   3.499   1.781  0.1799  0.0087  0.2210
 3847SOL    HW123003   1.358   3.490   1.786 -0.0729  1.0577 -2.7190
 3847SOL    HW223004   1.462   3.490   1.686  0.3093  0.4921  0.1864
 3848SOL     OW23005   1.110   1.047   6.497  0.2707  0.1475 -0.4158
 3848SOL    HW123006   1.032   1.030   6.550  0.2143  0.3114 -0.4480
 3848SOL    HW223007   1.180   0.990   6.529 -1.1487 -0.6289  1.3353
 3849SOL     OW23008   3.322   1.380  14.219 -0.4312  0.4347  0.2301
 3849SOL    HW123009   3.245   1.325  14.234  2.5310 -4.0274 -0.8906
 3849SOL    HW223010   3.390   1.314  14.207 -1.6468 -0.9385  0.9463
 3850SOL     OW23011   3.063   4.610  13.661 -0.0114  0.4063  0.3463
 3850SOL    HW123012   3.091   4.679  13.601 -0.6523  0.0842 -0.3281
 3850SOL    HW223013   3.093   4.649  13.743 -2.3604 -0.9708  1.8638
 3851SOL     OW23014   1.341   2.074   3.188  0.1113 -0.8950 -0.5246
 3851SOL    HW123015   1.370   2.118   3.267  1.4661 -0.6448 -1.1551
 3851SOL    HW223016   1.257   2.048   3.225 -0.3113  1.5726  0.1888
 3852SOL     OW23017   0.334   1.052  12.906 -0.0873 -0.1265  0.4821
 3852SOL    HW123018   0.338   1.111  12.981 -0.8011  1.7502 -0.9634
 3852SOL    HW223019   0.246   1.070  12.874  0.3795 -0.3740 -0.9770
 3853SOL     OW23020   3.067   4.171   7.418 -0.1633  0.1419 -0.3050
 3853SOL    HW123021   3.140   4.141   7.364 -1.1354 -2.8513  0.0893
 3853SOL    HW223022   3.102   4.143   7.503  0.6736 -3.1175 -1.7558
 3854SOL     OW23023   0.406   2.693   1.221  0.1996 -0.6544  0.2819
 3854SOL    HW123024   0.424   2.750   1.295  0.5911  0.8021 -0.9261
 3854SOL    HW223025   0.491   2.698   1.177  1.1590  0.0636  2.2293
 3855SOL     OW23026   2.400   1.966   5.473 -0.0642  0.1692  1.0484
 3855SOL    HW123027   2.464   1.895   5.480  1.2828  1.2222 -0.7188
 3855SOL    HW223028   2.463   2.034   5.452  2.1400 -2.4438 -0.8751
 3856SOL     OW23029   2.009   4.395   9.754  0.2829 -0.1392 -0.0397
 3856SOL    HW123030   1.917   4.392   9.778  0.5812 -0.9007  1.0116
 3856SOL    HW223031   2.023   4.483   9.789 -0.3492 -0.1036  0.1149
 3857SOL     OW23032   4.304   1.495   3.717 -0.3647 -0.0060  0.1704
 3857SOL    HW123033   4.348   1.505   3.632  0.3229 -0.8614  0.4276
 3857SOL    HW223034   4.246   1.421   3.703 -1.4287  1.0279 -0.9505
 3858SOL     OW23035   2.742   0.133   3.967  0.2986 -0.0034 -0.3964
 3858SOL    HW123036   2.685   0.198   4.008 -1.0661 -1.7419  0.4787
 3858SOL    HW223037   2.825   0.178   3.951  0.3626 -0.1672 -0.5308
 3859SOL     OW23038   1.938   1.377   5.242 -0.2908  0.1194  0.5826
 3859SOL    HW123039   1.851   1.337   5.250  0.4531 -1.5522  0.3967
 3859SOL    HW223040   1.940   1.437   5.316 -0.3916 -0.6522  1.2088
 3860SOL     OW23041   1.495   0.461   3.750  0.4877  0.2389 -0.0100
 3860SOL    HW123042   1.560   0.393   3.771  1.1372  1.0667  0.6280
 3860SOL    HW223043   1.514   0.489   3.660 -0.3249  1.2317  0.1266
 3861SOL     OW23044   2.708   3.337  13.601  0.1747  0.7949 -0.7218
 3861SOL    HW123045   2.754   3.330  13.517  0.2618 -0.3970 -0.5737
 3861SOL    HW223046   2.751   3.415  13.638 -0.0018  0.4276  0.2425
 3862SOL     OW23047   2.160   0.078   6.690 -0.0318  0.2663  0.1289
 3862SOL    HW123048   2.113   0.019   6.749  0.5749 -0.0132  0.3316
 3862SOL    HW223049   2.095   0.063   6.620  0.1926  1.3806 -0.3091
 3863SOL     OW23050   1.513   1.367   0.106 -0.1154 -0.2605  0.5155
 3863SOL    HW123051   1.576   1.301   0.135 -0.9930 -0.6959  1.4354
 3863SOL    HW223052   1.504   1.353   0.012 -0.1697  1.5841  0.2512
 3864SOL     OW23053   3.102   4.047   7.143 -0.0232 -0.1059  0.2169
 3864SOL    HW123054   3.065   3.959   7.151 -0.0495 -0.0819  0.3494
 3864SOL    HW223055   3.028   4.107   7.134  0.9005  0.9678 -0.3841
 3865SOL     OW23056   4.595   3.823   6.436 -0.0744  0.5387  0.1224
 3865SOL    HW123057   4.660   3.781   6.381  1.4076  0.9273  1.5691
 3865SOL    HW223058   4.604   3.916   6.416 -2.9161  0.6493 -0.6181
 3866SOL     OW23059   2.198   1.785  15.124 -0.2784  0.5376 -0.4429
 3866SOL    HW123060   2.165   1.710  15.173 -1.0104  1.8949  1.1188
 3866SOL    HW223061   2.197   1.748  15.036 -1.5467  2.7138 -1.3517
 3867SOL     OW23062   3.192   3.118   7.092  0.4225 -0.1420  0.5999
 3867SOL    HW123063   3.253   3.119   7.166  0.7135 -1.9048  0.3741
 3867SOL    HW223064   3.160   3.028   7.090  1.2652 -0.3920 -1.4726
 3868SOL     OW23065   1.812   3.939   7.260 -0.2268  0.4573  0.6940
 3868SOL    HW123066   1.817   3.968   7.351 -0.5996 -1.5296  1.3568
 3868SOL    HW223067   1.731   3.982   7.234 -1.1806 -0.7442  1.6388
 3869SOL     OW23068   2.602   0.065   2.648  0.0596  0.1025 -0.3930
 3869SOL    HW123069   2.522   0.012   2.646 -0.4296  0.8869 -1.8050
 3869SOL    HW223070   2.668   4.721   2.666 -0.9906 -0.8380 -0.0469
 3870SOL     OW23071   3.846   0.884  17.406  0.1719  0.6439 -0.0793
 3870SOL    HW123072   3.832   0.790  17.395 -0.3924  0.6785  0.3392
 3870SOL    HW223073   3.874   0.869  17.496  0.1915  0.5574 -0.0997
 3871SOL     OW23074   1.078   4.005   0.209  0.0209 -0.2011  0.3831
 3871SOL    HW123075   1.148   4.065   0.182  0.6895 -1.6395 -1.0649
 3871SOL    HW223076   1.123   3.929   0.172  0.8147  0.6185 -0.3485
 3872SOL     OW23077   1.739   1.392   7.632  0.2958  0.4625 -0.2623
 3872SOL    HW123078   1.661   1.448   7.633 -0.3742 -0.4795 -0.1383
 3872SOL    HW223079   1.740   1.360   7.722 -1.1665 -2.8596 -1.4326
 3873SOL     OW23080   1.668   1.117   9.129 -0.4193  0.3786  0.1318
 3873SOL    HW123081   1.744   1.059   9.132  1.5279  2.9500  0.5596
 3873SOL    HW223082   1.718   1.191   9.095 -1.7379  1.3634  0.3426
 3874SOL     OW23083   0.155   1.031   7.156  0.7265  0.2252 -0.2324
 3874SOL    HW123084   0.079   1.059   7.209 -0.2945 -0.7734 -1.1841
 3874SOL    HW223085   0.204   0.985   7.224  2.1351  0.8542 -0.8317
 3875SOL     OW23086   2.144   3.409   4.837 -0.9196  0.3235  0.2097
 3875SOL    HW123087   2.110   3.469   4.903  1.2846 -0.4101  2.0134
 3875SOL    HW223088   2.235   3.438   4.845  0.0189 -2.1860 -1.3019
 3876SOL     OW23089   1.134   3.923   4.240 -0.0007  0.2902 -0.0546
 3876SOL    HW123090   1.187   3.887   4.169  1.6487  0.5478  1.0545
 3876SOL    HW223091   1.084   3.849   4.276  1.7631 -0.9676 -0.2230
 3877SOL     OW23092   1.846   0.818   8.833 -0.2461 -0.0193 -0.4030
 3877SOL    HW123093   1.843   0.723   8.828  1.2266 -0.0587 -0.6068
 3877SOL    HW223094   1.828   0.848   8.744 -1.6473 -0.7397 -0.3616
 3878SOL     OW23095   1.704   4.720   6.003  0.1445  0.5755 -0.1645
 3878SOL    HW123096   1.651   4.657   6.052 -2.5299  0.7160 -2.8985
 3878SOL    HW223097   1.667   4.702   5.917  2.4526  1.5208 -1.3524
 3879SOL     OW23098   2.685   4.178   6.457  0.0937  0.2051 -0.2065
 3879SOL    HW123099   2.684   4.274   6.453 -0.7422  0.2182  0.2665
 3879SOL    HW223100   2.598   4.153   6.487 -0.5765  1.5313 -1.0434
 3880SOL     OW23101   4.046   2.962   7.748  0.1063  0.2347 -0.1023
 3880SOL    HW123102   4.120   2.977   7.808  0.3241  0.0794 -0.3310
 3880SOL    HW223103   4.076   3.009   7.670 -1.1377  2.2251  0.6223
 3881SOL     OW23104   2.469   3.684  14.005 -0.0161  0.8329  0.1062
 3881SOL    HW123105   2.400   3.638  14.052 -0.6379  1.7062  0.0516
 3881SOL    HW223106   2.489   3.618  13.938 -2.0436 -0.2774  0.6126
 3882SOL     OW23107   1.159   2.619   8.890  0.8532  0.1129 -0.6148
 3882SOL    HW123108   1.182   2.527   8.875 -0.6446 -0.1650 -1.1662
 3882SOL    HW223109   1.175   2.635   8.983 -2.9604 -0.8120  0.2095
 3883SOL     OW23110   1.043   3.880   3.591 -0.0255 -0.4061 -0.1212
 3883SOL    HW123111   1.040   3.958   3.647  1.0799 -1.4638  1.4154
 3883SOL    HW223112   1.123   3.840   3.624  1.8699  1.5021 -2.3664
 3884SOL     OW23113   2.216   0.651   0.151 -0.3984 -0.4414  0.9724
 3884SOL    HW123114   2.222   0.556   0.136  0.8125  0.3094 -3.5498
 3884SOL    HW223115   2.125   0.666   0.128 -0.1426 -2.3379 -1.2987
 3885SOL     OW23116   2.892   3.867   7.655  0.3756 -0.3254  0.0053
 3885SOL    HW123117   2.949   3.944   7.658  0.8398 -0.6451 -0.5420
 3885SOL    HW223118   2.819   3.891   7.598  1.2591  0.8654 -0.6395
 3886SOL     OW23119   4.034   2.942   3.722  0.2421  0.0474  0.2916
 3886SOL    HW123120   4.012   2.856   3.759 -1.9870  0.6471  0.3743
 3886SOL    HW223121   3.972   2.993   3.774 -0.6127 -0.5585 -0.1376
 3887SOL     OW23122   4.400   0.022   4.676  0.0215  0.2817 -0.5190
 3887SOL    HW123123   4.378   0.023   4.769  0.1701 -0.8976 -0.4700
 3887SOL    HW223124   4.330   4.690   4.644  0.0682 -0.1486  0.1152
 3888SOL     OW23125   1.845   3.433  14.445  0.1656 -0.4505  0.4034
 3888SOL    HW123126   1.769   3.433  14.387 -0.3626 -0.0539  1.0974
 3888SOL    HW223127   1.857   3.528  14.452  0.2259 -0.3928 -0.4658
 3889SOL     OW23128   0.180   4.368   6.423 -0.2682  0.2701 -0.0265
 3889SOL    HW123129   0.117   4.340   6.357  1.2033 -0.4266 -1.1247
 3889SOL    HW223130   0.263   4.329   6.395 -0.7906 -0.8395 -0.0257
 3890SOL     OW23131   1.530   1.203   5.172 -0.5276  0.2122  0.4767
 3890SOL    HW123132   1.600   1.150   5.209 -0.0752  0.1914 -0.4008
 3890SOL    HW223133   1.495   1.142   5.107 -0.7146  0.6141  0.1973
 3891SOL     OW23134   0.345   3.494   0.499 -0.1084 -0.1830 -0.2160
 3891SOL    HW123135   0.437   3.498   0.526 -0.1840  1.4513 -0.2476
 3891SOL    HW223136   0.300   3.495   0.584 -0.6377  0.0439 -0.5024
 3892SOL     OW23137   2.319   2.221   8.225 -0.1555  0.0977  0.7019
 3892SOL    HW123138   2.267   2.281   8.171 -1.2716 -1.2895  0.2258
 3892SOL    HW223139   2.276   2.237   8.309 -0.0488  1.8487  0.4137
 3893SOL     OW23140   2.071   3.518   7.654  0.3301 -0.2671 -0.0543
 3893SOL    HW123141   2.034   3.593   7.700  0.6927  1.0372 -1.8623
 3893SOL    HW223142   2.157   3.553   7.633 -0.3218  1.0830 -0.4706
 3894SOL     OW23143   1.989   2.454   8.334  0.0025  0.6271  0.0383
 3894SOL    HW123144   1.942   2.504   8.267  1.4581  1.3429 -0.4401
 3894SOL    HW223145   2.080   2.465   8.309  0.4376 -0.0754  1.3278
 3895SOL     OW23146   2.354   3.415   7.411  0.0821  0.2970  0.5422
 3895SOL    HW123147   2.305   3.333   7.423  2.3143 -0.7787  2.3987
 3895SOL    HW223148   2.343   3.470   7.488 -1.9694  2.4117 -1.2575
 3896SOL     OW23149   0.199   3.910   7.236  0.5584 -0.1153 -0.1157
 3896SOL    HW123150   0.143   3.956   7.173  0.7789  1.9414  1.1958
 3896SOL    HW223151   0.238   3.835   7.191 -2.6793 -0.9321 -1.6147
 3897SOL     OW23152   0.043   3.700   6.632  0.0172 -0.9250 -0.6289
 3897SOL    HW123153   4.708   3.633   6.668  0.6883 -0.8838  0.5302
 3897SOL    HW223154   4.714   3.766   6.586  1.4395  0.1385 -0.7077
 3898SOL     OW23155   3.232   1.472   0.611  0.4805 -0.5115 -0.2201
 3898SOL    HW123156   3.278   1.423   0.679  0.4105 -3.2336 -2.1177
 3898SOL    HW223157   3.150   1.489   0.657 -1.0417 -1.8941 -2.3959
 3899SOL     OW23158   3.415   0.561   1.824 -0.1712 -0.3682  0.2824
 3899SOL    HW123159   3.356   0.633   1.847  0.7744 -0.1253  1.9702
 3899SOL    HW223160   3.498   0.600   1.852 -1.4701  1.5913  1.4104
 3900SOL     OW23161   3.796   4.038   3.189  0.4187  0.0096 -0.4289
 3900SOL    HW123162   3.729   3.983   3.150 -0.2097 -0.4058  1.2350
 3900SOL    HW223163   3.780   4.010   3.279 -0.9883  0.5434 -0.5126
 3901SOL     OW23164   0.749   2.487   2.058 -0.1101  0.7633 -0.5726
 3901SOL    HW123165   0.791   2.556   2.109 -0.3936  1.6962 -1.5972
 3901SOL    HW223166   0.825   2.440   2.024 -0.7941 -1.6452  1.2204
 3902SOL     OW23167   2.086   1.760   2.385 -0.1015  0.2432  0.3342
 3902SOL    HW123168   2.121   1.848   2.398  0.4471  0.1299 -0.3803
 3902SOL    HW223169   2.125   1.713   2.459 -0.4796 -2.0220 -0.9083
 3903SOL     OW23170   0.834   0.857  16.282 -0.3474 -0.7991 -0.2483
 3903SOL    HW123171   0.849   0.803  16.204 -2.3051  0.1938 -1.2991
 3903SOL    HW223172   0.739   0.863  16.274 -0.4731 -3.6081 -0.6498
 3904SOL     OW23173   3.697   2.955   8.382 -0.6836  0.0529  0.3971
 3904SOL    HW123174   3.697   3.003   8.300  0.8767 -0.1823  0.2627
 3904SOL    HW223175   3.790   2.948   8.401 -0.5944 -1.7005 -0.6178
 3905SOL     OW23176   0.089   3.810   2.604 -0.1395 -0.0511  0.0889
 3905SOL    HW123177   0.028   3.740   2.627 -2.3779  1.7712 -0.3544
 3905SOL    HW223178   0.061   3.890   2.649  0.2333  1.5397 -2.5176
 3906SOL     OW23179   4.208   2.281   5.095 -0.0570  0.5763 -0.0875
 3906SOL    HW123180   4.200   2.235   5.012 -0.6198  2.0710 -0.8765
 3906SOL    HW223181   4.121   2.277   5.136 -1.1985  0.7147 -2.4403
 3907SOL     OW23182   3.517   2.122   8.222 -0.0965 -1.0230  0.0148
 3907SOL    HW123183   3.594   2.065   8.229  0.6042  0.0558  1.1574
 3907SOL    HW223184   3.475   2.110   8.308  0.2587  3.0428  0.7656
 3908SOL     OW23185   4.580   2.090  15.780 -0.1278  0.3589  0.5164
 3908SOL    HW123186   4.648   2.053  15.724 -0.6694 -1.8495  1.3255
 3908SOL    HW223187   4.571   2.171  15.731  1.7771  0.6090  0.5844
 3909SOL     OW23188   4.327   0.551   4.737 -0.3069 -0.5779 -0.2434
 3909SOL    HW123189   4.386   0.513   4.802 -1.8598 -2.5223  0.0384
 3909SOL    HW223190   4.390   0.579   4.671  1.1463  1.7205  2.1285
 3910SOL     OW23191   2.094   0.892   3.403 -0.0218 -0.4594 -0.0753
 3910SOL    HW123192   2.068   0.976   3.442  1.1206 -0.2565  0.2685
 3910SOL    HW223193   2.015   0.843   3.422 -1.3582  1.3853 -0.8626
 3911SOL     OW23194   1.583   4.277  16.868  0.8481 -0.4082  0.8319
 3911SOL    HW123195   1.595   4.261  16.962  0.2901 -0.4591  0.8932
 3911SOL    HW223196   1.491   4.300  16.859  1.0554  0.7458  1.5359
 3912SOL     OW23197   1.937   4.557   4.569 -0.0162 -0.9929 -0.0995
 3912SOL    HW123198   1.943   4.544   4.664  1.2951  1.9844  0.2189
 3912SOL    HW223199   1.936   4.653   4.567 -1.3357 -1.0435 -2.1071
 3913SOL     OW23200   3.883   3.337  13.837 -0.0123 -0.3816 -0.5437
 3913SOL    HW123201   3.883   3.433  13.837  2.3299 -0.3953  0.2000
 3913SOL    HW223202   3.900   3.318  13.929 -0.7631 -1.4045 -0.6161
 3914SOL     OW23203   3.323   2.752   8.450 -0.3059 -0.0945 -0.1957
 3914SOL    HW123204   3.299   2.661   8.439  1.0590 -0.0627 -3.4277
 3914SOL    HW223205   3.362   2.785   8.369 -2.0166 -0.0336 -0.9724
 3915SOL     OW23206   1.969   3.681   3.070 -0.2920 -0.1742 -0.5917
 3915SOL    HW123207   2.024   3.671   3.148  0.6817  0.9030 -1.1447
 3915SOL    HW223208   1.887   3.712   3.109 -1.0629 -1.4996 -1.1527
 3916SOL     OW23209   0.946   3.059   6.823  0.0192 -0.1590 -0.0421
 3916SOL    HW123210   0.933   2.970   6.789 -1.9947  0.0443  0.2090
 3916SOL    HW223211   1.032   3.077   6.784  0.5302  1.1699  1.7128
 3917SOL     OW23212   1.793   2.826   9.726  0.4007  0.5086  0.6905
 3917SOL    HW123213   1.839   2.878   9.792  2.2641  0.0990 -0.2758
 3917SOL    HW223214   1.843   2.744   9.730 -0.2880  0.0867  0.6271
 3918SOL     OW23215   2.257   1.106   7.695  0.2166 -0.6590  0.6589
 3918SOL    HW123216   2.261   1.016   7.726  3.3720 -0.3923  1.0247
 3918SOL    HW223217   2.237   1.150   7.778  2.2631  0.0267  0.7844
 3919SOL     OW23218   2.628   4.100   1.778 -0.1107 -0.1738  0.1922
 3919SOL    HW123219   2.619   4.068   1.868  1.5351  0.1856  0.4808
 3919SOL    HW223220   2.536   4.114   1.757  0.3022  1.4986 -0.4428
 3920SOL     OW23221   2.790   2.525   1.895 -0.0731 -1.1504 -0.3257
 3920SOL    HW123222   2.740   2.459   1.942 -0.6923  0.8594  1.8130
 3920SOL    HW223223   2.733   2.542   1.820 -0.7209  1.4136  0.7638
 3921SOL     OW23224   1.958   3.833  14.221 -0.7264 -0.3382 -0.4572
 3921SOL    HW123225   2.052   3.824  14.206 -1.0162  1.0325 -3.1011
 3921SOL    HW223226   1.942   3.784  14.302 -0.1300 -1.6328 -1.1264
 3922SOL     OW23227   3.304   0.648  12.775  0.1344  0.2839  0.3407
 3922SOL    HW123228   3.315   0.743  12.768  0.7196  0.1483 -0.4785
 3922SOL    HW223229   3.279   0.626  12.685  0.7566 -0.2883  0.3149
 3923SOL     OW23230   4.387   2.158  13.522  0.8625  0.3332 -0.0645
 3923SOL    HW123231   4.364   2.149  13.614  0.2038  0.8206 -0.1845
 3923SOL    HW223232   4.444   2.083  13.504 -1.2851 -1.4339  0.5381
 3924SOL     OW23233   2.858   3.160   3.959  0.3723 -0.1274 -0.3648
 3924SOL    HW123234   2.875   3.120   4.045 -0.3500  0.6104  0.1290
 3924SOL    HW223235   2.769   3.132   3.942 -0.2654  1.1899  0.8300
 3925SOL     OW23236   0.184   3.331   0.276 -0.4059 -0.4178 -0.9980
 3925SOL    HW123237   0.125   3.317   0.201 -1.9843 -2.4281  0.6406
 3925SOL    HW223238   0.254   3.268   0.261  3.9108  3.6444  2.1258
 3926SOL     OW23239   1.372   0.020  16.487 -0.4765 -0.0248  0.2005
 3926SOL    HW123240   1.439   0.088  16.475 -0.0335 -0.5710 -0.3829
 3926SOL    HW223241   1.401   4.670  16.435  0.3461 -0.2534  0.9741
 3927SOL     OW23242   1.793   2.037   5.624 -0.3978 -0.1902  0.3210
 3927SOL    HW123243   1.746   1.975   5.680 -2.2556 -0.3201 -1.3537
 3927SOL    HW223244   1.853   2.076   5.687 -1.5124 -0.2368  1.4164
 3928SOL     OW23245   2.315   0.238   9.072 -0.1821  0.2130 -0.3025
 3928SOL    HW123246   2.341   0.161   9.122 -0.8594 -0.9351 -1.7247
 3928SOL    HW223247   2.220   0.236   9.083 -0.0391 -1.2752  0.5705
 3929SOL     OW23248   3.480   4.539   5.965  0.6132  0.5360 -0.4084
 3929SOL    HW123249   3.452   4.597   6.036 -2.1552 -1.0831 -0.1904
 3929SOL    HW223250   3.508   4.466   6.019 -2.1678 -1.6232 -1.8744
 3930SOL     OW23251   2.363   3.635   8.976 -0.1193 -0.6568  0.9500
 3930SOL    HW123252   2.330   3.700   9.038 -0.9590  0.7411 -0.9427
 3930SOL    HW223253   2.330   3.559   9.023 -1.5318 -0.5197  0.1921
 3931SOL     OW23254   4.186   4.598   4.671 -0.2164  0.0552  0.1326
 3931SOL    HW123255   4.102   4.638   4.694 -1.0816 -1.4623 -0.3083
 3931SOL    HW223256   4.161   4.505   4.666  1.0004 -0.2389 -0.5164
 3932SOL     OW23257   0.804   3.988   3.465  0.1501  0.3034  0.2133
 3932SOL    HW123258   0.888   3.960   3.500 -0.2786  0.7600  1.6153
 3932SOL    HW223259   0.833   4.020   3.380  0.2590  0.6200  0.3681
 3933SOL     OW23260   0.576   0.134   8.863  0.2869  0.5526 -0.3839
 3933SOL    HW123261   0.622   0.061   8.905 -0.5135  0.9497  1.1861
 3933SOL    HW223262   0.544   0.189   8.935 -0.0479  1.2906 -1.1091
 3934SOL     OW23263   1.426   4.166   6.973  0.2889  0.5789 -0.0719
 3934SOL    HW123264   1.385   4.187   6.889  1.5202 -1.5789 -1.2343
 3934SOL    HW223265   1.394   4.240   7.024  2.0304 -0.5540  2.6879
 3935SOL     OW23266   3.049   2.857   9.328  0.1469 -0.5550 -0.4035
 3935SOL    HW123267   3.025   2.869   9.420  0.3366 -2.8799 -0.0489
 3935SOL    HW223268   3.042   2.762   9.327  0.3261 -0.5965  2.7470
 3936SOL     OW23269   0.795   4.181  10.511 -0.3461 -0.0366  0.4873
 3936SOL    HW123270   0.705   4.156  10.533 -0.7966 -0.0773 -1.3179
 3936SOL    HW223271   0.826   4.095  10.486 -0.7275  0.1592 -0.6860
 3937SOL     OW23272   1.338   3.148   8.943 -0.2321 -0.2224 -0.0929
 3937SOL    HW123273   1.300   3.136   9.030 -2.1349 -1.6372 -1.1216
 3937SOL    HW223274   1.353   3.241   8.957  0.8578 -0.4175 -0.0330
 3938SOL     OW23275   1.960   1.190   9.585 -0.0489 -0.3457 -0.3852
 3938SOL    HW123276   2.020   1.178   9.511 -1.5175 -0.5980 -1.5347
 3938SOL    HW223277   1.968   1.106   9.630 -1.0833  1.0643  2.3551
 3939SOL     OW23278   3.405   0.672   1.534 -0.4369  0.1337 -0.2155
 3939SOL    HW123279   3.418   0.646   1.626  0.7894 -1.3371 -0.7950
 3939SOL    HW223280   3.444   0.596   1.491 -0.6975 -0.2065  0.1422
 3940SOL     OW23281   1.042   4.154  16.781  1.0337  0.3594 -0.5236
 3940SOL    HW123282   1.040   4.154  16.877  1.0376 -0.6430 -0.5309
 3940SOL    HW223283   0.966   4.102  16.755  0.8218  0.8701 -0.9341
 3941SOL     OW23284   2.734   2.266   5.522 -0.4124  0.0176 -0.1526
 3941SOL    HW123285   2.689   2.186   5.496 -0.6359  0.0406  0.1580
 3941SOL    HW223286   2.810   2.227   5.565 -0.7258 -0.3075  0.1071
 3942SOL     OW23287   2.923   0.657   7.123 -0.0646  0.4432 -0.2193
 3942SOL    HW123288   2.967   0.606   7.055 -1.7045  0.2992 -1.1582
 3942SOL    HW223289   2.925   0.746   7.087 -0.1780 -0.0083 -1.3320
 3943SOL     OW23290   4.396   3.317   6.621  0.2527 -0.2020  0.0520
 3943SOL    HW123291   4.414   3.227   6.592 -0.0332 -0.3217  0.2498
 3943SOL    HW223292   4.352   3.354   6.544  0.1819  0.6278  0.4921
 3944SOL     OW23293   2.271   0.720   2.484  0.0773  0.5366  0.4232
 3944SOL    HW123294   2.328   0.652   2.522  0.2317 -0.7988 -2.1751
 3944SOL    HW223295   2.306   0.799   2.525 -1.0116  1.2463 -0.0071
 3945SOL     OW23296   4.398   3.733   0.317 -0.5406 -0.3285 -0.1809
 3945SOL    HW123297   4.309   3.753   0.288 -0.7259  0.1845  0.7298
 3945SOL    HW223298   4.443   3.725   0.233  0.4070  1.1444  0.1910
 3946SOL     OW23299   2.180   1.829   3.041  0.0342  0.8682 -0.0729
 3946SOL    HW123300   2.268   1.794   3.038  0.1289  1.0445  0.6081
 3946SOL    HW223301   2.209   1.918   3.063 -0.3059  1.1640 -0.8028
 3947SOL     OW23302   1.578   1.180   8.326 -0.9349 -0.0556  0.1359
 3947SOL    HW123303   1.628   1.217   8.400 -0.1028  0.2807 -0.5943
 3947SOL    HW223304   1.488   1.194   8.353 -1.0108  3.2238 -1.8794
 3948SOL     OW23305   3.969   1.898   8.108 -0.1644 -0.6651  0.1585
 3948SOL    HW123306   4.041   1.837   8.124  0.2330 -0.2962 -0.2221
 3948SOL    HW223307   4.019   1.974   8.077  1.0455 -1.9101 -0.9068
 3949SOL     OW23308   0.621   1.926   3.074 -0.0849  0.2871  0.3384
 3949SOL    HW123309   0.548   1.930   3.013  0.1802 -0.6509 -0.0512
 3949SOL    HW223310   0.605   1.833   3.093 -0.1536  0.4476  1.0685
 3950SOL     OW23311   1.264   0.406  13.519  0.4191 -0.0806  0.4582
 3950SOL    HW123312   1.353   0.440  13.529  0.2229  1.4432 -3.1543
 3950SOL    HW223313   1.206   0.467  13.565  1.9541  0.2375  1.9606
 3951SOL     OW23314   4.402   2.749   4.640 -0.0883  0.2533 -0.1523
 3951SOL    HW123315   4.443   2.694   4.707 -1.5231 -0.2427  0.3224
 3951SOL    HW223316   4.484   2.786   4.609  0.8215  0.2882  2.2793
 3952SOL     OW23317   4.596   0.537   0.500  0.0994  0.3706 -0.0287
 3952SOL    HW123318   4.543   0.467   0.537 -2.0447  2.0536  0.1106
 3952SOL    HW223319   4.667   0.556   0.562  2.7886 -2.1490 -2.3773
 3953SOL     OW23320   0.934   2.309   3.152 -0.3369  0.0611  0.0848
 3953SOL    HW123321   0.917   2.360   3.231  2.0515 -1.3094  1.4834
 3953SOL    HW223322   1.010   2.253   3.168 -1.1102 -0.8958  0.3919
 3954SOL     OW23323   1.253   1.744   1.737 -0.0140  0.2356  0.5089
 3954SOL    HW123324   1.185   1.730   1.671 -0.7690 -0.5587  1.4508
 3954SOL    HW223325   1.309   1.801   1.685  0.5297 -0.3913  0.4130
 3955SOL     OW23326   1.528   0.334   5.360 -0.1617  0.3828  0.2225
 3955SOL    HW123327   1.448   0.382   5.383  1.0273  1.6571  1.6520
 3955SOL    HW223328   1.513   0.314   5.267 -1.9297 -0.5343  0.7113
 3956SOL     OW23329   0.681   1.883   1.414  0.3371 -0.2528  0.2524
 3956SOL    HW123330   0.642   1.892   1.500 -1.4945  1.2337 -0.7340
 3956SOL    HW223331   0.761   1.936   1.418 -0.3214  0.8475 -0.9388
 3957SOL     OW23332   2.433   1.738   2.350  0.5165 -0.4381  0.2590
 3957SOL    HW123333   2.410   1.754   2.258  3.7247 -0.3679 -0.5223
 3957SOL    HW223334   2.491   1.812   2.365 -1.2517  0.7492  1.2700
 3958SOL     OW23335   3.787   3.887   7.960 -0.2441 -0.0021 -0.3897
 3958SOL    HW123336   3.760   3.971   7.922  1.4422  1.1181  0.9104
 3958SOL    HW223337   3.727   3.831   7.912 -1.6268 -0.0030  1.3625
 3959SOL     OW23338   1.647   4.188  17.608  0.1378 -0.4368  0.5597
 3959SOL    HW123339   1.554   4.184  17.633  0.0549 -2.9695 -0.0836
 3959SOL    HW223340   1.684   4.135  17.678  0.6590  2.1443  2.1999
 3960SOL     OW23341   1.561   0.536   3.485 -0.2012  0.3005 -0.5154
 3960SOL    HW123342   1.597   0.624   3.469 -1.1162  0.7481 -0.0730
 3960SOL    HW223343   1.530   0.507   3.399  1.5774 -3.1585  0.0281
 3961SOL     OW23344   3.063   0.309   4.257 -0.4224  0.0106  0.3263
 3961SOL    HW123345   3.144   0.359   4.246 -0.9369  0.7027 -0.2613
 3961SOL    HW223346   3.075   0.299   4.352 -2.8358  1.4906  0.7890
 3962SOL     OW23347   3.225   2.279   4.770  0.0909  0.0575 -0.3165
 3962SOL    HW123348   3.252   2.193   4.803 -0.7589  0.5825  1.7185
 3962SOL    HW223349   3.305   2.331   4.774  2.0992 -3.1238  0.5952
 3963SOL     OW23350   1.934   3.591  17.694  0.6939 -0.5442 -0.6303
 3963SOL    HW123351   1.846   3.629  17.689  0.3318 -1.3373 -0.3829
 3963SOL    HW223352   1.909   3.502   0.024 -0.6009 -0.3135 -1.0646
 3964SOL     OW23353   3.990   1.539   5.587  0.3949  0.4943 -0.1553
 3964SOL    HW123354   3.940   1.458   5.579  1.5530 -0.4415  2.2966
 3964SOL    HW223355   4.055   1.508   5.650  0.4029 -1.4555 -1.1369
 3965SOL     OW23356   1.404   0.415   9.036 -0.4397 -0.5406  0.3676
 3965SOL    HW123357   1.408   0.420   9.131 -1.9939  0.5666  0.3734
 3965SOL    HW223358   1.467   0.345   9.022 -0.3753  0.3800 -4.1035
 3966SOL     OW23359   2.797   3.869   3.633 -0.3396  0.1175 -0.4360
 3966SOL    HW123360   2.870   3.807   3.628  0.9393  1.4536  1.6187
 3966SOL    HW223361   2.745   3.834   3.706  1.4474 -1.9818 -0.1683
 3967SOL     OW23362   2.103   1.521   4.390  0.0094  0.2425 -0.1089
 3967SOL    HW123363   2.081   1.428   4.381 -1.0428  0.3511  1.5249
 3967SOL    HW223364   2.033   1.571   4.347 -0.6229 -0.7377 -0.2059
 3968SOL     OW23365   2.030   3.443   2.955 -0.2231 -0.3048  0.4707
 3968SOL    HW123366   2.019   3.524   3.005 -1.1040  0.7178 -1.3731
 3968SOL    HW223367   2.052   3.482   2.870  2.2358  0.6779  1.5568
 3969SOL     OW23368   3.867   1.758   2.283  0.2878  0.2611  0.0558
 3969SOL    HW123369   3.963   1.751   2.280  0.1861 -0.8580 -0.7399
 3969SOL    HW223370   3.845   1.803   2.365 -2.1853  0.8795 -0.9635
 3970SOL     OW23371   0.389   1.724   8.020 -0.1808  0.2470  0.1628
 3970SOL    HW123372   0.436   1.673   7.954 -0.4589  0.9999 -0.6111
 3970SOL    HW223373   0.441   1.707   8.099 -0.4565 -1.1574  0.0384
 3971SOL     OW23374   2.253   1.961   6.679 -0.5486  0.3754  0.1308
 3971SOL    HW123375   2.227   2.052   6.662 -0.5711  0.6044  1.4077
 3971SOL    HW223376   2.338   1.950   6.635  0.0172  1.0387  1.0523
 3972SOL     OW23377   1.099   0.882  13.913 -0.0564  0.0622  0.1907
 3972SOL    HW123378   1.034   0.846  13.854 -0.2466  2.0309 -0.8083
 3972SOL    HW223379   1.174   0.877  13.854 -1.0612  0.1211 -1.0719
 3973SOL     OW23380   3.293   4.087   7.581  0.2915  0.2058  0.0905
 3973SOL    HW123381   3.222   4.100   7.644  1.0513  1.2182  0.7381
 3973SOL    HW223382   3.354   4.039   7.637 -1.2925 -0.7828  0.9762
 3974SOL     OW23383   3.148   1.154   2.677  0.5267 -0.5995 -0.0062
 3974SOL    HW123384   3.062   1.133   2.642 -0.2327 -1.1437  2.1790
 3974SOL    HW223385   3.141   1.125   2.768  0.4430  1.3567  0.5995
 3975SOL     OW23386   2.089   3.785   1.568  0.0932 -0.7424  0.1503
 3975SOL    HW123387   2.106   3.871   1.605  1.5125 -1.6023  1.5170
 3975SOL    HW223388   2.065   3.716   1.630  0.1922 -1.1803 -0.2892
 3976SOL     OW23389   2.584   0.790   6.824 -0.5704  0.2799 -0.5101
 3976SOL    HW123390   2.581   0.796   6.920 -0.8323  0.5864 -0.5369
 3976SOL    HW223391   2.606   0.697   6.828 -2.1881 -0.0953 -0.2552
 3977SOL     OW23392   3.140   0.683   2.487 -0.4767  0.2122  0.0192
 3977SOL    HW123393   3.177   0.734   2.559  1.8897 -2.3993  0.6728
 3977SOL    HW223394   3.085   0.621   2.535  1.4189 -0.1642  1.6977
 3978SOL     OW23395   0.140   2.047   4.888  0.6461  0.1977  0.1150
 3978SOL    HW123396   0.099   1.964   4.863 -1.1313  1.4386 -1.0191
 3978SOL    HW223397   0.106   2.109   4.824 -0.5764 -0.0046  0.5740
 3979SOL     OW23398   2.153   0.654   9.692  0.3747  0.2720 -0.1116
 3979SOL    HW123399   2.073   0.697   9.662  1.2117  0.2304 -2.4247
 3979SOL    HW223400   2.220   0.718   9.666  0.5010  0.3591  0.4403
 3980SOL     OW23401   4.019   2.512   7.913  0.2070  0.0822 -0.3256
 3980SOL    HW123402   3.993   2.426   7.948  0.7529  0.4578  1.0049
 3980SOL    HW223403   3.972   2.571   7.972  0.5562 -0.2587  0.3011
 3981SOL     OW23404   2.287   3.415  16.121 -0.1117 -0.4984 -0.4248
 3981SOL    HW123405   2.248   3.492  16.080  1.3171  0.7174  0.4859
 3981SOL    HW223406   2.309   3.456  16.205 -0.0721 -0.7889 -0.2916
 3982SOL     OW23407   1.000   4.592   3.804  0.0442  0.2576  0.0488
 3982SOL    HW123408   1.046   4.552   3.731 -0.0768  0.7656 -0.3036
 3982SOL    HW223409   1.019   4.685   3.797 -1.0880  0.6371  1.9908
 3983SOL     OW23410   3.178   0.709   5.603 -0.1669  0.6100  0.1635
 3983SOL    HW123411   3.140   0.796   5.593 -1.2613  0.1171  0.0716
 3983SOL    HW223412   3.215   0.698   5.515 -0.3142 -0.6544  0.2578
 3984SOL     OW23413   4.650   2.045   9.453  0.1786  0.4882  0.1043
 3984SOL    HW123414   0.020   2.024   9.464  0.2278  0.8869  0.4513
 3984SOL    HW223415   4.617   1.955   9.449  0.6283  0.3043  0.4149
 3985SOL     OW23416   3.204   2.841   8.018 -0.1245 -0.2728 -0.4053
 3985SOL    HW123417   3.249   2.786   7.955  0.5409 -0.7929  0.5231
 3985SOL    HW223418   3.172   2.903   7.952  0.4660  0.5919  0.1220
 3986SOL     OW23419   3.692   2.718   9.065 -0.3848 -0.7936  0.1924
 3986SOL    HW123420   3.694   2.737   9.159 -0.4173 -0.5626  0.1478
 3986SOL    HW223421   3.631   2.785   9.034 -0.2514  0.6505  3.0213
 3987SOL     OW23422   0.069   2.892   3.298  0.1821  0.3080 -0.1905
 3987SOL    HW123423   4.717   2.949   3.311  1.0102  1.2283  0.5779
 3987SOL    HW223424   0.120   2.906   3.377 -1.6899 -0.0674  1.0911
 3988SOL     OW23425   1.961   0.336   2.024 -0.0660 -0.1443 -0.2429
 3988SOL    HW123426   2.028   0.269   2.039 -0.2052 -0.6432 -1.8276
 3988SOL    HW223427   2.009   0.417   2.008  1.5049 -1.0030  0.1781
 3989SOL     OW23428   1.323   2.667   4.168 -0.1442  0.4040  0.1442
 3989SOL    HW123429   1.336   2.600   4.101 -0.4006 -0.1245  0.6277
 3989SOL    HW223430   1.283   2.616   4.238 -0.5880  0.2609 -0.2089
 3990SOL     OW23431   0.793   4.576   7.362 -0.1901  0.3069 -0.5478
 3990SOL    HW123432   0.704   4.606   7.376 -0.2320 -0.5811  1.0967
 3990SOL    HW223433   0.777   4.501   7.303  2.5915 -1.1670  0.5599
 3991SOL     OW23434   3.613   0.480   8.564 -0.1920 -0.4491 -0.0321
 3991SOL    HW123435   3.705   0.457   8.580  0.3112  2.1472  0.7657
 3991SOL    HW223436   3.567   0.397   8.556 -0.0923 -0.5577  0.5200
 3992SOL     OW23437   4.636   4.011   1.689  0.2094 -0.4892  0.6248
 3992SOL    HW123438   4.684   4.022   1.771  0.1712  0.4991  0.5100
 3992SOL    HW223439   4.552   3.999   1.734 -1.3364  0.3117 -2.0175
 3993SOL     OW23440   0.192   3.379  14.108  0.1493 -0.2255 -0.3749
 3993SOL    HW123441   0.183   3.425  14.024  0.5720 -0.2051 -0.4112
 3993SOL    HW223442   0.287   3.370  14.094  0.4949  0.3543  1.6454
 3994SOL     OW23443   0.379   2.287  10.719  0.1875  0.3137  0.1297
 3994SOL    HW123444   0.468   2.273  10.686  0.1146 -1.1648  0.5795
 3994SOL    HW223445   0.387   2.275  10.814 -0.4064 -0.8279  0.0254
 3995SOL     OW23446   0.710   2.183   3.666  0.4779  0.0546 -0.1866
 3995SOL    HW123447   0.626   2.147   3.696  0.0355  2.4051  1.3837
 3995SOL    HW223448   0.719   2.261   3.722  1.5238 -1.3215  1.5664
 3996SOL     OW23449   4.651   1.978   5.398 -0.0395  0.3471 -0.1003
 3996SOL    HW123450   4.699   1.897   5.380 -1.3077 -0.6647  1.1041
 3996SOL    HW223451   4.681   2.020   5.317 -0.0307 -1.5518 -1.0936
 3997SOL     OW23452   2.675   4.162   0.009  0.1112  0.0080 -0.1999
 3997SOL    HW123453   2.767   4.162   0.035  0.0269 -0.6194  0.0776
 3997SOL    HW223454   2.640   4.142   0.096  1.4381 -0.5431  0.2170
 3998SOL     OW23455   4.137   4.231  13.599  0.0986  0.3403  0.3662
 3998SOL    HW123456   4.230   4.255  13.609 -0.0263  1.8065 -1.9186
 3998SOL    HW223457   4.129   4.160  13.662 -1.7188  2.2715  2.3223
 3999SOL     OW23458   1.096   1.233   9.703  0.0749  0.0765 -0.0509
 3999SOL    HW123459   1.087   1.241   9.608  1.4557  0.3925 -0.1525
 3999SOL    HW223460   1.065   1.323   9.715 -0.2839  0.1754 -1.6894
 4000SOL     OW23461   2.614   1.606  16.200  0.2139  0.4485  0.3309
 4000SOL    HW123462   2.566   1.687  16.185  0.8872  0.5452 -1.2747
 4000SOL    HW223463   2.622   1.590  16.106  0.6919  1.8580  0.1492
 4001SOL     OW23464   2.758   3.533  17.090  0.1433 -0.1035  0.4659
 4001SOL    HW123465   2.792   3.496  17.172 -0.8646  2.0735  1.8667
 4001SOL    HW223466   2.700   3.459  17.070  0.1590  0.3439 -1.2557
 4002SOL     OW23467   0.673   4.101   6.685 -0.3436 -0.3381  0.3382
 4002SOL    HW123468   0.678   4.009   6.711 -0.1359 -0.9629 -1.8743
 4002SOL    HW223469   0.706   4.146   6.762  1.4254 -0.5263 -0.3169
 4003SOL     OW23470   3.324   4.635   2.316  0.3517  0.4074  0.1607
 4003SOL    HW123471   3.311   0.006   2.304  0.6549  0.2303 -1.5482
 4003SOL    HW223472   3.230   4.619   2.331  0.8532 -1.4125  1.4102
 4004SOL     OW23473   0.458   1.145  16.044 -0.3823  0.5741 -0.0189
 4004SOL    HW123474   0.489   1.194  15.968 -0.0382 -1.2279 -1.0384
 4004SOL    HW223475   0.374   1.106  16.019  1.0533 -2.7260  0.2613
 4005SOL     OW23476   1.260   0.017   1.870  0.3611  0.1004  0.3213
 4005SOL    HW123477   1.236   0.107   1.891  0.8326 -0.6467  4.0720
 4005SOL    HW223478   1.354   0.038   1.874  0.4651 -0.3677  0.3567
 4006SOL     OW23479   4.608   4.104   3.587 -0.2135  0.4843  0.0995
 4006SOL    HW123480   4.533   4.155   3.555 -1.0084 -1.5055 -1.1752
 4006SOL    HW223481   4.634   4.088   3.497  1.4797  0.3639  0.6201
 4007SOL     OW23482   1.526   2.686   4.873  0.1813 -0.2814 -0.3587
 4007SOL    HW123483   1.570   2.600   4.873  1.7839  0.5436  0.3489
 4007SOL    HW223484   1.433   2.665   4.866  0.7940 -2.3389 -2.5891
 4008SOL     OW23485   1.508   2.993   4.064 -0.5211  0.2114 -0.4317
 4008SOL    HW123486   1.581   2.974   4.004 -0.3974 -0.2135 -0.1414
 4008SOL    HW223487   1.519   3.088   4.060  2.2676 -0.0768 -0.0244
 4009SOL     OW23488   0.628   0.065   9.611  0.0833  0.1253 -0.1100
 4009SOL    HW123489   0.701   0.011   9.641 -0.5296 -1.5692 -1.6796
 4009SOL    HW223490   0.671   0.136   9.562 -1.1440 -0.2470 -1.7276
 4010SOL     OW23491   3.901   3.692  14.243 -0.7391 -0.2055  1.0752
 4010SOL    HW123492   3.881   3.601  14.267  0.9735 -0.7823  0.3748
 4010SOL    HW223493   3.989   3.674  14.208 -1.4967  0.3505 -1.0833
 4011SOL     OW23494   0.690   2.840   2.050 -0.1205  0.1861  0.4027
 4011SOL    HW123495   0.763   2.797   2.094  0.6022  3.1688  2.1130
 4011SOL    HW223496   0.633   2.767   2.023 -1.3310  0.6828  1.5880
 4012SOL     OW23497   2.640   2.596   3.476  0.1676  0.1439  0.3394
 4012SOL    HW123498   2.728   2.623   3.505  0.4335  0.2322 -0.5749
 4012SOL    HW223499   2.588   2.669   3.443 -1.1690 -2.3257 -2.9702
 4013SOL     OW23500   3.509   3.367  15.893  0.0406  0.1706 -0.4015
 4013SOL    HW123501   3.472   3.284  15.923 -0.3602  0.6228  0.3546
 4013SOL    HW223502   3.601   3.339  15.888 -0.4396 -1.4072 -0.6298
 4014SOL     OW23503   2.207   3.219   9.744 -0.3135 -0.6093  0.7078
 4014SOL    HW123504   2.197   3.169   9.663  1.4437  0.3670 -0.1028
 4014SOL    HW223505   2.301   3.217   9.758 -0.0326  1.7585 -0.8142
 4015SOL     OW23506   3.609   0.328   3.899  0.2048  0.2442 -0.2656
 4015SOL    HW123507   3.672   0.383   3.853  2.4391 -0.8018  1.5661
 4015SOL    HW223508   3.625   0.247   3.852  1.4664  1.6104 -2.1893
 4016SOL     OW23509   0.177   0.096  14.154  0.2573 -0.1097 -0.0855
 4016SOL    HW123510   0.094   0.059  14.126 -1.2051  1.0522  2.7478
 4016SOL    HW223511   0.233   0.021  14.134  0.8555  0.6131 -1.1247
 4017SOL     OW23512   2.139   4.336   0.769 -0.3215 -0.2585 -0.4966
 4017SOL    HW123513   2.208   4.373   0.824 -0.7984 -0.7646  0.4450
 4017SOL    HW223514   2.064   4.351   0.825  1.1188  2.6008  0.6590
 4018SOL     OW23515   4.158   3.017  13.849  0.3146  0.1564  0.4239
 4018SOL    HW123516   4.215   3.082  13.889  2.1766 -1.7976  0.9715
 4018SOL    HW223517   4.122   3.063  13.774  3.6538  2.0694 -0.0187
 4019SOL     OW23518   4.414   4.024   5.060 -0.0693 -0.3204 -0.4513
 4019SOL    HW123519   4.375   3.938   5.076 -2.2652  0.4345 -1.6985
 4019SOL    HW223520   4.386   4.064   5.142  0.1175 -1.6664  0.2638
 4020SOL     OW23521   1.679   4.375   9.259  0.0814  0.5607 -0.2186
 4020SOL    HW123522   1.609   4.363   9.194  0.9622 -1.5375 -0.7918
 4020SOL    HW223523   1.650   4.313   9.326 -1.3479  0.4792 -0.8966
 4021SOL     OW23524   2.575   1.453  12.816 -0.4076  0.9694 -0.4400
 4021SOL    HW123525   2.549   1.366  12.784 -3.3908  0.9502  2.0732
 4021SOL    HW223526   2.529   1.454  12.900 -1.6281 -1.0566 -1.0668
 4022SOL     OW23527   2.055   1.063   3.642 -0.0691  0.1199 -0.6072
 4022SOL    HW123528   2.113   1.104   3.706  2.0395  0.3392 -2.6405
 4022SOL    HW223529   2.001   1.008   3.698 -0.4240  2.6262  1.4643
 4023SOL     OW23530   3.897   2.220   5.904 -0.1482  0.6142  0.3563
 4023SOL    HW123531   3.968   2.230   5.968 -1.0061 -0.6423  1.5102
 4023SOL    HW223532   3.840   2.160   5.952  0.7836 -0.0717  0.6026
 4024SOL     OW23533   3.066   4.362  17.598  0.3200 -0.1441 -0.0872
 4024SOL    HW123534   3.023   4.282  17.627  2.9736 -1.4137  0.3032
 4024SOL    HW223535   3.093   4.346  17.507 -0.5770 -1.4909 -0.1117
 4025SOL     OW23536   1.140   0.297   0.245  0.1181  0.0614 -0.0887
 4025SOL    HW123537   1.204   0.365   0.224 -1.5099  1.7581  0.4865
 4025SOL    HW223538   1.179   0.253   0.321 -0.5517  2.1798  1.4881
 4026SOL     OW23539   4.484   3.236   9.573 -0.1004 -0.2900 -0.5161
 4026SOL    HW123540   4.530   3.156   9.596  0.1177 -0.0491 -0.1075
 4026SOL    HW223541   4.481   3.217   9.480  0.2472  2.9094 -1.1954
 4027SOL     OW23542   1.717   1.623   8.903 -0.0067  0.7117 -0.3057
 4027SOL    HW123543   1.789   1.681   8.927  1.1180 -0.5458 -0.6691
 4027SOL    HW223544   1.707   1.652   8.812 -0.7779  0.5935 -0.2588
 4028SOL     OW23545   3.847   3.451   6.223  0.3947 -0.6207 -0.0838
 4028SOL    HW123546   3.864   3.505   6.146  1.8806 -0.1064  0.6093
 4028SOL    HW223547   3.856   3.365   6.182 -1.8889 -1.2391  0.7300
 4029SOL     OW23548   1.415   4.129   4.893  0.2981 -0.0824 -0.1853
 4029SOL    HW123549   1.338   4.177   4.865 -0.6154 -0.8470  0.9988
 4029SOL    HW223550   1.475   4.203   4.900  0.1805  0.0272 -0.3637
 4030SOL     OW23551   1.307   3.107   8.678 -0.0420 -0.0895 -0.3711
 4030SOL    HW123552   1.371   3.165   8.637 -0.3422  0.0845 -0.5928
 4030SOL    HW223553   1.336   3.128   8.767  2.1371 -0.2840 -1.0281
 4031SOL     OW23554   0.554   0.776   8.479 -0.6836  0.4934 -0.3504
 4031SOL    HW123555   0.574   0.770   8.573  1.1117 -2.4117 -0.9185
 4031SOL    HW223556   0.492   0.847   8.463 -0.0373  1.1093 -0.1075
 4032SOL     OW23557   1.201   4.275  17.383 -0.5379  0.3450  0.5009
 4032SOL    HW123558   1.154   4.196  17.409  0.0325 -0.0703  0.2456
 4032SOL    HW223559   1.197   4.325  17.465  0.9211  0.1050  0.7078
 4033SOL     OW23560   0.321   1.523   8.274 -0.0455  0.6280  0.2316
 4033SOL    HW123561   0.384   1.536   8.344  0.3306  0.6524 -0.1129
 4033SOL    HW223562   0.267   1.599   8.296 -0.1162  0.8984 -0.8662
 4034SOL     OW23563   1.120   2.575  13.484  0.0361 -0.3780 -0.1729
 4034SOL    HW123564   1.066   2.650  13.511 -1.1509 -1.7832  1.3361
 4034SOL    HW223565   1.159   2.608  13.403  2.7722 -1.2307  0.8051
 4035SOL     OW23566   1.459   0.551   9.293  0.2235 -0.3109 -0.5479
 4035SOL    HW123567   1.385   0.525   9.347  0.1056 -0.8116 -0.9543
 4035SOL    HW223568   1.428   0.640   9.273 -1.6113 -0.4245  1.8024
 4036SOL     OW23569   2.753   2.277   8.346  0.1561  0.0505  0.7211
 4036SOL    HW123570   2.706   2.275   8.263  1.4728  2.6617 -0.0665
 4036SOL    HW223571   2.844   2.272   8.318 -0.2744 -0.3707 -0.5980
 4037SOL     OW23572   1.965   4.152  14.398 -0.3068 -0.0160 -0.0645
 4037SOL    HW123573   2.006   4.137  14.312  1.3226  1.0865  0.5377
 4037SOL    HW223574   1.939   4.065  14.430 -0.1447 -0.6381 -1.6173
 4038SOL     OW23575   2.279   0.909  15.414  0.1807 -0.2111 -0.0413
 4038SOL    HW123576   2.237   0.957  15.486 -1.2734 -1.3302 -0.1535
 4038SOL    HW223577   2.194   0.885  15.376  0.0587  0.2386 -0.0650
 4039SOL     OW23578   4.026   0.678   5.629  0.3291  0.7116 -0.2182
 4039SOL    HW123579   4.091   0.630   5.579 -1.3636 -1.6847 -0.1222
 4039SOL    HW223580   4.032   0.619   5.705 -1.9161  0.7987  0.0335
 4040SOL     OW23581   4.648   3.269   0.413  0.3760  0.0407 -0.0629
 4040SOL    HW123582   0.004   3.254   0.364 -0.3053  2.3947 -1.8845
 4040SOL    HW223583   4.691   3.302   0.492 -0.1246  0.7745 -0.0957
 4041SOL     OW23584   4.030   2.258   2.906 -0.2259 -0.2544 -0.5539
 4041SOL    HW123585   3.988   2.337   2.940 -1.0694 -0.1336 -1.8768
 4041SOL    HW223586   4.114   2.274   2.949 -0.8112 -1.1175  0.9266
 4042SOL     OW23587   2.649   0.022   6.703 -0.5833  0.0443 -0.7038
 4042SOL    HW123588   2.691   0.027   6.617  1.0166  1.1134  0.1395
 4042SOL    HW223589   2.566   0.068   6.694 -0.5927 -0.1469 -1.5709
 4043SOL     OW23590   3.523   0.158   6.191 -0.7576  0.1691 -0.0336
 4043SOL    HW123591   3.459   0.225   6.167 -0.3315  1.1810  1.6475
 4043SOL    HW223592   3.578   0.157   6.113  1.2326 -1.1407  1.3889
 4044SOL     OW23593   2.329   0.324   7.064 -0.4225  0.1418  0.0875
 4044SOL    HW123594   2.317   0.418   7.052 -0.4980  0.0225 -0.7389
 4044SOL    HW223595   2.423   0.303   7.060 -0.6394 -0.5734 -1.1568
 4045SOL     OW23596   0.732   4.314   9.282  0.0543  0.6503 -0.0320
 4045SOL    HW123597   0.723   4.259   9.204  1.2887 -0.1494  0.3850
 4045SOL    HW223598   0.676   4.388   9.259 -0.5156 -0.7016 -3.0721
 4046SOL     OW23599   3.648   1.321  10.856 -0.0562 -0.1087 -0.4210
 4046SOL    HW123600   3.703   1.324  10.777  0.3314  2.2003 -0.0776
 4046SOL    HW223601   3.683   1.397  10.902  0.1521  1.1813 -2.6908
 4047SOL     OW23602   4.366   2.013   6.687 -0.7086 -0.2389  0.3563
 4047SOL    HW123603   4.442   2.010   6.628  1.3657 -1.1224  3.1263
 4047SOL    HW223604   4.378   1.931   6.733  0.5744 -0.4549 -0.3728
 4048SOL     OW23605   2.678   2.857   5.910  0.9531 -0.1155  0.0291
 4048SOL    HW123606   2.601   2.865   5.854  0.6553 -1.5964  0.2294
 4048SOL    HW223607   2.663   2.930   5.970  0.2773  0.5701 -0.9775
 4049SOL     OW23608   0.530   2.753   3.994  0.6670  0.7923  0.0826
 4049SOL    HW123609   0.597   2.708   3.943  0.4417 -0.0615  0.5407
 4049SOL    HW223610   0.588   2.803   4.051 -1.2341  3.4547 -0.3401
 4050SOL     OW23611   1.724   2.377   3.120 -0.6671  0.5789  0.0347
 4050SOL    HW123612   1.670   2.454   3.137 -1.2489 -0.4567  2.9501
 4050SOL    HW223613   1.784   2.392   3.194 -0.4916 -1.1396  0.2369
 4051SOL     OW23614   3.629   0.651   5.367  0.0200 -0.3674  0.5722
 4051SOL    HW123615   3.714   0.691   5.387  0.8738 -1.7367 -0.3273
 4051SOL    HW223616   3.655   0.567   5.329 -2.6239 -0.5655 -0.8317
 4052SOL     OW23617   4.674   1.568   7.516  0.0521  0.2162 -0.0723
 4052SOL    HW123618   4.609   1.543   7.451  0.0824  0.4368 -0.1866
 4052SOL    HW223619   0.027   1.520   7.486 -0.2631  0.7282 -1.6812
 4053SOL     OW23620   0.886   2.126   8.297 -0.0366  0.5897 -0.3287
 4053SOL    HW123621   0.928   2.205   8.262  0.4280  0.6517  0.3602
 4053SOL    HW223622   0.800   2.111   8.258  0.4907 -1.5341 -0.6606
 4054SOL     OW23623   1.361   3.436   2.852 -0.4627  0.6493  0.2520
 4054SOL    HW123624   1.409   3.518   2.839  0.5264  0.1099  0.5349
 4054SOL    HW223625   1.272   3.474   2.851 -1.7769 -2.3145  3.0566
 4055SOL     OW23626   0.527   1.047   6.538  0.4481  0.4948 -0.0139
 4055SOL    HW123627   0.606   1.054   6.483  0.0968 -1.1662 -0.7099
 4055SOL    HW223628   0.567   1.056   6.624 -2.6662  1.1555  1.3356
 4056SOL     OW23629   2.044   4.130  15.694 -0.0466  0.4383 -0.1059
 4056SOL    HW123630   2.126   4.086  15.716 -0.5944  0.3953  1.7773
 4056SOL    HW223631   2.038   4.195  15.764  0.4370  0.0728  0.2685
 4057SOL     OW23632   3.016   1.754  17.527  0.8267  0.0109  1.0701
 4057SOL    HW123633   3.075   1.685  17.496 -2.0965 -1.2254 -1.7537
 4057SOL    HW223634   3.066   1.812  17.583  0.4332  0.1593  1.2708
 4058SOL     OW23635   1.748   4.170   7.754  0.2459 -0.0074  0.0703
 4058SOL    HW123636   1.681   4.165   7.822  1.7110 -1.6377  1.3571
 4058SOL    HW223637   1.747   4.264   7.735  3.1884  0.3903  1.9400
 4059SOL     OW23638   0.053   3.483   7.241 -0.6520  0.1586  0.2531
 4059SOL    HW123639   0.134   3.535   7.246 -0.3042 -0.4952  1.4232
 4059SOL    HW223640   0.098   3.399   7.240 -0.7981  0.0715  0.7936
 4060SOL     OW23641   0.136   2.572  13.545 -0.1855  0.0429  0.1202
 4060SOL    HW123642   0.086   2.622  13.609 -0.2236 -0.6365  0.6220
 4060SOL    HW223643   0.146   2.494  13.600 -1.6206  0.2683  0.7044
 4061SOL     OW23644   2.597   4.114   9.203  0.3638  0.5653  0.5769
 4061SOL    HW123645   2.573   4.074   9.287 -0.1039  0.6903  0.4988
 4061SOL    HW223646   2.514   4.115   9.156  0.5125  0.8211  0.3238
 4062SOL     OW23647   0.630   3.105   6.024 -0.5596 -0.4246  0.3919
 4062SOL    HW123648   0.688   3.115   6.099 -1.3350 -0.2275  0.9637
 4062SOL    HW223649   0.639   3.193   5.988 -1.7482 -0.1733  0.7135
 4063SOL     OW23650   3.412   0.496   3.689  1.0968  0.2637 -0.1737
 4063SOL    HW123651   3.428   0.421   3.747  2.0593 -0.1284 -0.9479
 4063SOL    HW223652   3.426   0.460   3.601  0.6526  1.5289 -0.7512
 4064SOL     OW23653   2.572   1.090  17.652 -0.0738  0.0246 -0.3127
 4064SOL    HW123654   2.519   1.135  17.585 -0.7749  0.0038  0.2277
 4064SOL    HW223655   2.620   1.164  17.689  1.2129 -0.9323 -0.0781
 4065SOL     OW23656   4.415   3.476   2.497 -1.1368 -0.0272  0.3184
 4065SOL    HW123657   4.368   3.435   2.570  2.9018 -0.1660  2.7823
 4065SOL    HW223658   4.351   3.537   2.460 -0.8456  1.5470  2.4487
 4066SOL     OW23659   0.645   0.055   4.467 -0.2752  0.1519  0.0345
 4066SOL    HW123660   0.737   0.067   4.489 -0.3034 -0.5740  0.5411
 4066SOL    HW223661   0.660   4.714   4.397  1.0400 -0.3895  0.8279
 4067SOL     OW23662   1.880   0.384   4.655 -0.0417 -0.4046  0.1071
 4067SOL    HW123663   1.888   0.436   4.735  0.5606 -0.0681 -0.1714
 4067SOL    HW223664   1.970   0.374   4.622 -0.7542 -2.0595 -1.3564
 4068SOL     OW23665   3.726   2.587  13.848 -0.3215  0.1502  0.0003
 4068SOL    HW123666   3.772   2.544  13.919 -1.9381 -0.1998  0.8295
 4068SOL    HW223667   3.791   2.653  13.824 -2.8707  2.7636  0.1174
 4069SOL     OW23668   0.827   2.303   8.567 -0.4660 -0.3275  0.0813
 4069SOL    HW123669   0.901   2.264   8.520  1.3314  0.7716  1.9862
 4069SOL    HW223670   0.865   2.391   8.572 -0.6729 -0.1757 -0.9141
 4070SOL     OW23671   4.430   4.289   3.485  0.2537 -0.6419 -0.4197
 4070SOL    HW123672   4.340   4.259   3.475 -0.4962  1.4022  0.0953
 4070SOL    HW223673   4.419   4.376   3.446 -1.8756 -0.8192 -0.2409
 4071SOL     OW23674   4.086   1.900   2.788  0.7991 -0.7140  0.9311
 4071SOL    HW123675   4.071   1.814   2.749 -2.5399 -0.1836  1.0604
 4071SOL    HW223676   4.087   1.873   2.880 -0.8310  1.1417  1.5057
 4072SOL     OW23677   1.626   1.776   7.529  0.6730  0.1039  0.2950
 4072SOL    HW123678   1.553   1.833   7.508  0.3105 -0.5547 -0.2147
 4072SOL    HW223679   1.575   1.696   7.516  1.9305 -0.8849  1.4895
 4073SOL     OW23680   3.161   2.137  13.103  0.2366 -0.2691 -0.3227
 4073SOL    HW123681   3.073   2.168  13.081  0.5838  0.9317 -0.0046
 4073SOL    HW223682   3.168   2.051  13.061 -1.4763 -0.1853 -0.8047
 4074SOL     OW23683   1.943   3.085  10.363  0.6605  0.4322 -0.1569
 4074SOL    HW123684   1.929   3.011  10.422  1.4300 -1.2854 -2.1350
 4074SOL    HW223685   1.991   3.029  10.303 -0.6193  0.1633 -0.9184
 4075SOL     OW23686   3.556   0.839   0.035  0.2311 -0.0439  0.4505
 4075SOL    HW123687   3.629   0.784   0.007 -0.7519 -1.8367  1.4037
 4075SOL    HW223688   3.573   0.920  17.685 -0.0003 -0.3646 -0.1990
 4076SOL     OW23689   2.392   3.329   8.015  0.3242 -0.0135 -0.6089
 4076SOL    HW123690   2.379   3.393   8.085 -2.7045 -1.1974 -0.0602
 4076SOL    HW223691   2.308   3.283   8.007 -0.1842  0.4703  1.8656
 4077SOL     OW23692   0.793   4.462  10.539 -0.1423 -0.3506 -0.5774
 4077SOL    HW123693   0.884   4.491  10.551 -0.3868  1.1841 -2.3419
 4077SOL    HW223694   0.801   4.368  10.550  0.1899 -0.3684 -0.9494
 4078SOL     OW23695   3.162   2.210   6.763  0.5043 -0.1529  0.1199
 4078SOL    HW123696   3.217   2.246   6.832  0.6463 -0.7325  0.3105
 4078SOL    HW223697   3.179   2.118   6.781 -0.3460 -0.3928 -0.2641
 4079SOL     OW23698   1.743   3.024   8.925  0.0423 -0.1901  0.1712
 4079SOL    HW123699   1.770   3.046   9.014  1.1886 -0.9900  0.0295
 4079SOL    HW223700   1.653   3.018   8.954  1.5467 -0.6423  4.6531
 4080SOL     OW23701   4.296   4.256   2.248  0.1241  0.2099 -0.2412
 4080SOL    HW123702   4.384   4.280   2.219 -0.1118  1.0764 -0.2297
 4080SOL    HW223703   4.292   4.287   2.338 -1.7400 -1.3819  0.2340
 4081SOL     OW23704   3.061   0.310   9.430  0.3438 -0.0104 -0.1260
 4081SOL    HW123705   2.984   0.312   9.487  1.0506 -0.0267  0.8199
 4081SOL    HW223706   3.042   0.375   9.362  1.3565  0.8111  0.3787
 4082SOL     OW23707   4.104   2.897   6.592 -0.7571 -0.5201  0.5412
 4082SOL    HW123708   4.029   2.920   6.536  0.2054 -1.3293 -1.0662
 4082SOL    HW223709   4.072   2.807   6.603  1.1786 -0.9152  3.0240
 4083SOL     OW23710   1.009   3.361  17.167  0.2209 -0.6963 -0.5410
 4083SOL    HW123711   1.024   3.308  17.089 -0.3914  1.4462 -2.1110
 4083SOL    HW223712   1.068   3.320  17.230  1.7074  0.6381 -1.0453
 4084SOL     OW23713   0.266   2.530   4.157 -0.0321 -0.7053  0.2714
 4084SOL    HW123714   0.185   2.481   4.142  1.1803 -2.7378  0.2645
 4084SOL    HW223715   0.273   2.571   4.071 -0.1605  1.1422  1.1538
 4085SOL     OW23716   1.651   3.982   1.365  0.1166  0.8771  0.4397
 4085SOL    HW123717   1.624   3.972   1.457  0.0203 -0.2133  0.2911
 4085SOL    HW223718   1.568   3.985   1.318  0.7551  1.6441 -0.6050
 4086SOL     OW23719   3.972   0.843  17.661 -0.7159  0.3763 -0.1741
 4086SOL    HW123720   4.021   0.798   0.032 -0.7918  0.3240 -0.1537
 4086SOL    HW223721   4.017   0.928  17.659  1.4761 -0.7831  0.8952
 4087SOL     OW23722   0.586   2.854   3.175  0.1469  0.4028  0.1086
 4087SOL    HW123723   0.600   2.938   3.219 -2.0696 -0.2805  2.1444
 4087SOL    HW223724   0.666   2.870   3.125  0.9474  0.9012  1.5609
 4088SOL     OW23725   1.471   3.682   8.589 -0.7183  0.1442 -0.0498
 4088SOL    HW123726   1.439   3.597   8.619 -0.0148 -0.3678 -0.7444
 4088SOL    HW223727   1.493   3.732   8.667  0.5645 -1.3975  0.5764
 4089SOL     OW23728   0.549   3.890  17.041  0.2831 -0.4685 -0.2920
 4089SOL    HW123729   0.627   3.939  17.015  0.2298 -0.3659 -0.2584
 4089SOL    HW223730   0.563   3.871  17.134  1.2977  1.6476 -0.0242
 4090SOL     OW23731   1.497   3.920   1.616  0.1191  0.1438 -0.3521
 4090SOL    HW123732   1.422   3.971   1.647 -0.4161 -1.3529  0.8230
 4090SOL    HW223733   1.528   3.891   1.702  1.7909  0.1014 -0.9694
 4091SOL     OW23734   0.259   3.211   6.429  0.1167 -0.3078  0.0432
 4091SOL    HW123735   0.257   3.282   6.493 -1.3843  0.0536 -0.4006
 4091SOL    HW223736   0.170   3.205   6.394  0.3885  1.3560 -0.9328
 4092SOL     OW23737   2.237   0.143   2.349  0.1981 -0.1193  0.3552
 4092SOL    HW123738   2.144   0.121   2.359  0.2454 -0.0399  1.0028
 4092SOL    HW223739   2.273   0.073   2.295  1.5001  0.6059  0.2950
 4093SOL     OW23740   1.539   3.989   4.621 -0.5247 -0.6391  0.2533
 4093SOL    HW123741   1.521   3.917   4.682  0.4996 -1.0821  0.0307
 4093SOL    HW223742   1.476   3.963   4.553 -1.8393  1.5228  0.6213
 4094SOL     OW23743   3.042   4.057   9.197 -0.1956 -0.1732 -0.1556
 4094SOL    HW123744   3.116   4.001   9.220 -0.6333 -0.5758  0.2803
 4094SOL    HW223745   3.095   4.135   9.183 -1.4869  0.5868 -0.7024
 4095SOL     OW23746   2.490   1.293  11.168 -0.1242 -0.1544 -0.4708
 4095SOL    HW123747   2.577   1.307  11.205 -0.3582 -0.2378  0.1269
 4095SOL    HW223748   2.508   1.249  11.086 -0.2989  0.5506 -0.8930
 4096SOL     OW23749   2.747   3.817   0.641 -0.7900  0.4744 -0.0819
 4096SOL    HW123750   2.726   3.835   0.549  0.5453  0.5906 -0.3647
 4096SOL    HW223751   2.842   3.829   0.633 -0.8698  1.0280 -0.1606
 4097SOL     OW23752   0.035   4.233  17.433  0.0901 -0.5358 -0.1698
 4097SOL    HW123753   0.083   4.173  17.375 -1.4804 -0.3417 -1.6507
 4097SOL    HW223754   0.038   4.182  17.513  1.4009  1.0244  0.7668
 4098SOL     OW23755   3.950   4.439   3.508 -1.0796 -0.5532 -0.3975
 4098SOL    HW123756   3.858   4.422   3.486 -1.2470 -0.1865  0.0069
 4098SOL    HW223757   3.947   4.438   3.604 -0.2146  1.0308 -0.3624
 4099SOL     OW23758   0.321   1.380  16.274  0.2509 -0.0723 -0.1412
 4099SOL    HW123759   0.355   1.347  16.190  0.8771  1.4476 -0.4728
 4099SOL    HW223760   0.377   1.338  16.340 -0.1539  0.7112  0.6945
 4100SOL     OW23761   3.994   3.960   3.621  0.5160  0.6673 -0.5230
 4100SOL    HW123762   3.987   3.924   3.533 -1.9181 -0.3137  0.0629
 4100SOL    HW223763   4.002   3.886   3.681  0.2298 -1.1079 -2.6671
 4101SOL     OW23764   4.677   0.327   0.312  0.2369 -0.3806  0.1340
 4101SOL    HW123765   0.042   0.322   0.347  0.4133 -1.4367 -0.4781
 4101SOL    HW223766   4.642   0.409   0.349 -1.9414 -1.1417 -0.2274
 4102SOL     OW23767   2.042   1.979   8.159 -0.6791  0.7699  0.2407
 4102SOL    HW123768   2.049   2.023   8.075 -0.2016 -0.4703 -0.3691
 4102SOL    HW223769   1.972   2.029   8.202  0.7392  1.8374  1.3127
 4103SOL     OW23770   4.683   2.460   1.651  0.2798  0.0320  0.4025
 4103SOL    HW123771   4.722   2.380   1.687  0.9393  1.3306  2.5660
 4103SOL    HW223772   4.612   2.466   1.715  0.0382 -0.3972  0.1795
 4104SOL     OW23773   4.474   4.476  10.052 -0.1439  0.6012 -0.4481
 4104SOL    HW123774   4.511   4.475  10.141  0.9632 -3.4978 -0.9692
 4104SOL    HW223775   4.429   4.392  10.062 -0.5471  1.0196  1.2907
 4105SOL     OW23776   1.551   1.262   6.576 -0.2223 -0.0878 -0.0468
 4105SOL    HW123777   1.627   1.318   6.591  0.0514  0.0333 -1.8600
 4105SOL    HW223778   1.590   1.176   6.592  0.9281  0.1014 -1.8121
 4106SOL     OW23779   0.883   2.385   6.174 -0.5417 -0.5488 -0.5422
 4106SOL    HW123780   0.908   2.458   6.231 -1.2645 -1.2699  0.7134
 4106SOL    HW223781   0.799   2.368   6.217 -0.2407  0.1386  0.3073
 4107SOL     OW23782   0.716   0.130   4.893 -0.0195 -0.1412 -0.4143
 4107SOL    HW123783   0.797   0.084   4.913 -0.1402 -0.1792  0.0016
 4107SOL    HW223784   0.662   0.072   4.840  1.2687 -0.1782 -1.6875
 4108SOL     OW23785   4.623   4.657   6.244  0.1690 -0.1665  0.0275
 4108SOL    HW123786   4.704   4.614   6.215 -1.0546 -2.5727  0.1443
 4108SOL    HW223787   4.602   4.608   6.323 -0.4953  0.6163  0.3358
 4109SOL     OW23788   2.597   1.447   4.517 -0.1330  0.2718 -0.4275
 4109SOL    HW123789   2.551   1.379   4.567  0.8433  0.7304  1.0950
 4109SOL    HW223790   2.526   1.510   4.516  1.0623  1.5916 -1.7456
 4110SOL     OW23791   1.299   1.991   6.551  0.0840 -0.2045 -0.3427
 4110SOL    HW123792   1.211   1.969   6.518  0.9859  0.1039 -2.9704
 4110SOL    HW223793   1.336   2.028   6.471  0.5541 -0.0581 -0.0518
 4111SOL     OW23794   3.814   0.463  10.087 -0.5067  0.3543 -0.0012
 4111SOL    HW123795   3.900   0.458  10.127  0.0218  1.9831 -0.9538
 4111SOL    HW223796   3.775   0.548  10.108 -0.0469  0.6690 -0.4287
 4112SOL     OW23797   2.999   0.640   3.295 -0.2698  0.4468 -0.4572
 4112SOL    HW123798   2.944   0.655   3.372  0.2481 -1.3817  0.2648
 4112SOL    HW223799   3.022   0.733   3.292  0.8057  0.1581 -1.3113
 4113SOL     OW23800   4.283   3.793  12.568  0.9883  0.1067 -0.0839
 4113SOL    HW123801   4.301   3.884  12.545 -0.0808  0.1421 -0.7382
 4113SOL    HW223802   4.358   3.775  12.625  0.8793 -0.1146 -0.0108
 4114SOL     OW23803   4.036   3.235   4.502  0.5269 -0.1734  0.2919
 4114SOL    HW123804   3.953   3.275   4.525  0.2851 -0.9901  0.8726
 4114SOL    HW223805   4.034   3.149   4.546  1.0430 -0.6282 -0.5696
 4115SOL     OW23806   1.685   3.370   5.826  0.1330 -0.3375  0.0443
 4115SOL    HW123807   1.758   3.430   5.839  0.2784  0.1785 -3.1413
 4115SOL    HW223808   1.694   3.332   5.913  3.3315 -0.5900 -0.4132
 4116SOL     OW23809   4.307   1.131   6.361 -0.6002 -0.0286 -0.3099
 4116SOL    HW123810   4.334   1.195   6.295  0.8951 -0.4903 -0.1608
 4116SOL    HW223811   4.313   1.047   6.316  2.3697  0.4994 -0.9340
 4117SOL     OW23812   0.670   0.197  11.794  0.0459  0.7545  0.3956
 4117SOL    HW123813   0.630   0.193  11.881  0.5319 -0.3228  0.5607
 4117SOL    HW223814   0.594   0.173  11.741 -0.3960  3.1660 -0.0816
 4118SOL     OW23815   2.663   2.865   0.450  0.1617  0.0872 -0.4802
 4118SOL    HW123816   2.740   2.817   0.481 -1.9683 -3.5477 -0.9086
 4118SOL    HW223817   2.677   2.874   0.356  0.0281  1.4100 -0.3708
 4119SOL     OW23818   0.023   2.188   6.374 -0.0757 -0.0689 -0.5136
 4119SOL    HW123819   4.677   2.132   6.340  1.4449 -1.8417 -0.7791
 4119SOL    HW223820   0.035   2.253   6.304  0.3858 -1.2181 -1.5138
 4120SOL     OW23821   0.498   4.123   4.371 -0.4343 -0.1710 -0.1850
 4120SOL    HW123822   0.557   4.104   4.444 -0.3807  0.7088 -0.0064
 4120SOL    HW223823   0.444   4.044   4.374  0.7058 -0.9082  0.6567
 4121SOL     OW23824   1.428   1.825   2.195  0.5746  0.1689 -0.0278
 4121SOL    HW123825   1.480   1.864   2.125 -1.3648 -0.7151 -1.9517
 4121SOL    HW223826   1.376   1.900   2.224 -2.1293 -1.9165  0.5618
 4122SOL     OW23827   2.070   1.759   6.595  0.2320 -0.4761  0.2500
 4122SOL    HW123828   2.136   1.819   6.559 -0.5821  1.7102  2.4586
 4122SOL    HW223829   2.046   1.813   6.669 -0.8194 -0.9881  0.2772
 4123SOL     OW23830   3.401   2.695   7.610 -0.4516 -0.4127 -0.2500
 4123SOL    HW123831   3.428   2.612   7.571 -3.1628 -0.8029 -1.3148
 4123SOL    HW223832   3.489   2.714   7.643  0.2579 -0.8308 -1.9189
 4124SOL     OW23833   2.898   4.146   5.399 -0.8016  0.0606  0.5392
 4124SOL    HW123834   2.910   4.099   5.482  1.2846 -1.2958 -0.5331
 4124SOL    HW223835   2.889   4.239   5.419  0.0024 -0.3671  2.8738
 4125SOL     OW23836   2.455   4.398   4.892  0.3202 -0.2704  0.4558
 4125SOL    HW123837   2.534   4.444   4.919 -1.3791  2.0530  1.4927
 4125SOL    HW223838   2.481   4.316   4.849  0.1690  0.3518 -0.8090
 4126SOL     OW23839   0.182   2.763  15.951  0.4613  0.6837 -0.0290
 4126SOL    HW123840   0.277   2.763  15.960  0.2233 -2.4420  2.3379
 4126SOL    HW223841   0.182   2.765  15.856 -0.4415 -0.0146 -0.0488
 4127SOL     OW23842   2.923   4.557  13.944 -0.3243 -0.6465  0.6708
 4127SOL    HW123843   2.829   4.548  13.927 -0.3835 -0.8049  1.0805
 4127SOL    HW223844   2.921   4.642  13.988 -1.9942 -0.1279 -0.4139
 4128SOL     OW23845   4.333   1.534   5.368 -0.2715 -0.3033 -0.3583
 4128SOL    HW123846   4.385   1.599   5.416  0.3361 -1.0695  0.0300
 4128SOL    HW223847   4.247   1.575   5.366 -0.0146  0.3131  0.9449
 4129SOL     OW23848   3.690   1.954   5.914 -0.0365  0.0108 -0.4938
 4129SOL    HW123849   3.611   1.974   5.964  0.6212 -0.9300  0.9132
 4129SOL    HW223850   3.767   1.929   5.966  1.1749  0.9501 -1.8448
 4130SOL     OW23851   3.713   0.723  12.943 -0.8672  0.1781 -0.1899
 4130SOL    HW123852   3.732   0.747  13.034  0.0785 -0.4408 -0.2262
 4130SOL    HW223853   3.654   0.797  12.933  0.7371  1.1540 -2.4241
 4131SOL     OW23854   3.092   2.212   2.414 -0.6783  0.3256  0.5609
 4131SOL    HW123855   3.112   2.300   2.381 -1.2364 -0.1533 -1.0285
 4131SOL    HW223856   3.099   2.157   2.337 -0.7877  0.9924  0.0744
 4132SOL     OW23857   1.411   3.227   7.738  0.5921 -0.3381 -0.3656
 4132SOL    HW123858   1.330   3.184   7.765 -0.2309  0.7199 -1.1805
 4132SOL    HW223859   1.472   3.157   7.762  2.3836  1.8308  1.3753
 4133SOL     OW23860   0.821   3.143   6.222 -0.1336 -0.2089 -1.0636
 4133SOL    HW123861   0.903   3.191   6.213  0.7433 -1.4702  0.3077
 4133SOL    HW223862   0.868   3.073   6.267 -2.5783 -1.2721 -0.1879
 4134SOL     OW23863   4.516   0.458  13.425  0.1263 -0.4960 -0.4591
 4134SOL    HW123864   4.456   0.450  13.500 -1.4386  1.3497 -1.5049
 4134SOL    HW223865   4.572   0.523  13.468  0.7506 -0.5969 -1.1369
 4135SOL     OW23866   2.959   4.589   2.084  0.2612 -0.3366  0.1981
 4135SOL    HW123867   3.039   4.571   2.036 -0.4056 -1.6064 -0.4201
 4135SOL    HW223868   3.000   4.643   2.152  0.9138  2.6975 -2.6325
 4136SOL     OW23869   1.253   2.540  16.676 -0.0058 -0.0622 -0.0474
 4136SOL    HW123870   1.264   2.631  16.647  0.3407 -0.3030 -0.6704
 4136SOL    HW223871   1.160   2.529  16.654  0.4751 -1.9154 -1.1193
 4137SOL     OW23872   2.199   0.990   5.852  0.2636 -0.1341  0.5489
 4137SOL    HW123873   2.206   1.057   5.784  2.7984  0.0585  0.9770
 4137SOL    HW223874   2.287   0.988   5.891  0.8002 -2.3911 -0.8150
 4138SOL     OW23875   0.856   2.742   7.932 -0.0116 -0.3178  0.2517
 4138SOL    HW123876   0.870   2.793   8.012 -1.6670  2.4061 -1.1851
 4138SOL    HW223877   0.761   2.729   7.926 -0.2961  1.2613  1.4061
 4139SOL     OW23878   4.276   3.278   8.233  0.3120  0.2974  0.2825
 4139SOL    HW123879   4.205   3.312   8.179  1.4757  2.2770  0.0004
 4139SOL    HW223880   4.256   3.185   8.250  0.1612  0.3915  0.6337
 4140SOL     OW23881   0.837   1.369   8.519 -0.0696  0.3502 -0.0115
 4140SOL    HW123882   0.916   1.354   8.572  0.2187 -0.1550 -0.5892
 4140SOL    HW223883   0.813   1.458   8.545  0.7189 -0.3805  3.2148
 4141SOL     OW23884   3.386   1.161   7.637  0.6391 -0.3181  0.1401
 4141SOL    HW123885   3.451   1.102   7.599  3.2411  2.4424  0.2289
 4141SOL    HW223886   3.341   1.201   7.563  3.6426 -0.5520 -1.8292
 4142SOL     OW23887   3.305   0.607   6.371 -0.3904  0.5521 -0.0936
 4142SOL    HW123888   3.268   0.662   6.440 -0.5793  0.3169 -0.0077
 4142SOL    HW223889   3.241   0.605   6.299  1.4975 -0.6979 -1.7353
 4143SOL     OW23890   3.604   4.211   4.442  0.0430  0.3587  0.5370
 4143SOL    HW123891   3.584   4.126   4.481 -0.5132  0.6646  0.9212
 4143SOL    HW223892   3.525   4.223   4.390  1.1647 -1.5680 -1.6117
 4144SOL     OW23893   4.001   1.043  10.310 -0.0686  0.7620 -0.1927
 4144SOL    HW123894   4.086   1.000  10.301 -0.5312 -0.8899  3.2648
 4144SOL    HW223895   3.940   0.972  10.289 -0.4334  0.8166  0.7104
 4145SOL     OW23896   2.159   1.163   6.651 -0.1601 -0.0171 -0.1010
 4145SOL    HW123897   2.170   1.192   6.742  1.1510 -0.1638 -0.2061
 4145SOL    HW223898   2.132   1.247   6.615 -1.8506 -0.1056  0.9526
 4146SOL     OW23899   0.140   3.242   7.597 -0.3287 -0.1021 -0.0383
 4146SOL    HW123900   0.183   3.192   7.666 -1.4858 -1.0773 -0.0386
 4146SOL    HW223901   0.093   3.313   7.641 -0.0055  0.7985 -1.1342
 4147SOL     OW23902   1.385   1.296   9.773  0.0422  0.1833  0.8176
 4147SOL    HW123903   1.365   1.385   9.802  1.4367  0.1442  1.8790
 4147SOL    HW223904   1.333   1.286   9.693  0.6298 -0.3372  0.5019
 4148SOL     OW23905   0.760   0.316   5.357  0.1443 -0.1976  0.0335
 4148SOL    HW123906   0.718   0.258   5.294  0.8784 -0.0909 -0.5534
 4148SOL    HW223907   0.788   0.381   5.292 -1.4438  0.5206  0.0784
 4149SOL     OW23908   1.328   2.944  11.918  0.0072  0.2718  0.9499
 4149SOL    HW123909   1.378   2.931  11.838 -2.9940 -2.5128 -0.4839
 4149SOL    HW223910   1.335   2.859  11.962 -0.3265  0.3226  1.1030
 4150SOL     OW23911   2.522   0.715   9.023 -0.4515 -0.5641  0.2192
 4150SOL    HW123912   2.432   0.682   9.018 -0.6945  0.0790  0.3588
 4150SOL    HW223913   2.532   0.754   9.109  1.1439 -0.1548 -0.1486
 4151SOL     OW23914   4.559   2.019   7.681  0.3849  0.0895  0.1377
 4151SOL    HW123915   4.530   2.020   7.773 -1.4972 -0.4326 -0.4573
 4151SOL    HW223916   4.538   1.930   7.654 -3.6681  0.4561  2.0127
 4152SOL     OW23917   0.709   1.119   8.607  0.2109  0.2961  0.2934
 4152SOL    HW123918   0.660   1.142   8.528  1.3637 -2.4829 -1.2302
 4152SOL    HW223919   0.768   1.194   8.604  0.1499  0.2873 -1.1737
 4153SOL     OW23920   2.764   2.147  16.010 -0.4241 -0.1448  0.4963
 4153SOL    HW123921   2.850   2.154  15.968 -0.0628 -2.9926  0.7407
 4153SOL    HW223922   2.774   2.215  16.076  1.5836  0.3772 -0.3524
 4154SOL     OW23923   4.663   2.563  11.553 -0.1817  0.1533  0.5703
 4154SOL    HW123924   4.607   2.510  11.497  0.1841  0.7850 -0.3941
 4154SOL    HW223925   4.606   2.638  11.570 -0.5801  0.7655 -3.4073
 4155SOL     OW23926   2.061   4.421   9.235  0.2063 -0.2557 -0.1608
 4155SOL    HW123927   2.052   4.430   9.330 -3.1555 -0.0604 -0.5125
 4155SOL    HW223928   2.027   4.509   9.218  1.7769  0.7736  1.9798
 4156SOL     OW23929   0.411   2.564   7.414 -0.4606 -0.0851 -0.6520
 4156SOL    HW123930   0.409   2.563   7.318  0.4553 -1.3296 -0.6670
 4156SOL    HW223931   0.320   2.589   7.428 -0.9102 -0.7618 -2.3221
 4157SOL     OW23932   2.044   1.399   6.443  0.0170  0.1006 -0.5385
 4157SOL    HW123933   2.051   1.431   6.533  0.8715  1.5875 -1.1249
 4157SOL    HW223934   2.038   1.474   6.384 -0.5251  1.9701  1.8706
 4158SOL     OW23935   2.036   0.701   4.864 -0.1667  0.3864 -0.7882
 4158SOL    HW123936   2.116   0.676   4.817  0.7359  0.3371  0.7565
 4158SOL    HW223937   2.076   0.782   4.897 -1.5813  0.9912 -0.5851
 4159SOL     OW23938   2.364   0.681   4.407 -0.1431  0.0944  0.1583
 4159SOL    HW123939   2.427   0.624   4.364  0.8691  0.7059  0.8271
 4159SOL    HW223940   2.412   0.764   4.401  1.7981 -1.1511 -1.1359
 4160SOL     OW23941   0.711   4.573   0.075 -0.0760  0.2022 -0.3516
 4160SOL    HW123942   0.681   4.513   0.144  0.1122 -1.4446 -1.6792
 4160SOL    HW223943   0.678   4.657   0.105  1.2344  0.9701 -1.0841
 4161SOL     OW23944   4.711   1.076  14.331 -0.0751  0.1047 -0.0878
 4161SOL    HW123945   0.016   1.021  14.258 -1.4244 -0.0228 -0.5242
 4161SOL    HW223946   0.036   1.035  14.403 -0.5541 -0.8885 -0.3256
 4162SOL     OW23947   0.074   4.666   3.336 -0.5897 -0.6353  0.0492
 4162SOL    HW123948   0.124   4.659   3.418 -0.3328 -0.4575 -0.0940
 4162SOL    HW223949   0.047   4.575   3.335  1.7078 -1.3173  0.1757
 4163SOL     OW23950   0.434   3.383   7.805  0.0472 -0.0177 -0.0052
 4163SOL    HW123951   0.466   3.345   7.723  1.0528  2.8701 -0.9508
 4163SOL    HW223952   0.371   3.448   7.774  0.8227  0.6306 -0.2515
 4164SOL     OW23953   0.639   0.471   2.862  0.3053  0.0715  0.0441
 4164SOL    HW123954   0.717   0.426   2.896  0.3021  3.0802  4.0255
 4164SOL    HW223955   0.626   0.532   2.935  2.4113  0.7391 -0.1312
 4165SOL     OW23956   0.410   2.447   3.242  0.2976  0.2224  0.0128
 4165SOL    HW123957   0.387   2.538   3.257  2.3535  0.9642 -1.2534
 4165SOL    HW223958   0.351   2.390   3.292  0.2078 -0.5719 -0.9823
 4166SOL     OW23959   0.558   2.980   6.350 -0.0093  0.4431 -0.1695
 4166SOL    HW123960   0.582   3.003   6.261  0.5609  2.0735  0.4004
 4166SOL    HW223961   0.554   3.064   6.396 -0.7515 -0.6655  1.8180
 4167SOL     OW23962   2.500   1.991  10.664  0.3544 -0.0514 -0.1904
 4167SOL    HW123963   2.409   1.997  10.633  1.0926  3.4666 -1.7065
 4167SOL    HW223964   2.518   2.085  10.656  1.5793 -0.3276 -0.6486
 4168SOL     OW23965   0.267   0.544   3.907 -0.5350 -0.2039 -0.1797
 4168SOL    HW123966   0.237   0.509   3.823 -0.1857  2.2870 -1.3535
 4168SOL    HW223967   0.361   0.529   3.899  0.0666  3.3731  0.3473
 4169SOL     OW23968   3.990   0.183   2.718 -0.4587  0.4850 -0.4141
 4169SOL    HW123969   3.948   0.259   2.678 -0.5690  1.3310  1.2857
 4169SOL    HW223970   4.054   0.154   2.653  0.3385 -1.2339  1.1232
 4170SOL     OW23971   3.847   0.593   4.771  0.9761 -0.3603 -0.1299
 4170SOL    HW123972   3.925   0.538   4.776  1.3214 -0.0554 -2.3179
 4170SOL    HW223973   3.890   0.678   4.763 -1.5314  1.0664  1.8277
 4171SOL     OW23974   0.429   1.717   0.501  0.0610  1.0375  0.0133
 4171SOL    HW123975   0.491   1.749   0.435  1.2433  3.3163  2.2024
 4171SOL    HW223976   0.444   1.624   0.518 -1.3479  0.8492  0.2402
 4172SOL     OW23977   3.265   4.312  14.126  0.0170 -0.9634 -0.1826
 4172SOL    HW123978   3.183   4.266  14.108 -1.7831  1.9405  0.5988
 4172SOL    HW223979   3.247   4.397  14.085  0.1049 -0.4753  0.7862
 4173SOL     OW23980   3.702   1.193  17.092 -0.1311  0.0957  0.1700
 4173SOL    HW123981   3.773   1.137  17.124 -1.1161 -0.7250  0.9153
 4173SOL    HW223982   3.638   1.122  17.086  1.3861 -1.0464 -2.2930
 4174SOL     OW23983   4.127   0.279  12.449 -0.4239  0.3489  0.5027
 4174SOL    HW123984   4.093   0.203  12.402 -1.9040  0.7618  0.8981
 4174SOL    HW223985   4.077   0.300  12.528 -0.3446 -0.6964  0.8210
 4175SOL     OW23986   3.924   0.469   9.027  0.0575  0.3559  0.0008
 4175SOL    HW123987   4.020   0.469   9.019  0.1167  3.5821  0.6820
 4175SOL    HW223988   3.906   0.385   8.985  1.2294 -0.0782  0.3411
 4176SOL     OW23989   0.950   1.993  10.086 -0.0227 -0.1233  0.2455
 4176SOL    HW123990   0.894   2.065  10.116 -0.1180 -0.6838  1.4066
 4176SOL    HW223991   0.905   1.915  10.116 -2.2566  0.8476 -0.5645
 4177SOL     OW23992   0.736   3.477   7.385 -0.2570  0.3625 -0.4316
 4177SOL    HW123993   0.728   3.391   7.344 -0.9022  0.8868 -1.4269
 4177SOL    HW223994   0.647   3.513   7.384  0.3010  1.8454  1.8195
 4178SOL     OW23995   3.890   0.078   0.419 -0.3098 -0.3775  0.0342
 4178SOL    HW123996   3.934   0.100   0.501 -2.9859 -0.1957  1.4338
 4178SOL    HW223997   3.831   0.151   0.400 -1.7301 -1.1965  1.2050
 4179SOL     OW23998   1.196   2.593   6.540 -0.4704  0.1438 -0.1057
 4179SOL    HW123999   1.105   2.565   6.528 -0.5887  0.5965 -0.2688
 4179SOL    HW224000   1.230   2.504   6.544  1.9671  1.0916  0.6523
 4180SOL     OW24001   2.677   0.034   9.114 -0.4905 -0.1382  0.3292
 4180SOL    HW124002   2.739   4.688   9.132  1.3890  1.4913  0.2173
 4180SOL    HW224003   2.594   4.720   9.143 -0.1459 -0.6951  0.5917
 4181SOL     OW24004   2.145   3.136  16.628  0.0356  0.1685 -0.0811
 4181SOL    HW124005   2.204   3.074  16.585  0.8725  0.9259 -0.0288
 4181SOL    HW224006   2.110   3.183  16.552  1.8570 -0.3250 -1.2183
 4182SOL     OW24007   0.005   2.803  14.253 -0.1385  0.4032 -0.2668
 4182SOL    HW124008   4.688   2.757  14.179 -0.4478  0.2343  0.0053
 4182SOL    HW224009   4.720   2.734  14.319 -0.6538  1.6990  0.9952
 4183SOL     OW24010   0.564   1.265   6.746 -0.2765 -0.2187  0.0237
 4183SOL    HW124011   0.598   1.209   6.817 -0.8890  1.2493  1.4747
 4183SOL    HW224012   0.646   1.278   6.699 -0.1727  0.0971  0.2963
 4184SOL     OW24013   3.922   2.080   3.604 -0.1710 -0.2665  0.5479
 4184SOL    HW124014   3.952   1.997   3.641 -1.8813 -0.5610  1.2762
 4184SOL    HW224015   3.980   2.096   3.530  0.6671  0.2346  1.3123
 4185SOL     OW24016   0.111   0.051   9.264 -0.2044 -0.3389  0.2053
 4185SOL    HW124017   0.115   0.131   9.317 -1.0935  0.0390 -0.3023
 4185SOL    HW224018   0.150   4.702   9.313  3.7762  1.8660  0.2870
 4186SOL     OW24019   1.876   4.305   5.947  0.1240  0.1905 -0.1735
 4186SOL    HW124020   1.796   4.344   5.912  1.0896 -1.3659 -4.0906
 4186SOL    HW224021   1.836   4.251   6.015  1.1851 -3.0547 -2.1051
 4187SOL     OW24022   2.565   3.286   8.774  0.1576 -0.1321 -0.3801
 4187SOL    HW124023   2.605   3.269   8.859  1.2889  2.6135 -0.3661
 4187SOL    HW224024   2.579   3.378   8.754 -0.1749 -0.2204 -1.0132
 4188SOL     OW24025   2.583   0.245  10.723  0.0139 -0.2755  0.9424
 4188SOL    HW124026   2.570   0.273  10.813  0.2829 -0.6911  1.1129
 4188SOL    HW224027   2.497   0.263  10.686  0.1211  1.6583  1.6434
 4189SOL     OW24028   4.448   0.595   0.264  0.6000  0.4670 -0.2323
 4189SOL    HW124029   4.531   0.570   0.222  0.6806  2.4568 -1.2650
 4189SOL    HW224030   4.384   0.543   0.215 -2.4785  1.0731  3.1834
 4190SOL     OW24031   3.450   0.771   3.649 -0.6760  0.2300 -0.0027
 4190SOL    HW124032   3.406   0.687   3.642  0.5861 -0.3783 -0.5562
 4190SOL    HW224033   3.379   0.828   3.679  0.2018  0.9411  0.7544
 4191SOL     OW24034   4.111   0.619   6.346  0.0192 -0.2567 -0.4578
 4191SOL    HW124035   4.047   0.641   6.278  1.6705  1.6400 -1.3928
 4191SOL    HW224036   4.062   0.550   6.391  1.6558 -0.9537  0.2262
 4192SOL     OW24037   4.417   1.976   1.368  0.1826 -0.1466 -0.3510
 4192SOL    HW124038   4.337   2.007   1.411  0.7666 -0.3084  0.8583
 4192SOL    HW224039   4.401   1.964   1.275  0.4644 -1.0332 -0.2860
 4193SOL     OW24040   1.960   4.704   5.884  0.0448 -0.2804  0.7859
 4193SOL    HW124041   2.021   4.643   5.926 -0.6720 -1.5400  0.0351
 4193SOL    HW224042   1.877   4.669   5.916  0.2108 -2.8167 -1.4985
 4194SOL     OW24043   2.011   3.598   2.254 -0.2275  0.9480 -0.4983
 4194SOL    HW124044   1.955   3.627   2.325  0.2326  0.1897  0.1711
 4194SOL    HW224045   1.975   3.509   2.246  2.6646 -0.2608  0.0856
 4195SOL     OW24046   0.362   1.997   9.991 -0.3521 -0.2346 -0.3241
 4195SOL    HW124047   0.296   1.956   9.935  1.5543 -0.3135 -2.4785
 4195SOL    HW224048   0.400   2.048   9.920 -1.0384 -1.3645 -1.4953
 4196SOL     OW24049   4.459   0.435   8.621 -0.0302  0.5029  0.2633
 4196SOL    HW124050   4.553   0.420   8.630 -0.6369 -2.4963  1.4183
 4196SOL    HW224051   4.413   0.385   8.688 -3.1537 -0.1125 -2.3436
 4197SOL     OW24052   0.903   2.420   2.388 -0.2653  0.1524  0.0744
 4197SOL    HW124053   0.906   2.327   2.365 -1.8055  0.1761 -0.2291
 4197SOL    HW224054   0.839   2.418   2.459 -1.0172 -1.6934 -0.6341
 4198SOL     OW24055   1.617   2.128   3.920  0.1027  0.2027 -0.4864
 4198SOL    HW124056   1.710   2.119   3.941  0.0501  0.3585 -0.1909
 4198SOL    HW224057   1.621   2.220   3.895 -0.8570  0.6922  1.1409
 4199SOL     OW24058   0.598   4.156   8.791  0.3774  0.3030  0.5265
 4199SOL    HW124059   0.530   4.219   8.765  0.5245  0.4725  0.5497
 4199SOL    HW224060   0.678   4.203   8.770 -0.2093  2.3365  2.8144
 4200SOL     OW24061   3.456   1.079   1.668  1.0240  0.0206  0.1481
 4200SOL    HW124062   3.537   1.087   1.618 -1.5024  2.4492 -3.5378
 4200SOL    HW224063   3.408   1.008   1.626 -2.3573  1.8115  0.9779
 4201SOL     OW24064   1.744   2.279   1.414 -0.1144  0.4382  0.4785
 4201SOL    HW124065   1.794   2.248   1.338 -0.3428  1.7221 -0.1997
 4201SOL    HW224066   1.810   2.273   1.483 -2.0809 -0.1780  2.2964
 4202SOL     OW24067   4.618   2.539   0.909  0.1328  0.2797  0.6054
 4202SOL    HW124068   4.609   2.448   0.881 -0.2491  1.1373 -2.0723
 4202SOL    HW224069   4.698   2.563   0.862  0.5140 -0.1745  1.0231
 4203SOL     OW24070   2.299   0.838   8.632  0.0951  0.6557  0.0137
 4203SOL    HW124071   2.366   0.784   8.673  0.1527  0.0698 -0.8400
 4203SOL    HW224072   2.294   0.915   8.687  2.3064  1.4672 -0.9185
 4204SOL     OW24073   2.212   4.181  10.374 -0.4643 -0.0532 -0.3652
 4204SOL    HW124074   2.204   4.170  10.279 -1.6859  1.1725 -0.4080
 4204SOL    HW224075   2.119   4.172  10.396  0.1269 -0.3629  1.9680
 4205SOL     OW24076   4.071   3.086  14.794 -0.0334 -0.0858  0.5477
 4205SOL    HW124077   4.148   3.121  14.748  1.7473 -2.2484  1.8651
 4205SOL    HW224078   4.030   3.053  14.714  3.2797 -0.5438 -1.0046
 4206SOL     OW24079   4.158   3.838   4.081  0.1748 -0.2617 -0.2398
 4206SOL    HW124080   4.212   3.911   4.051 -1.3516  1.8792  2.1869
 4206SOL    HW224081   4.185   3.826   4.173  1.4236 -1.6697 -0.7847
 4207SOL     OW24082   0.191   0.253   8.813 -0.4822 -0.1934  0.5395
 4207SOL    HW124083   0.132   0.180   8.793 -1.4314  0.9758 -0.9065
 4207SOL    HW224084   0.169   0.268   8.905  1.0170 -0.8687  0.9969
 4208SOL     OW24085   0.288   2.651   3.897 -0.0922 -0.3766  0.1976
 4208SOL    HW124086   0.368   2.703   3.898  0.6299 -1.5052  0.8362
 4208SOL    HW224087   0.237   2.696   3.829  1.4451  2.0272  0.6346
 4209SOL     OW24088   1.293   4.234   3.403  0.2858 -0.5967 -0.1956
 4209SOL    HW124089   1.301   4.163   3.339 -1.7196 -0.9522 -0.0460
 4209SOL    HW224090   1.312   4.191   3.487 -2.5110 -0.9048  0.2735
 4210SOL     OW24091   0.915   0.486  11.929 -0.1405 -0.1209  0.4703
 4210SOL    HW124092   0.904   0.391  11.926  0.0045 -0.0572 -3.1790
 4210SOL    HW224093   0.884   0.506  11.840 -0.5103 -2.5495  0.0599
 4211SOL     OW24094   2.936   4.013   6.356  0.1281 -0.0168  0.3422
 4211SOL    HW124095   2.901   4.032   6.268  1.1323  0.5253  0.0546
 4211SOL    HW224096   2.970   3.924   6.344  2.7362  0.7452  2.0860
 4212SOL     OW24097   3.171   1.810   2.566 -0.1487  0.0088  0.3616
 4212SOL    HW124098   3.227   1.735   2.586 -0.0708  0.1214  0.5608
 4212SOL    HW224099   3.180   1.823   2.472 -0.3555 -0.0075  0.3408
 4213SOL     OW24100   1.077   3.461   7.538 -0.0177  0.1059 -0.4298
 4213SOL    HW124101   1.059   3.376   7.497  1.4762  0.0996 -1.0406
 4213SOL    HW224102   0.997   3.512   7.522  0.2069  0.0207 -1.8647
 4214SOL     OW24103   0.016   4.631  12.112 -0.5799 -0.3693 -0.2474
 4214SOL    HW124104   0.105   4.595  12.116 -0.8287 -1.1927 -1.9742
 4214SOL    HW224105   4.711   4.655  12.200 -1.5952 -0.6742 -0.4981
 4215SOL     OW24106   0.620   0.990   3.457  0.0517  0.1841 -0.2633
 4215SOL    HW124107   0.571   0.940   3.524 -0.4218  1.5108  0.3852
 4215SOL    HW224108   0.697   1.021   3.505  1.1076  0.1753 -1.9885
 4216SOL     OW24109   0.194   4.321   7.059  0.0670  0.1656  0.1355
 4216SOL    HW124110   0.252   4.332   6.983  0.0786 -0.0136  0.1176
 4216SOL    HW224111   0.114   4.341   7.010 -0.8397 -1.2033  1.0520
 4217SOL     OW24112   4.645   4.538   4.693 -0.3337 -0.5522  0.0115
 4217SOL    HW124113   4.617   4.618   4.739  1.2048  0.6292 -1.0958
 4217SOL    HW224114   4.722   4.564   4.643  0.4430  1.4972  2.3110
 4218SOL     OW24115   1.538   2.595   9.298  0.3886 -0.4614 -0.0716
 4218SOL    HW124116   1.579   2.658   9.357  1.6807 -2.3028  1.0388
 4218SOL    HW224117   1.551   2.628   9.209 -1.2486 -1.3437 -0.6324
 4219SOL     OW24118   2.626   3.422   7.596 -0.2736  0.3958 -0.6055
 4219SOL    HW124119   2.617   3.365   7.672 -1.9313  0.6128 -0.6235
 4219SOL    HW224120   2.553   3.482   7.610  0.9572  1.8851 -0.6072
 4220SOL     OW24121   2.599   1.467  10.766 -0.0651  0.0482 -0.2394
 4220SOL    HW124122   2.606   1.434  10.676 -0.5039  1.4029 -0.7644
 4220SOL    HW224123   2.534   1.537  10.762 -1.3374 -0.9139  4.4227
 4221SOL     OW24124   2.108   4.107   8.807  0.0674  0.7384  0.2148
 4221SOL    HW124125   2.154   4.178   8.763 -1.7701  1.6153 -0.2812
 4221SOL    HW224126   2.070   4.158   8.878  0.7729  1.9199 -0.2543
 4222SOL     OW24127   2.845   2.631   9.975 -0.2309  0.0664  0.1808
 4222SOL    HW124128   2.914   2.595  10.031 -1.3265  0.3330  1.6967
 4222SOL    HW224129   2.803   2.554   9.937  2.5322 -2.2686  1.9243
 4223SOL     OW24130   2.121   3.003  13.165 -0.2726  0.4765 -0.3966
 4223SOL    HW124131   2.098   2.940  13.233 -1.0051 -0.2649 -1.3278
 4223SOL    HW224132   2.040   3.039  13.127 -0.1818  1.8588  0.7331
 4224SOL     OW24133   3.306   1.792   5.689  0.1117 -0.0080 -0.3799
 4224SOL    HW124134   3.296   1.806   5.595  0.8005  2.3200 -0.1084
 4224SOL    HW224135   3.401   1.782   5.694  0.1095  1.3651  2.3376
 4225SOL     OW24136   1.550   0.485  12.793 -0.2899 -0.0962 -0.0513
 4225SOL    HW124137   1.624   0.430  12.768 -0.5688  0.2470 -1.6032
 4225SOL    HW224138   1.597   0.560  12.829 -2.0717  1.6235 -1.3110
 4226SOL     OW24139   0.390   1.542   2.495 -0.4914  0.4855  0.8336
 4226SOL    HW124140   0.339   1.472   2.453 -1.3057  0.6143  1.6147
 4226SOL    HW224141   0.433   1.578   2.417  0.4690 -3.0782 -0.2582
 4227SOL     OW24142   3.533   2.898  16.303 -0.6250  0.2166  0.4237
 4227SOL    HW124143   3.539   2.955  16.380 -2.5791  0.3021  0.5214
 4227SOL    HW224144   3.440   2.876  16.307 -0.8033  0.8121 -0.3039
 4228SOL     OW24145   3.933   4.637   7.292 -0.3086  0.6496 -0.2139
 4228SOL    HW124146   4.003   4.588   7.249 -1.7867 -2.5352  0.9736
 4228SOL    HW224147   3.945   4.618   7.385  0.9749  1.0936 -0.2900
 4229SOL     OW24148   4.342   0.929  15.157  0.2613 -0.8570  0.1120
 4229SOL    HW124149   4.282   0.856  15.166 -1.6270  0.9016  1.7481
 4229SOL    HW224150   4.336   0.976  15.240 -0.1728  0.1366 -0.4780
 4230SOL     OW24151   2.109   2.027  15.193  0.2216 -0.3585  0.2215
 4230SOL    HW124152   2.110   1.944  15.145 -0.0412 -1.1569  1.6043
 4230SOL    HW224153   2.022   2.026  15.233 -0.7226 -0.9635 -1.8251
 4231SOL     OW24154   0.840   4.009   1.776  0.4471  0.1881 -1.0403
 4231SOL    HW124155   0.780   3.963   1.718 -0.4399  1.4327 -1.1083
 4231SOL    HW224156   0.797   4.023   1.860  3.3510  1.0640  0.2978
 4232SOL     OW24157   3.518   2.957   8.586  0.3582 -0.2636 -0.1453
 4232SOL    HW124158   3.586   2.958   8.519  0.0611 -1.8738 -0.4783
 4232SOL    HW224159   3.442   2.928   8.536 -1.0745  1.0073  1.2901
 4233SOL     OW24160   2.602   1.060   2.339 -0.1609 -0.6792  0.0166
 4233SOL    HW124161   2.657   1.018   2.273  0.2014 -1.7855  1.0198
 4233SOL    HW224162   2.646   1.146   2.341 -0.5663 -0.4441 -1.6006
 4234SOL     OW24163   1.141   0.730   4.567 -0.4388  0.1024  0.4449
 4234SOL    HW124164   1.071   0.669   4.589  0.3473 -0.5770  1.0970
 4234SOL    HW224165   1.216   0.682   4.602 -0.8948 -0.3269  0.8139
 4235SOL     OW24166   1.800   3.713   5.599 -0.4756  0.6153  0.1394
 4235SOL    HW124167   1.797   3.753   5.686 -3.1000 -1.3709  0.9619
 4235SOL    HW224168   1.888   3.740   5.573 -0.2838  0.3368  0.5001
 4236SOL     OW24169   4.083   3.606  13.664 -0.3491  0.3176  0.6063
 4236SOL    HW124170   4.111   3.644  13.581  2.7786  1.8615  2.3419
 4236SOL    HW224171   4.053   3.521  13.632  0.9606 -0.0924  0.4590
 4237SOL     OW24172   1.183   3.142   8.367  0.2990  0.2599  0.6568
 4237SOL    HW124173   1.196   3.136   8.461  0.8046 -1.5262  0.4789
 4237SOL    HW224174   1.144   3.058   8.342 -1.5674  1.1251  0.6791
 4238SOL     OW24175   2.732   2.026  13.328  0.4419 -0.4675  0.0860
 4238SOL    HW124176   2.662   1.961  13.331  0.8447 -0.9294 -0.5750
 4238SOL    HW224177   2.683   2.107  13.339 -0.7001 -1.0763 -0.5037
 4239SOL     OW24178   0.559   2.660   8.899  0.2230 -0.7166 -0.0363
 4239SOL    HW124179   0.471   2.691   8.878  0.7868  0.0371 -1.3124
 4239SOL    HW224180   0.540   2.612   8.979  1.9480 -2.0300 -0.3931
 4240SOL     OW24181   4.716   2.619   4.127 -0.2939  0.2076 -0.2732
 4240SOL    HW124182   0.021   2.710   4.134 -0.4264  0.2374 -0.1158
 4240SOL    HW224183   4.673   2.611   4.042 -2.2219  0.4497  0.6925
 4241SOL     OW24184   2.468   2.340  16.837  0.2363 -0.4611  0.7150
 4241SOL    HW124185   2.439   2.267  16.892  0.8786 -1.9915 -0.9730
 4241SOL    HW224186   2.497   2.295  16.757 -0.1811 -0.2206  0.4251
 4242SOL     OW24187   1.237   3.714   7.738  0.3121  0.7348  0.2619
 4242SOL    HW124188   1.159   3.678   7.780  0.2635  1.3378  0.6947
 4242SOL    HW224189   1.287   3.742   7.815  0.0602 -1.4761  1.2221
 4243SOL     OW24190   4.367   3.702   7.685  0.4343  0.5061  0.5310
 4243SOL    HW124191   4.274   3.699   7.710  0.2054 -1.6950 -0.5918
 4243SOL    HW224192   4.405   3.740   7.764 -0.2620  1.6100  0.3240
 4244SOL     OW24193   4.527   4.504   2.253 -0.1184  0.1194  0.3947
 4244SOL    HW124194   4.589   4.437   2.223  2.1458  2.8582 -1.0633
 4244SOL    HW224195   4.590   4.575   2.260  0.9666 -0.5597 -2.2751
 4245SOL     OW24196   3.509   2.278  13.790 -0.5773 -0.4070  0.5729
 4245SOL    HW124197   3.465   2.199  13.819 -1.4965 -0.4732 -1.0654
 4245SOL    HW224198   3.574   2.289  13.860  0.4804 -1.2699 -0.2718
 4246SOL     OW24199   1.927   3.043   6.927  0.3812  0.2955  0.3351
 4246SOL    HW124200   1.968   3.098   6.860 -0.8067  1.7523  0.8053
 4246SOL    HW224201   1.880   3.108   6.978 -1.1653 -0.5460  0.0019
 4247SOL     OW24202   1.229   0.586   7.916 -0.3209  0.1351 -0.0825
 4247SOL    HW124203   1.208   0.547   8.001  0.2965  1.0417  0.4883
 4247SOL    HW224204   1.294   0.649   7.946  0.6881 -1.7572  1.6956
 4248SOL     OW24205   0.860   1.175   6.147 -0.2197  0.2358  0.0798
 4248SOL    HW124206   0.801   1.177   6.222  1.3277  0.4746  1.2791
 4248SOL    HW224207   0.802   1.137   6.081 -0.4448  1.1220 -0.2338
 4249SOL     OW24208   1.689   1.957   6.176  0.1559 -0.2617  0.0575
 4249SOL    HW124209   1.596   1.970   6.159  0.4178  3.1200  1.4305
 4249SOL    HW224210   1.685   1.946   6.271 -0.2229  3.0029  0.3940
 4250SOL     OW24211   1.238   2.779  10.978 -0.3262  0.1338  0.5614
 4250SOL    HW124212   1.292   2.831  11.039 -2.3490  0.1922  2.2944
 4250SOL    HW224213   1.262   2.690  11.003  1.2772  0.4775  0.2967
 4251SOL     OW24214   1.177   0.621   4.894  0.6872 -0.4590  0.1996
 4251SOL    HW124215   1.220   0.563   4.957 -1.1153  0.5107  2.3569
 4251SOL    HW224216   1.164   0.553   4.829 -1.6605 -0.1003  0.2855
 4252SOL     OW24217   2.932   1.793   7.230 -0.6986 -0.7516 -0.7619
 4252SOL    HW124218   2.926   1.888   7.219  0.4480 -0.3220  2.0541
 4252SOL    HW224219   2.884   1.775   7.312  1.3619 -0.9106  0.4127
 4253SOL     OW24220   1.285   0.693   3.280 -0.2382 -0.4306  0.2072
 4253SOL    HW124221   1.233   0.712   3.359  1.2802 -0.9734  1.3383
 4253SOL    HW224222   1.319   0.607   3.305 -0.3163 -0.2238  1.0334
 4254SOL     OW24223   4.380   1.952   2.050  0.5422 -0.1902 -0.3403
 4254SOL    HW124224   4.307   1.891   2.066 -0.1142  0.3906 -1.1009
 4254SOL    HW224225   4.338   2.032   2.019 -1.4246 -1.1252 -0.0960
 4255SOL     OW24226   4.230   2.157   1.960 -0.3277  0.3435  0.2195
 4255SOL    HW124227   4.246   2.246   1.930  0.8946  0.3081  0.7868
 4255SOL    HW224228   4.183   2.117   1.886 -1.1812 -1.4960  1.7657
 4256SOL     OW24229   1.701   0.138   4.584  0.2931  0.2873 -0.0508
 4256SOL    HW124230   1.691   0.210   4.522  0.7957  1.2519  0.9842
 4256SOL    HW224231   1.726   0.173   4.669  1.3395  1.1139 -0.6949
 4257SOL     OW24232   3.908   0.459   7.800 -0.4524 -0.0923 -0.0185
 4257SOL    HW124233   3.880   0.550   7.808 -0.6394  0.0968 -2.7625
 4257SOL    HW224234   3.948   0.451   7.713 -0.0366 -0.2220  0.1843
 4258SOL     OW24235   3.963   0.977   8.674 -0.6003 -0.0931 -0.0183
 4258SOL    HW124236   3.962   0.882   8.687 -0.9072 -0.1635 -0.5552
 4258SOL    HW224237   4.014   1.000   8.752  0.7289 -4.1220  0.3219
 4259SOL     OW24238   0.687   2.077  16.609  0.3141  0.0655 -0.3310
 4259SOL    HW124239   0.661   1.986  16.593  1.5578 -0.2212 -0.6854
 4259SOL    HW224240   0.774   2.092  16.572 -0.3095  1.1852 -1.3481
 4260SOL     OW24241   2.299   1.305  10.737  0.3092 -0.6500 -0.0736
 4260SOL    HW124242   2.363   1.278  10.803 -0.8695 -1.6055  0.6780
 4260SOL    HW224243   2.297   1.230  10.679 -0.4203 -0.1897 -0.6376
 4261SOL     OW24244   3.659   1.597   1.904 -0.3160 -0.4949  1.1052
 4261SOL    HW124245   3.586   1.548   1.943 -0.8883 -1.9332 -1.7377
 4261SOL    HW224246   3.664   1.676   1.958  2.5276 -0.1643  0.3186
 4262SOL     OW24247   0.236   0.339   4.138  0.8006 -0.5754 -0.0932
 4262SOL    HW124248   0.282   0.286   4.202  0.3617  0.4160  1.0391
 4262SOL    HW224249   0.246   0.283   4.061 -2.2395 -1.2113 -0.0281
 4263SOL     OW24250   0.690   2.367  15.554 -0.5365  0.1682 -0.2082
 4263SOL    HW124251   0.655   2.334  15.472  1.6531  0.5688 -1.3109
 4263SOL    HW224252   0.773   2.319  15.559 -1.4829 -1.4341 -0.3308
 4264SOL     OW24253   1.162   3.330   5.309  0.3291  0.2121 -0.1563
 4264SOL    HW124254   1.232   3.315   5.245 -0.5880  1.3457 -1.4307
 4264SOL    HW224255   1.192   3.285   5.387  0.5429 -0.3359 -0.5527
 4265SOL     OW24256   1.942   4.107   1.797  0.0193  0.4344  0.8476
 4265SOL    HW124257   1.908   4.018   1.809 -1.8664  0.8709 -1.2975
 4265SOL    HW224258   1.934   4.137   1.888 -1.7690  1.1982  0.4359
 4266SOL     OW24259   2.626   1.903   4.646  0.1280 -0.8751 -0.5266
 4266SOL    HW124260   2.697   1.888   4.709 -0.4907 -0.1899  0.3291
 4266SOL    HW224261   2.574   1.828   4.672  0.8296 -1.2389 -0.1832
 4267SOL     OW24262   4.698   3.572   2.960 -0.3166 -0.5689  0.1213
 4267SOL    HW124263   0.019   3.496   2.921  0.0032  1.3057 -3.1452
 4267SOL    HW224264   4.681   3.541   3.049 -2.5578  0.0304 -0.0983
 4268SOL     OW24265   0.758   3.856  14.338 -0.1532  0.1964  0.7104
 4268SOL    HW124266   0.695   3.874  14.268  0.6538  0.8100  0.1425
 4268SOL    HW224267   0.829   3.916  14.313 -0.2293  0.2242  0.5607
 4269SOL     OW24268   0.074   1.069  15.376 -0.3591  0.2771 -0.1146
 4269SOL    HW124269   0.138   1.000  15.359 -0.9249 -0.2812  0.0217
 4269SOL    HW224270   4.723   1.033  15.328 -0.2568 -0.6924  0.4385
 4270SOL     OW24271   1.839   1.645   8.138  0.2515 -0.0733 -0.4251
 4270SOL    HW124272   1.871   1.603   8.059  0.7222  1.5587 -1.1050
 4270SOL    HW224273   1.864   1.575   8.199  0.0211 -0.1466 -0.4142
 4271SOL     OW24274   1.475   0.790   1.873 -0.2551 -0.0821  0.1142
 4271SOL    HW124275   1.473   0.732   1.797  1.5848 -2.1499  1.6463
 4271SOL    HW224276   1.440   0.874   1.842  0.8402  0.1016 -0.6430
 4272SOL     OW24277   0.323   3.365  10.108  0.1410  0.3306  0.1461
 4272SOL    HW124278   0.352   3.448  10.068 -1.5466  1.1625  0.6383
 4272SOL    HW224279   0.357   3.379  10.196  1.9639 -1.3293 -0.3053
 4273SOL     OW24280   2.790   4.553   3.008  0.2952  0.2498  0.7053
 4273SOL    HW124281   2.820   4.463   3.020 -0.1898 -0.0484 -0.3570
 4273SOL    HW224282   2.810   4.592   3.093  1.4713 -1.4891  1.2126
 4274SOL     OW24283   4.427   0.713   8.608 -0.6910 -0.0085  0.2405
 4274SOL    HW124284   4.434   0.728   8.513  1.9226  2.6414  0.8682
 4274SOL    HW224285   4.417   0.619   8.617  4.8656 -0.8346 -2.3759
 4275SOL     OW24286   1.047   2.046   8.745  0.2500  0.1148 -0.1470
 4275SOL    HW124287   0.988   2.094   8.803 -0.3915 -0.4659 -0.3184
 4275SOL    HW224288   1.122   2.105   8.739  0.2426  0.1305 -0.0810
 4276SOL     OW24289   0.877   1.605   9.084 -0.3517 -0.0066 -0.1166
 4276SOL    HW124290   0.790   1.566   9.085  0.5879 -2.1360 -0.6619
 4276SOL    HW224291   0.852   1.693   9.055  1.8159  0.4029 -0.7580
 4277SOL     OW24292   2.488   4.557   8.766  0.3958 -0.0676 -0.0623
 4277SOL    HW124293   2.459   4.648   8.768  0.1331 -0.1478 -0.3056
 4277SOL    HW224294   2.503   4.546   8.672 -0.7864 -1.7206 -0.0458
 4278SOL     OW24295   2.535   4.539   0.733  0.5028  0.0764 -0.3642
 4278SOL    HW124296   2.512   4.624   0.696 -1.4092 -0.1364  0.3349
 4278SOL    HW224297   2.464   4.479   0.712  0.2169  0.6740 -1.1034
 4279SOL     OW24298   2.137   0.317  11.821 -0.1770 -0.0185 -1.1292
 4279SOL    HW124299   2.156   0.242  11.876 -1.4500  0.5380  0.0642
 4279SOL    HW224300   2.173   0.383  11.880  1.9899 -2.4264  0.2233
 4280SOL     OW24301   2.309   0.951   0.290  0.3929  0.0904  0.2702
 4280SOL    HW124302   2.388   0.972   0.340 -0.4766  0.4571  1.4841
 4280SOL    HW224303   2.269   1.037   0.292 -1.4834 -0.7526 -0.6639
 4281SOL     OW24304   0.168   3.154  14.286  0.0385  0.5634 -0.1274
 4281SOL    HW124305   0.260   3.148  14.312 -1.0375  0.3807  3.6199
 4281SOL    HW224306   0.165   3.219  14.216  3.1554  0.2474 -0.5701
 4282SOL     OW24307   1.097   0.797  15.590 -0.9352  0.6504 -0.0487
 4282SOL    HW124308   1.179   0.780  15.636 -1.0341  0.9885  0.2571
 4282SOL    HW224309   1.044   0.723  15.620 -0.7342 -0.2358 -1.9197
 4283SOL     OW24310   3.631   1.555   3.361  0.3910  0.3557  0.1843
 4283SOL    HW124311   3.581   1.609   3.423  1.4773  1.1409  0.3729
 4283SOL    HW224312   3.585   1.471   3.354  2.2171 -0.6064 -0.0804
 4284SOL     OW24313   0.901   1.382   2.989  0.0453  0.5053  0.0697
 4284SOL    HW124314   0.881   1.475   3.005  0.2199  0.2554  1.8138
 4284SOL    HW224315   0.883   1.350   3.078  0.6942  2.4366  0.9082
 4285SOL     OW24316   3.472   2.382   5.725 -0.5373  0.0801 -0.4881
 4285SOL    HW124317   3.494   2.290   5.740 -0.5072  0.4260  1.5128
 4285SOL    HW224318   3.377   2.374   5.734 -0.1762 -2.0256  1.5222
 4286SOL     OW24319   4.461   4.456   2.832  0.3807  0.2218  0.1809
 4286SOL    HW124320   4.496   4.507   2.759 -0.1018 -2.9417 -2.2569
 4286SOL    HW224321   4.502   4.505   2.903 -1.4408 -0.8218  1.9715
 4287SOL     OW24322   0.489   0.798   4.710 -0.4813  0.7424 -0.3978
 4287SOL    HW124323   0.549   0.729   4.739 -0.0096  0.9449 -0.8813
 4287SOL    HW224324   0.415   0.739   4.694  3.1300 -3.9374 -0.1047
 4288SOL     OW24325   0.169   4.585  14.295  0.0485  0.1425 -0.1412
 4288SOL    HW124326   0.088   4.615  14.253  1.4508  2.3647 -1.2375
 4288SOL    HW224327   0.190   4.659  14.353  3.1106 -0.4266 -0.5339
 4289SOL     OW24328   4.668   0.383   6.860  1.0035 -0.9758  0.0346
 4289SOL    HW124329   0.033   0.400   6.890  1.4735 -1.0655 -1.3110
 4289SOL    HW224330   4.640   0.367   6.950 -1.0819  0.4292 -0.3497
 4290SOL     OW24331   2.820   0.506   7.696 -0.2532 -0.1968 -0.6662
 4290SOL    HW124332   2.801   0.498   7.603 -2.2668  0.4087 -0.3177
 4290SOL    HW224333   2.855   0.596   7.699 -0.9944  0.0407  0.7158
 4291SOL     OW24334   2.007   2.174   2.591 -0.3408 -0.2507 -0.0691
 4291SOL    HW124335   1.931   2.222   2.558 -0.8795 -0.7971  0.3790
 4291SOL    HW224336   1.958   2.095   2.614 -1.3496  0.2293 -0.5471
 4292SOL     OW24337   0.688   1.700   6.485  0.6437  0.3533 -0.1263
 4292SOL    HW124338   0.694   1.637   6.558  0.4295  0.9724  0.4254
 4292SOL    HW224339   0.781   1.724   6.486  0.6440  0.3362  1.8867
 4293SOL     OW24340   1.335   2.052   1.601 -0.5965  0.4447 -0.5397
 4293SOL    HW124341   1.330   2.140   1.563  0.1207  0.3536 -0.8350
 4293SOL    HW224342   1.241   2.042   1.619 -0.5839 -1.6456 -1.5615
 4294SOL     OW24343   1.867   2.663   6.660  0.0547  0.3190  0.1659
 4294SOL    HW124344   1.830   2.738   6.707 -1.5723 -0.6275  0.4245
 4294SOL    HW224345   1.782   2.634   6.627  0.1185  0.7639 -0.3838
 4295SOL     OW24346   2.687   0.396   0.835 -0.1141  0.4281 -0.2161
 4295SOL    HW124347   2.718   0.423   0.749 -0.1094 -0.4983 -0.5002
 4295SOL    HW224348   2.758   0.338   0.860  1.9350  2.8507 -0.4415
 4296SOL     OW24349   2.051   0.543   7.624 -0.2741 -0.4380 -0.4495
 4296SOL    HW124350   2.138   0.567   7.656 -0.5504 -1.3038  0.9515
 4296SOL    HW224351   2.004   0.618   7.589 -2.3390 -1.4730  0.1349
 4297SOL     OW24352   3.501   3.620   9.052 -0.0790 -0.4413  0.0243
 4297SOL    HW124353   3.589   3.606   9.016  0.0788 -0.4107  0.3889
 4297SOL    HW224354   3.515   3.698   9.106 -2.6630  1.2132 -1.7206
 4298SOL     OW24355   2.626   1.126   5.283  0.8163  0.4205 -0.1852
 4298SOL    HW124356   2.611   1.220   5.284  1.3550  0.5103 -0.4040
 4298SOL    HW224357   2.699   1.118   5.221  1.3963 -0.5361  0.6202
 4299SOL     OW24358   1.908   1.718   3.381  0.0561 -0.2129 -0.1618
 4299SOL    HW124359   1.902   1.623   3.391 -2.8436 -0.0824 -0.5103
 4299SOL    HW224360   2.001   1.730   3.362 -0.2711  2.3758 -0.0743
 4300SOL     OW24361   3.250   4.406   8.750  0.1829  0.0066  1.3702
 4300SOL    HW124362   3.273   4.348   8.823  2.2785 -1.3905 -0.4194
 4300SOL    HW224363   3.258   4.494   8.786 -1.4907  0.8273 -0.2894
 4301SOL     OW24364   4.353   0.874   0.329  0.5287 -0.4060  0.1064
 4301SOL    HW124365   4.281   0.896   0.389  0.5882 -1.1126  0.4367
 4301SOL    HW224366   4.352   0.954   0.276 -1.7626  0.9726  2.1910
 4302SOL     OW24367   2.446   3.112  12.098  0.2331 -0.4083 -0.1080
 4302SOL    HW124368   2.388   3.178  12.136  2.9708  0.4504  2.5418
 4302SOL    HW224369   2.511   3.162  12.049  2.0878 -4.2281 -1.5066
 4303SOL     OW24370   1.301   1.396   1.039  0.6907  0.5270  0.0591
 4303SOL    HW124371   1.335   1.313   1.005 -1.5722 -0.2212 -0.3981
 4303SOL    HW224372   1.325   1.386   1.131  0.1001  1.6410  0.3326
 4304SOL     OW24373   3.258   2.420  10.396 -0.1576  0.0777  0.5505
 4304SOL    HW124374   3.312   2.498  10.411 -1.3007  0.8261  0.7501
 4304SOL    HW224375   3.318   2.356  10.434 -0.0634  0.3251  0.8148
 4305SOL     OW24376   4.347   0.325  11.817 -0.2541  0.5539  0.4550
 4305SOL    HW124377   4.439   0.313  11.843 -1.3834 -1.5182  3.4918
 4305SOL    HW224378   4.312   0.241  11.789 -0.4290  0.3164  1.3917
 4306SOL     OW24379   2.223   2.639   2.601  0.4353 -0.4805  0.1116
 4306SOL    HW124380   2.155   2.690   2.645 -0.5288 -0.4227 -1.4945
 4306SOL    HW224381   2.210   2.679   2.515  0.5713  1.6202  1.0532
 4307SOL     OW24382   4.454   2.133   1.688 -0.0785  0.0144  0.0653
 4307SOL    HW124383   4.514   2.143   1.614 -0.5133  0.9037 -0.1668
 4307SOL    HW224384   4.446   2.219   1.730 -1.0525  0.3172 -0.7158
 4308SOL     OW24385   0.860   0.436   3.008 -0.1517  0.5087  0.6692
 4308SOL    HW124386   0.878   0.344   2.988 -3.4716 -0.4006  1.7446
 4308SOL    HW224387   0.882   0.442   3.101  2.1433 -0.5445  0.1919
 4309SOL     OW24388   0.751   2.903   7.326  0.7131  0.0947 -0.2920
 4309SOL    HW124389   0.663   2.866   7.320  0.4685  0.4808  1.0926
 4309SOL    HW224390   0.801   2.840   7.274 -0.4164 -0.6782 -0.4438
 4310SOL     OW24391   0.559   1.951   2.042 -0.0743 -0.3187  0.1739
 4310SOL    HW124392   0.634   1.995   2.081 -0.3595  0.0237  0.3368
 4310SOL    HW224393   0.508   1.912   2.113  0.7493 -0.9211  0.4302
 4311SOL     OW24394   1.586   4.688   2.717  0.3528 -0.5071 -0.3254
 4311SOL    HW124395   1.552   4.646   2.638  1.6214 -1.4425 -0.3811
 4311SOL    HW224396   1.539   0.048   2.717  1.6653  0.2199  0.7781
 4312SOL     OW24397   2.836   0.668  17.194 -0.0534 -0.2260  0.0464
 4312SOL    HW124398   2.746   0.651  17.168 -0.7904 -0.8878  3.0339
 4312SOL    HW224399   2.869   0.684  17.105 -1.2235  0.0479 -0.3265
 4313SOL     OW24400   2.728   0.926   4.535 -0.0052  0.6009  0.6671
 4313SOL    HW124401   2.663   0.926   4.465  0.5046  1.2020  0.1883
 4313SOL    HW224402   2.726   0.836   4.566 -1.5084  0.4040 -0.0166
 4314SOL     OW24403   3.524   2.127   3.247 -0.3086 -1.0597  0.2395
 4314SOL    HW124404   3.436   2.142   3.283  0.1138  3.0141 -0.4766
 4314SOL    HW224405   3.577   2.170   3.314 -0.0105 -0.2756 -0.5007
 4315SOL     OW24406   1.769   2.723  12.321  0.8747 -0.4814 -0.4374
 4315SOL    HW124407   1.840   2.671  12.359  0.9849 -0.1065 -0.1352
 4315SOL    HW224408   1.805   2.811  12.310 -1.5367  0.8924  2.7109
 4316SOL     OW24409   3.884   3.721  12.459  0.3888  0.2068 -0.3134
 4316SOL    HW124410   3.960   3.668  12.480 -1.3395 -2.6913 -1.3738
 4316SOL    HW224411   3.876   3.773  12.540 -0.4065 -2.3356  1.2490
 4317SOL     OW24412   0.811   0.409   4.909  0.1502 -0.3936 -0.3525
 4317SOL    HW124413   0.895   0.382   4.871 -0.8346 -1.3102 -1.8293
 4317SOL    HW224414   0.754   0.334   4.896 -0.7652  0.3872 -0.8576
 4318SOL     OW24415   2.117   2.148   3.419  0.0132  0.2347 -0.3324
 4318SOL    HW124416   2.148   2.206   3.349  0.6163  0.0026 -0.2534
 4318SOL    HW224417   2.066   2.091   3.361 -1.5945  0.9255  0.3879
 4319SOL     OW24418   2.038   2.659   6.438  0.4930  0.0247  0.0320
 4319SOL    HW124419   1.987   2.669   6.519 -1.4404 -0.2455 -1.1438
 4319SOL    HW224420   2.021   2.741   6.392  2.7436 -0.1468 -1.0774
 4320SOL     OW24421   3.123   0.067   8.900  0.3031  0.0260 -0.0187
 4320SOL    HW124422   3.072   0.145   8.923  0.1988  0.2961 -1.1772
 4320SOL    HW224423   3.059   4.723   8.877  0.9124 -0.4908 -0.1682
 4321SOL     OW24424   2.013   1.233   3.896  0.7343 -0.0144  0.1597
 4321SOL    HW124425   2.097   1.197   3.869  1.7612  0.6618  2.5471
 4321SOL    HW224426   2.025   1.229   3.991 -1.2361 -0.0159  0.4180
 4322SOL     OW24427   0.697   0.697   9.244 -0.1793  0.4317 -0.0059
 4322SOL    HW124428   0.719   0.635   9.313 -1.3182 -0.8660 -0.8036
 4322SOL    HW224429   0.737   0.655   9.168  0.6119  0.3598  0.4612
 4323SOL     OW24430   4.089   3.341  13.512 -0.5839 -0.0557 -0.0030
 4323SOL    HW124431   4.120   3.286  13.441 -1.4636 -1.7009  0.8890
 4323SOL    HW224432   4.042   3.279  13.568 -0.0711  0.7239  1.2953
 4324SOL     OW24433   3.315   3.996  14.517  0.7049  0.0536 -0.0189
 4324SOL    HW124434   3.394   4.035  14.553 -1.1904  2.3723  1.5462
 4324SOL    HW224435   3.260   3.988  14.595  1.2289  0.9645  0.4392
 4325SOL     OW24436   3.911   3.594   5.978  0.2887 -0.1301 -0.2864
 4325SOL    HW124437   3.985   3.654   5.985 -0.8085  1.2610 -0.7985
 4325SOL    HW224438   3.856   3.645   5.918 -0.2482 -0.1764  0.1601
 4326SOL     OW24439   0.114   3.378   9.777  0.3901  0.1526 -0.3101
 4326SOL    HW124440   0.127   3.473   9.784  0.1102  0.0264  1.8707
 4326SOL    HW224441   0.075   3.365   9.863  0.7426 -0.5585 -0.2563
 4327SOL     OW24442   2.611   2.650  14.737 -0.3498  0.2723 -0.4377
 4327SOL    HW124443   2.532   2.608  14.772  0.1818 -0.1110  0.2890
 4327SOL    HW224444   2.626   2.701  14.817  3.7777  0.2327 -1.1884
 4328SOL     OW24445   3.809   2.611  11.426  0.1662 -0.3377  0.4511
 4328SOL    HW124446   3.891   2.623  11.379  0.0535 -0.9517  0.0985
 4328SOL    HW224447   3.752   2.572  11.360  1.1754  2.8469 -2.2763
 4329SOL     OW24448   4.590   0.424   1.333 -0.3255 -0.4636 -0.3835
 4329SOL    HW124449   4.626   0.479   1.402  0.4565 -0.6713 -0.6308
 4329SOL    HW224450   4.646   0.346   1.341  0.2976  0.1936  1.4868
 4330SOL     OW24451   2.989   2.606   4.680  0.5743 -0.1461  0.0945
 4330SOL    HW124452   2.917   2.619   4.618 -2.5695 -1.4434  3.4748
 4330SOL    HW224453   2.975   2.670   4.750 -3.9416  0.4323 -1.3042
 4331SOL     OW24454   3.189   1.220   3.256 -0.0747 -0.3602 -0.2456
 4331SOL    HW124455   3.222   1.209   3.345  0.4557  1.4551 -0.2147
 4331SOL    HW224456   3.125   1.291   3.265 -0.5823 -0.9494  0.7834
 4332SOL     OW24457   1.784   1.708   0.916 -0.6391  0.5145 -0.1265
 4332SOL    HW124458   1.730   1.641   0.874 -0.8728 -0.7162  2.1421
 4332SOL    HW224459   1.732   1.721   0.995 -1.0889 -1.3009 -0.1296
 4333SOL     OW24460   3.745   1.905   5.201 -0.4250  0.2274  0.1452
 4333SOL    HW124461   3.796   1.972   5.246 -1.0409 -0.1429  1.4004
 4333SOL    HW224462   3.791   1.884   5.120 -1.5888 -0.4894 -0.3299
 4334SOL     OW24463   2.933   0.671   0.892 -0.3634 -0.2933 -0.3579
 4334SOL    HW124464   2.955   0.735   0.825  3.3384 -0.7327  0.4274
 4334SOL    HW224465   2.955   0.584   0.859 -1.4312 -1.0145  0.8171
 4335SOL     OW24466   0.733   1.782   7.476 -0.0674  0.4185 -0.0537
 4335SOL    HW124467   0.783   1.862   7.458 -1.3740  1.4493  0.9398
 4335SOL    HW224468   0.655   1.800   7.423 -0.2774 -3.1387 -1.0108
 4336SOL     OW24469   1.480   4.345  14.065  0.7197 -0.3275 -0.1888
 4336SOL    HW124470   1.477   4.408  14.138  3.8169  0.5649 -0.8080
 4336SOL    HW224471   1.387   4.325  14.063  0.3555  1.4184 -0.2578
 4337SOL     OW24472   0.969   1.780   6.433 -0.0670  0.0286 -0.1791
 4337SOL    HW124473   0.963   1.769   6.338  5.9695 -1.1171 -0.4340
 4337SOL    HW224474   1.025   1.702   6.441  0.6984  0.3572 -2.4268
 4338SOL     OW24475   2.770   2.574   3.215 -0.2511 -0.7143  0.2926
 4338SOL    HW124476   2.682   2.558   3.181 -0.5513  0.4624  0.5085
 4338SOL    HW224477   2.756   2.660   3.254  1.2782  0.9959 -2.8701
 4339SOL     OW24478   1.737   3.065   2.822  0.3845 -0.1496  0.6343
 4339SOL    HW124479   1.677   3.132   2.854  1.0100  1.8271 -2.3252
 4339SOL    HW224480   1.666   3.017   2.778  0.6018 -0.3401  0.4938
 4340SOL     OW24481   0.183   2.838   3.538 -0.2532 -0.3362 -0.4549
 4340SOL    HW124482   0.277   2.826   3.546 -0.0010 -0.3845 -3.4438
 4340SOL    HW224483   0.147   2.808   3.622  0.5956 -0.1337 -0.0239
 4341SOL     OW24484   3.845   2.458   3.323 -0.1449 -0.1001 -0.7038
 4341SOL    HW124485   3.786   2.532   3.341  0.5582 -0.0529  1.3076
 4341SOL    HW224486   3.858   2.475   3.229  1.1021 -1.2737 -0.7429
 4342SOL     OW24487   4.668   2.338   2.712  0.2581  0.0661 -0.1314
 4342SOL    HW124488   4.678   2.384   2.796 -0.9890 -1.5787  0.9284
 4342SOL    HW224489   4.572   2.338   2.711  0.2323  0.6294  1.0759
 4343SOL     OW24490   3.461   4.077   5.853  0.6742  0.2324  0.2779
 4343SOL    HW124491   3.530   4.100   5.916 -0.2934 -2.3029  2.2152
 4343SOL    HW224492   3.406   4.155   5.862  0.9107  0.3380  0.7963
 4344SOL     OW24493   0.614   2.913  16.129  0.2742 -0.2291 -0.3238
 4344SOL    HW124494   0.623   2.882  16.038 -1.2207  0.2474 -0.6279
 4344SOL    HW224495   0.578   2.838  16.177 -0.9202 -0.0433 -0.9482
 4345SOL     OW24496   1.606   4.258  15.100 -0.3977 -0.6508 -0.1087
 4345SOL    HW124497   1.543   4.247  15.172  0.6647  0.4943  0.9877
 4345SOL    HW224498   1.536   4.270  15.036 -0.0704  0.1890 -0.3065
 4346SOL     OW24499   3.718   3.263   3.039 -0.3795 -0.0234  0.1381
 4346SOL    HW124500   3.765   3.346   3.033 -0.0427 -0.2473 -0.3580
 4346SOL    HW224501   3.783   3.200   3.069  1.0971  0.7711 -1.4228
 4347SOL     OW24502   1.603   1.946   5.102 -0.5375 -0.3406 -0.5209
 4347SOL    HW124503   1.654   1.918   5.026  1.1317  1.0818  0.0837
 4347SOL    HW224504   1.629   2.038   5.106 -0.8027 -0.1550 -3.2943
 4348SOL     OW24505   3.446   2.468   4.718 -0.3520  0.2456  0.0763
 4348SOL    HW124506   3.507   2.407   4.676 -1.8716 -0.8496 -0.5157
 4348SOL    HW224507   3.501   2.510   4.784  0.5996 -0.5334 -0.2193
 4349SOL     OW24508   2.699   0.831   8.383 -0.4076  0.5564 -0.2462
 4349SOL    HW124509   2.725   0.923   8.390 -1.5336  1.0307 -2.3621
 4349SOL    HW224510   2.699   0.816   8.478  0.1670  2.4956  0.0542
 4350SOL     OW24511   2.267   4.444   3.216  0.7368 -0.0902 -0.0442
 4350SOL    HW124512   2.208   4.408   3.150  0.8970  0.3584 -0.4376
 4350SOL    HW224513   2.265   4.380   3.286  1.9127  0.3738  0.4012
 4351SOL     OW24514   0.460   1.192   0.493 -0.2111 -0.5054  0.2835
 4351SOL    HW124515   0.389   1.141   0.453  1.2020 -0.3428 -2.3792
 4351SOL    HW224516   0.515   1.118   0.518 -0.1738 -0.0697  1.5128
 4352SOL     OW24517   4.670   3.517   6.000 -0.2782 -0.1660  0.0266
 4352SOL    HW124518   4.636   3.476   5.920 -1.3864  4.0620 -1.6478
 4352SOL    HW224519   0.038   3.515   5.972 -0.7365  0.6760 -1.5291
 4353SOL     OW24520   1.587   0.005   3.621  0.4679  0.5687  0.1673
 4353SOL    HW124521   1.654   4.677   3.666  0.0531 -1.2278 -1.2419
 4353SOL    HW224522   1.633   0.043   3.546 -1.0082 -0.7708 -1.4268
 4354SOL     OW24523   4.660   3.101   1.308 -0.3185 -0.1975 -0.1585
 4354SOL    HW124524   4.722   3.091   1.380  1.7433  1.5624 -1.6505
 4354SOL    HW224525   4.627   3.188   1.333  0.4789  0.4504 -1.3376
 4355SOL     OW24526   3.999   4.375   3.764 -0.0358 -0.0866  0.2262
 4355SOL    HW124527   3.992   4.464   3.796  3.0687  0.2671 -0.0848
 4355SOL    HW224528   4.026   4.328   3.843 -0.8091 -0.4381  0.2881
 4356SOL     OW24529   3.158   3.015   4.666 -0.0052 -0.0090  0.1888
 4356SOL    HW124530   3.235   2.986   4.715  1.3996  0.4949 -1.7313
 4356SOL    HW224531   3.190   3.023   4.576 -2.1060 -1.2119 -0.6577
 4357SOL     OW24532   4.122   1.318   7.790  0.4584  0.2393 -0.5336
 4357SOL    HW124533   4.165   1.286   7.869 -1.3372  0.9560  0.7141
 4357SOL    HW224534   4.053   1.252   7.776  1.5433 -1.1907  0.8221
 4358SOL     OW24535   2.533   3.009   7.863 -0.2334  0.0309 -0.1674
 4358SOL    HW124536   2.615   2.961   7.865  0.1050  0.6390  0.6513
 4358SOL    HW224537   2.561   3.100   7.850  1.1956 -0.1557  1.6300
 4359SOL     OW24538   1.228   4.287   9.823 -0.6419  0.7220  0.2206
 4359SOL    HW124539   1.174   4.219   9.784  3.1879 -1.0731 -1.9812
 4359SOL    HW224540   1.238   4.248   9.910 -0.3947  2.8851  1.1532
 4360SOL     OW24541   1.282   2.706   5.158 -0.0905 -0.5441  0.3944
 4360SOL    HW124542   1.289   2.801   5.167 -4.1074 -0.5540  3.8778
 4360SOL    HW224543   1.208   2.687   5.216 -0.1266 -2.7097 -0.3718
 4361SOL     OW24544   4.168   0.712  12.148 -0.5794  0.0555  0.1938
 4361SOL    HW124545   4.220   0.645  12.103 -0.1689  1.2068 -1.0414
 4361SOL    HW224546   4.099   0.739  12.088 -0.3625 -2.5138 -1.2476
 4362SOL     OW24547   3.241   2.976   6.267  0.0153 -0.3462  0.3213
 4362SOL    HW124548   3.321   3.025   6.248  1.2392 -1.1675  3.3461
 4362SOL    HW224549   3.188   3.056   6.266  0.2750 -0.1670  0.5557
 4363SOL     OW24550   2.805   3.741   7.219  0.6294 -0.1378 -0.1316
 4363SOL    HW124551   2.737   3.681   7.249  1.5836 -1.1523 -0.0253
 4363SOL    HW224552   2.886   3.690   7.213  0.1953 -0.7002 -1.0631
 4364SOL     OW24553   2.346   1.094  10.557  0.3334  0.1272 -0.1068
 4364SOL    HW124554   2.349   1.077  10.463  1.3186  0.0167 -0.0555
 4364SOL    HW224555   2.339   1.003  10.585 -1.6983 -0.2246 -1.7211
 4365SOL     OW24556   4.284   4.293   7.282  0.1540 -0.1469 -0.1606
 4365SOL    HW124557   4.345   4.358   7.317  2.0764 -2.8442  1.5531
 4365SOL    HW224558   4.231   4.281   7.361 -0.3798  0.4078 -0.4370
 4366SOL     OW24559   0.225   1.350  12.745  0.1691 -0.3300 -0.1322
 4366SOL    HW124560   0.265   1.289  12.683  1.1186  2.0417 -1.8594
 4366SOL    HW224561   0.215   1.284  12.813 -0.9268  0.5986  0.5925
 4367SOL     OW24562   0.136   2.260   1.831  0.2252 -0.3845  0.0486
 4367SOL    HW124563   0.226   2.285   1.850  0.4051  1.0610 -2.7323
 4367SOL    HW224564   0.146   2.218   1.746 -0.0871  2.9944 -1.6820
 4368SOL     OW24565   0.549   3.286   4.801  0.0466 -0.4739  1.3221
 4368SOL    HW124566   0.557   3.318   4.891 -1.0671  0.2608  1.1673
 4368SOL    HW224567   0.544   3.191   4.812  1.2162 -1.1311 -3.5459
 4369SOL     OW24568   1.672   1.777   1.149  0.2924 -0.3965 -0.2795
 4369SOL    HW124569   1.690   1.724   1.226  0.1346 -0.5971 -0.3814
 4369SOL    HW224570   1.625   1.854   1.181  0.9387  0.3645 -1.1596
 4370SOL     OW24571   3.241   0.733   7.902  0.4334 -0.5568 -0.1054
 4370SOL    HW124572   3.252   0.764   7.812 -0.4377  1.6261  0.5344
 4370SOL    HW224573   3.188   0.656   7.885  3.1103 -1.8331 -2.6154
 4371SOL     OW24574   3.811   1.254  13.427 -0.6762 -0.8698  0.2894
 4371SOL    HW124575   3.811   1.303  13.345  1.4810  0.2193  0.9487
 4371SOL    HW224576   3.784   1.320  13.491 -0.9521  0.3179 -1.0483
 4372SOL     OW24577   4.324   2.968   5.473 -0.1075  0.0191  0.1726
 4372SOL    HW124578   4.232   2.977   5.447  0.3227  0.0483 -1.3453
 4372SOL    HW224579   4.327   2.879   5.509 -1.2943 -1.2735 -2.9153
 4373SOL     OW24580   3.751   2.100  10.075 -0.4839 -0.0551 -0.2026
 4373SOL    HW124581   3.700   2.027  10.109 -1.8181  1.1428  0.3797
 4373SOL    HW224582   3.712   2.128   9.993  0.2580 -0.7265 -0.7835
 4374SOL     OW24583   0.230   0.506   5.033 -0.5697  0.2784  0.2633
 4374SOL    HW124584   0.319   0.540   5.038 -0.3589 -0.2106 -0.0823
 4374SOL    HW224585   0.185   0.585   5.004  2.5200  1.6905 -0.7120
 4375SOL     OW24586   3.991   0.511  14.453 -0.1213  0.1482 -0.0810
 4375SOL    HW124587   4.031   0.567  14.386  0.8442 -0.8527 -0.3396
 4375SOL    HW224588   4.072   0.483  14.495  1.2517  1.4676 -1.8016
 4376SOL     OW24589   1.476   1.633  11.532 -0.2207 -0.1669  0.3485
 4376SOL    HW124590   1.455   1.665  11.620  2.4187  0.0272  0.8880
 4376SOL    HW224591   1.436   1.698  11.475  3.1956  2.1667  0.6792
 4377SOL     OW24592   0.057   1.132   6.750  0.0741 -0.3877 -0.4134
 4377SOL    HW124593   0.029   1.153   6.661 -0.0238 -0.4980 -0.4092
 4377SOL    HW224594   0.131   1.189   6.770 -0.4490  0.8616 -2.0150
 4378SOL     OW24595   3.850   1.749   8.712 -0.1187 -0.0308 -0.2372
 4378SOL    HW124596   3.897   1.740   8.629 -0.9130 -1.0105 -0.5809
 4378SOL    HW224597   3.837   1.657   8.732  2.3835  0.2880  2.9202
 4379SOL     OW24598   2.251   4.382   2.714 -0.5163  0.1471 -0.1794
 4379SOL    HW124599   2.180   4.439   2.742 -0.2991 -0.2206  1.0867
 4379SOL    HW224600   2.316   4.411   2.778  0.5515 -2.0635 -0.2329
 4380SOL     OW24601   2.058   1.930   8.981 -0.0647 -0.3371 -0.5282
 4380SOL    HW124602   2.037   1.964   9.068  3.1429  1.5170 -0.4952
 4380SOL    HW224603   1.997   1.856   8.976 -2.0225  1.4019 -2.9218
 4381SOL     OW24604   4.044   0.140  10.065 -0.2536  0.2351  0.7190
 4381SOL    HW124605   4.131   0.179  10.060 -0.1004 -0.1825  0.1954
 4381SOL    HW224606   4.073   0.053  10.093  0.9220  0.2562 -0.4938
 4382SOL     OW24607   1.465   2.037   4.850 -0.3417  0.1941 -0.2305
 4382SOL    HW124608   1.513   2.076   4.924  1.1037  1.2696 -1.7366
 4382SOL    HW224609   1.521   1.965   4.823  1.1530  0.2485  2.7646
 4383SOL     OW24610   1.140   3.017   6.543  0.0376  0.3142  0.1030
 4383SOL    HW124611   1.184   3.040   6.625  1.4879  0.7159 -0.7865
 4383SOL    HW224612   1.125   3.104   6.505  1.9579  1.0548  1.0528
 4384SOL     OW24613   1.975   3.433   5.623  0.0704 -0.6252  0.3038
 4384SOL    HW124614   1.950   3.515   5.666 -2.5608 -1.3877  0.2369
 4384SOL    HW224615   1.949   3.457   5.534  2.3044 -1.7682 -0.6555
 4385SOL     OW24616   3.448   1.563  17.210  0.2017  0.7089  0.4243
 4385SOL    HW124617   3.400   1.489  17.172  1.8622 -0.5530  0.8098
 4385SOL    HW224618   3.528   1.520  17.241  1.1241  1.9393 -0.2731
 4386SOL     OW24619   1.441   1.921  12.306  0.0785 -0.1240  0.2396
 4386SOL    HW124620   1.389   1.996  12.276 -2.4191 -2.6360 -1.6801
 4386SOL    HW224621   1.514   1.925  12.244  0.8184  0.3312  1.1402
 4387SOL     OW24622   1.685   4.258  13.534  0.4482 -0.1524  0.1725
 4387SOL    HW124623   1.704   4.166  13.519  1.7133  0.3136 -1.0984
 4387SOL    HW224624   1.628   4.279  13.460 -1.2939 -0.2235  1.4820
 4388SOL     OW24625   3.204   1.158   8.256 -0.3206 -0.7081 -0.2867
 4388SOL    HW124626   3.245   1.075   8.279 -0.2298 -0.6469 -0.2254
 4388SOL    HW224627   3.273   1.200   8.203 -0.9282  2.2456  1.2640
 4389SOL     OW24628   1.259   3.553   7.367  0.2038 -0.3177  0.1323
 4389SOL    HW124629   1.184   3.521   7.417 -0.0737  2.2846  1.4043
 4389SOL    HW224630   1.278   3.482   7.305  1.6354 -0.5654  0.8461
 4390SOL     OW24631   4.554   2.555   6.382 -0.9145 -0.4349  0.0569
 4390SOL    HW124632   4.625   2.492   6.392  0.2006  0.9205  0.6730
 4390SOL    HW224633   4.599   2.639   6.387 -0.6537 -0.5021 -1.1216
 4391SOL     OW24634   1.873   4.400   4.343  0.3930  0.5964 -0.7630
 4391SOL    HW124635   1.894   4.453   4.420  1.1128 -2.6797  1.2791
 4391SOL    HW224636   1.935   4.327   4.347 -0.7433 -0.2456  1.2344
 4392SOL     OW24637   1.366   3.773   7.490  0.1462 -0.4213  0.3161
 4392SOL    HW124638   1.328   3.692   7.457 -0.7549 -0.2991  1.0570
 4392SOL    HW224639   1.334   3.766   7.580 -2.3886  0.1208 -0.5511
 4393SOL     OW24640   2.840   1.849  11.065 -0.1758 -0.3070  0.0360
 4393SOL    HW124641   2.841   1.767  11.016  0.0957  1.0915 -2.2874
 4393SOL    HW224642   2.771   1.898  11.020  0.8567  0.1484 -1.0465
 4394SOL     OW24643   1.563   0.768   2.132  0.0000  0.0868  0.1035
 4394SOL    HW124644   1.620   0.844   2.143 -1.5099  1.2513 -0.2798
 4394SOL    HW224645   1.544   0.776   2.039  1.4070  1.1331 -0.1049
 4395SOL     OW24646   1.213   0.212   6.523 -0.8797 -0.1039 -0.2898
 4395SOL    HW124647   1.139   0.155   6.547  1.5925 -4.2798 -2.5656
 4395SOL    HW224648   1.163   0.257   6.454  3.4617  0.2663 -3.2244
 4396SOL     OW24649   2.227   1.944   4.665 -0.0404  0.4298  0.2532
 4396SOL    HW124650   2.258   1.908   4.583 -2.0649 -0.4570 -0.1207
 4396SOL    HW224651   2.202   1.867   4.717 -0.0124  0.7625  0.7600
 4397SOL     OW24652   4.528   1.556   6.003 -0.1515 -0.0197  0.0636
 4397SOL    HW124653   4.590   1.618   6.041  0.3522  0.1003 -0.9574
 4397SOL    HW224654   4.450   1.561   6.058 -0.8458  0.3323 -0.9549
 4398SOL     OW24655   0.801   2.643   9.951  0.1189  0.1455  0.1577
 4398SOL    HW124656   0.730   2.696   9.987  0.7529  1.3571 -0.4076
 4398SOL    HW224657   0.818   2.569  10.009 -1.7750  0.2613  0.8539
 4399SOL     OW24658   1.314   0.015  11.282 -0.1040  0.5746  0.5344
 4399SOL    HW124659   1.268   0.080  11.228 -1.0885 -1.0067 -0.5194
 4399SOL    HW224660   1.385   0.070  11.315 -1.1400 -0.3508  4.2397
 4400SOL     OW24661   4.332   3.402   9.349  0.2939  0.1442 -0.2596
 4400SOL    HW124662   4.347   3.481   9.296  0.1503 -0.3771 -1.0757
 4400SOL    HW224663   4.285   3.434   9.427 -1.2467 -1.5274 -0.5273
 4401SOL     OW24664   2.036   1.524   7.241 -0.1076 -0.6933  0.1472
 4401SOL    HW124665   2.044   1.533   7.336 -0.5312 -1.3358  0.2453
 4401SOL    HW224666   2.035   1.428   7.237 -0.5676 -0.7146  0.8240
 4402SOL     OW24667   2.587   0.868   1.711  0.4018  0.1311  0.1676
 4402SOL    HW124668   2.580   0.862   1.807 -0.0207  0.1700  0.1392
 4402SOL    HW224669   2.529   0.797   1.684 -1.5749  2.0221 -0.6089
 4403SOL     OW24670   3.832   1.241   2.977  0.2092 -0.4007 -0.0525
 4403SOL    HW124671   3.792   1.154   2.978 -2.2009  0.7233 -0.0572
 4403SOL    HW224672   3.925   1.219   2.988  0.3710  1.1634  1.7346
 4404SOL     OW24673   0.169   3.847   4.605  0.6655  0.4007  0.3656
 4404SOL    HW124674   0.198   3.798   4.682  0.3393 -1.2184 -0.5448
 4404SOL    HW224675   0.085   3.870   4.646 -0.5319 -3.7445  0.2067
 4405SOL     OW24676   0.344   2.243   4.684  0.2061  0.1757 -0.1301
 4405SOL    HW124677   0.334   2.259   4.590 -1.1019 -2.1072 -0.3808
 4405SOL    HW224678   0.266   2.283   4.723 -0.2591 -1.0822  0.2465
 4406SOL     OW24679   4.227   3.813  13.729  0.5005 -0.3073 -0.3304
 4406SOL    HW124680   4.156   3.752  13.708  1.2770 -0.8007 -1.5457
 4406SOL    HW224681   4.280   3.807  13.649 -1.7511  3.5374 -2.1093
 4407SOL     OW24682   2.102   1.663   6.341 -0.0296 -0.1459 -0.2342
 4407SOL    HW124683   2.035   1.728   6.320 -1.1191 -1.1040  0.2581
 4407SOL    HW224684   2.118   1.625   6.254  0.2021  0.0118 -0.2594
 4408SOL     OW24685   4.047   0.862  16.538  0.1257  0.1316 -0.1402
 4408SOL    HW124686   4.030   0.923  16.466  0.4713  1.5846  0.9940
 4408SOL    HW224687   4.008   0.895  16.619  1.7397 -0.1870  0.7899
 4409SOL     OW24688   2.791   3.799   3.195  0.1361 -0.1910 -1.3420
 4409SOL    HW124689   2.748   3.875   3.232  1.5979 -0.3327  0.6026
 4409SOL    HW224690   2.759   3.806   3.104  2.0858 -2.3702 -2.1928
 4410SOL     OW24691   0.674   1.380   8.858  0.1715  0.2510 -0.4742
 4410SOL    HW124692   0.734   1.306   8.857  0.8276  0.8042 -1.3260
 4410SOL    HW224693   0.678   1.420   8.945  1.6495 -1.9227  0.4472
 4411SOL     OW24694   3.816   3.045   3.810 -0.1358 -0.4508 -0.0129
 4411SOL    HW124695   3.736   3.067   3.762  0.0492  1.6845  0.6320
 4411SOL    HW224696   3.798   3.078   3.898  0.3624 -0.3312  0.0413
 4412SOL     OW24697   3.236   1.588  17.418 -0.0536 -0.0800 -0.0923
 4412SOL    HW124698   3.321   1.543  17.416 -0.0379 -0.0698  0.2482
 4412SOL    HW224699   3.195   1.539  17.347 -1.0844  0.0256  0.4307
 4413SOL     OW24700   1.683   3.180   2.228 -0.6339 -0.5287 -0.1575
 4413SOL    HW124701   1.704   3.106   2.285  0.6871 -1.4521 -1.8616
 4413SOL    HW224702   1.622   3.129   2.174  1.0732 -1.6537 -0.9874
 4414SOL     OW24703   3.546   3.899  16.027  0.2585 -0.3404 -0.5646
 4414SOL    HW124704   3.627   3.924  16.072  0.3994  0.8329 -1.4891
 4414SOL    HW224705   3.496   3.847  16.090 -1.1359  1.0979 -0.4972
 4415SOL     OW24706   1.568   2.627   7.853  0.0431  0.4445 -0.2336
 4415SOL    HW124707   1.497   2.620   7.790  0.5692  0.4361 -0.8180
 4415SOL    HW224708   1.612   2.543   7.844  0.6063  0.4380  2.4280
 4416SOL     OW24709   2.847   1.472  13.217  0.6052 -0.0569 -0.0662
 4416SOL    HW124710   2.858   1.547  13.159  3.1326 -1.0131 -0.8281
 4416SOL    HW224711   2.820   1.409  13.151  0.1712  2.0309 -1.8833
 4417SOL     OW24712   4.664   4.383   8.719  0.1711  0.2375 -0.1975
 4417SOL    HW124713   4.720   4.414   8.790  2.1604 -2.2185 -0.6700
 4417SOL    HW224714   4.579   4.391   8.764 -0.8190 -2.2153 -1.6220
 4418SOL     OW24715   0.178   1.923  13.204 -1.1340  0.1378 -0.2432
 4418SOL    HW124716   0.178   1.901  13.111 -0.0946  0.4005 -0.3007
 4418SOL    HW224717   0.094   1.879  13.219 -0.8174 -1.0919 -1.9910
 4419SOL     OW24718   3.062   4.397   8.550  0.3905  0.1675 -0.3421
 4419SOL    HW124719   3.111   4.404   8.632  0.8721 -0.1025 -0.6038
 4419SOL    HW224720   2.975   4.414   8.586  0.8982 -0.6509  1.2898
 4420SOL     OW24721   1.562   3.086   7.092 -0.2142  0.1197 -0.0749
 4420SOL    HW124722   1.490   3.064   7.151  0.3786 -0.8508  0.2895
 4420SOL    HW224723   1.621   3.118   7.161 -0.0050  0.3424 -0.3592
 4421SOL     OW24724   4.113   4.631   1.179 -0.1758 -0.2763  0.5397
 4421SOL    HW124725   4.095   4.542   1.209  1.1262 -0.7331 -0.0022
 4421SOL    HW224726   4.058   4.671   1.246 -0.6242 -0.4579  0.2814
 4422SOL     OW24727   4.478   1.881   7.409 -0.1328  0.2607  0.1599
 4422SOL    HW124728   4.425   1.842   7.478  1.7744 -1.2942  0.7505
 4422SOL    HW224729   4.406   1.929   7.369  0.0175 -1.0706 -1.7051
 4423SOL     OW24730   4.245   1.476   4.588  0.5509 -0.2538  0.1075
 4423SOL    HW124731   4.221   1.384   4.585  0.7739 -0.3008 -0.1815
 4423SOL    HW224732   4.233   1.514   4.501 -1.0094  4.2189  2.2692
 4424SOL     OW24733   1.875   1.151  16.804 -0.0750 -0.6912  0.4135
 4424SOL    HW124734   1.887   1.161  16.709 -0.8684  0.0013  0.3867
 4424SOL    HW224735   1.836   1.064  16.813 -1.8283 -0.0058 -0.5341
 4425SOL     OW24736   1.099   1.128  15.481  0.3562  0.1574  0.0461
 4425SOL    HW124737   1.092   1.033  15.484 -2.7070  0.4015  0.5085
 4425SOL    HW224738   1.089   1.154  15.573 -0.5041  0.0200 -0.0089
 4426SOL     OW24739   2.126   4.336   8.474  0.5491 -0.6578  0.1153
 4426SOL    HW124740   2.166   4.257   8.436 -0.3039 -0.7467 -0.6134
 4426SOL    HW224741   2.189   4.395   8.433 -1.2782  0.0223 -1.6991
 4427SOL     OW24742   3.850   3.002   6.771  0.6648 -0.6534  0.2521
 4427SOL    HW124743   3.828   3.019   6.862 -2.0036  1.1244 -0.7390
 4427SOL    HW224744   3.789   2.931   6.753  0.5813 -0.5421  0.0978
 4428SOL     OW24745   0.151   2.111   1.563 -0.5202 -0.1216 -0.2660
 4428SOL    HW124746   0.062   2.114   1.525 -1.3897  2.8816  1.9826
 4428SOL    HW224747   0.144   2.019   1.589  0.3441  0.1280  0.8493
 4429SOL     OW24748   4.425   1.867   6.905 -0.2888  0.4698 -0.3957
 4429SOL    HW124749   4.408   1.799   6.971 -0.4380  0.6737 -0.2253
 4429SOL    HW224750   4.387   1.944   6.946 -0.5645 -0.0043  0.2401
 4430SOL     OW24751   1.173   0.166  13.951  0.2651 -0.5553  0.4473
 4430SOL    HW124752   1.190   0.239  13.892  1.2532  0.3570  1.8625
 4430SOL    HW224753   1.252   0.156  14.004  0.2887 -2.2341  0.0977
 4431SOL     OW24754   2.313   4.340   3.898  0.4171  0.5617 -0.4163
 4431SOL    HW124755   2.377   4.338   3.969  0.8736 -2.1049 -0.8905
 4431SOL    HW224756   2.342   4.415   3.846  2.4083  0.7143  0.9307
 4432SOL     OW24757   1.633   3.072   4.521 -0.0388  0.1129  0.3680
 4432SOL    HW124758   1.670   3.008   4.582 -0.9394 -0.1832  0.6043
 4432SOL    HW224759   1.658   3.033   4.438 -2.3180  2.3027 -1.3117
 4433SOL     OW24760   0.190   4.084   3.148 -0.8009 -0.7321 -0.2506
 4433SOL    HW124761   0.254   4.087   3.219  1.0677 -1.7615 -1.8732
 4433SOL    HW224762   0.175   3.989   3.150 -0.1740 -0.8267  0.1590
 4434SOL     OW24763   3.103   2.953   6.008 -0.2214  0.1933  0.7321
 4434SOL    HW124764   3.072   3.037   6.041 -0.8775 -0.4452  1.7827
 4434SOL    HW224765   3.090   2.901   6.088  0.3159 -2.3875 -0.8524
 4435SOL     OW24766   0.813   4.265   2.199 -0.1724  0.2024  0.6385
 4435SOL    HW124767   0.834   4.214   2.277 -0.6419  0.0227  0.6521
 4435SOL    HW224768   0.773   4.345   2.233  0.8424  0.8708  0.2793
 4436SOL     OW24769   3.628   0.912   5.647  0.4128  0.0254  0.1679
 4436SOL    HW124770   3.625   1.002   5.679  0.9526 -0.0740  0.5054
 4436SOL    HW224771   3.706   0.886   5.697  0.1805  1.9653  1.5144
 4437SOL     OW24772   4.712   2.971   1.739  0.1438 -0.6317 -0.4363
 4437SOL    HW124773   0.005   2.983   1.832 -3.2399  0.9820 -0.0428
 4437SOL    HW224774   0.023   2.884   1.720  0.0183 -0.4690 -1.4409
 4438SOL     OW24775   4.679   0.105  10.771 -0.3181 -0.7984  0.0511
 4438SOL    HW124776   4.595   0.076  10.805 -0.9582  1.0274  0.0526
 4438SOL    HW224777   4.654   0.131  10.682 -0.4426 -0.7941  0.0876
 4439SOL     OW24778   3.052   0.504   5.341  0.2596  0.9815 -0.3060
 4439SOL    HW124779   3.117   0.572   5.358 -0.7355  1.1556  2.7148
 4439SOL    HW224780   3.057   0.453   5.421 -0.1861  1.2069 -0.1314
 4440SOL     OW24781   4.655   4.094   5.767  0.6655  0.0955 -0.4751
 4440SOL    HW124782   4.652   4.054   5.854 -3.2709  1.3992  0.0099
 4440SOL    HW224783   0.025   4.110   5.771  0.4390  1.1021  0.9547
 4441SOL     OW24784   4.708   0.781  11.700  0.0906  0.4324  0.0176
 4441SOL    HW124785   4.689   0.734  11.782 -1.1481  0.7736 -0.0831
 4441SOL    HW224786   4.664   0.719  11.642 -1.1919  1.5340 -0.1815
 4442SOL     OW24787   0.860   0.430   9.200 -0.2375 -0.4676  0.2222
 4442SOL    HW124788   0.834   0.478   9.279 -0.1340 -2.9684  1.7632
 4442SOL    HW224789   0.837   0.489   9.128 -2.5992 -0.9103  0.6046
 4443SOL     OW24790   4.522   3.826  10.120  0.5834 -0.0701 -0.1390
 4443SOL    HW124791   4.492   3.823  10.211  1.2185  0.9018  0.1022
 4443SOL    HW224792   4.458   3.769  10.078  0.3183  1.7090 -2.1185
 4444SOL     OW24793   2.396   3.416   6.864 -0.4323  0.2043  0.0307
 4444SOL    HW124794   2.471   3.367   6.896 -0.3710  0.6412  0.5686
 4444SOL    HW224795   2.418   3.506   6.888  0.6882 -0.0187 -0.1583
 4445SOL     OW24796   0.090   2.720   1.663  0.0284 -0.0413  0.4353
 4445SOL    HW124797   0.061   2.629   1.666 -1.5244  0.3336 -2.8402
 4445SOL    HW224798   0.141   2.714   1.744  1.5226  0.3601 -0.4847
 4446SOL     OW24799   1.518   0.339   6.801  0.2273 -0.0653  0.4978
 4446SOL    HW124800   1.557   0.256   6.773  2.2355  0.6885  1.0473
 4446SOL    HW224801   1.506   0.385   6.717  2.6000  0.5661  0.4925
 4447SOL     OW24802   0.361   1.378   7.811 -1.1107 -0.0736  0.2321
 4447SOL    HW124803   0.318   1.384   7.896 -1.4596  1.7083 -0.0753
 4447SOL    HW224804   0.429   1.316   7.836 -2.0085 -0.7307  1.0591
 4448SOL     OW24805   2.482   2.907   5.714 -0.2620 -0.5490  0.1741
 4448SOL    HW124806   2.395   2.868   5.712 -0.2251 -0.6449  0.6386
 4448SOL    HW224807   2.517   2.909   5.625 -1.3231 -1.5528 -0.2624
 4449SOL     OW24808   3.640   1.044  16.344 -0.4687  0.4768 -0.3302
 4449SOL    HW124809   3.718   1.027  16.292  0.8866 -1.4639  2.3368
 4449SOL    HW224810   3.633   0.964  16.397 -1.1653 -0.0990 -1.3133
 4450SOL     OW24811   4.466   2.983   6.858  0.0434  0.3038 -0.1011
 4450SOL    HW124812   4.410   2.928   6.914  2.0321 -0.3901  1.1805
 4450SOL    HW224813   4.446   2.951   6.770 -0.8367 -1.3110  0.6719
 4451SOL     OW24814   0.538   2.089   2.348 -0.1455 -0.3208  0.2816
 4451SOL    HW124815   0.611   2.080   2.286 -0.9515  0.1734 -0.7341
 4451SOL    HW224816   0.481   2.014   2.332  0.6009 -0.6643 -0.7875
 4452SOL     OW24817   4.118   4.618  10.117 -0.2741 -0.1995 -0.3232
 4452SOL    HW124818   4.109   4.529  10.083 -0.4265 -1.1816  2.2522
 4452SOL    HW224819   4.088   4.598  10.206 -2.5617 -0.4296 -1.1416
 4453SOL     OW24820   2.948   4.503   6.580 -0.2723 -0.4186 -0.4722
 4453SOL    HW124821   2.905   4.437   6.524 -0.4272 -0.6120 -0.1292
 4453SOL    HW224822   3.030   4.465   6.612 -0.3867 -0.9094 -0.7593
 4454SOL     OW24823   3.619   4.229   5.593  0.1549 -0.0962 -0.2511
 4454SOL    HW124824   3.626   4.288   5.668  0.0543 -0.5679  0.1259
 4454SOL    HW224825   3.645   4.143   5.626  0.9020 -0.5241 -1.9534
 4455SOL     OW24826   2.064   1.347  10.045 -0.1438 -0.2261  0.1534
 4455SOL    HW124827   2.035   1.431  10.082 -0.6839  0.8609 -2.7042
 4455SOL    HW224828   2.009   1.342   9.967  1.1825  0.4353 -0.8188
 4456SOL     OW24829   0.772   2.953   4.049 -0.4372 -0.3260  0.2106
 4456SOL    HW124830   0.816   3.038   4.056 -0.0704 -0.4858 -0.1747
 4456SOL    HW224831   0.770   2.935   3.955 -3.1962  0.6930  0.0484
 4457SOL     OW24832   3.685   3.057  17.402  0.1725 -0.7379 -0.3178
 4457SOL    HW124833   3.761   3.015  17.444  0.9474 -1.9457 -2.9508
 4457SOL    HW224834   3.665   3.007  17.323  1.6298  0.3725 -1.3844
 4458SOL     OW24835   4.558   0.944   5.109  0.4892 -0.7392  0.2289
 4458SOL    HW124836   4.485   0.964   5.169 -0.7782  2.7611 -2.4826
 4458SOL    HW224837   4.623   0.948   5.179  0.7295 -1.5969  0.0574
 4459SOL     OW24838   0.879   3.371   9.841  0.2796 -0.2483  0.2374
 4459SOL    HW124839   0.949   3.433   9.858  0.1931  0.1781 -0.9930
 4459SOL    HW224840   0.898   3.313   9.914 -1.5272 -1.2831 -0.1043
 4460SOL     OW24841   0.495   2.874   9.139 -0.3982 -0.3071 -0.0504
 4460SOL    HW124842   0.505   2.922   9.221  0.2642 -0.8199  0.1645
 4460SOL    HW224843   0.432   2.805   9.162  1.3707 -2.4264 -1.5906
 4461SOL     OW24844   3.665   3.296   8.430  0.5951 -0.0395 -0.0661
 4461SOL    HW124845   3.590   3.354   8.423  1.5817  1.0895 -1.2140
 4461SOL    HW224846   3.631   3.219   8.383  0.8180 -0.0302 -0.2455
 4462SOL     OW24847   2.766   4.675   0.847 -0.1575  0.0117  0.6197
 4462SOL    HW124848   2.685   4.625   0.854  0.4939 -1.5030 -2.6579
 4462SOL    HW224849   2.810   4.681   0.932  2.2625  0.2938 -0.6446
 4463SOL     OW24850   0.599   0.610   4.864  0.2452 -0.1125 -0.3855
 4463SOL    HW124851   0.559   0.630   4.948  0.5116  0.8592 -0.4861
 4463SOL    HW224852   0.693   0.596   4.878  0.4728 -1.1579 -2.8325
 4464SOL     OW24853   0.288   0.715   2.923  0.1703  0.2391 -0.1271
 4464SOL    HW124854   0.294   0.799   2.877 -0.2085  0.7035  0.6760
 4464SOL    HW224855   0.215   0.735   2.981  2.0161  0.1548  2.1976
 4465SOL     OW24856   3.356   1.604   2.465 -0.1406 -0.1392 -0.3625
 4465SOL    HW124857   3.383   1.658   2.391 -0.0078  1.6950  1.0292
 4465SOL    HW224858   3.311   1.528   2.428  0.9599 -2.2967  2.7670
 4466SOL     OW24859   3.130   4.333   6.085  0.3086 -0.3849  0.2685
 4466SOL    HW124860   3.085   4.416   6.069  0.8740  0.1563  1.4392
 4466SOL    HW224861   3.189   4.359   6.156 -0.4516 -1.5515  1.3303
 4467SOL     OW24862   4.191   0.024   7.489 -0.0105 -0.4622 -0.0534
 4467SOL    HW124863   4.165   0.098   7.435  0.8292  0.7090  1.1479
 4467SOL    HW224864   4.250   0.077   7.543 -0.6672  0.5767 -0.3570
 4468SOL     OW24865   2.307   1.458   3.664 -0.3195  0.1323 -0.2753
 4468SOL    HW124866   2.355   1.436   3.744 -1.4903 -3.0722 -0.4278
 4468SOL    HW224867   2.225   1.476   3.710  1.1336 -0.0551  2.3664
 4469SOL     OW24868   0.902   3.277   5.249 -0.0390 -0.4621 -0.2682
 4469SOL    HW124869   0.994   3.286   5.274 -0.0859 -0.1173 -0.2098
 4469SOL    HW224870   0.899   3.189   5.212  1.0566 -0.5661 -0.1076
 4470SOL     OW24871   3.308   1.779  16.894 -0.1084 -0.4115  0.5015
 4470SOL    HW124872   3.293   1.844  16.825  3.1062 -0.3628 -0.1509
 4470SOL    HW224873   3.397   1.802  16.921 -0.3570 -0.4368  1.3199
 4471SOL     OW24874   3.933   3.338   7.903  0.0584 -0.0136  0.0574
 4471SOL    HW124875   3.854   3.374   7.944 -0.2522  0.3501 -0.8440
 4471SOL    HW224876   3.897   3.364   7.818  0.2314  1.5863  0.4756
 4472SOL     OW24877   1.536   3.594  14.568 -0.6919 -0.4855 -0.4109
 4472SOL    HW124878   1.554   3.504  14.542  0.3844 -0.0434 -1.1892
 4472SOL    HW224879   1.570   3.583  14.656 -1.6407  2.8690  0.3880
 4473SOL     OW24880   1.893   2.179   1.202 -0.5664 -0.3656  0.1544
 4473SOL    HW124881   1.976   2.139   1.230 -1.4251 -0.8965  1.9088
 4473SOL    HW224882   1.910   2.272   1.189 -1.7622  0.2611  3.1333
 4474SOL     OW24883   0.900   0.346   6.509 -0.1186 -0.1717 -0.8520
 4474SOL    HW124884   0.859   0.260   6.498 -0.2508 -0.3512  0.9451
 4474SOL    HW224885   0.872   0.406   6.440 -2.2125 -0.8689 -0.6225
 4475SOL     OW24886   0.760   1.462   4.834  0.3051  0.2432 -0.1892
 4475SOL    HW124887   0.713   1.395   4.885 -1.2638 -0.8206 -3.0607
 4475SOL    HW224888   0.847   1.424   4.820  0.4119  0.2468  0.4680
 4476SOL     OW24889   4.716   3.205   6.362 -0.2476  0.0265 -0.2055
 4476SOL    HW124890   4.672   3.136   6.311 -1.1971 -0.2423  0.9832
 4476SOL    HW224891   4.676   3.285   6.328  0.6422  0.5744  0.0527
 4477SOL     OW24892   3.145   4.189   8.406  0.5638  0.1303 -0.7236
 4477SOL    HW124893   3.116   4.271   8.445 -3.4549 -0.3479 -2.7735
 4477SOL    HW224894   3.161   4.146   8.491  2.2334  1.1746 -0.5077
 4478SOL     OW24895   2.492   1.520   7.964 -0.3477  0.1835 -0.1463
 4478SOL    HW124896   2.488   1.491   8.055 -2.0267  0.6032 -0.0868
 4478SOL    HW224897   2.546   1.600   7.966  0.1439 -0.0876 -2.3136
 4479SOL     OW24898   2.877   3.362  11.364 -0.0810 -0.0961 -0.5524
 4479SOL    HW124899   2.959   3.381  11.411 -0.7981  1.9727 -0.1257
 4479SOL    HW224900   2.847   3.448  11.335  1.4118 -0.0253 -1.8576
 4480SOL     OW24901   1.735   1.577  11.528  0.5311 -0.1189 -0.6740
 4480SOL    HW124902   1.640   1.593  11.523  0.4918 -0.0590  0.3096
 4480SOL    HW224903   1.775   1.659  11.502  0.0926  1.2212  2.9792
 4481SOL     OW24904   1.638   4.404   5.859 -0.4091  0.5764 -0.2258
 4481SOL    HW124905   1.596   4.353   5.791  1.1091 -0.8697 -0.0730
 4481SOL    HW224906   1.560   4.435   5.905 -1.2249  2.5320 -2.9184
 4482SOL     OW24907   0.599   4.226   8.087  0.0305 -0.9006  0.2094
 4482SOL    HW124908   0.576   4.165   8.157  0.2508 -0.2487  0.8520
 4482SOL    HW224909   0.690   4.235   8.112 -0.0772 -0.0277  0.2853
 4483SOL     OW24910   1.747   1.856   4.898 -0.0449 -0.0971  0.8931
 4483SOL    HW124911   1.783   1.873   4.811  1.8874 -0.0282  1.7123
 4483SOL    HW224912   1.792   1.776   4.921 -2.3219 -2.1993 -2.0233
 4484SOL     OW24913   2.850   0.688   5.067  0.0900  0.3986 -0.7143
 4484SOL    HW124914   2.945   0.686   5.063  0.1094 -1.2941  0.9625
 4484SOL    HW224915   2.840   0.687   5.162  0.3372  0.5058 -0.6879
 4485SOL     OW24916   3.947   2.745   8.650  0.1369  0.0236  0.4353
 4485SOL    HW124917   3.851   2.742   8.653  0.1278  0.4830  0.7164
 4485SOL    HW224918   3.963   2.719   8.741  0.9876  0.8517  0.5146
 4486SOL     OW24919   3.604   3.027  16.530  0.3153 -0.4362  0.3249
 4486SOL    HW124920   3.571   3.111  16.560  2.3385  0.5024 -0.0691
 4486SOL    HW224921   3.622   2.979  16.611 -2.4943 -2.3184 -0.1478
 4487SOL     OW24922   4.215   0.391   0.574 -0.0615  0.4545  0.2850
 4487SOL    HW124923   4.245   0.478   0.548  3.5130 -0.6685  0.6021
 4487SOL    HW224924   4.186   0.410   0.664  0.3300 -0.8966  0.7023
 4488SOL     OW24925   2.342   0.498   6.739 -0.1973 -1.0170 -0.0160
 4488SOL    HW124926   2.276   0.557   6.776  0.6323 -1.2047  1.7165
 4488SOL    HW224927   2.345   0.524   6.647 -1.1311  0.0937  0.2667
 4489SOL     OW24928   0.013   2.113   9.201  0.3309  0.5952  0.2946
 4489SOL    HW124929   4.686   2.093   9.280 -1.3807 -0.3860 -1.0489
 4489SOL    HW224930   0.100   2.133   9.235  1.0499 -0.7381 -0.7365
 4490SOL     OW24931   1.814   2.871   0.913  0.5981  0.2598 -0.1166
 4490SOL    HW124932   1.788   2.824   0.992  0.0099 -3.0728 -2.3116
 4490SOL    HW224933   1.906   2.849   0.905  0.8981  1.6300 -0.3622
 4491SOL     OW24934   0.135   2.822   4.884 -0.3283 -0.0783 -0.5547
 4491SOL    HW124935   0.187   2.865   4.816  0.0602 -1.8718 -1.4054
 4491SOL    HW224936   0.176   2.735   4.883  1.0691  0.5906 -1.0632
 4492SOL     OW24937   2.040   3.956   9.613  0.4048  0.6318 -0.1659
 4492SOL    HW124938   2.010   4.043   9.585  0.6470  0.8859  0.3738
 4492SOL    HW224939   1.981   3.898   9.566  2.3166  0.2353 -2.1370
 4493SOL     OW24940   0.206   4.212   0.179  0.6903 -0.0762  0.1660
 4493SOL    HW124941   0.248   4.188   0.262  0.8752 -0.8996 -0.1696
 4493SOL    HW224942   0.267   4.194   0.108  0.7373  0.4583  0.0692
 4494SOL     OW24943   4.557   2.282  12.153 -0.2136  0.0847  0.2645
 4494SOL    HW124944   4.561   2.317  12.064  0.0448  0.9242  0.6121
 4494SOL    HW224945   4.647   2.277  12.184 -0.3781  0.3493  0.7777
 4495SOL     OW24946   2.811   3.163   7.243 -0.1045 -0.2873  0.4243
 4495SOL    HW124947   2.772   3.148   7.329 -1.9177 -2.6096 -0.7821
 4495SOL    HW224948   2.758   3.226   7.195  0.9676 -0.8563 -1.5130
 4496SOL     OW24949   2.702   2.936   0.193 -0.3079  0.0273 -0.4885
 4496SOL    HW124950   2.641   2.895   0.133 -1.0091  0.1729  0.1213
 4496SOL    HW224951   2.784   2.907   0.153 -0.5401 -2.6055  0.9441
 4497SOL     OW24952   0.813   0.461  16.353  0.8504  0.0630  0.0937
 4497SOL    HW124953   0.805   0.554  16.372  1.2060  0.5198 -1.9358
 4497SOL    HW224954   0.901   0.437  16.381  0.3787 -0.0649  1.4684
 4498SOL     OW24955   0.287   2.259   9.333 -0.5930 -0.0913  0.6629
 4498SOL    HW124956   0.275   2.164   9.331  0.8230 -0.2534  0.0910
 4498SOL    HW224957   0.373   2.270   9.373 -0.7212  2.1542  0.3114
 4499SOL     OW24958   1.947   0.439  10.042  0.2970  0.6362  0.2090
 4499SOL    HW124959   1.940   0.509  10.107  4.3128  0.0124  1.3546
 4499SOL    HW224960   1.890   0.479   9.976  0.2052  1.7068  0.9238
 4500SOL     OW24961   4.609   2.661   8.826 -0.1282 -0.3406 -0.4064
 4500SOL    HW124962   4.656   2.578   8.820  0.0063 -0.4222  1.7424
 4500SOL    HW224963   4.648   2.713   8.756  3.5541 -2.7881 -0.1599
 4501SOL     OW24964   4.371   3.926   7.994  0.5810 -0.9004 -0.4403
 4501SOL    HW124965   4.354   3.966   7.909  2.4850 -0.2319 -0.5043
 4501SOL    HW224966   4.378   4.003   8.050  0.8697  1.2043 -3.3851
 4502SOL     OW24967   1.562   1.622  10.888 -0.2337 -0.3937 -0.1042
 4502SOL    HW124968   1.520   1.573  10.959 -0.4939  1.7426  1.2315
 4502SOL    HW224969   1.619   1.560  10.844  1.4700  0.7591  0.4877
 4503SOL     OW24970   2.328   1.621  14.909 -0.6036 -0.0544  0.4791
 4503SOL    HW124971   2.311   1.668  14.827 -0.0272  1.1413  1.0356
 4503SOL    HW224972   2.321   1.527  14.892  0.8283 -0.3345  1.4525
 4504SOL     OW24973   2.564   0.604   1.912 -0.1440 -0.0691 -0.0649
 4504SOL    HW124974   2.486   0.657   1.930 -0.9922 -0.6058 -2.1720
 4504SOL    HW224975   2.602   0.619   1.998 -1.9220  1.4210  0.4748
 4505SOL     OW24976   2.191   2.103   7.877 -0.6575 -0.3448  0.0350
 4505SOL    HW124977   2.276   2.134   7.846 -1.1214 -0.7771 -1.6647
 4505SOL    HW224978   2.189   2.152   7.959 -3.2735 -0.1888 -0.1134
 4506SOL     OW24979   1.401   3.330  15.020  0.0205  0.1826  0.3711
 4506SOL    HW124980   1.323   3.336  14.965  1.9203  0.0801 -2.3459
 4506SOL    HW224981   1.392   3.420  15.052  0.9742  0.5669 -0.4324
 4507SOL     OW24982   1.169   3.502   3.556 -0.0078  0.6788  0.2932
 4507SOL    HW124983   1.082   3.539   3.570 -0.2917 -0.0943  0.6230
 4507SOL    HW224984   1.199   3.527   3.469  1.8511 -0.9983  0.4501
 4508SOL     OW24985   3.196   4.614   7.046 -0.1891  0.4506 -0.1454
 4508SOL    HW124986   3.249   4.541   7.013  1.3358  0.7868  1.5923
 4508SOL    HW224987   3.145   4.582   7.120 -0.5753  0.2071 -0.5086
 4509SOL     OW24988   0.751   0.123   3.475 -0.0967  0.5757  0.2690
 4509SOL    HW124989   0.730   0.205   3.430 -0.1881  0.0817 -0.5993
 4509SOL    HW224990   0.842   0.116   3.447  0.4415 -2.1318  2.6465
 4510SOL     OW24991   0.089   2.460   8.077  0.0363 -0.1323  0.5268
 4510SOL    HW124992   0.157   2.446   8.144 -1.7518 -2.2491  1.8757
 4510SOL    HW224993   0.084   2.555   8.080  2.6085  0.0084  0.3273
 4511SOL     OW24994   3.289   3.607   5.154  0.0516  0.3892  0.5953
 4511SOL    HW124995   3.347   3.549   5.204  0.1154  0.5169  0.6695
 4511SOL    HW224996   3.231   3.540   5.119  0.3506  1.1116 -1.2626
 4512SOL     OW24997   0.130   2.048  10.252  0.1116 -0.7321  0.2012
 4512SOL    HW124998   0.052   2.088  10.291 -0.2243 -0.1565 -1.0603
 4512SOL    HW224999   0.168   2.127  10.214 -1.2134  0.8590  2.1898
 4513SOL     OW25000   2.861   1.373  10.689  0.3185  0.6108 -0.1573
 4513SOL    HW125001   2.829   1.359  10.778 -0.4120 -1.8470 -0.8123
 4513SOL    HW225002   2.787   1.345  10.634  0.0746  4.0897 -1.6173
 4514SOL     OW25003   4.313   3.148   9.245  0.2927 -0.1232  0.2024
 4514SOL    HW125004   4.328   3.234   9.285 -2.0814  1.3311 -1.9851
 4514SOL    HW225005   4.402   3.115   9.255  0.4380  0.5276  1.0080
 4515SOL     OW25006   2.749   2.342   7.007  0.2329 -0.2000  0.6937
 4515SOL    HW125007   2.768   2.400   6.933 -0.7318 -1.8473 -0.8619
 4515SOL    HW225008   2.812   2.272   6.989  0.8960  0.5499  0.0887
 4516SOL     OW25009   3.040   0.947   3.396 -0.4132 -0.1077  0.1620
 4516SOL    HW125010   3.071   0.979   3.481 -1.9962 -1.8429  1.3905
 4516SOL    HW225011   2.963   0.995   3.366  1.2814  3.9952  2.4785
 4517SOL     OW25012   4.312   1.434   7.634 -0.2684  0.2742 -0.7068
 4517SOL    HW125013   4.252   1.376   7.680 -0.9285  0.9738 -0.6742
 4517SOL    HW225014   4.294   1.397   7.548 -0.0475 -0.1060 -0.5866
 4518SOL     OW25015   4.604   3.909   4.634  0.2623  0.3584  0.4923
 4518SOL    HW125016   4.524   3.869   4.602 -0.6101  1.3650  1.4054
 4518SOL    HW225017   4.622   3.969   4.562  0.0096  0.8273  0.8180
 4519SOL     OW25018   3.499   1.956   7.547  0.3992  0.9730  0.1531
 4519SOL    HW125019   3.448   1.938   7.626 -0.6185 -1.7625 -1.0884
 4519SOL    HW225020   3.458   1.894   7.487  0.2680  0.9399  0.2773
 4520SOL     OW25021   0.452   3.233   9.800 -0.1821  0.4428 -0.0395
 4520SOL    HW125022   0.378   3.198   9.850 -0.4643 -0.2237 -0.9273
 4520SOL    HW225023   0.409   3.296   9.742  0.0887  0.0998 -0.6167
 4521SOL     OW25024   4.409   4.381   6.656  0.1922  0.5083  0.1261
 4521SOL    HW125025   4.315   4.391   6.643 -0.1561 -0.1502  2.2362
 4521SOL    HW225026   4.417   4.304   6.712 -0.1580 -1.3516 -2.3597
 4522SOL     OW25027   3.517   2.835   2.404  0.5137  0.0012 -0.3152
 4522SOL    HW125028   3.521   2.779   2.327 -0.6687 -1.4206  0.6434
 4522SOL    HW225029   3.432   2.880   2.402 -0.0865 -1.2190 -2.4903
 4523SOL     OW25030   4.159   4.271   3.092  0.3318  0.3369  0.0115
 4523SOL    HW125031   4.114   4.354   3.105  0.4882  0.4930 -0.4497
 4523SOL    HW225032   4.083   4.214   3.078 -0.7022  1.7924 -0.2454
 4524SOL     OW25033   2.537   4.218   5.690  0.5026 -0.1335 -0.1394
 4524SOL    HW125034   2.447   4.246   5.676  0.8689  1.4175  0.6000
 4524SOL    HW225035   2.567   4.204   5.600  0.0552 -1.3246 -0.1003
 4525SOL     OW25036   2.687   0.732   3.687  0.3925  0.3882 -0.5720
 4525SOL    HW125037   2.594   0.713   3.679 -0.4442  3.3300  2.1005
 4525SOL    HW225038   2.694   0.710   3.780 -0.5600  1.3643 -0.2668
 4526SOL     OW25039   0.725   3.983   3.741 -0.0667  0.4145 -0.4205
 4526SOL    HW125040   0.731   3.956   3.649 -1.2712 -0.2304 -0.3159
 4526SOL    HW225041   0.673   4.062   3.723  1.5146  1.4398 -0.4524
 4527SOL     OW25042   2.582   3.862   9.948  0.0905  0.4367 -0.5381
 4527SOL    HW125043   2.587   3.942  10.000 -0.4763 -0.7550  1.3566
 4527SOL    HW225044   2.580   3.792  10.013 -1.3644  0.6937 -0.3182
 4528SOL     OW25045   1.616   3.971   3.030  0.1696  0.5216 -0.1310
 4528SOL    HW125046   1.647   4.011   3.111  0.4139  2.3455 -1.1083
 4528SOL    HW225047   1.652   3.885   3.050 -1.1634  0.3435  1.4411
 4529SOL     OW25048   3.656   0.953   3.191 -0.0425 -0.1391 -0.3376
 4529SOL    HW125049   3.715   1.024   3.214 -0.8935 -0.0048  1.4453
 4529SOL    HW225050   3.570   0.996   3.188 -0.2386 -0.5686 -0.9957
 4530SOL     OW25051   0.888   3.284   3.334  0.2524 -0.4306 -0.0430
 4530SOL    HW125052   0.904   3.378   3.328 -0.1307 -0.2590  1.6074
 4530SOL    HW225053   0.977   3.250   3.343  0.5335  0.1875 -0.5080
 4531SOL     OW25054   1.394   0.141   5.575  0.1626 -0.2443 -0.0662
 4531SOL    HW125055   1.418   0.178   5.660 -0.9931  1.4627 -0.4976
 4531SOL    HW225056   1.443   0.185   5.506  0.1094 -2.4187 -1.4914
 4532SOL     OW25057   4.475   1.422   7.858  0.5040  0.0830  0.3986
 4532SOL    HW125058   4.422   1.431   7.778  0.7679  1.2874  0.3617
 4532SOL    HW225059   4.516   1.508   7.851  0.8662 -0.3368 -2.6714
 4533SOL     OW25060   1.772   0.258   2.276  0.0975  0.5359  0.1223
 4533SOL    HW125061   1.820   0.234   2.196 -0.9784 -0.9867 -0.0668
 4533SOL    HW225062   1.817   0.341   2.295  0.3981 -0.1715  2.4089
 4534SOL     OW25063   1.286   1.006  16.183 -0.1063  0.1132  0.4459
 4534SOL    HW125064   1.195   1.035  16.197 -0.4933 -0.4406 -0.8809
 4534SOL    HW225065   1.273   0.913  16.164  2.3562 -0.1831  0.2811
 4535SOL     OW25066   0.499   4.134  14.777  0.2107 -0.2472 -0.1685
 4535SOL    HW125067   0.407   4.107  14.781  0.2789 -0.4525 -0.0284
 4535SOL    HW225068   0.514   4.131  14.682 -1.3785  1.2748 -0.4830
 4536SOL     OW25069   1.663   3.880   6.207 -0.2057 -0.2901 -0.3659
 4536SOL    HW125070   1.710   3.861   6.126 -0.3658 -0.9069 -0.3110
 4536SOL    HW225071   1.615   3.798   6.213  0.6184 -0.8766 -1.7391
 4537SOL     OW25072   3.899   3.275   2.718  0.0959 -0.2847  0.8266
 4537SOL    HW125073   3.964   3.205   2.728 -2.8473 -3.1148  0.1815
 4537SOL    HW225074   3.821   3.219   2.720 -0.1306  0.0863  2.2981
 4538SOL     OW25075   0.580   1.241  14.012  0.3294  0.7306 -0.0858
 4538SOL    HW125076   0.587   1.308  14.080 -1.5824  2.0209 -1.1858
 4538SOL    HW225077   0.595   1.161  14.063 -0.1451  0.2317 -0.7346
 4539SOL     OW25078   0.055   4.328   4.888  0.2744 -0.0841 -0.2340
 4539SOL    HW125079   0.003   4.393   4.839 -0.6996  0.8811  2.0987
 4539SOL    HW225080   4.713   4.266   4.919 -2.0872  1.8180 -1.4452
 4540SOL     OW25081   3.613   3.287   5.120  0.6204 -0.1653  0.3488
 4540SOL    HW125082   3.561   3.207   5.110 -2.1272  1.4572  1.5217
 4540SOL    HW225083   3.544   3.331   5.171 -1.4547  0.8283 -3.3586
 4541SOL     OW25084   0.199   4.403   0.494 -0.6382  0.4026 -0.0071
 4541SOL    HW125085   0.210   4.308   0.495  0.6254  0.5369 -1.4973
 4541SOL    HW225086   0.104   4.415   0.483 -0.9311 -0.5150  1.4975
 4542SOL     OW25087   4.505   4.586   0.818  0.3876  0.1597 -0.3598
 4542SOL    HW125088   4.470   4.502   0.790  2.2209 -1.1515  1.2113
 4542SOL    HW225089   4.503   4.632   0.734  1.1825 -0.3500 -0.6604
 4543SOL     OW25090   1.730   2.093  11.148  0.4143 -0.0901 -0.5800
 4543SOL    HW125091   1.721   2.017  11.091  4.1378 -1.9962  1.4215
 4543SOL    HW225092   1.816   2.060  11.175  0.5587  0.5086 -0.3057
 4544SOL     OW25093   4.716   2.560   2.233  0.2854  0.4987 -0.6870
 4544SOL    HW125094   4.685   2.491   2.291 -0.8181  2.0431  0.5666
 4544SOL    HW225095   0.009   2.623   2.302  0.8826 -0.8555  0.3981
 4545SOL     OW25096   2.272   2.292   3.250 -0.2337  0.2469 -0.0236
 4545SOL    HW125097   2.352   2.307   3.301 -0.0447 -0.2871 -0.1533
 4545SOL    HW225098   2.261   2.358   3.182 -0.6858  1.2092  0.9943
 4546SOL     OW25099   2.973   4.105   4.152 -0.1310  0.0511 -0.6681
 4546SOL    HW125100   3.053   4.056   4.173 -0.3574 -0.3696 -0.7911
 4546SOL    HW225101   3.009   4.163   4.085 -0.0471  1.3313  0.4775
 4547SOL     OW25102   3.366   3.549  10.374  0.0184 -0.2370 -0.2625
 4547SOL    HW125103   3.349   3.620  10.312 -2.4118 -2.5020 -2.1754
 4547SOL    HW225104   3.289   3.557  10.430 -0.1381  0.7807 -0.6054
 4548SOL     OW25105   1.091   1.231   7.743 -0.3202 -1.1136  0.2007
 4548SOL    HW125106   1.010   1.282   7.738  0.5950  0.3250  0.0062
 4548SOL    HW225107   1.157   1.298   7.763  0.1151 -1.4344 -0.1787
 4549SOL     OW25108   2.020   0.010   7.836  0.2971  0.0176 -0.7620
 4549SOL    HW125109   2.107   0.028   7.799  0.7419 -1.1440 -0.2611
 4549SOL    HW225110   1.972   0.080   7.793 -1.3589 -0.1046  0.9143
 4550SOL     OW25111   4.518   1.226   0.690  0.0923  0.2642  0.1131
 4550SOL    HW125112   4.462   1.302   0.675 -0.2406 -0.2239 -1.0863
 4550SOL    HW225113   4.503   1.207   0.783  2.0083  0.1696  0.4138
 4551SOL     OW25114   2.605   3.587   8.764  0.1889 -0.3033 -0.3910
 4551SOL    HW125115   2.667   3.654   8.734  0.9855 -0.6299  0.5388
 4551SOL    HW225116   2.595   3.633   8.848 -0.6345 -0.2743 -0.5036
 4552SOL     OW25117   4.168   4.210   5.040  0.0697  0.1191 -0.7335
 4552SOL    HW125118   4.195   4.162   5.118 -1.2731 -0.7075 -0.7881
 4552SOL    HW225119   4.181   4.294   5.084  0.0782 -0.6393  0.7192
 4553SOL     OW25120   0.801   1.540   4.558  0.1489 -0.0043  0.7149
 4553SOL    HW125121   0.809   1.497   4.643 -0.4265 -0.1643  0.6830
 4553SOL    HW225122   0.718   1.497   4.542  0.1813  0.0739  0.3447
 4554SOL     OW25123   1.245   0.337  14.712  0.7350  0.3834 -0.4874
 4554SOL    HW125124   1.247   0.375  14.800  2.1908 -0.1176 -0.3107
 4554SOL    HW225125   1.226   0.413  14.657  0.6167 -0.7586 -2.0144
 4555SOL     OW25126   0.511   2.685  16.227  0.6091 -0.1006 -0.1775
 4555SOL    HW125127   0.429   2.644  16.200 -1.0238  2.3793  1.1272
 4555SOL    HW225128   0.560   2.610  16.260  1.3668  0.1192 -0.7736
 4556SOL     OW25129   4.172   3.611  12.397  0.3736 -0.3215  0.4378
 4556SOL    HW125130   4.215   3.649  12.473 -1.0117  1.1186  0.5162
 4556SOL    HW225131   4.217   3.640  12.317  2.1844  1.1917  2.0125
 4557SOL     OW25132   3.516   1.786  14.242  0.6456 -0.1756  0.6267
 4557SOL    HW125133   3.465   1.827  14.312  1.9414 -2.6052  3.0025
 4557SOL    HW225134   3.606   1.817  14.252  0.7467 -0.1252 -0.4428
 4558SOL     OW25135   1.177   2.319   5.049 -1.4063 -0.4618  0.0452
 4558SOL    HW125136   1.190   2.413   5.037 -0.9854 -0.5175  0.0765
 4558SOL    HW225137   1.240   2.295   5.117 -1.2102  1.8302  0.6619
 4559SOL     OW25138   0.973   0.463   7.144 -0.4834 -0.1384 -0.1731
 4559SOL    HW125139   1.023   0.388   7.110 -0.9147 -1.2291  1.6055
 4559SOL    HW225140   1.054   0.512   7.150 -1.3477  1.6126 -2.6853
 4560SOL     OW25141   2.646   0.801   6.562  0.0745  0.4054  0.0435
 4560SOL    HW125142   2.608   0.811   6.650  0.4985  1.2245  0.1332
 4560SOL    HW225143   2.681   0.712   6.574  1.2876  0.9793  0.7273
 4561SOL     OW25144   4.397   1.802   8.754  0.5089 -0.1203 -0.1134
 4561SOL    HW125145   4.484   1.840   8.747  0.1270  1.0372  1.6270
 4561SOL    HW225146   4.416   1.711   8.732  2.1901 -0.5006  2.9576
 4562SOL     OW25147   3.871   0.403   0.691  0.3004 -0.0774 -0.1729
 4562SOL    HW125148   3.856   0.316   0.726  0.9893 -0.6268 -1.2304
 4562SOL    HW225149   3.953   0.434   0.730 -0.0967 -0.7452  1.1906
 4563SOL     OW25150   0.150   3.318   8.790  0.6785 -0.8167  0.0815
 4563SOL    HW125151   0.116   3.375   8.859 -1.7863 -0.4378 -1.4635
 4563SOL    HW225152   0.109   3.363   8.716  2.1667  1.1559  0.4361
 4564SOL     OW25153   4.374   2.757   7.802 -0.6758 -0.3840  0.2128
 4564SOL    HW125154   4.422   2.722   7.878 -0.5641  1.8522  1.1809
 4564SOL    HW225155   4.359   2.848   7.826 -3.1617 -0.9407  0.7145
 4565SOL     OW25156   2.408   4.511   5.213  0.2450  0.2702 -0.4014
 4565SOL    HW125157   2.463   4.438   5.185  0.1974  1.1326 -2.7438
 4565SOL    HW225158   2.388   4.568   5.138  2.7296 -0.2145 -1.4111
 4566SOL     OW25159   2.390   4.644   8.106 -0.1609 -0.4608 -0.8329
 4566SOL    HW125160   2.485   4.643   8.100 -0.0480 -0.9914  1.0948
 4566SOL    HW225161   2.361   4.635   8.015 -1.0748 -0.0726 -0.5809
 4567SOL     OW25162   2.451   2.895   2.362 -0.7171 -0.7002  0.2602
 4567SOL    HW125163   2.468   2.801   2.356 -0.2537 -0.5863 -0.2512
 4567SOL    HW225164   2.498   2.923   2.441  1.9412 -1.8740 -0.9309
 4568SOL     OW25165   3.244   3.967  11.837  0.7551 -0.0424  0.0413
 4568SOL    HW125166   3.325   4.017  11.839  1.1286 -0.5819 -1.8207
 4568SOL    HW225167   3.171   4.015  11.799  0.8666 -1.1322 -1.5733
 4569SOL     OW25168   1.210   1.960  14.128  0.0368 -0.4362 -0.2125
 4569SOL    HW125169   1.133   2.017  14.138  0.8750  0.6078  0.2778
 4569SOL    HW225170   1.269   1.998  14.063 -0.8830  0.0784 -0.7472
 4570SOL     OW25171   1.461   3.333  17.063 -0.1039 -0.2987  0.2226
 4570SOL    HW125172   1.550   3.367  17.059 -0.1434 -0.1829  0.3426
 4570SOL    HW225173   1.416   3.416  17.047 -1.7993 -1.6719 -2.2393
 4571SOL     OW25174   3.976   2.736   9.220  0.9815 -0.0226  0.0366
 4571SOL    HW125175   3.906   2.786   9.262 -0.4946 -0.3034 -2.0749
 4571SOL    HW225176   3.955   2.644   9.235  1.8857  0.2385  2.7795
 4572SOL     OW25177   1.793   0.486   6.536  0.1468 -0.3360 -0.9179
 4572SOL    HW125178   1.851   0.415   6.564  0.6523  0.4311 -0.0250
 4572SOL    HW225179   1.705   0.448   6.536  0.1390 -0.2999  0.6165
 4573SOL     OW25180   3.372   0.279   0.708 -0.5068 -0.7678 -0.5494
 4573SOL    HW125181   3.454   0.328   0.700 -0.4611 -1.0201 -1.5730
 4573SOL    HW225182   3.303   0.333   0.669 -0.2044 -1.6170 -2.2345
 4574SOL     OW25183   4.402   0.327   6.853 -0.4102 -0.0042 -0.1487
 4574SOL    HW125184   4.362   0.368   6.777  2.3955 -0.5449 -1.9100
 4574SOL    HW225185   4.489   0.366   6.844 -0.9527  0.6821 -2.2703
 4575SOL     OW25186   3.847   1.820  14.969  0.3038 -0.0420 -0.3228
 4575SOL    HW125187   3.831   1.809  15.063  0.4444 -0.4416 -0.3458
 4575SOL    HW225188   3.754   1.808  14.950  0.4072 -0.7004 -0.4202
 4576SOL     OW25189   0.226   3.823   0.265 -0.6392  0.4697  0.3668
 4576SOL    HW125190   0.301   3.783   0.308 -0.4762  1.7221  1.2695
 4576SOL    HW225191   0.238   3.913   0.297 -0.6004 -0.4482  2.9514
 4577SOL     OW25192   2.806   1.112   3.350  0.1689 -0.4302 -0.0241
 4577SOL    HW125193   2.783   1.156   3.268  1.1792  1.4497  0.7034
 4577SOL    HW225194   2.726   1.060   3.352 -0.1065 -0.1325 -2.5267
 4578SOL     OW25195   3.894   2.375   4.856  0.3248  0.6034 -0.1237
 4578SOL    HW125196   3.812   2.363   4.808 -0.0684  3.2849 -0.1310
 4578SOL    HW225197   3.954   2.396   4.785  1.5262 -0.7464  0.4660
 4579SOL     OW25198   1.835   2.004  10.858 -0.4002  0.3915 -0.9139
 4579SOL    HW125199   1.803   1.973  10.942  0.3649  1.1451 -0.3502
 4579SOL    HW225200   1.754   2.024  10.810 -2.1018 -1.8903  1.0104
 4580SOL     OW25201   1.082   4.184   3.993 -0.6172  0.6169  0.0782
 4580SOL    HW125202   1.137   4.126   4.046  0.7113  2.3878  0.6242
 4580SOL    HW225203   1.113   4.268   4.025 -0.1499  0.0367  1.1600
 4581SOL     OW25204   2.408   4.512  12.008 -0.1171  0.1834 -0.1319
 4581SOL    HW125205   2.335   4.533  12.067 -0.7257 -0.5091 -0.6402
 4581SOL    HW225206   2.361   4.492  11.927 -0.0287  0.2609 -0.2020
 4582SOL     OW25207   0.483   3.575   0.218 -0.3902  0.4823  0.1709
 4582SOL    HW125208   0.458   3.657   0.262 -0.7770  0.8374 -0.7143
 4582SOL    HW225209   0.416   3.512   0.243  1.4279 -1.5081  0.0396
 4583SOL     OW25210   4.695   0.424   6.576  0.1602  0.1206  0.0196
 4583SOL    HW125211   4.617   0.462   6.536  0.4271 -0.3218 -0.9265
 4583SOL    HW225212   4.667   0.388   6.660  1.8549 -0.6642  0.2666
 4584SOL     OW25213   3.619   3.898  16.629 -0.3100 -0.2138  0.3879
 4584SOL    HW125214   3.608   3.814  16.674  1.3213 -1.9896 -2.5347
 4584SOL    HW225215   3.667   3.950  16.694 -1.0810 -1.6912  2.1600
 4585SOL     OW25216   0.050   2.697   2.458  0.1599 -0.3359 -0.1476
 4585SOL    HW125217   0.137   2.672   2.487 -0.9466 -2.0454  1.7258
 4585SOL    HW225218   0.010   2.737   2.536 -2.6858  1.8231 -2.6800
 4586SOL     OW25219   4.109   1.939   7.647  0.2348 -0.1295  0.8811
 4586SOL    HW125220   4.037   1.875   7.638 -0.1155  0.5573 -1.1395
 4586SOL    HW225221   4.180   1.881   7.675  1.0411 -0.7297 -2.4198
 4587SOL     OW25222   1.217   0.338   6.749 -0.2492  0.2193 -0.5692
 4587SOL    HW125223   1.308   0.337   6.781 -0.0153  4.2519 -1.1432
 4587SOL    HW225224   1.223   0.290   6.667  2.0511  0.0423 -0.3003
 4588SOL     OW25225   3.366   4.385   7.559  0.0148  0.3644  0.1487
 4588SOL    HW125226   3.361   4.472   7.521 -2.6216 -0.0200 -0.3552
 4588SOL    HW225227   3.345   4.322   7.490 -0.8853 -1.0957  1.7517
 4589SOL     OW25228   1.473   4.709   7.383  0.1698 -0.5106 -0.2063
 4589SOL    HW125229   1.497   4.689   7.474  2.3424  0.3760 -0.5746
 4589SOL    HW225230   1.483   0.081   7.378  1.5271 -0.6957 -0.7863
 4590SOL     OW25231   3.119   1.899   6.669 -0.0444  0.3848  0.2962
 4590SOL    HW125232   3.067   1.823   6.694  0.9919  0.3494  2.3305
 4590SOL    HW225233   3.192   1.892   6.730  1.3234  0.6246 -1.3188
 4591SOL     OW25234   2.970   2.677  17.155 -0.1570 -0.5083 -0.1391
 4591SOL    HW125235   2.895   2.622  17.134  0.4746 -1.0063 -1.0849
 4591SOL    HW225236   2.927   2.757  17.185 -1.6024 -1.1142 -0.6193
 4592SOL     OW25237   2.535   1.773  11.036  0.1423 -0.5272 -0.1088
 4592SOL    HW125238   2.591   1.826  10.979  1.0449 -1.2562  0.0935
 4592SOL    HW225239   2.449   1.788  10.996 -0.9392 -0.7186  2.1807
 4593SOL     OW25240   0.858   0.187   1.806  0.0070 -0.0786  0.3605
 4593SOL    HW125241   0.858   0.148   1.894  1.6798 -0.1420  0.3322
 4593SOL    HW225242   0.764   0.196   1.794  0.2172 -0.0091 -1.1999
 4594SOL     OW25243   4.440   1.823  10.235  0.1525 -0.0759 -0.1240
 4594SOL    HW125244   4.504   1.871  10.182 -1.6109  0.6039 -1.6404
 4594SOL    HW225245   4.483   1.738  10.241 -2.3748 -1.3291  0.0708
 4595SOL     OW25246   1.339   2.434   4.383 -0.1698  0.1189 -0.3207
 4595SOL    HW125247   1.305   2.382   4.310  3.6819 -2.3415 -0.3428
 4595SOL    HW225248   1.268   2.411   4.443  0.2610 -1.1636 -0.3022
 4596SOL     OW25249   1.200   2.352   6.302 -0.4104 -0.3228 -0.4669
 4596SOL    HW125250   1.256   2.396   6.238  2.0266 -0.3405  1.6758
 4596SOL    HW225251   1.168   2.275   6.254  1.6647 -0.8681 -0.9920
 4597SOL     OW25252   3.754   3.547   7.289 -0.2813 -0.6539  0.0769
 4597SOL    HW125253   3.712   3.628   7.262 -0.5895 -0.1862  2.0195
 4597SOL    HW225254   3.781   3.558   7.380 -0.8557 -0.6288  0.2401
 4598SOL     OW25255   1.824   1.485  11.070  0.3693 -0.1777 -0.3484
 4598SOL    HW125256   1.782   1.470  10.985  0.5573 -0.9740 -0.2959
 4598SOL    HW225257   1.916   1.512  11.067 -0.0176  0.9529 -2.0560
 4599SOL     OW25258   1.868   4.623   8.574  0.4445  0.1189 -0.3126
 4599SOL    HW125259   1.868   4.625   8.670 -2.0338  1.4659 -0.3337
 4599SOL    HW225260   1.862   4.528   8.561 -1.9895  0.4352 -1.5898
 4600SOL     OW25261   4.158   3.753   5.956 -0.4501  0.5492  0.3404
 4600SOL    HW125262   4.232   3.694   5.951 -0.6650  0.1730  1.5626
 4600SOL    HW225263   4.207   3.833   5.938  1.4260 -1.1146 -1.8770
 4601SOL     OW25264   0.726   2.352   8.130 -0.1183  0.5948 -0.3278
 4601SOL    HW125265   0.705   2.417   8.198  3.1848  0.1339  1.1411
 4601SOL    HW225266   0.651   2.293   8.133  0.8207 -0.6582 -2.0191
 4602SOL     OW25267   4.309   1.831  15.355  0.1181 -0.3365 -0.5151
 4602SOL    HW125268   4.284   1.920  15.380 -0.6952 -1.0915  1.3832
 4602SOL    HW225269   4.223   1.795  15.333  0.4792 -1.3441 -0.2877
 4603SOL     OW25270   1.945   2.950   7.898 -0.1202 -0.2565  0.0825
 4603SOL    HW125271   1.962   2.963   7.991 -0.1245  1.5340 -0.1545
 4603SOL    HW225272   2.026   2.972   7.852  0.3205  0.7867  1.3672
 4604SOL     OW25273   3.636   0.527   7.904  0.1020 -0.0158 -0.1549
 4604SOL    HW125274   3.712   0.557   7.953  0.0081 -0.3295  0.1803
 4604SOL    HW225275   3.599   0.610   7.874  0.7061  0.9901  1.8712
 4605SOL     OW25276   1.166   4.057  14.000 -0.7120  0.2739 -0.1770
 4605SOL    HW125277   1.156   4.147  14.033 -0.3030  0.5505 -0.7891
 4605SOL    HW225278   1.137   4.055  13.909 -0.3600  3.4347 -0.3816
 4606SOL     OW25279   0.329   3.575  10.698 -0.0927  0.1434 -0.1458
 4606SOL    HW125280   0.348   3.497  10.751  0.2806 -0.5928 -1.3483
 4606SOL    HW225281   0.238   3.555  10.677 -0.5330  0.7821  1.1430
 4607SOL     OW25282   3.620   2.614   5.786 -0.3915 -0.1209  0.5809
 4607SOL    HW125283   3.588   2.524   5.793 -0.1117 -0.2721 -0.0732
 4607SOL    HW225284   3.710   2.602   5.755 -1.1210 -1.6427 -0.9881
 4608SOL     OW25285   0.458   0.665  14.713 -0.2351  0.3384  0.0511
 4608SOL    HW125286   0.550   0.637  14.714 -0.6156 -0.8975  0.1790
 4608SOL    HW225287   0.431   0.670  14.622  1.8738 -0.8147 -0.6424
 4609SOL     OW25288   1.785   0.844   2.757  0.1581 -0.0398 -0.0938
 4609SOL    HW125289   1.714   0.841   2.693  0.2423  2.2682 -0.2994
 4609SOL    HW225290   1.829   0.766   2.724  2.7118  2.0560 -1.6119
 4610SOL     OW25291   0.617   4.207  10.012 -0.0043 -0.1079  0.0175
 4610SOL    HW125292   0.651   4.280   9.961 -1.5006  0.8354  0.3620
 4610SOL    HW225293   0.614   4.143   9.941  1.6587  0.6736 -0.7441
 4611SOL     OW25294   4.241   0.462   0.119  0.0513  0.0481 -0.2428
 4611SOL    HW125295   4.272   0.542   0.077 -1.9960  0.7811 -0.3133
 4611SOL    HW225296   4.155   0.498   0.140 -0.1748  0.1938 -1.4125
 4612SOL     OW25297   3.957   1.792   7.079  0.0916 -0.1767 -0.0876
 4612SOL    HW125298   3.931   1.884   7.081 -2.6696 -0.9694 -0.5093
 4612SOL    HW225299   3.950   1.774   7.172 -2.6670  0.3486 -0.1979
 4613SOL     OW25300   3.748   0.996   0.226  0.4531 -0.5446 -0.2329
 4613SOL    HW125301   3.798   1.044   0.160 -0.8670 -0.4302 -1.1312
 4613SOL    HW225302   3.677   0.971   0.168 -0.4876 -0.3196  0.8280
 4614SOL     OW25303   0.947   1.761   2.074  0.2036 -0.1144 -0.1194
 4614SOL    HW125304   0.940   1.782   2.167  0.2133 -0.4021 -0.0535
 4614SOL    HW225305   1.032   1.803   2.060 -0.5025  1.0869 -0.8465
 4615SOL     OW25306   2.816   0.767   5.339 -0.2909 -0.7498  0.5130
 4615SOL    HW125307   2.846   0.725   5.419 -3.1990  0.8325  2.4409
 4615SOL    HW225308   2.800   0.858   5.366 -2.6144 -0.5414 -1.5052
 4616SOL     OW25309   2.037   0.189  17.646  0.4435  0.2336  0.0232
 4616SOL    HW125310   2.076   0.102  17.654  0.7956  0.4481  0.6775
 4616SOL    HW225311   2.090   0.225  17.575  1.0193  1.1309  0.9108
 4617SOL     OW25312   0.891   4.623   9.671 -0.4746  0.7825 -0.3263
 4617SOL    HW125313   0.947   4.616   9.748 -2.8455 -2.4939  1.1180
 4617SOL    HW225314   0.946   4.650   9.598 -2.2650  2.0764 -1.2089
 4618SOL     OW25315   3.856   0.779   0.350  0.2217  1.1828 -0.4539
 4618SOL    HW125316   3.816   0.862   0.325 -0.9639  0.8925  0.4808
 4618SOL    HW225317   3.781   0.747   0.399 -1.1005  1.2918 -2.4100
 4619SOL     OW25318   4.007   1.647   2.681 -0.2247  0.5161  0.2028
 4619SOL    HW125319   3.925   1.610   2.647 -1.3223  1.3091  2.0075
 4619SOL    HW225320   4.001   1.609   2.769 -4.6064 -0.1494 -0.3579
 4620SOL     OW25321   0.534   2.566   4.260  0.1680  0.1896 -0.1454
 4620SOL    HW125322   0.457   2.510   4.254  0.5709 -0.4033  0.2689
 4620SOL    HW225323   0.572   2.564   4.172  0.3945  1.3046 -0.0667
 4621SOL     OW25324   2.478   4.325   7.469 -0.6182 -0.0202 -0.1076
 4621SOL    HW125325   2.427   4.298   7.392 -3.2396 -1.6024  2.1443
 4621SOL    HW225326   2.416   4.365   7.530  0.2702  3.5342 -1.5353
 4622SOL     OW25327   1.695   1.930  16.259 -0.7266  0.2914  0.1630
 4622SOL    HW125328   1.678   1.861  16.195 -2.2466  1.5131 -0.7333
 4622SOL    HW225329   1.774   1.969  16.220 -1.6888 -0.0217 -2.0802
 4623SOL     OW25330   3.590   3.194   9.194 -0.1780 -0.9170  0.0619
 4623SOL    HW125331   3.576   3.214   9.101  2.7851 -2.5596 -0.7482
 4623SOL    HW225332   3.681   3.221   9.207 -1.3309  2.5208  0.7845
 4624SOL     OW25333   4.378   0.643  17.381 -0.0753 -0.8541 -0.3520
 4624SOL    HW125334   4.340   0.578  17.440  0.8731 -1.3518 -0.2839
 4624SOL    HW225335   4.416   0.693  17.454  0.6622  1.4154 -2.2939
 4625SOL     OW25336   2.769   1.456   7.457  0.0455 -0.7817  0.1657
 4625SOL    HW125337   2.790   1.421   7.370 -1.3839  2.1353 -1.3258
 4625SOL    HW225338   2.711   1.531   7.446  1.0445 -0.4059 -2.6565
 4626SOL     OW25339   3.298   1.265   7.880  0.4898  0.3374 -0.4666
 4626SOL    HW125340   3.255   1.197   7.932 -0.1642  1.8168  0.9227
 4626SOL    HW225341   3.344   1.226   7.806  0.3233 -0.5271 -0.1083
 4627SOL     OW25342   3.322   2.577  14.589 -0.1745  0.5293  0.3312
 4627SOL    HW125343   3.229   2.597  14.593 -0.1217  1.3844 -2.5834
 4627SOL    HW225344   3.335   2.600  14.497 -2.1752  1.6852  0.3366
 4628SOL     OW25345   0.395   3.027   7.683  0.1414 -0.0799 -0.4928
 4628SOL    HW125346   0.326   2.987   7.631 -2.0613  0.7805  1.8067
 4628SOL    HW225347   0.364   3.004   7.770 -1.7849 -1.4320 -1.5236
 4629SOL     OW25348   3.317   1.162   1.118 -0.9884 -0.4074  0.0277
 4629SOL    HW125349   3.322   1.184   1.211  0.3410 -0.6787  0.0133
 4629SOL    HW225350   3.247   1.222   1.092 -0.1046  0.5395 -0.1554
 4630SOL     OW25351   4.022   4.653   0.239  0.0546  0.0788 -0.0623
 4630SOL    HW125352   3.984   4.696   0.315  1.2029  1.7428 -0.4336
 4630SOL    HW225353   4.044   0.002   0.181 -4.3190 -0.0980 -1.9683
 4631SOL     OW25354   1.605   2.058   9.092  0.9186 -0.4560  0.0741
 4631SOL    HW125355   1.607   2.013   9.008  3.1332 -2.7111  1.3355
 4631SOL    HW225356   1.591   1.979   9.144 -2.5572  0.4412  0.5494
 4632SOL     OW25357   2.984   3.605  13.445  0.3784 -0.5923 -0.1110
 4632SOL    HW125358   3.042   3.572  13.377 -0.8007  0.8559 -1.8443
 4632SOL    HW225359   2.904   3.554  13.432 -0.2541  0.5319 -0.6637
 4633SOL     OW25360   1.317   4.244   5.533 -0.2155  0.6336 -0.1786
 4633SOL    HW125361   1.319   4.261   5.439  1.1904 -0.3007 -0.3171
 4633SOL    HW225362   1.288   4.330   5.562  1.7245  1.2026  0.0463
 4634SOL     OW25363   1.802   3.780  11.600  0.0851  0.3796 -0.4659
 4634SOL    HW125364   1.802   3.870  11.567 -3.4869  0.6494  0.2530
 4634SOL    HW225365   1.876   3.768  11.659 -0.0495 -2.0887 -0.7879
 4635SOL     OW25366   1.629   4.296  13.025  0.0582 -0.6653 -0.3283
 4635SOL    HW125367   1.715   4.284  12.984 -0.5302 -0.0722 -1.7407
 4635SOL    HW225368   1.637   4.390  13.045  3.5387 -1.1168  0.3195
 4636SOL     OW25369   2.441   0.122   8.846  0.4319  0.1015 -0.1752
 4636SOL    HW125370   2.379   0.139   8.916 -0.2525 -2.9410 -0.0522
 4636SOL    HW225371   2.387   0.143   8.770 -0.0438 -2.7227 -0.6013
 4637SOL     OW25372   2.570   0.507   7.400  0.0777 -0.2061 -0.1279
 4637SOL    HW125373   2.581   0.459   7.318  0.2391  0.2069 -0.3469
 4637SOL    HW225374   2.660   0.538   7.411  0.6901 -1.3050 -2.0661
 4638SOL     OW25375   1.226   4.415  13.297 -0.0404 -0.1127  0.1738
 4638SOL    HW125376   1.285   4.444  13.366  2.2754 -0.0104 -1.8343
 4638SOL    HW225377   1.245   4.482  13.232 -1.6751  0.3904  0.2012
 4639SOL     OW25378   4.334   3.016   3.802  0.4000 -0.1814  0.1320
 4639SOL    HW125379   4.393   3.091   3.815 -1.8442  1.5287  0.4974
 4639SOL    HW225380   4.251   3.057   3.777  2.6262  3.7470 -0.7369
 4640SOL     OW25381   3.186   2.741  14.828 -0.1504  0.4131  0.2494
 4640SOL    HW125382   3.264   2.795  14.816  0.2306 -0.0903  0.5057
 4640SOL    HW225383   3.220   2.664  14.873  1.6179  0.6211 -0.7240
 4641SOL     OW25384   0.780   4.046   7.200  0.1574 -0.0107  0.6671
 4641SOL    HW125385   0.749   4.116   7.258  0.3492  1.6631 -1.2872
 4641SOL    HW225386   0.820   3.976   7.252  1.6576  1.3365  1.3347
 4642SOL     OW25387   1.027   4.078   6.698  0.6767 -0.2190 -0.1202
 4642SOL    HW125388   1.108   4.127   6.714  0.8951 -0.7445  0.3904
 4642SOL    HW225389   1.013   4.045   6.787 -1.7154 -3.9621 -1.8769
 4643SOL     OW25390   4.036   0.743   6.972  0.0752 -0.3727  0.8679
 4643SOL    HW125391   4.025   0.652   7.000 -0.6883  0.0775  2.0269
 4643SOL    HW225392   3.946   0.763   6.947  0.1585 -0.3168  0.6118
 4644SOL     OW25393   0.305   0.129   2.114 -0.3035 -0.1893  0.4205
 4644SOL    HW125394   0.281   0.222   2.111 -0.3494 -0.1716  1.2316
 4644SOL    HW225395   0.298   0.111   2.020  0.6481 -0.9741  0.5032
 4645SOL     OW25396   3.936   3.102   8.854  0.2183 -0.2692 -0.1824
 4645SOL    HW125397   4.027   3.103   8.886  0.2175  3.9754 -0.3766
 4645SOL    HW225398   3.943   3.016   8.812  1.5238 -0.6430  0.7755
 4646SOL     OW25399   0.452   4.123   4.750 -0.1024 -0.0325 -0.0681
 4646SOL    HW125400   0.367   4.103   4.788  0.1507  3.3047  2.3333
 4646SOL    HW225401   0.473   4.030   4.740 -0.0433  0.0029 -0.2784
 4647SOL     OW25402   1.533   1.912   1.726 -0.2376 -0.4866  0.3148
 4647SOL    HW125403   1.486   1.973   1.670  2.3988  1.0789 -0.2016
 4647SOL    HW225404   1.554   1.831   1.679  2.3659 -0.2323  1.0378
 4648SOL     OW25405   1.164   0.159  13.589  0.0734 -0.4279  0.4225
 4648SOL    HW125406   1.073   0.166  13.558 -0.2343  0.5462  1.5441
 4648SOL    HW225407   1.183   0.253  13.593 -0.7822 -0.2740  0.9448
 4649SOL     OW25408   2.046   0.118   9.597  0.6121  0.1936  0.1464
 4649SOL    HW125409   2.030   0.211   9.611  1.3713  0.6643 -2.0388
 4649SOL    HW225410   2.125   0.130   9.544  0.3419  0.9033 -0.1003
 4650SOL     OW25411   1.873   4.040  13.782  0.0907 -0.1289 -0.3203
 4650SOL    HW125412   1.837   4.037  13.870  1.3968 -0.6156  0.1946
 4650SOL    HW225413   1.802   3.992  13.737 -0.9050  1.4658 -0.4509
 4651SOL     OW25414   2.417   2.326  17.230  0.0920  0.2788 -0.6096
 4651SOL    HW125415   2.409   2.280  17.314  0.0207  0.6180 -0.4290
 4651SOL    HW225416   2.387   2.262  17.165  0.3754 -1.2356  0.7460
 4652SOL     OW25417   0.892   3.597  14.364 -0.2257  0.3441  0.4924
 4652SOL    HW125418   0.838   3.676  14.361  0.9097  1.0685 -0.8438
 4652SOL    HW225419   0.983   3.624  14.353 -0.1056 -0.1232  0.3097
 4653SOL     OW25420   0.543   1.147   5.508  0.0697 -0.4507  0.1521
 4653SOL    HW125421   0.482   1.136   5.582 -0.8882 -0.5873 -0.6601
 4653SOL    HW225422   0.547   1.243   5.503 -0.6002 -0.2888  2.5056
 4654SOL     OW25423   3.755   0.130   7.261 -0.0141  0.1060 -0.2189
 4654SOL    HW125424   3.815   0.056   7.258 -0.7456 -0.4828 -0.4962
 4654SOL    HW225425   3.762   0.156   7.353  1.1024  2.5862 -0.9991
 4655SOL     OW25426   0.130   0.359   4.777 -0.2747  0.1677  0.8090
 4655SOL    HW125427   0.212   0.312   4.759 -0.1107  0.9574 -0.4479
 4655SOL    HW225428   0.153   0.417   4.849 -0.2746  0.2163  0.7694
 4656SOL     OW25429   1.648   0.355   1.939  0.3313  0.1142  0.3709
 4656SOL    HW125430   1.654   0.446   1.910 -2.0388 -0.8264 -3.0946
 4656SOL    HW225431   1.721   0.335   1.997  1.1493  1.9828 -0.0251
 4657SOL     OW25432   1.096   4.226   2.065 -0.1543 -0.0512  0.2007
 4657SOL    HW125433   1.010   4.269   2.071 -0.0515  0.2064 -0.1711
 4657SOL    HW225434   1.071   4.134   2.062  0.6569 -0.2604 -0.0664
 4658SOL     OW25435   4.371   2.276   5.343  0.1140 -0.3004  0.0069
 4658SOL    HW125436   4.331   2.344   5.398 -0.5646  0.9838 -2.1011
 4658SOL    HW225437   4.311   2.288   5.270 -1.2982  2.5315  1.6247
 4659SOL     OW25438   0.967   0.731   3.345 -0.3179 -0.3880 -0.0446
 4659SOL    HW125439   0.965   0.636   3.356  1.0755 -0.6661 -2.2597
 4659SOL    HW225440   1.023   0.762   3.416 -0.0489  0.1792 -0.5072
 4660SOL     OW25441   2.291   3.781   9.670 -0.5712 -0.3071 -0.0345
 4660SOL    HW125442   2.279   3.687   9.658  1.7013 -0.6934  0.6918
 4660SOL    HW225443   2.217   3.825   9.627 -1.6610  0.3693  2.5391
 4661SOL     OW25444   4.281   2.696   5.578 -0.2421  0.1005  0.1806
 4661SOL    HW125445   4.363   2.664   5.541 -0.4404 -1.4074  1.0751
 4661SOL    HW225446   4.222   2.623   5.559 -0.2460  0.6404 -1.9233
 4662SOL     OW25447   0.517   0.947   4.493  0.2780 -0.2057 -0.4072
 4662SOL    HW125448   0.442   0.907   4.449 -0.2140  0.9126 -0.5659
 4662SOL    HW225449   0.523   0.888   4.568 -1.7715  3.0681  2.2875
 4663SOL     OW25450   3.001   1.324   7.260  0.6591  0.0704 -0.0989
 4663SOL    HW125451   3.013   1.229   7.265 -1.3783 -0.2376 -1.1280
 4663SOL    HW225452   2.929   1.315   7.197  1.3515  1.1491 -1.0362
 4664SOL     OW25453   3.533   2.499   7.156  0.0738 -0.1086 -0.3828
 4664SOL    HW125454   3.614   2.486   7.205  0.0976 -1.8181 -0.8742
 4664SOL    HW225455   3.475   2.423   7.158 -0.1805  0.1562  1.9274
 4665SOL     OW25456   1.436   2.860   5.557  0.5737 -0.1605  0.2987
 4665SOL    HW125457   1.463   2.910   5.633 -1.8361  2.5712 -0.6592
 4665SOL    HW225458   1.342   2.847   5.574 -0.3666  0.9878 -4.0615
 4666SOL     OW25459   1.943   4.405  12.299 -0.2081  0.6545  0.1917
 4666SOL    HW125460   1.963   4.415  12.392  1.7109  0.6819 -0.2315
 4666SOL    HW225461   1.847   4.411  12.299 -0.2429  0.1503 -1.5232
 4667SOL     OW25462   1.632   1.114  12.993 -0.8305  0.2334  0.0152
 4667SOL    HW125463   1.551   1.121  12.941 -1.4314  0.0520  0.9365
 4667SOL    HW225464   1.666   1.201  13.011 -2.9591  1.3454 -1.3171
 4668SOL     OW25465   3.538   3.318   2.810  0.0948 -0.1775 -0.5522
 4668SOL    HW125466   3.479   3.312   2.886  0.5680 -2.1007 -0.3224
 4668SOL    HW225467   3.615   3.310   2.866  0.5442  3.2950 -0.6711
 4669SOL     OW25468   1.328   1.705  13.786 -0.1210  0.2509 -0.3186
 4669SOL    HW125469   1.398   1.640  13.792 -0.9393 -0.6152 -0.3007
 4669SOL    HW225470   1.371   1.772  13.733 -0.0268  0.2838 -0.2019
 4670SOL     OW25471   3.920   1.648   4.116  0.1355  0.2537  0.0719
 4670SOL    HW125472   4.004   1.675   4.153 -0.2253 -0.0096  1.0840
 4670SOL    HW225473   3.862   1.662   4.191 -0.4043 -0.8954 -0.1291
 4671SOL     OW25474   0.308   2.760   5.269 -0.0759  0.5125 -0.0953
 4671SOL    HW125475   0.250   2.827   5.233  1.1372  2.5237  1.6719
 4671SOL    HW225476   0.257   2.682   5.248  1.4002 -0.8179  1.2818
 4672SOL     OW25477   3.936   0.497   9.732 -0.3737  0.3463 -0.0526
 4672SOL    HW125478   3.848   0.519   9.761 -0.2062 -2.7946  2.7694
 4672SOL    HW225479   3.916   0.449   9.651 -0.3705  0.1094  0.0883
 4673SOL     OW25480   0.892   0.164  10.200  0.5686  0.5580  0.4298
 4673SOL    HW125481   0.929   0.190  10.116 -0.9735 -0.6697 -0.6308
 4673SOL    HW225482   0.937   0.222  10.260  0.3518  0.3285  0.8140
 4674SOL     OW25483   3.017   1.732  12.282  0.4061  0.7247  0.0492
 4674SOL    HW125484   3.017   1.724  12.187  1.4425 -0.3312  0.1342
 4674SOL    HW225485   2.932   1.767  12.305  1.3849  2.3501  1.1656
 4675SOL     OW25486   2.882   3.457   5.289 -0.1619 -0.3920 -1.0277
 4675SOL    HW125487   2.811   3.521   5.280  1.4677  1.4700 -0.5475
 4675SOL    HW225488   2.834   3.388   5.336  1.1131  0.5923  1.7243
 4676SOL     OW25489   0.799   2.192  10.257 -0.2614 -0.3321 -0.0564
 4676SOL    HW125490   0.815   2.179  10.350 -1.7455 -1.2155  0.0662
 4676SOL    HW225491   0.723   2.135  10.265  1.4394 -2.5278  0.2339
 4677SOL     OW25492   2.541   0.346   1.740  0.1993  0.1153 -0.1263
 4677SOL    HW125493   2.544   0.441   1.728  1.8438  0.2276  1.2400
 4677SOL    HW225494   2.562   0.311   1.653 -0.5344 -1.5945  0.3904
 4678SOL     OW25495   1.020   2.581   4.560  0.6066  0.2628 -0.1213
 4678SOL    HW125496   1.014   2.489   4.586  0.6880  0.4425  0.5383
 4678SOL    HW225497   1.049   2.616   4.645  0.2537  0.7529 -0.2010
 4679SOL     OW25498   0.688   0.630   7.579 -0.3895 -0.4490  0.3883
 4679SOL    HW125499   0.650   0.569   7.516  0.9894 -3.0676  2.0951
 4679SOL    HW225500   0.638   0.710   7.569  0.4314 -0.0137 -0.2878
 4680SOL     OW25501   3.605   1.640   9.570 -0.0194 -0.3450  0.2212
 4680SOL    HW125502   3.679   1.658   9.512  0.6707 -0.6359  1.0073
 4680SOL    HW225503   3.597   1.545   9.566 -0.8042 -0.3228  1.4285
 4681SOL     OW25504   3.217   2.959   5.465 -0.5586 -0.6009  0.3376
 4681SOL    HW125505   3.172   2.965   5.549 -2.0399  1.0859 -0.5660
 4681SOL    HW225506   3.138   2.935   5.415 -0.3197 -2.4652  0.8528
 4682SOL     OW25507   4.695   4.341   0.083 -0.4029  0.2897  0.1490
 4682SOL    HW125508   0.042   4.296   0.129 -0.7427  1.4408  1.7891
 4682SOL    HW225509   4.698   4.428   0.122 -0.8196  0.4974 -0.2751
 4683SOL     OW25510   2.693   3.619   2.804  0.1322  0.0811  0.2507
 4683SOL    HW125511   2.691   3.548   2.740  1.4328  1.9505 -1.8546
 4683SOL    HW225512   2.664   3.565   2.878  0.2362  1.3565  1.2245
 4684SOL     OW25513   3.418   1.616   5.048 -0.4731 -0.3059  0.7541
 4684SOL    HW125514   3.481   1.575   4.989 -1.4355 -0.4297 -0.1761
 4684SOL    HW225515   3.442   1.705   5.024  2.7551 -2.5082 -4.2251
 4685SOL     OW25516   0.272   2.982   6.660 -0.2088  0.2102  0.4069
 4685SOL    HW125517   0.183   3.017   6.653 -0.4638 -0.3376  0.8396
 4685SOL    HW225518   0.326   3.059   6.645  0.8949 -0.5577  0.4448
 4686SOL     OW25519   0.956   2.944  15.708 -0.4290  0.0056 -0.3852
 4686SOL    HW125520   0.980   2.911  15.795  2.9508  1.1814 -0.8621
 4686SOL    HW225521   1.025   3.009  15.692  0.3293 -1.5483 -3.5772
 4687SOL     OW25522   1.811   3.381  14.962  0.5086 -0.7563  0.3757
 4687SOL    HW125523   1.848   3.308  15.011  0.9971 -0.4580  0.4525
 4687SOL    HW225524   1.854   3.367  14.878 -1.3700 -0.1934 -0.6857
 4688SOL     OW25525   1.403   4.022   8.586  0.2603  0.0627 -0.0116
 4688SOL    HW125526   1.343   3.997   8.515  2.5663  0.0432 -1.9386
 4688SOL    HW225527   1.412   3.944   8.640 -2.6874  0.9574  1.8177
 4689SOL     OW25528   1.782   0.815  15.102  0.3908  0.3074 -0.2056
 4689SOL    HW125529   1.720   0.812  15.028 -1.6565  0.4807  1.5027
 4689SOL    HW225530   1.820   0.903  15.096 -0.1954  0.6388  0.8805
 4690SOL     OW25531   2.452   4.617  10.362  0.1734 -0.3288 -0.0622
 4690SOL    HW125532   2.384   4.553  10.383 -1.0374  1.0731  0.3116
 4690SOL    HW225533   2.402   4.696  10.344  2.6564  1.2806  0.0533
 4691SOL     OW25534   0.590   3.704   6.643 -0.1082 -0.3896 -0.3712
 4691SOL    HW125535   0.494   3.699   6.638 -0.0922 -2.6831  1.3467
 4691SOL    HW225536   0.600   3.728   6.735  0.4783  1.1176 -0.8383
 4692SOL     OW25537   1.511   4.559   1.676 -0.0842 -0.0113 -0.2074
 4692SOL    HW125538   1.424   4.536   1.643 -0.3753  0.8494 -0.0416
 4692SOL    HW225539   1.535   4.630   1.617  0.9369  0.9186  1.3155
 4693SOL     OW25540   1.085   0.041  12.446  0.2190  0.5372  0.1781
 4693SOL    HW125541   0.992   0.062  12.441  0.0346 -0.6618 -1.2138
 4693SOL    HW225542   1.116   0.100  12.516 -2.0340  1.2275  0.5922
 4694SOL     OW25543   0.867   1.413   0.656 -0.2231 -0.4829 -0.0800
 4694SOL    HW125544   0.889   1.475   0.725  0.3673  0.8927 -1.5216
 4694SOL    HW225545   0.843   1.340   0.713  2.1619 -1.8374 -0.8120
 4695SOL     OW25546   2.112   2.946  10.203  0.6627 -0.2043  0.7180
 4695SOL    HW125547   2.092   2.853  10.195  0.6472  0.0829 -2.7721
 4695SOL    HW225548   2.130   2.960  10.109 -0.5880 -1.2854  0.3222
 4696SOL     OW25549   1.461   1.211   7.424 -0.0710 -0.3223 -0.1544
 4696SOL    HW125550   1.458   1.156   7.503 -0.0452  0.9316  0.7141
 4696SOL    HW225551   1.369   1.235   7.426  0.3415  1.2528 -0.0762
 4697SOL     OW25552   0.323   0.825   8.711 -0.0245  0.1902 -0.2564
 4697SOL    HW125553   0.230   0.836   8.731  0.4363  1.6809  1.0316
 4697SOL    HW225554   0.322   0.730   8.719  0.0517  0.3158  1.1777
 4698SOL     OW25555   3.137   0.219   2.633 -0.3044 -0.2683 -0.3910
 4698SOL    HW125556   3.047   0.252   2.625 -0.3462  0.0417  1.1914
 4698SOL    HW225557   3.132   0.144   2.692 -1.6854  0.0004 -0.1490
 4699SOL     OW25558   1.715   2.131   1.715 -0.3248 -0.3609 -0.0992
 4699SOL    HW125559   1.663   2.051   1.727 -1.9538  1.0109  2.0671
 4699SOL    HW225560   1.790   2.104   1.663  0.3860  1.5772 -0.0417
 4700SOL     OW25561   2.996   0.871   4.099 -0.0683  0.0860  0.3110
 4700SOL    HW125562   3.079   0.918   4.101 -0.3295  0.5086  1.1788
 4700SOL    HW225563   2.984   0.890   4.192 -1.1859 -0.6009  0.2978
 4701SOL     OW25564   2.081   0.725   2.850 -0.1407 -0.3013  0.2046
 4701SOL    HW125565   2.053   0.760   2.934 -1.1568  0.9836 -0.6698
 4701SOL    HW225566   2.155   0.783   2.828 -0.6001  0.2914  0.2223
 4702SOL     OW25567   3.191   1.942   0.942  0.7595  0.0635 -0.1808
 4702SOL    HW125568   3.194   2.030   0.905  0.2209 -0.0773 -0.5506
 4702SOL    HW225569   3.163   1.965   1.031 -0.8822 -3.2777  0.1712
 4703SOL     OW25570   0.063   0.658   5.460  0.3182 -0.7272  0.5863
 4703SOL    HW125571   0.092   0.665   5.552  4.0629 -2.2731 -0.4572
 4703SOL    HW225572   0.147   0.684   5.423  0.1584  0.2437  0.8944
 4704SOL     OW25573   4.136   2.190   2.670  0.5636  0.4200 -0.2008
 4704SOL    HW125574   4.101   2.238   2.745 -0.8417 -2.2594  0.8693
 4704SOL    HW225575   4.107   2.100   2.685  0.3855  0.7015  1.1264
 4705SOL     OW25576   2.207   1.432   7.782 -0.5564  0.3256 -0.2272
 4705SOL    HW125577   2.294   1.419   7.745 -0.7568 -2.3780  0.2570
 4705SOL    HW225578   2.205   1.369   7.854 -2.4827 -1.2048 -1.6209
 4706SOL     OW25579   4.080   0.780   4.720 -0.7614  0.2963  0.0522
 4706SOL    HW125580   4.150   0.767   4.656 -1.7664 -2.9719 -0.3940
 4706SOL    HW225581   4.087   0.873   4.743  2.7355 -0.1906  0.9549
 4707SOL     OW25582   2.215   2.771   5.723  0.0197  0.3061 -0.4299
 4707SOL    HW125583   2.133   2.820   5.717 -1.3135 -2.1117 -1.6342
 4707SOL    HW225584   2.234   2.804   5.811 -1.0710  3.4538 -1.3345
 4708SOL     OW25585   2.574   4.376  13.697 -0.5781 -0.4164  0.5466
 4708SOL    HW125586   2.513   4.306  13.718  0.7865 -1.4181  1.1711
 4708SOL    HW225587   2.658   4.347  13.733  0.4619 -0.1116 -1.6515
 4709SOL     OW25588   1.841   2.729  12.632 -0.4152  0.0696  0.2036
 4709SOL    HW125589   1.813   2.645  12.597  0.4071  0.5752 -1.7006
 4709SOL    HW225590   1.924   2.739  12.586  0.3037 -0.9938  1.2955
 4710SOL     OW25591   1.899   1.775   3.776 -0.1196  0.4522 -0.0714
 4710SOL    HW125592   1.832   1.842   3.761 -0.1340  0.3461 -0.4743
 4710SOL    HW225593   1.975   1.833   3.772  0.5889 -0.3758  1.5759
 4711SOL     OW25594   2.950   4.330   6.347  0.3834 -0.0578 -0.7307
 4711SOL    HW125595   2.961   4.240   6.380  2.0452  0.6993  0.8017
 4711SOL    HW225596   2.925   4.316   6.256  0.0757  2.6064 -1.0566
 4712SOL     OW25597   1.274   3.281   2.116  0.4649  0.3282  0.1812
 4712SOL    HW125598   1.278   3.267   2.022 -2.7308  0.9148 -0.0606
 4712SOL    HW225599   1.367   3.297   2.132  0.2782 -0.7459  2.3262
 4713SOL     OW25600   3.270   1.020   6.130 -0.3880 -0.7640  0.7303
 4713SOL    HW125601   3.243   1.015   6.221  2.3601  0.0527  1.6007
 4713SOL    HW225602   3.348   0.965   6.127 -2.1994 -3.2623 -0.4543
 4714SOL     OW25603   0.551   0.375   4.701 -0.5394  0.3167  0.4657
 4714SOL    HW125604   0.585   0.401   4.616  1.4339 -0.4061  1.0337
 4714SOL    HW225605   0.585   0.443   4.760  1.0217  0.3754 -0.4855
 4715SOL     OW25606   3.135   0.159   2.004  0.4475  0.1333  0.1104
 4715SOL    HW125607   3.202   0.227   2.015  1.3774 -0.9571  1.3141
 4715SOL    HW225608   3.119   0.171   1.911 -2.0053 -0.5793  0.4531
 4716SOL     OW25609   0.166   2.615   7.561 -0.2889 -0.2354  0.2525
 4716SOL    HW125610   0.095   2.558   7.530 -1.8379  1.1372  1.2523
 4716SOL    HW225611   0.185   2.591   7.651 -0.7537 -0.0747  0.3959
 4717SOL     OW25612   1.247   2.144   8.318 -0.4421  0.1270 -0.2179
 4717SOL    HW125613   1.243   2.135   8.222 -1.8291 -0.0741 -0.1339
 4717SOL    HW225614   1.268   2.053   8.338  0.0869  0.3301  0.1602
 4718SOL     OW25615   1.049   2.390   8.789  0.1226  0.2754  0.7322
 4718SOL    HW125616   1.006   2.472   8.764  1.4047  0.0027 -2.3143
 4718SOL    HW225617   0.981   2.324   8.801  1.2500 -1.3713 -1.9994
 4719SOL     OW25618   2.646   1.078   4.781  0.3099  0.1273  0.5169
 4719SOL    HW125619   2.652   1.041   4.693  2.4204  0.7963  0.3910
 4719SOL    HW225620   2.695   1.010   4.827 -1.7325 -2.5250 -1.2169
 4720SOL     OW25621   1.349   3.908   4.421  0.3081 -0.2784 -0.3297
 4720SOL    HW125622   1.286   3.922   4.349  1.1261  0.4317 -0.9166
 4720SOL    HW225623   1.327   3.823   4.458 -3.2565  2.0475  2.8319
 4721SOL     OW25624   3.451   2.476   8.668  0.3330 -0.1457  0.0807
 4721SOL    HW125625   3.462   2.510   8.579  0.4083  2.5497  1.1111
 4721SOL    HW225626   3.413   2.554   8.708 -0.9067 -1.2902  1.1108
 4722SOL     OW25627   2.134   0.347   2.519 -0.2158  0.2845 -0.3576
 4722SOL    HW125628   2.092   0.408   2.458 -0.8016 -0.1974 -0.4425
 4722SOL    HW225629   2.163   0.285   2.452 -0.5524 -2.0437  1.6632
 4723SOL     OW25630   1.592   2.436   0.083 -0.5636 -0.0639 -0.2135
 4723SOL    HW125631   1.675   2.416   0.039 -0.6128  4.0683 -2.2189
 4723SOL    HW225632   1.563   2.345   0.080  0.1463 -0.2132 -2.4007
 4724SOL     OW25633   1.728   1.087   3.535  0.3238 -0.6744  0.0882
 4724SOL    HW125634   1.715   1.055   3.445  0.8069 -1.8950  0.4560
 4724SOL    HW225635   1.710   1.002   3.576 -1.3328 -0.9193 -1.1296
 4725SOL     OW25636   3.680   4.702   9.275  0.5340 -0.2440 -0.2496
 4725SOL    HW125637   3.635   0.034   9.340 -0.8319 -0.5059 -0.9659
 4725SOL    HW225638   3.603   4.650   9.252  0.9412 -0.3908 -1.2522
 4726SOL     OW25639   2.883   4.700   0.583 -0.3440  0.3546  0.1091
 4726SOL    HW125640   2.969   4.659   0.591  0.0051  1.0059 -0.2844
 4726SOL    HW225641   2.845   4.677   0.668 -1.2770  0.0879 -0.3912
 4727SOL     OW25642   2.840   1.002   6.539  0.1991  0.2195 -0.4629
 4727SOL    HW125643   2.773   0.939   6.565 -1.5728  2.4123  0.3279
 4727SOL    HW225644   2.786   1.070   6.498 -2.3194 -1.6084 -0.1074
 4728SOL     OW25645   1.648   1.055   9.562  0.4594 -0.5474  0.0427
 4728SOL    HW125646   1.609   0.969   9.544 -4.1672  1.2217  1.6724
 4728SOL    HW225647   1.731   1.035   9.518 -0.5606 -0.8119 -1.7922
 4729SOL     OW25648   2.919   0.067   7.238  0.0823  0.0056 -0.0429
 4729SOL    HW125649   2.862   0.004   7.281  0.7855 -0.7901 -0.2710
 4729SOL    HW225650   2.998   0.042   7.286  2.5494 -0.1378 -4.1726
 4730SOL     OW25651   3.356   2.086  15.856  0.0646 -0.3351 -0.0537
 4730SOL    HW125652   3.338   2.176  15.883 -1.0000 -1.0260  1.5284
 4730SOL    HW225653   3.299   2.085  15.779  2.7221 -0.9614 -2.0144
 4731SOL     OW25654   0.104   3.858   2.961  0.3874  0.0837  0.6958
 4731SOL    HW125655   0.099   3.783   3.021  2.7337  0.0875  0.9297
 4731SOL    HW225656   0.023   3.864   2.911 -0.0439 -2.5887  1.0257
 4732SOL     OW25657   4.207   1.869   4.875 -0.3291 -0.2152 -0.0334
 4732SOL    HW125658   4.282   1.929   4.868 -0.4641  0.0942  1.2662
 4732SOL    HW225659   4.246   1.789   4.911 -2.5469 -0.5016  1.6957
 4733SOL     OW25660   2.753   1.166   5.743  0.5886  0.4904 -0.1809
 4733SOL    HW125661   2.788   1.077   5.737 -0.1258  0.0725  2.0065
 4733SOL    HW225662   2.726   1.160   5.835 -2.6029 -1.2818 -1.2335
 4734SOL     OW25663   1.304   4.227   5.223  0.4331 -0.0481  0.4515
 4734SOL    HW125664   1.260   4.148   5.253 -0.3168  0.3804  0.4920
 4734SOL    HW225665   1.261   4.246   5.139  1.4726 -0.0197 -0.0645
 4735SOL     OW25666   0.888   2.571   5.110  0.5160  0.4504 -0.3376
 4735SOL    HW125667   0.947   2.639   5.077  1.0479  0.8999  1.5274
 4735SOL    HW225668   0.810   2.593   5.060 -0.8921 -0.2926  1.5522
 4736SOL     OW25669   4.206   3.663   6.222 -0.2457 -0.5049 -0.5908
 4736SOL    HW125670   4.220   3.720   6.146  1.2393 -1.0657 -0.7459
 4736SOL    HW225671   4.260   3.589   6.196 -0.7757 -1.4408  0.9450
 4737SOL     OW25672   4.164   2.025   1.420  0.2653 -0.5012  0.4958
 4737SOL    HW125673   4.150   2.110   1.378 -0.2094 -0.4748  0.7068
 4737SOL    HW225674   4.089   1.981   1.381  0.1438 -0.5222  0.7549
 4738SOL     OW25675   1.878   1.996   5.983 -0.0342  0.1167  0.2326
 4738SOL    HW125676   1.807   2.005   6.048 -0.0831 -0.5277  0.2682
 4738SOL    HW225677   1.834   1.937   5.922  0.9741 -2.5960  2.1596
 4739SOL     OW25678   1.556   2.911   6.404  0.5571 -0.5252 -0.7901
 4739SOL    HW125679   1.554   2.860   6.323 -2.2309 -3.2779  1.0377
 4739SOL    HW225680   1.649   2.934   6.410  0.4348 -0.6551  1.3967
 4740SOL     OW25681   0.204   1.088   9.784  0.4460  0.0662  0.2767
 4740SOL    HW125682   0.247   1.173   9.784  0.7284 -0.0794  2.7246
 4740SOL    HW225683   0.122   1.095   9.736  0.3825  0.3339  0.4289
 4741SOL     OW25684   1.188   2.045   7.502  0.2431 -0.0375 -0.3779
 4741SOL    HW125685   1.187   1.957   7.541  3.6902 -1.2890 -3.1421
 4741SOL    HW225686   1.133   2.097   7.561 -1.9466  0.3092 -2.7537
 4742SOL     OW25687   0.754   1.417   2.616  0.3986 -0.0077  0.2856
 4742SOL    HW125688   0.829   1.415   2.675  1.2208 -2.4043 -0.8372
 4742SOL    HW225689   0.795   1.418   2.529 -0.8464 -0.0207 -0.2985
 4743SOL     OW25690   3.175   0.367  11.496 -0.5006 -0.6225 -0.4259
 4743SOL    HW125691   3.150   0.275  11.509  1.9285 -0.9159  2.2661
 4743SOL    HW225692   3.130   0.392  11.416  2.0211 -0.5105 -1.8296
 4744SOL     OW25693   1.051   1.270   4.071 -0.8290 -0.1801 -0.8728
 4744SOL    HW125694   0.979   1.208   4.077  1.0405 -2.0803  1.4897
 4744SOL    HW225695   1.101   1.234   3.997 -0.8892  0.4677 -1.2288
 4745SOL     OW25696   2.654   4.216  12.090  0.0332  0.2730  0.1441
 4745SOL    HW125697   2.602   4.137  12.075 -1.6121  1.2626  0.6766
 4745SOL    HW225698   2.602   4.287  12.052  0.1004 -1.2829 -2.8634
 4746SOL     OW25699   4.066   3.731   7.304  0.0421 -0.3809 -0.2472
 4746SOL    HW125700   4.160   3.713   7.307 -0.0180 -0.9581 -1.6918
 4746SOL    HW225701   4.049   3.682   7.223 -2.4019 -1.1447  0.7338
 4747SOL     OW25702   1.560   4.050   8.989 -0.1781 -0.7729  0.3097
 4747SOL    HW125703   1.488   4.109   9.013  1.2283  1.3913 -0.7390
 4747SOL    HW225704   1.618   4.052   9.066 -0.7444 -0.7694  0.7361
 4748SOL     OW25705   1.537   1.596  10.243 -0.2900 -0.2437  0.2727
 4748SOL    HW125706   1.540   1.671  10.184  0.9085 -0.5344 -0.0199
 4748SOL    HW225707   1.510   1.533  10.176 -0.4690  0.0854  0.0346
 4749SOL     OW25708   1.178   1.723   3.085  0.3053 -0.0057  0.4258
 4749SOL    HW125709   1.231   1.715   3.006  0.4448  0.1512  0.5034
 4749SOL    HW225710   1.205   1.639   3.123 -2.9336 -0.9266  0.6645
 4750SOL     OW25711   4.520   0.343   0.737  0.7528  0.6074  0.5263
 4750SOL    HW125712   4.530   0.293   0.818 -0.9043 -0.4225  0.0812
 4750SOL    HW225713   4.451   0.293   0.695  2.1724  0.1453 -1.2607
 4751SOL     OW25714   4.427   3.339   7.401 -0.0435  0.0487  0.0975
 4751SOL    HW125715   4.467   3.407   7.456 -1.5837 -1.6607  3.3691
 4751SOL    HW225716   4.478   3.344   7.321 -2.0713  0.4097 -1.1657
 4752SOL     OW25717   2.857   0.931   7.866 -0.5873 -0.4718  0.3088
 4752SOL    HW125718   2.892   0.978   7.941  2.2118 -1.8481 -0.1134
 4752SOL    HW225719   2.921   0.952   7.797 -1.0529  0.9912  0.3267
 4753SOL     OW25720   3.373   4.086   3.355 -0.3222  0.2292  0.0802
 4753SOL    HW125721   3.437   4.154   3.336 -0.9142 -0.0794 -3.0454
 4753SOL    HW225722   3.390   4.072   3.448  1.2393 -1.1510 -0.4335
 4754SOL     OW25723   2.187   2.072   8.506  0.2177 -0.3288 -0.0465
 4754SOL    HW125724   2.263   2.110   8.550 -0.9025  2.9283 -0.9685
 4754SOL    HW225725   2.124   2.048   8.574 -2.0554 -0.3777 -2.1538
 4755SOL     OW25726   4.363   3.760   6.582  0.5212 -0.7224 -0.4424
 4755SOL    HW125727   4.440   3.802   6.544 -0.2761  0.8764 -0.2965
 4755SOL    HW225728   4.396   3.685   6.631  1.4846 -1.4051 -2.1474
 4756SOL     OW25729   2.972   0.876   6.936 -0.1987 -0.2030 -0.4488
 4756SOL    HW125730   3.067   0.878   6.943 -0.2489 -1.9029  0.8355
 4756SOL    HW225731   2.965   0.852   6.844  2.2497 -0.5804 -0.5310
 4757SOL     OW25732   3.861   2.510   8.334 -0.1906 -0.2024 -0.7112
 4757SOL    HW125733   3.882   2.417   8.336  1.3467  0.1510 -0.7915
 4757SOL    HW225734   3.771   2.513   8.367 -0.1778 -0.5141 -0.6520
 4758SOL     OW25735   3.613   0.143   2.123  0.0412  0.1088  0.0015
 4758SOL    HW125736   3.569   0.080   2.066 -0.9673 -0.6079  1.5950
 4758SOL    HW225737   3.537   0.196   2.147  0.2683  0.2866  0.3327
 4759SOL     OW25738   3.692   1.498   6.001 -0.5856 -0.1398 -0.6475
 4759SOL    HW125739   3.707   1.416   5.953 -2.1259 -2.3212  2.5763
 4759SOL    HW225740   3.783   1.526   6.011 -0.1504 -1.7086 -0.1143
 4760SOL     OW25741   1.540   3.005   6.676  0.4904 -0.6264 -0.5360
 4760SOL    HW125742   1.478   2.932   6.669  0.1458 -0.1373 -2.5151
 4760SOL    HW225743   1.572   3.001   6.586  0.1775  0.4510 -0.6940
 4761SOL     OW25744   1.281   2.398   1.151 -0.0525 -0.2879  0.4516
 4761SOL    HW125745   1.267   2.415   1.058  2.2725 -0.5207  0.0710
 4761SOL    HW225746   1.365   2.355   1.141 -0.3558 -0.9073  0.5421
 4762SOL     OW25747   1.665   3.580   7.798 -0.1368  0.0354 -0.4920
 4762SOL    HW125748   1.573   3.561   7.784 -0.0548  0.5091 -1.7140
 4762SOL    HW225749   1.679   3.661   7.749 -0.6914  1.4808  1.7109
 4763SOL     OW25750   4.142   4.378   6.620  0.1354 -0.6263 -0.6770
 4763SOL    HW125751   4.161   4.299   6.570 -1.0512 -1.6404  0.4655
 4763SOL    HW225752   4.079   4.345   6.684 -2.2797  2.3829 -1.4766
 4764SOL     OW25753   1.059   2.041   6.237  0.0396 -1.0598  0.0620
 4764SOL    HW125754   0.977   2.039   6.287  0.3941  1.6226  0.7889
 4764SOL    HW225755   1.082   1.949   6.227 -1.4385 -1.4179 -0.0468
 4765SOL     OW25756   0.948   0.495   5.579 -0.5810  0.0694  0.0992
 4765SOL    HW125757   0.883   0.559   5.608  0.6137  0.6215  1.5617
 4765SOL    HW225758   0.883   0.444   5.531  1.0576  0.3158 -2.3496
 4766SOL     OW25759   3.550   1.411   7.776 -0.3582  0.0708  0.1712
 4766SOL    HW125760   3.472   1.361   7.753 -0.7283 -0.4545  2.6201
 4766SOL    HW225761   3.509   1.474   7.836  0.7416 -1.0652  2.1113
 4767SOL     OW25762   2.968   2.821   2.735 -0.3882 -0.3037 -0.0191
 4767SOL    HW125763   3.012   2.775   2.806  1.3722 -0.1761 -1.0132
 4767SOL    HW225764   2.875   2.804   2.751  0.4376 -4.0102  0.5796
 4768SOL     OW25765   2.691   4.296   3.211  0.4257  0.0952  0.5161
 4768SOL    HW125766   2.681   4.337   3.297  1.8184 -1.9475  1.6468
 4768SOL    HW225767   2.780   4.315   3.182  0.8488 -0.1701  1.6198
 4769SOL     OW25768   4.324   3.724   7.264  0.2522  0.0167 -0.2464
 4769SOL    HW125769   4.341   3.808   7.221  1.7035  0.7826  1.8674
 4769SOL    HW225770   4.411   3.705   7.299  0.0640 -1.7337 -0.6891
 4770SOL     OW25771   2.534   3.123   6.778 -0.0095  0.0607 -0.4975
 4770SOL    HW125772   2.574   3.181   6.843 -1.9434  1.2574 -0.3774
 4770SOL    HW225773   2.444   3.121   6.810  0.3051 -0.3335  0.3713
 4771SOL     OW25774   4.504   0.179   0.479  0.4086 -0.1940 -0.0565
 4771SOL    HW125775   4.571   0.156   0.544  1.2240  2.0006 -0.1453
 4771SOL    HW225776   4.550   0.197   0.397  0.1310  1.5036  0.1687
 4772SOL     OW25777   2.520   2.125   6.349  0.1257 -0.1972 -0.1100
 4772SOL    HW125778   2.474   2.078   6.280  1.5049  1.2358 -1.9986
 4772SOL    HW225779   2.600   2.076   6.365  1.1208  1.2479 -0.6151
 4773SOL     OW25780   4.051   0.373   4.090 -0.0805  0.1148 -0.5950
 4773SOL    HW125781   4.018   0.283   4.079  0.9635 -0.1291 -1.8172
 4773SOL    HW225782   4.082   0.379   3.999  1.0604 -0.8383 -0.2767
 4774SOL     OW25783   3.399   1.172  13.880  0.1248  0.2382 -0.0582
 4774SOL    HW125784   3.447   1.168  13.963 -1.0294  1.8480  0.6952
 4774SOL    HW225785   3.312   1.176  13.921  0.2562  1.2320  0.1289
 4775SOL     OW25786   1.987   4.594   6.570 -0.5040 -0.1924 -0.2255
 4775SOL    HW125787   1.972   4.512   6.617 -0.9702 -0.5768 -1.0374
 4775SOL    HW225788   1.907   4.646   6.568 -0.7899 -0.6018  0.8594
 4776SOL     OW25789   3.718   4.060   8.968  0.0241  0.4461 -0.7817
 4776SOL    HW125790   3.724   4.153   8.945  2.3152  0.0714 -1.7388
 4776SOL    HW225791   3.718   4.068   9.063 -2.6288 -0.2676 -0.7209
 4777SOL     OW25792   4.170   1.186   5.978  0.2002  0.5998  0.2070
 4777SOL    HW125793   4.234   1.257   5.972  0.3349  0.3786 -0.9712
 4777SOL    HW225794   4.121   1.208   6.057  2.4589 -0.5340  1.9145
 4778SOL     OW25795   2.108   2.857   9.154  0.3146 -0.1842 -0.2396
 4778SOL    HW125796   2.024   2.895   9.177 -0.1224 -1.5594  0.4312
 4778SOL    HW225797   2.087   2.770   9.121 -1.5389  0.1685  0.0545
 4779SOL     OW25798   2.699   3.182   7.474  0.0850 -0.7526  0.5586
 4779SOL    HW125799   2.675   3.272   7.496 -1.4330 -0.7530 -1.1565
 4779SOL    HW225800   2.625   3.137   7.516  1.2663 -1.7381  1.5896
 4780SOL     OW25801   3.889   3.751   5.340 -0.8149 -0.0542 -0.2224
 4780SOL    HW125802   3.888   3.776   5.432 -1.2300  0.0315 -0.2507
 4780SOL    HW225803   3.977   3.713   5.333  0.3073  2.2238  1.4540
 4781SOL     OW25804   4.318   0.311   5.106 -0.7978  0.2564  0.4144
 4781SOL    HW125805   4.263   0.311   5.184 -1.6901  1.0130 -0.2139
 4781SOL    HW225806   4.250   0.300   5.039 -0.7843  0.4155  0.3749
 4782SOL     OW25807   1.001   1.248  13.521 -0.4059  0.0920  0.0159
 4782SOL    HW125808   1.024   1.184  13.588  2.1695  2.1742  1.1180
 4782SOL    HW225809   0.914   1.217  13.498 -0.6757  2.4758 -2.2718
 4783SOL     OW25810   1.836   3.498   9.231 -0.0558  0.7692 -0.5179
 4783SOL    HW125811   1.855   3.470   9.142  1.9285  1.6506 -0.3622
 4783SOL    HW225812   1.806   3.587   9.216 -0.3647  1.1407  2.2341
 4784SOL     OW25813   1.691   0.145   6.706  0.6565 -0.1622 -0.2424
 4784SOL    HW125814   1.713   0.099   6.787  2.1882  1.7763  0.4653
 4784SOL    HW225815   1.672   0.070   6.650 -0.8313 -1.0044  1.3771
 4785SOL     OW25816   0.356   3.647   8.074  0.4905 -0.5331  0.4137
 4785SOL    HW125817   0.319   3.734   8.061  2.9932  0.9066  2.7177
 4785SOL    HW225818   0.440   3.651   8.028 -0.0977 -1.1243 -0.7185
 4786SOL     OW25819   1.120   3.772  12.250  0.1057 -0.3642  0.2899
 4786SOL    HW125820   1.039   3.757  12.202  0.1680 -0.3240  0.1720
 4786SOL    HW225821   1.151   3.847  12.199 -0.1712  0.2070  0.9600
 4787SOL     OW25822   0.229   4.073   5.864 -0.2080 -0.2969  0.2718
 4787SOL    HW125823   0.295   4.142   5.862  0.5692 -0.9641  2.8130
 4787SOL    HW225824   0.223   4.062   5.959  3.1372 -1.5006  0.3296
 4788SOL     OW25825   0.666   4.599  10.079  0.3265  0.2059 -0.6217
 4788SOL    HW125826   0.631   4.631  10.162  1.7450 -0.1411  0.1189
 4788SOL    HW225827   0.759   4.583  10.096 -0.1685 -0.0017  1.7982
 4789SOL     OW25828   1.920   4.062   5.613 -0.0064  0.2612 -0.2605
 4789SOL    HW125829   1.974   4.136   5.641 -0.2923  1.1914 -2.2064
 4789SOL    HW225830   1.862   4.100   5.548  0.0485 -0.9516 -1.0147
 4790SOL     OW25831   4.502   2.276   7.144  0.0120 -0.3157 -0.1364
 4790SOL    HW125832   4.592   2.245   7.136 -0.4801 -1.6146 -0.6153
 4790SOL    HW225833   4.509   2.368   7.120  1.4179 -0.6623 -0.9873
 4791SOL     OW25834   2.048   1.455  17.281 -0.2476 -0.0786  0.0386
 4791SOL    HW125835   2.019   1.527  17.336  1.4290  0.8275 -0.2383
 4791SOL    HW225836   2.032   1.496  17.197  0.6372 -3.9377 -2.0383
 4792SOL     OW25837   4.265   4.342  17.291  0.1874 -0.0163  0.1957
 4792SOL    HW125838   4.325   4.368  17.361 -0.2868 -1.5279  1.1715
 4792SOL    HW225839   4.249   4.431  17.261  3.2118  0.8799  1.2458
 4793SOL     OW25840   3.810   3.997   4.292 -0.1238 -0.8517  0.2608
 4793SOL    HW125841   3.871   4.028   4.358  0.3921 -1.8798  0.2742
 4793SOL    HW225842   3.826   3.903   4.296  0.9778 -0.6882 -0.2813
 4794SOL     OW25843   3.342   3.703   6.834  0.3673  0.0505  0.2060
 4794SOL    HW125844   3.289   3.626   6.814 -0.6323  1.3060 -1.9742
 4794SOL    HW225845   3.420   3.663   6.873 -0.2099 -0.5362  0.7671
 4795SOL     OW25846   1.333   2.610   7.708  0.0978 -0.5525 -0.1394
 4795SOL    HW125847   1.276   2.590   7.782 -0.9352  0.7547 -0.5837
 4795SOL    HW225848   1.278   2.575   7.638 -1.6886  1.9056  0.0392
 4796SOL     OW25849   0.592   2.801  10.034  0.3740 -0.3596 -0.3812
 4796SOL    HW125850   0.525   2.751   9.989  1.5611 -1.4303 -0.9517
 4796SOL    HW225851   0.612   2.874   9.975  1.1073  1.0405  1.5693
 4797SOL     OW25852   0.271   3.869   5.609 -0.2199 -0.3160  0.3657
 4797SOL    HW125853   0.180   3.875   5.578 -1.1301  0.0279  3.1290
 4797SOL    HW225854   0.282   3.934   5.678  1.0593 -0.3184  0.1583
 4798SOL     OW25855   3.758   4.254  11.220 -0.4421 -0.2506  0.0030
 4798SOL    HW125856   3.680   4.199  11.219 -1.1501  0.7546  1.6538
 4798SOL    HW225857   3.830   4.191  11.218 -0.0845  0.1136  1.7939
 4799SOL     OW25858   4.424   1.222  15.773  0.1943 -0.9134 -0.2069
 4799SOL    HW125859   4.340   1.240  15.817 -0.2754 -0.9555 -1.0918
 4799SOL    HW225860   4.398   1.248  15.685 -2.0414  0.0299  0.7272
 4800SOL     OW25861   2.804   0.492   2.978  0.0101  0.3164  0.3319
 4800SOL    HW125862   2.735   0.466   2.919  0.0866  1.5725 -0.3207
 4800SOL    HW225863   2.784   0.583   3.000  1.8305  0.8513 -0.1513
 4801SOL     OW25864   1.571   2.987  10.380  0.3130 -0.3345  0.2202
 4801SOL    HW125865   1.585   3.051  10.449  3.2903  0.5370 -1.1914
 4801SOL    HW225866   1.633   2.916  10.398  0.5549 -0.5074 -1.3025
 4802SOL     OW25867   2.121   2.457  10.611 -0.1104  0.6227  0.2942
 4802SOL    HW125868   2.076   2.520  10.555 -1.5875 -1.8487 -1.2416
 4802SOL    HW225869   2.213   2.480  10.599 -0.1997  1.0687  0.4743
 4803SOL     OW25870   3.688   0.185   5.468  0.4895 -0.0113  0.3098
 4803SOL    HW125871   3.626   0.205   5.398  1.4000  1.3142 -0.1186
 4803SOL    HW225872   3.742   0.264   5.463 -2.1189  1.6882 -0.8451
 4804SOL     OW25873   4.590   1.000  12.905 -0.5602  0.1714  0.3740
 4804SOL    HW125874   4.618   0.910  12.890 -0.0359  0.2172  1.0405
 4804SOL    HW225875   4.540   1.018  12.826 -0.9441 -1.8866  0.1561
 4805SOL     OW25876   2.060   1.493   6.713  0.0759  0.4012  0.2768
 4805SOL    HW125877   2.051   1.581   6.677  1.3929  0.7626  0.8399
 4805SOL    HW225878   2.084   1.521   6.801 -1.0581 -0.7966  0.9585
 4806SOL     OW25879   2.306   4.436   7.656 -0.0188 -0.3025 -0.4915
 4806SOL    HW125880   2.211   4.435   7.653 -0.1300 -0.1831  3.5927
 4806SOL    HW225881   2.326   4.486   7.735 -0.4486 -1.1628  0.1584
 4807SOL     OW25882   3.950   1.949   2.001  0.8283 -0.7580 -0.0490
 4807SOL    HW125883   4.005   1.882   2.041  0.4977 -0.3492  1.0964
 4807SOL    HW225884   3.968   2.024   2.057 -0.9189 -1.8148  1.9335
 4808SOL     OW25885   4.448   3.801   4.194 -0.2639 -0.2872 -0.5577
 4808SOL    HW125886   4.519   3.749   4.232  0.2588 -0.1639 -1.3522
 4808SOL    HW225887   4.371   3.761   4.234  2.0513 -1.0873  3.0452
 4809SOL     OW25888   4.069   1.022  14.776  0.3093  0.0674  0.2923
 4809SOL    HW125889   4.084   1.023  14.870  1.7507 -1.1158  0.0674
 4809SOL    HW225890   4.040   0.932  14.762 -2.8104  1.0976 -0.0644
 4810SOL     OW25891   0.081   2.221   5.672  0.2711 -0.2642  0.5088
 4810SOL    HW125892   0.121   2.136   5.687  2.3927  0.5165 -0.5975
 4810SOL    HW225893   0.120   2.249   5.589  0.4172  0.0931  0.6950
 4811SOL     OW25894   1.788   2.866   5.970 -0.0648 -0.9616  0.1919
 4811SOL    HW125895   1.820   2.776   5.979  0.9192 -0.4853  1.4854
 4811SOL    HW225896   1.860   2.914   6.010 -0.1094 -1.7237  1.2085
 4812SOL     OW25897   4.092   4.468   6.355 -0.6971  0.6099 -0.1986
 4812SOL    HW125898   4.096   4.394   6.294 -2.4259 -0.1195  0.5674
 4812SOL    HW225899   4.103   4.419   6.437 -0.7526  0.4462 -0.2881
 4813SOL     OW25900   0.433   4.342   7.287  0.7901  0.1619  0.2275
 4813SOL    HW125901   0.387   4.274   7.238  0.9484 -0.6058  1.1533
 4813SOL    HW225902   0.371   4.415   7.282 -3.2692 -3.1790  1.3992
 4814SOL     OW25903   0.720   0.377   3.358  0.4524 -0.1846 -0.6420
 4814SOL    HW125904   0.677   0.462   3.349 -0.1771 -0.4768 -0.4153
 4814SOL    HW225905   0.811   0.405   3.351  1.1507 -1.7155  2.3562
 4815SOL     OW25906   2.760   3.356   6.555 -0.4176 -0.0477 -0.9941
 4815SOL    HW125907   2.673   3.318   6.542 -2.1103  2.7804  1.9952
 4815SOL    HW225908   2.811   3.277   6.569 -0.8126  0.4180  3.1031
 4816SOL     OW25909   1.970   0.484   3.375 -0.5921 -0.4617 -0.1518
 4816SOL    HW125910   2.045   0.530   3.412 -1.4436  0.9503 -0.1620
 4816SOL    HW225911   1.935   0.553   3.318  0.3694 -1.0679 -1.4768
 4817SOL     OW25912   0.331   0.190   3.360 -0.6588 -0.0449 -0.0558
 4817SOL    HW125913   0.334   0.201   3.455 -0.3562 -1.4303  0.0977
 4817SOL    HW225914   0.394   0.260   3.344 -1.8337  1.0651  0.1911
 4818SOL     OW25915   4.472   1.094   6.042  0.0206  0.2101  0.0665
 4818SOL    HW125916   4.474   1.178   6.088  1.7937 -0.8552  1.9526
 4818SOL    HW225917   4.403   1.109   5.977  2.7245  2.3338 -2.3389
 4819SOL     OW25918   0.525   0.648   3.049 -0.3108  0.1625 -0.0555
 4819SOL    HW125919   0.447   0.684   3.007 -0.0129  0.6967 -0.1393
 4819SOL    HW225920   0.558   0.727   3.092 -1.4994 -0.0829  1.2900
 4820SOL     OW25921   0.622   2.049  10.390 -0.2677 -0.5987 -0.0960
 4820SOL    HW125922   0.543   2.035  10.443 -0.6142  0.4967 -0.3391
 4820SOL    HW225923   0.599   1.986  10.321 -0.3137 -0.6988  0.0109
 4821SOL     OW25924   2.833   1.021   0.910  0.0665  0.0546 -0.4812
 4821SOL    HW125925   2.747   0.986   0.933  0.2739 -0.5743 -0.6616
 4821SOL    HW225926   2.803   1.050   0.824  0.4924  1.4941 -0.1450
 4822SOL     OW25927   0.961   2.045   1.063  0.3487 -0.4670 -0.0664
 4822SOL    HW125928   1.031   2.053   1.128  0.8962  0.9430 -0.8425
 4822SOL    HW225929   0.936   1.953   1.077  0.8496 -0.8313 -1.5704
 4823SOL     OW25930   2.112   0.906   7.034  0.0984 -0.6938  0.8152
 4823SOL    HW125931   2.133   0.971   7.102  1.2332  1.3455 -1.5101
 4823SOL    HW225932   2.180   0.915   6.968  0.7007 -0.0638  1.5210
 4824SOL     OW25933   1.521   4.039  13.968  0.4473  0.2118 -0.6646
 4824SOL    HW125934   1.482   4.003  14.047 -3.0315  0.7152 -2.1448
 4824SOL    HW225935   1.467   4.004  13.898  1.2268 -3.2430  0.4667
 4825SOL     OW25936   3.222   0.906   1.173 -0.1700 -0.5593  0.1627
 4825SOL    HW125937   3.243   0.993   1.140 -0.0677 -0.0744  1.4991
 4825SOL    HW225938   3.302   0.857   1.156  1.6968  2.6018  0.0049
 4826SOL     OW25939   0.348   0.450   3.472 -0.1060 -0.2030 -0.1478
 4826SOL    HW125940   0.424   0.488   3.428  0.2278 -1.8375 -0.9727
 4826SOL    HW225941   0.283   0.497   3.419  0.5183  1.1206  0.2436
 4827SOL     OW25942   2.477   3.003   7.209  0.0498  0.7124  0.4995
 4827SOL    HW125943   2.513   2.981   7.295  1.1298  3.9561  0.8763
 4827SOL    HW225944   2.550   2.988   7.149  0.5608  2.7896  0.6053
 4828SOL     OW25945   0.178   1.981  14.484  0.4986  0.0070 -0.0813
 4828SOL    HW125946   0.210   1.894  14.462 -0.3990 -0.3145 -0.0770
 4828SOL    HW225947   0.097   1.992  14.436  0.1769 -3.4649 -0.3376
 4829SOL     OW25948   3.654   3.060   8.919 -0.2425 -0.1223  0.3882
 4829SOL    HW125949   3.635   3.101   8.835 -0.6599 -0.1263  0.4797
 4829SOL    HW225950   3.749   3.072   8.920 -0.2152 -0.4310  1.4928
 4830SOL     OW25951   4.275   2.148  11.418  0.5484 -0.2282  0.0727
 4830SOL    HW125952   4.220   2.115  11.348  0.4650 -0.7484  0.3832
 4830SOL    HW225953   4.259   2.070  11.471 -0.7826 -0.2455 -0.3751
 4831SOL     OW25954   4.539   2.250   3.985  0.0815 -0.0013 -0.4468
 4831SOL    HW125955   4.500   2.238   3.899  1.2989 -0.8009 -0.8738
 4831SOL    HW225956   4.632   2.263   3.965  0.7988 -1.0612  2.1358
 4832SOL     OW25957   1.419   3.649  16.316  0.1230  0.2655 -0.0496
 4832SOL    HW125958   1.414   3.562  16.276 -0.1458  1.1621 -1.9826
 4832SOL    HW225959   1.351   3.688  16.261 -2.0515 -0.6119  2.0206
 4833SOL     OW25960   3.987   3.661   6.396 -0.9826 -0.3759 -0.4244
 4833SOL    HW125961   4.075   3.682   6.365 -0.8848  0.9638  0.7270
 4833SOL    HW225962   3.968   3.587   6.338  0.4589 -0.1492 -1.1578
 4834SOL     OW25963   1.163   1.541  14.723 -0.1604 -0.3958  0.1370
 4834SOL    HW125964   1.180   1.611  14.660 -0.8508  0.6144  1.0711
 4834SOL    HW225965   1.138   1.598  14.796 -0.3686 -1.1648  0.6634
 4835SOL     OW25966   2.681   2.832   3.284  1.0928  0.8652  0.4392
 4835SOL    HW125967   2.741   2.905   3.296  1.4871  0.5825  0.1897
 4835SOL    HW225968   2.633   2.864   3.208  1.3240 -4.2561 -1.9052
 4836SOL     OW25969   2.993   1.221   4.246 -0.4720  0.3062 -0.5192
 4836SOL    HW125970   3.070   1.177   4.209 -0.9737 -0.0357 -1.1530
 4836SOL    HW225971   3.029   1.310   4.256  3.1951 -1.2327 -0.0960
 4837SOL     OW25972   1.923   3.232   8.645 -0.3670  0.5630  0.2042
 4837SOL    HW125973   1.933   3.203   8.555  3.7798  2.4640  0.0643
 4837SOL    HW225974   1.904   3.156   8.700 -0.6552  0.7580  0.3796
 4838SOL     OW25975   4.276   2.738   8.318 -0.1833  0.1955  0.2066
 4838SOL    HW125976   4.185   2.733   8.349 -0.0427 -0.8176  0.4556
 4838SOL    HW225977   4.266   2.662   8.261 -0.9725 -1.7377  2.9441
 4839SOL     OW25978   0.604   0.821  15.820 -0.4243  0.2969 -0.2656
 4839SOL    HW125979   0.525   0.769  15.835 -0.1693  0.3789  1.3944
 4839SOL    HW225980   0.634   0.783  15.737  2.9273 -0.5827  1.3515
 4840SOL     OW25981   1.780   3.799   2.660  0.2547 -0.6341 -0.2644
 4840SOL    HW125982   1.837   3.875   2.673 -2.3227  1.1863  0.5788
 4840SOL    HW225983   1.700   3.830   2.702 -0.5412 -2.8734 -0.1091
 4841SOL     OW25984   3.378   3.974  15.503  0.0647  0.5844  0.1016
 4841SOL    HW125985   3.292   3.932  15.502 -0.1747  1.0376  2.5250
 4841SOL    HW225986   3.389   3.984  15.408  1.2231  0.5561  0.2247
 4842SOL     OW25987   4.576   0.134  10.204  0.2956  0.0484 -0.5609
 4842SOL    HW125988   4.567   0.077  10.281  1.5602 -0.1607 -0.5635
 4842SOL    HW225989   4.670   0.153  10.213  0.3536 -1.4344  1.9947
 4843SOL     OW25990   4.317   2.181   0.039  0.4333 -0.2635 -0.3428
 4843SOL    HW125991   4.284   2.257   0.087  0.8130 -0.3412  0.0449
 4843SOL    HW225992   4.363   2.222  17.662  0.9522  2.5360  1.5222
 4844SOL     OW25993   0.206   2.704  10.251 -0.2039  0.9226 -0.0328
 4844SOL    HW125994   0.177   2.627  10.202 -0.9392  1.6636 -0.7757
 4844SOL    HW225995   0.226   2.662  10.334 -1.2819  0.2582 -0.1105
 4845SOL     OW25996   4.538   4.137   2.078 -0.3335 -0.5855 -0.2739
 4845SOL    HW125997   4.484   4.164   2.004  0.6495 -0.7883 -1.0605
 4845SOL    HW225998   4.599   4.210   2.086 -1.2032 -0.1673  2.5875
 4846SOL     OW25999   2.149   4.306  14.533 -0.2782  0.0835  0.0003
 4846SOL    HW126000   2.097   4.385  14.518 -0.0036  0.8971  3.2521
 4846SOL    HW226001   2.092   4.235  14.505  0.7565  0.0488 -2.0396
 4847SOL     OW26002   3.918   3.127   3.178 -1.1060 -0.7066  0.2327
 4847SOL    HW126003   3.955   3.183   3.246 -0.7691  1.2857 -1.5582
 4847SOL    HW226004   4.000   3.103   3.135 -1.1893  0.4817 -0.6044
 4848SOL     OW26005   4.161   0.642   5.300 -0.4828 -0.0908  0.0292
 4848SOL    HW126006   4.154   0.707   5.230  1.3130  0.4467  0.3499
 4848SOL    HW226007   4.251   0.641   5.331 -0.4860  1.1481  0.1063
 4849SOL     OW26008   0.698   0.648   3.714  0.2639 -0.0462 -0.6097
 4849SOL    HW126009   0.792   0.632   3.708  0.6615  1.8499  0.5498
 4849SOL    HW226010   0.662   0.620   3.630 -0.8108 -2.9025  0.8058
 4850SOL     OW26011   1.196   2.310   4.154 -0.7525 -0.1925  0.2174
 4850SOL    HW126012   1.256   2.237   4.144  0.3577  1.1290 -2.8245
 4850SOL    HW226013   1.114   2.265   4.135 -0.6693 -0.9658  1.6743
 4851SOL     OW26014   2.805   1.027   2.115 -0.7651 -0.1387  0.2630
 4851SOL    HW126015   2.787   0.974   2.038  0.9362 -0.4173  0.0497
 4851SOL    HW226016   2.883   0.978   2.142  0.7223  1.4456 -1.1314
 4852SOL     OW26017   4.297   0.588   1.396  0.1565  0.2553 -0.3592
 4852SOL    HW126018   4.273   0.495   1.401  0.6948  0.1221 -0.2609
 4852SOL    HW226019   4.369   0.600   1.458 -0.6600 -0.5216  0.7296
 4853SOL     OW26020   4.154   4.705   6.251  0.6098 -0.4232 -0.2792
 4853SOL    HW126021   4.149   4.611   6.268 -2.4900 -0.0408  1.0317
 4853SOL    HW226022   4.221   4.709   6.182  1.1004  1.7127  0.3160
 4854SOL     OW26023   2.497   1.193  12.884  0.1161 -0.3332 -0.5946
 4854SOL    HW126024   2.481   1.136  12.808  0.0943 -1.9408  0.6121
 4854SOL    HW226025   2.479   1.139  12.961  1.1395 -1.8794 -1.4168
 4855SOL     OW26026   0.285   1.738  14.417 -0.3017 -0.2317  0.9846
 4855SOL    HW126027   0.373   1.767  14.392 -0.3546 -1.5867 -0.7733
 4855SOL    HW226028   0.259   1.676  14.349 -0.6348  0.6743  0.2731
 4856SOL     OW26029   3.711   1.112  14.286  0.3823 -0.0474  0.1714
 4856SOL    HW126030   3.800   1.131  14.254 -0.8708  0.3595 -3.1200
 4856SOL    HW226031   3.728   1.032  14.335 -1.2311  0.5999  1.7578
 4857SOL     OW26032   1.588   2.070  13.537  0.2721 -0.3626  0.2281
 4857SOL    HW126033   1.583   2.154  13.583  1.3080  0.8372 -1.8572
 4857SOL    HW226034   1.527   2.087  13.465  0.2773 -1.4705 -0.0327
 4858SOL     OW26035   2.992   3.855   2.058  0.0510  0.2722 -0.1952
 4858SOL    HW126036   2.973   3.948   2.047 -1.5340  0.1723  1.6110
 4858SOL    HW226037   2.919   3.821   2.006  0.5223 -0.8338 -0.1473
 4859SOL     OW26038   3.598   2.794   0.715 -0.0627 -0.1693  0.0051
 4859SOL    HW126039   3.523   2.852   0.723 -1.3348 -1.8009  0.0287
 4859SOL    HW226040   3.637   2.795   0.803 -1.5151 -2.4011  0.6878
 4860SOL     OW26041   3.224   4.515   3.269  0.3411 -0.1525  0.0674
 4860SOL    HW126042   3.263   4.602   3.282 -0.0461  0.1401 -0.7232
 4860SOL    HW226043   3.268   4.467   3.339 -0.8338  0.1475  1.0167
 4861SOL     OW26044   3.652   2.349   7.742 -0.4948 -0.1167  0.1956
 4861SOL    HW126045   3.731   2.296   7.758  0.2435  0.3217 -2.0482
 4861SOL    HW226046   3.700   2.430   7.727 -2.7413  1.2224  0.4038
 4862SOL     OW26047   1.890   1.283   4.860  0.4965 -0.1113  0.2251
 4862SOL    HW126048   1.814   1.315   4.908  0.4408  2.7605 -1.7346
 4862SOL    HW226049   1.962   1.309   4.917  0.3297  0.5587  0.1378
 4863SOL     OW26050   2.875   1.660  13.009 -0.1926 -0.2334  0.1100
 4863SOL    HW126051   2.815   1.733  12.993 -0.2040 -0.3855 -0.5356
 4863SOL    HW226052   2.865   1.606  12.931 -1.0101  0.1759 -0.0719
 4864SOL     OW26053   2.486   1.448   6.457  0.3654  0.3656 -0.0946
 4864SOL    HW126054   2.519   1.537   6.442  1.0528 -0.5804 -4.1885
 4864SOL    HW226055   2.411   1.442   6.398 -0.2969 -2.0337  0.9926
 4865SOL     OW26056   0.097   0.716   0.282 -0.0827  0.6320  0.8660
 4865SOL    HW126057   0.142   0.634   0.262  0.5068  0.7772  1.6144
 4865SOL    HW226058   0.140   0.742   0.363 -1.2283  1.2889  1.2599
 4866SOL     OW26059   1.144   1.472   9.124 -0.2194  0.1573  0.7756
 4866SOL    HW126060   1.056   1.483   9.160 -0.4311 -1.8945  0.9136
 4866SOL    HW226061   1.192   1.433   9.198  0.7764  0.6352  0.3885
 4867SOL     OW26062   2.437   1.253   2.596 -0.3710  0.2009  0.7653
 4867SOL    HW126063   2.399   1.249   2.684 -0.0065 -2.0087  0.8176
 4867SOL    HW226064   2.357   1.285   2.554 -0.1312 -0.0380  0.1222
 4868SOL     OW26065   3.113   4.433   7.244 -0.0461 -0.0148  0.3179
 4868SOL    HW126066   3.036   4.380   7.226  0.2481 -0.2880 -0.1074
 4868SOL    HW226067   3.179   4.364   7.253 -0.5893 -0.4485  1.0484
 4869SOL     OW26068   2.148   3.933   6.950  0.0805 -0.2888 -0.0759
 4869SOL    HW126069   2.103   3.874   6.889 -2.7047  0.5968  1.1281
 4869SOL    HW226070   2.196   3.989   6.889 -1.0512  1.2513  0.4500
 4870SOL     OW26071   2.330   4.699   3.213  0.5145  0.5271  0.1097
 4870SOL    HW126072   2.383   4.694   3.134  0.0888 -1.3037 -0.0579
 4870SOL    HW226073   2.315   4.605   3.227 -0.6827  0.5773 -0.8178
 4871SOL     OW26074   0.144   0.006  12.360  0.2919 -0.0645 -0.8791
 4871SOL    HW126075   0.087   0.024  12.434 -0.4701 -2.9834 -0.7575
 4871SOL    HW226076   0.178   4.649  12.399  2.3325  1.6710  0.8896
 4872SOL     OW26077   1.560   4.228  14.772  0.1891 -0.5789  0.0162
 4872SOL    HW126078   1.506   4.275  14.835 -0.8164 -1.1391 -0.4280
 4872SOL    HW226079   1.646   4.231  14.814  0.2399  1.0766 -0.2004
 4873SOL     OW26080   2.382   0.200   6.656  0.2012  0.3341 -0.0328
 4873SOL    HW126081   2.301   0.165   6.692 -0.4218  0.2144 -1.5610
 4873SOL    HW226082   2.382   0.277   6.713  2.1920  0.4782 -0.2077
 4874SOL     OW26083   2.461   1.514  17.371 -0.5175 -0.7130 -0.0816
 4874SOL    HW126084   2.476   1.545  17.460  2.5571  0.0485 -0.8485
 4874SOL    HW226085   2.548   1.520  17.331 -0.4735  1.1626  0.3176
 4875SOL     OW26086   1.074   2.860   8.387 -0.3250 -0.2594  0.8508
 4875SOL    HW126087   1.063   2.852   8.482  0.8395  1.4024  1.1250
 4875SOL    HW226088   1.014   2.788   8.368  1.1912 -0.9283 -1.3062
 4876SOL     OW26089   4.507   4.081   4.207 -0.2775 -0.0540 -0.0487
 4876SOL    HW126090   4.524   3.992   4.175  0.0109 -0.5441  1.4525
 4876SOL    HW226091   4.413   4.090   4.194 -0.7131 -1.8763  1.7874
 4877SOL     OW26092   3.014   1.559   7.960 -0.2450 -0.4048  0.8988
 4877SOL    HW126093   2.999   1.650   7.986  1.2452 -0.2224  1.0832
 4877SOL    HW226094   2.934   1.548   7.908 -0.2861  1.5897  0.5386
 4878SOL     OW26095   0.318   4.352  17.393 -0.3477  0.3424  0.0340
 4878SOL    HW126096   0.318   4.442  17.361 -0.1982  0.9780  1.8445
 4878SOL    HW226097   0.242   4.313  17.351  0.1768 -1.5533  0.8288
 4879SOL     OW26098   1.259   0.864   0.704  0.1946  0.0778 -0.1213
 4879SOL    HW126099   1.205   0.930   0.748  1.6263  2.6537 -2.2241
 4879SOL    HW226100   1.347   0.891   0.732  0.1843 -0.8450  0.7888
 4880SOL     OW26101   4.715   1.067  15.804  1.0359 -0.3979 -0.4050
 4880SOL    HW126102   0.060   1.048  15.869  0.9531  0.7703  0.0159
 4880SOL    HW226103   4.700   0.985  15.758 -1.5377  0.8055 -1.6729
 4881SOL     OW26104   1.679   3.318   9.009 -0.4528  0.1562  0.2052
 4881SOL    HW126105   1.708   3.399   8.966  0.8186 -1.5511 -2.1212
 4881SOL    HW226106   1.635   3.276   8.936 -0.4489  0.3978  0.0634
 4882SOL     OW26107   2.276   2.943   7.050  0.2667  0.1208  0.3101
 4882SOL    HW126108   2.336   2.989   7.108  0.4870  2.0046 -1.4179
 4882SOL    HW226109   2.346   2.902   6.998 -0.5176 -1.3463  0.3999
 4883SOL     OW26110   2.246   4.552   4.143  0.1557 -0.1064 -0.5636
 4883SOL    HW126111   2.244   4.496   4.221  1.2072 -0.1203 -0.5527
 4883SOL    HW226112   2.267   4.487   4.076  0.7088  0.9649 -1.4200
 4884SOL     OW26113   4.649   0.830   3.995  0.6614  0.3101  0.4592
 4884SOL    HW126114   4.594   0.817   3.919  0.8819  3.3182 -0.2274
 4884SOL    HW226115   0.006   0.804   3.951 -0.6326 -2.3918 -0.2552
 4885SOL     OW26116   1.574   2.931   0.619 -0.5711 -0.4473  0.2222
 4885SOL    HW126117   1.512   2.934   0.691 -1.0392 -0.3218 -0.1816
 4885SOL    HW226118   1.520   2.976   0.554  0.9926  1.0059 -0.0584
 4886SOL     OW26119   1.582   2.297   3.412 -0.1789 -0.1860 -0.0455
 4886SOL    HW126120   1.554   2.210   3.439 -0.3785  0.2805  1.2406
 4886SOL    HW226121   1.677   2.286   3.410 -0.0303  0.8364  1.5709
 4887SOL     OW26122   2.291   2.111   2.213 -0.3630 -0.5779 -0.4203
 4887SOL    HW126123   2.293   2.113   2.309  2.2350 -1.3421 -0.4815
 4887SOL    HW226124   2.367   2.059   2.188  0.5726  1.2643 -1.3158
 4888SOL     OW26125   1.989   3.560   8.208 -0.9541 -0.3931 -0.8943
 4888SOL    HW126126   1.921   3.498   8.182 -1.6415  1.8004 -4.2887
 4888SOL    HW226127   2.002   3.555   8.303  1.4192 -2.4913 -1.3329
 4889SOL     OW26128   3.057   3.329   3.635 -0.1305  0.4058  0.1715
 4889SOL    HW126129   3.118   3.385   3.587 -0.2986  0.6976  0.2972
 4889SOL    HW226130   3.106   3.300   3.712 -2.8090 -1.0454  1.3248
 4890SOL     OW26131   0.568   4.163   7.810  0.1729  0.4916 -0.2105
 4890SOL    HW126132   0.568   4.191   7.902  1.9970  0.2130 -0.1258
 4890SOL    HW226133   0.657   4.131   7.799  0.3678  0.6873  0.8492
 4891SOL     OW26134   3.263   3.346  14.471  0.3932 -0.0532  0.5891
 4891SOL    HW126135   3.340   3.316  14.519  0.9619  0.2034 -0.1411
 4891SOL    HW226136   3.297   3.387  14.390  2.0571 -1.3313  0.6399
 4892SOL     OW26137   0.878   4.309   4.301 -0.1775 -0.5441 -0.0524
 4892SOL    HW126138   0.933   4.241   4.341 -0.6419 -1.3932 -0.8434
 4892SOL    HW226139   0.823   4.328   4.377 -1.9708  0.3088 -1.5555
 4893SOL     OW26140   3.998   0.173   7.666  0.1851 -0.3052 -0.1538
 4893SOL    HW126141   3.997   0.091   7.715 -0.4580  0.4408  1.1046
 4893SOL    HW226142   3.920   0.175   7.610 -0.4161 -1.9329  0.6321
 4894SOL     OW26143   4.258   2.729   1.853  0.6817 -0.0797 -0.6058
 4894SOL    HW126144   4.273   2.738   1.759 -1.7384  1.0514 -0.8778
 4894SOL    HW226145   4.175   2.777   1.859  1.1483  0.3643  2.3400
 4895SOL     OW26146   0.107   1.234  15.597 -0.5372 -0.1853  0.0173
 4895SOL    HW126147   0.073   1.172  15.532 -1.4529 -0.1234  0.4344
 4895SOL    HW226148   0.171   1.176  15.639 -0.3563  0.3608  0.4945
 4896SOL     OW26149   1.647   1.702  15.510  0.1055  0.3581  0.1385
 4896SOL    HW126150   1.635   1.794  15.489  1.8226  0.7554  0.8760
 4896SOL    HW226151   1.688   1.663  15.433 -1.0112 -1.4203  0.4304
 4897SOL     OW26152   0.215   3.716  14.154  0.3011 -0.8067  0.5038
 4897SOL    HW126153   0.180   3.663  14.225 -1.7062  0.0631  0.1606
 4897SOL    HW226154   0.145   3.770  14.118  0.8711  0.0972  0.7320
 4898SOL     OW26155   1.610   1.465   5.184  0.0460 -0.3442 -0.2662
 4898SOL    HW126156   1.586   1.373   5.175  0.6084 -0.5487  0.2895
 4898SOL    HW226157   1.628   1.485   5.092  4.2538 -1.4015  0.3218
 4899SOL     OW26158   1.512   4.451   6.851 -0.0664 -0.0393 -0.2660
 4899SOL    HW126159   1.497   4.535   6.807  0.9570  1.8221  2.9576
 4899SOL    HW226160   1.548   4.495   6.928  0.9151 -0.9530 -0.2101
 4900SOL     OW26161   2.993   0.287   9.026 -0.5956  0.4335 -0.2906
 4900SOL    HW126162   3.043   0.342   9.085  3.1521 -0.8252 -2.2815
 4900SOL    HW226163   2.937   0.238   9.086 -1.1842 -1.4345 -2.3170
 4901SOL     OW26164   2.583   0.842   5.119  0.4535  0.4733  0.3271
 4901SOL    HW126165   2.673   0.811   5.130 -0.2451 -2.0841 -1.0358
 4901SOL    HW226166   2.590   0.905   5.048  2.3025  2.1105  1.9670
 4902SOL     OW26167   4.067   1.743   4.599 -0.4406 -0.0348  0.2084
 4902SOL    HW126168   4.137   1.793   4.642 -1.1211  3.0093 -2.2487
 4902SOL    HW226169   4.110   1.755   4.514  3.4418  0.5637  2.2327
 4903SOL     OW26170   3.522   1.270  16.448  0.1283  0.8638 -0.0833
 4903SOL    HW126171   3.577   1.192  16.440  0.2240  0.9855 -0.6294
 4903SOL    HW226172   3.490   1.254  16.537  0.8902  0.5499  0.1346
 4904SOL     OW26173   3.106   0.156   8.590  0.4790 -0.7421 -0.1737
 4904SOL    HW126174   3.094   0.151   8.495 -1.6349 -0.2873  0.0783
 4904SOL    HW226175   3.020   0.183   8.623  0.7753 -1.2199  1.0035
 4905SOL     OW26176   4.107   0.508   2.100  0.5333 -0.4006 -0.3691
 4905SOL    HW126177   4.203   0.505   2.101  0.5617  0.4728  0.0375
 4905SOL    HW226178   4.095   0.586   2.154  1.3218 -0.5738  0.0504
 4906SOL     OW26179   0.868   3.126   3.047 -0.0504  0.7169 -0.0046
 4906SOL    HW126180   0.777   3.135   3.018 -0.7703 -3.1878  1.0479
 4906SOL    HW226181   0.903   3.211   3.021  3.0831  0.0768  2.1162
 4907SOL     OW26182   0.772   1.350   8.236  0.4648 -0.0325 -0.5190
 4907SOL    HW126183   0.778   1.341   8.331  1.6616 -1.3073 -0.7102
 4907SOL    HW226184   0.827   1.276   8.210 -1.1663 -1.5435  0.3040
 4908SOL     OW26185   0.581   1.476   4.324 -0.0887 -0.0293 -0.2618
 4908SOL    HW126186   0.553   1.391   4.358  2.3814 -1.2206 -1.1890
 4908SOL    HW226187   0.555   1.471   4.232 -0.4979 -0.0740 -0.1444
 4909SOL     OW26188   3.975   2.829   1.864 -0.0698  0.1390  0.0059
 4909SOL    HW126189   3.993   2.922   1.878  1.1490 -0.4680  2.3338
 4909SOL    HW226190   3.945   2.833   1.773  1.3306 -1.7088 -0.5427
 4910SOL     OW26191   1.408   3.968  14.954 -0.5349  0.5416 -0.3595
 4910SOL    HW126192   1.380   3.937  15.040 -3.3984  0.4092 -1.3500
 4910SOL    HW226193   1.348   4.042  14.943 -0.7515  0.3466 -0.4859
 4911SOL     OW26194   4.362   3.471  16.418  0.6618 -0.3610  0.2354
 4911SOL    HW126195   4.421   3.413  16.467 -1.0487 -0.8683  1.6859
 4911SOL    HW226196   4.351   3.539  16.484  1.9636 -0.2499  0.3542
 4912SOL     OW26197   1.661   1.619  11.237 -0.0360 -0.1122 -0.4177
 4912SOL    HW126198   1.701   1.587  11.318  2.0946  1.5251 -0.8001
 4912SOL    HW226199   1.710   1.573  11.169 -1.0952  0.2822 -1.4471
 4913SOL     OW26200   1.470   2.193   0.467  0.1462 -0.3853  0.3970
 4913SOL    HW126201   1.564   2.184   0.450 -0.5389 -0.2998 -3.3850
 4913SOL    HW226202   1.449   2.285   0.452 -0.0799 -0.4081  0.5815
 4914SOL     OW26203   3.421   2.883   0.495 -0.1067  0.0364  0.2396
 4914SOL    HW126204   3.442   2.800   0.537 -0.2614  0.0629  0.3649
 4914SOL    HW226205   3.498   2.906   0.441 -0.6409 -1.5685 -1.2012
 4915SOL     OW26206   2.270   2.267   6.840  0.4163  0.6217 -0.6588
 4915SOL    HW126207   2.329   2.289   6.768  1.8662  2.6394  1.1401
 4915SOL    HW226208   2.317   2.207   6.898  1.3233  2.7167  0.7597
 4916SOL     OW26209   4.122   3.499   4.478 -0.8733 -0.0130  0.0266
 4916SOL    HW126210   4.098   3.530   4.390 -1.3675 -2.7149 -0.7962
 4916SOL    HW226211   4.092   3.408   4.483 -3.2092  0.7457  0.0564
 4917SOL     OW26212   1.178   3.936   8.420  0.4901  0.4616  0.1874
 4917SOL    HW126213   1.114   3.871   8.449 -0.9906  2.1477  0.7401
 4917SOL    HW226214   1.245   3.884   8.376 -1.9112 -0.7221 -2.1444
 4918SOL     OW26215   3.929   1.004   4.191  0.3273 -0.4008  0.4811
 4918SOL    HW126216   4.016   0.963   4.188 -0.0055 -1.0836  0.1131
 4918SOL    HW226217   3.893   0.937   4.249 -2.6069 -1.1526 -2.2362
 4919SOL     OW26218   1.771   1.429  10.372 -0.0490  0.2585 -0.4162
 4919SOL    HW126219   1.739   1.398  10.457 -2.2191  3.3758 -0.1298
 4919SOL    HW226220   1.697   1.478  10.336 -1.9093 -0.0893  2.9692
 4920SOL     OW26221   2.838   0.567   6.657  0.0063  0.3400 -0.3449
 4920SOL    HW126222   2.899   0.495   6.673  2.2252  2.0276 -1.3115
 4920SOL    HW226223   2.790   0.573   6.740  1.1065 -0.0937  0.3219
 4921SOL     OW26224   0.196   1.105   3.622 -0.2767  0.2353 -0.0280
 4921SOL    HW126225   0.235   1.132   3.538 -1.2954 -0.7787 -0.8346
 4921SOL    HW226226   0.105   1.109   3.592 -0.6345 -0.9768  0.9376
 4922SOL     OW26227   0.222   0.458   0.235 -0.2825  0.3139  0.0244
 4922SOL    HW126228   0.249   0.412   0.156  0.6642  0.4152  0.2922
 4922SOL    HW226229   0.212   0.385   0.296  0.1908 -0.1054 -0.3979
 4923SOL     OW26230   4.523   3.668   2.068  0.2871 -0.1969 -0.4280
 4923SOL    HW126231   4.608   3.660   2.112 -0.0735 -2.5212 -0.1402
 4923SOL    HW226232   4.542   3.629   1.982 -1.7106 -0.8250 -0.5934
 4924SOL     OW26233   3.674   2.272   3.427 -0.1732  0.6517 -0.0125
 4924SOL    HW126234   3.754   2.316   3.399 -0.4812  0.8823 -0.5400
 4924SOL    HW226235   3.626   2.348   3.460  0.8876  1.0446  0.6060
 4925SOL     OW26236   1.652   2.263   2.268 -0.2538  0.1260  0.1047
 4925SOL    HW126237   1.631   2.261   2.174  0.5161 -1.5087 -0.0248
 4925SOL    HW226238   1.575   2.308   2.304 -0.9828 -3.5662  3.1520
 4926SOL     OW26239   3.207   3.427   0.365  0.3752 -0.0292  0.9547
 4926SOL    HW126240   3.283   3.398   0.416  1.8422  0.1997 -1.1032
 4926SOL    HW226241   3.146   3.353   0.370 -1.6412  1.6846  1.8357
 4927SOL     OW26242   3.070   4.697   5.371  0.1551  0.5698 -0.0819
 4927SOL    HW126243   3.036   4.706   5.460 -0.0366 -1.0753  0.0215
 4927SOL    HW226244   3.091   4.604   5.384  0.8830  0.8744  0.9296
 4928SOL     OW26245   4.200   3.053   9.523 -0.2294 -0.1385  0.4429
 4928SOL    HW126246   4.247   3.037   9.442 -0.6477 -0.1726  0.2044
 4928SOL    HW226247   4.108   3.044   9.497 -0.0445  2.2148 -1.0138
 4929SOL     OW26248   3.955   1.051   9.232 -0.2465  0.1463 -0.3385
 4929SOL    HW126249   3.922   1.140   9.224 -1.0990 -0.3590 -2.5283
 4929SOL    HW226250   4.043   1.052   9.271  0.3367 -0.1237 -1.6427
 4930SOL     OW26251   4.039   0.420   6.741 -0.3831 -0.8633 -0.0411
 4930SOL    HW126252   4.132   0.422   6.717 -0.1174 -1.4242  0.9510
 4930SOL    HW226253   3.998   0.428   6.655  1.7466 -1.2293 -1.1028
 4931SOL     OW26254   4.556   4.247  15.557  0.4064  0.1973  0.6468
 4931SOL    HW126255   4.506   4.324  15.527 -1.0244  0.1860  3.0138
 4931SOL    HW226256   4.497   4.176  15.531  0.9182 -0.2308  0.6674
 4932SOL     OW26257   3.376   0.254   8.054 -0.6194  0.2014 -1.2341
 4932SOL    HW126258   3.319   0.180   8.074  0.8202 -0.8885 -1.2566
 4932SOL    HW226259   3.448   0.221   8.001  0.2357 -1.1013  0.7546
 4933SOL     OW26260   1.968   4.513  12.535 -0.2174 -0.2510  0.2007
 4933SOL    HW126261   1.909   4.526  12.609 -0.3134  1.0852 -0.1112
 4933SOL    HW226262   2.036   4.457  12.573  1.1865 -0.7077 -2.9219
 4934SOL     OW26263   4.055   3.918  14.427  0.4342 -0.1692  0.1712
 4934SOL    HW126264   4.023   4.001  14.391 -0.1832 -0.7099 -0.5223
 4934SOL    HW226265   4.113   3.935  14.501 -0.2042  0.4105  0.5459
 4935SOL     OW26266   1.763   4.584  14.301  0.0008 -0.4528  0.1485
 4935SOL    HW126267   1.782   4.525  14.228 -2.3312 -1.5941  0.4777
 4935SOL    HW226268   1.699   4.542  14.358  0.4284  0.1352  1.0664
 4936SOL     OW26269   2.138   2.135   4.828 -0.1206  0.1674 -0.1268
 4936SOL    HW126270   2.146   2.076   4.902 -0.8518 -0.0853 -0.2449
 4936SOL    HW226271   2.149   2.072   4.756  0.4502 -1.1498  1.1175
 4937SOL     OW26272   3.437   3.678  10.707  0.2238  1.8127 -0.2292
 4937SOL    HW126273   3.413   3.650  10.619 -0.6451  0.8691  0.3053
 4937SOL    HW226274   3.450   3.773  10.702  1.5133  1.6829  0.6034
 4938SOL     OW26275   0.906   0.232   7.313  0.1004  0.3136  0.3427
 4938SOL    HW126276   0.919   0.311   7.262 -0.0461 -1.2689 -2.1391
 4938SOL    HW226277   0.818   0.200   7.293  0.8592 -1.6664  0.1447
 4939SOL     OW26278   2.550   2.978   1.960 -0.2183  0.6046 -0.1322
 4939SOL    HW126279   2.579   2.960   1.871 -0.8779  1.1108 -0.4468
 4939SOL    HW226280   2.561   2.891   2.000  3.0083  0.8021 -0.5738
 4940SOL     OW26281   1.082   0.721   4.065  0.0663 -0.0288 -0.6466
 4940SOL    HW126282   1.113   0.641   4.108 -0.5167  0.3958  0.5708
 4940SOL    HW226283   1.064   0.774   4.142  2.8899 -2.9176  2.0191
 4941SOL     OW26284   2.589   1.954   7.539  0.1682  0.4215 -0.0467
 4941SOL    HW126285   2.535   2.002   7.476  1.9383  1.8040 -0.5030
 4941SOL    HW226286   2.536   1.980   7.614  1.6143 -0.6144  1.3453
 4942SOL     OW26287   4.078   1.949   6.406  0.2139  0.6786  0.0910
 4942SOL    HW126288   4.037   2.034   6.392 -2.7526 -0.4035  2.1668
 4942SOL    HW226289   4.056   1.922   6.495 -0.6045 -0.4288 -0.4536
 4943SOL     OW26290   4.524   3.130   6.062  0.0235 -0.2450 -0.4894
 4943SOL    HW126291   4.437   3.110   6.029  0.2771 -1.8537 -0.1695
 4943SOL    HW226292   4.509   3.224   6.075 -0.0158 -0.4743  1.0714
 4944SOL     OW26293   0.891   1.831   5.319 -0.0853 -0.5094  0.5348
 4944SOL    HW126294   0.947   1.754   5.330  1.3770  0.4624 -0.0482
 4944SOL    HW226295   0.958   1.897   5.299 -0.3432 -0.7030 -0.9376
 4945SOL     OW26296   4.121   3.964  10.004 -0.0988 -0.1654  0.6508
 4945SOL    HW126297   4.162   3.933   9.924  0.2890  0.0479  0.7710
 4945SOL    HW226298   4.061   4.035   9.983  0.8583 -0.6223 -3.6260
 4946SOL     OW26299   4.602   2.005   6.545 -0.6980  0.4542 -0.1432
 4946SOL    HW126300   4.637   1.924   6.508  0.4901  0.7775  0.2761
 4946SOL    HW226301   4.668   2.071   6.522 -0.8619  0.9962  0.9521
 4947SOL     OW26302   3.975   2.208   6.337 -0.2753 -0.3878 -0.2903
 4947SOL    HW126303   3.963   2.303   6.340 -2.7341 -0.7606  2.4269
 4947SOL    HW226304   3.885   2.189   6.362  0.0469 -0.7908  0.5749
 4948SOL     OW26305   3.451   1.593   7.513  0.5018  1.0726  0.0805
 4948SOL    HW126306   3.411   1.668   7.557 -0.9767 -0.9746  2.2275
 4948SOL    HW226307   3.419   1.519   7.565  1.5665  0.9632  0.5804
 4949SOL     OW26308   1.101   3.443  12.380 -0.0533  0.2740 -0.3028
 4949SOL    HW126309   1.119   3.362  12.427 -0.1507  0.3996 -0.0452
 4949SOL    HW226310   1.005   3.441  12.379 -0.0053 -1.8058 -0.9781
 4950SOL     OW26311   2.032   3.893   5.791  0.1505 -0.2778  0.0739
 4950SOL    HW126312   2.001   3.948   5.719 -0.7581  1.1663  1.5567
 4950SOL    HW226313   2.104   3.948   5.822 -0.8291  1.8738 -1.4317
 4951SOL     OW26314   4.661   1.084   9.476 -0.0667 -0.4485 -0.5074
 4951SOL    HW126315   4.690   1.141   9.548  0.1028 -1.6804  0.3988
 4951SOL    HW226316   0.006   1.102   9.412 -1.0902 -1.6100 -1.9010
 4952SOL     OW26317   0.816   2.058   6.831  0.0668 -0.2343  0.6278
 4952SOL    HW126318   0.844   2.081   6.920 -2.8631 -0.0130  1.4970
 4952SOL    HW226319   0.892   2.040   6.776 -0.7420 -0.4055 -0.4442
 4953SOL     OW26320   4.087   1.789   1.019 -0.1725 -0.0530 -0.5751
 4953SOL    HW126321   4.071   1.798   0.925 -1.7618  2.0450 -0.0901
 4953SOL    HW226322   4.028   1.718   1.039 -0.1622 -0.0259 -0.4492
 4954SOL     OW26323   0.219   4.673   6.479 -0.2039  0.0627  0.1235
 4954SOL    HW126324   0.188   4.632   6.399 -0.8614  1.3865 -0.3050
 4954SOL    HW226325   0.315   4.666   6.473 -0.3211 -0.6714 -0.8291
 4955SOL     OW26326   4.666   3.154  15.428 -0.1396  0.2751 -0.2958
 4955SOL    HW126327   4.683   3.219  15.497 -0.9094 -0.8375  0.9198
 4955SOL    HW226328   0.033   3.128  15.410 -0.7517 -1.7650 -0.3955
 4956SOL     OW26329   4.667   1.819   9.291 -0.0362  0.1361 -0.0359
 4956SOL    HW126330   4.713   1.764   9.228 -0.1262 -2.6643  2.3553
 4956SOL    HW226331   4.577   1.817   9.259 -0.3953  1.0389  0.9204
 4957SOL     OW26332   1.505   3.468   3.426  0.4226  0.0998 -0.3414
 4957SOL    HW126333   1.500   3.460   3.521 -1.2683  1.1459 -0.3278
 4957SOL    HW226334   1.444   3.399   3.400  1.8430 -1.8780  1.6410
 4958SOL     OW26335   1.907   2.198   8.979  0.1471 -0.4680 -0.7931
 4958SOL    HW126336   1.839   2.168   8.918  0.1415 -0.5532 -0.7461
 4958SOL    HW226337   1.878   2.147   9.054 -0.2020  0.4827 -0.2911
 4959SOL     OW26338   4.131   4.464  10.369  0.3983  0.6781  0.0140
 4959SOL    HW126339   4.187   4.387  10.382 -0.9889  0.0131  1.9953
 4959SOL    HW226340   4.046   4.440  10.406 -0.2906  1.3806 -1.1159
 4960SOL     OW26341   4.276   3.769   8.914  0.1275 -0.1950 -0.5155
 4960SOL    HW126342   4.223   3.824   8.857 -0.2023 -0.6729 -0.6672
 4960SOL    HW226343   4.235   3.683   8.908  0.8082 -0.6700  1.5615
 4961SOL     OW26344   2.523   3.278   7.224  0.1232 -0.2516 -0.2052
 4961SOL    HW126345   2.479   3.196   7.245  0.7087 -0.2448  1.0379
 4961SOL    HW226346   2.506   3.327   7.305  2.0769  0.4679 -0.2260
 4962SOL     OW26347   1.089   1.266   4.506  0.9798 -0.0474 -0.1832
 4962SOL    HW126348   1.077   1.178   4.542  1.3441 -0.7107 -1.7150
 4962SOL    HW226349   1.158   1.237   4.447  1.4707  0.9585 -0.1047
 4963SOL     OW26350   0.775   2.232  17.679  0.1992  0.3872 -0.2697
 4963SOL    HW126351   0.765   2.315   0.031  1.1830  0.1987  0.2587
 4963SOL    HW226352   0.804   2.268  17.595 -1.4031 -1.1388 -1.4655
 4964SOL     OW26353   2.772   2.202   5.922 -0.0333 -0.2827  0.2256
 4964SOL    HW126354   2.722   2.189   6.003 -0.5620 -1.9182 -0.3680
 4964SOL    HW226355   2.762   2.131   5.860 -0.6639  0.7688 -0.8646
 4965SOL     OW26356   3.458   1.605   6.525 -0.3818  0.3137  0.0390
 4965SOL    HW126357   3.472   1.694   6.493  3.0160 -0.0722  0.5231
 4965SOL    HW226358   3.486   1.610   6.616  2.8858 -0.2113 -0.9440
 4966SOL     OW26359   3.693   0.542  15.290  0.0589  0.0441 -0.1505
 4966SOL    HW126360   3.690   0.635  15.268 -1.5936  0.3704  1.4573
 4966SOL    HW226361   3.659   0.503  15.209  0.9850  2.7695 -1.8589
 4967SOL     OW26362   3.521   3.278   6.893  0.7035 -0.5638 -0.0076
 4967SOL    HW126363   3.574   3.261   6.815  2.5699 -0.5687  1.2607
 4967SOL    HW226364   3.571   3.353   6.925  1.7046 -0.4535 -1.8221
 4968SOL     OW26365   1.259   0.608  10.829  0.2989  0.6556 -0.1992
 4968SOL    HW126366   1.247   0.575  10.740  1.3666  2.7222 -1.0997
 4968SOL    HW226367   1.176   0.579  10.868 -0.2670  0.0708 -1.8672
 4969SOL     OW26368   3.179   0.179  14.145 -0.5033 -0.3468 -0.3174
 4969SOL    HW126369   3.090   0.144  14.136 -0.6119 -0.4459  1.2254
 4969SOL    HW226370   3.170   0.261  14.095  0.3010 -0.2860 -0.3638
 4970SOL     OW26371   0.091   1.896  13.955 -0.3322 -0.0202  0.0936
 4970SOL    HW126372   0.084   1.845  13.874  1.0805  1.4295 -0.9175
 4970SOL    HW226373   0.075   1.981  13.914 -2.5629 -0.1974  0.5925
 4971SOL     OW26374   2.676   1.634  17.245  0.0295 -0.3141 -0.1349
 4971SOL    HW126375   2.713   1.721  17.258 -0.3387  0.0828 -1.8040
 4971SOL    HW226376   2.755   1.587  17.216 -1.8476 -2.3714 -1.9458
 4972SOL     OW26377   4.336   2.081   7.048 -0.4155 -0.0293 -0.3095
 4972SOL    HW126378   4.380   2.166   7.042  0.1028 -0.1217  1.9462
 4972SOL    HW226379   4.363   2.046   7.133 -2.0996  3.5015  1.6917
 4973SOL     OW26380   2.443   1.286   5.902  1.2011  0.1242  0.0797
 4973SOL    HW126381   2.358   1.255   5.933  1.0059  0.7118  0.1272
 4973SOL    HW226382   2.470   1.214   5.845 -0.6950 -1.5659  1.3194
 4974SOL     OW26383   3.193   4.366   1.951 -0.0508  0.1501 -0.2345
 4974SOL    HW126384   3.120   4.370   1.889 -0.5215 -4.1125  0.0711
 4974SOL    HW226385   3.216   4.459   1.944  1.3451 -0.1633  0.1785
 4975SOL     OW26386   3.375   3.530  15.736 -0.2707  0.2470  0.2369
 4975SOL    HW126387   3.419   3.465  15.791 -0.6424 -0.4828 -0.3327
 4975SOL    HW226388   3.309   3.479  15.689  1.4482 -0.4399 -1.4493
 4976SOL     OW26389   4.146   2.461  11.555 -0.1163 -0.0471  0.0482
 4976SOL    HW126390   4.099   2.507  11.624 -1.6481  0.4175 -1.3157
 4976SOL    HW226391   4.231   2.504  11.553  0.4681 -1.1363  1.2721
 4977SOL     OW26392   3.106   1.690  11.732 -0.7381 -0.1503  0.6572
 4977SOL    HW126393   3.138   1.779  11.747 -0.7246 -0.1900  0.8564
 4977SOL    HW226394   3.122   1.641  11.812 -1.1295  0.3238  1.0314
 4978SOL     OW26395   0.926   2.019   6.580  0.0082 -0.2527 -0.2594
 4978SOL    HW126396   0.925   1.939   6.528 -1.6344 -0.6263  0.3541
 4978SOL    HW226397   0.885   2.086   6.524 -1.2458 -1.1841 -0.4477
 4979SOL     OW26398   3.518   3.901   2.608  0.1838 -0.4661 -0.0554
 4979SOL    HW126399   3.433   3.930   2.575  0.5836 -0.0986 -0.7543
 4979SOL    HW226400   3.506   3.807   2.622 -0.2867 -0.0072  2.6722
 4980SOL     OW26401   4.646   1.726   6.219  0.4658 -0.0679  0.2193
 4980SOL    HW126402   4.723   1.677   6.250  1.2757  1.6131  0.9012
 4980SOL    HW226403   4.585   1.731   6.292  0.6162 -0.3730  0.3648
 4981SOL     OW26404   1.126   0.395  10.202  0.1316 -0.2077 -0.4297
 4981SOL    HW126405   1.211   0.351  10.198 -0.3192 -0.8773 -2.7452
 4981SOL    HW226406   1.134   0.459  10.132 -1.4038 -0.4640 -0.8309
 4982SOL     OW26407   2.604   1.393   6.059  0.2203  0.1890 -0.2225
 4982SOL    HW126408   2.606   1.471   6.005 -2.4080 -0.2160 -0.8947
 4982SOL    HW226409   2.542   1.346   6.003  0.9015  0.6135 -1.3224
 4983SOL     OW26410   0.622   0.267   6.797 -0.4485  0.2028  0.5010
 4983SOL    HW126411   0.582   0.354   6.797  2.0872  1.3584 -0.4824
 4983SOL    HW226412   0.597   0.240   6.709 -3.0504  0.2064  1.2379
 4984SOL     OW26413   0.516   4.209  10.256 -0.0736  0.5840  0.5422
 4984SOL    HW126414   0.535   4.190  10.164 -0.4303  0.6078  0.4632
 4984SOL    HW226415   0.598   4.257  10.272  1.4852 -1.8582 -0.0769
 4985SOL     OW26416   1.999   2.651   9.759  0.1719  0.1107  0.2087
 4985SOL    HW126417   2.055   2.663   9.682  1.2061 -1.3279  0.7246
 4985SOL    HW226418   2.050   2.695   9.827  1.2982 -1.2706  0.2513
 4986SOL     OW26419   3.664   3.988   1.973 -0.1301 -0.4685 -0.3878
 4986SOL    HW126420   3.727   3.915   1.967  0.2550 -0.1977  0.2991
 4986SOL    HW226421   3.616   3.973   1.892 -2.5271  1.8430  0.6198
 4987SOL     OW26422   1.301   0.961   2.088 -0.2710 -0.0878  0.1177
 4987SOL    HW126423   1.327   0.958   1.996  0.0938  1.9607  0.1443
 4987SOL    HW226424   1.252   0.880   2.099  1.2884 -0.8458  1.5260
 4988SOL     OW26425   1.758   2.233   9.971 -0.8091  0.7308  0.0294
 4988SOL    HW126426   1.685   2.201   9.918 -0.5739 -0.2662  0.2964
 4988SOL    HW226427   1.733   2.325   9.969  0.5241  1.1809  3.0181
 4989SOL     OW26428   3.255   0.985   8.032 -0.0349  0.3107 -0.3930
 4989SOL    HW126429   3.251   0.907   7.976 -1.0895  0.2022 -0.1737
 4989SOL    HW226430   3.305   0.942   8.101 -1.8851  0.5656  1.1053
 4990SOL     OW26431   2.621   3.962   8.802  0.2011  0.1971 -0.3984
 4990SOL    HW126432   2.543   3.918   8.771  1.8108 -2.4438 -0.7159
 4990SOL    HW226433   2.595   4.049   8.833 -0.3612 -0.2835  0.4852
 4991SOL     OW26434   2.945   2.757   6.797 -0.3276 -0.3657  0.4052
 4991SOL    HW126435   2.942   2.822   6.726  1.5027  0.2120  0.8542
 4991SOL    HW226436   3.022   2.786   6.846 -0.7015 -0.0250  0.7932
 4992SOL     OW26437   4.223   1.734   7.070 -0.5431  0.3717 -0.7672
 4992SOL    HW126438   4.130   1.755   7.061 -0.5988  0.8598  1.0513
 4992SOL    HW226439   4.226   1.724   7.165  1.5531  0.0679 -0.8673
 4993SOL     OW26440   2.054   2.819   7.065  0.4408  0.3361  0.4867
 4993SOL    HW126441   2.139   2.861   7.056  0.8695 -0.8151 -0.8738
 4993SOL    HW226442   2.013   2.890   7.016  0.9468  0.3528  0.0869
 4994SOL     OW26443   0.943   2.603   8.579 -0.1249 -0.1210  0.0351
 4994SOL    HW126444   1.009   2.669   8.600  1.4704 -1.3933 -0.9302
 4994SOL    HW226445   0.873   2.621   8.641  0.2561 -1.6203  0.8918
 4995SOL     OW26446   4.278   1.631   9.117 -0.0268  0.7098  0.2968
 4995SOL    HW126447   4.268   1.597   9.028 -3.1170  2.2356  0.0721
 4995SOL    HW226448   4.199   1.589   9.150 -1.4374  1.4599 -2.0635
 4996SOL     OW26449   3.413   1.356   6.438 -0.3867  0.3200 -0.1624
 4996SOL    HW126450   3.431   1.443   6.472  0.0509  0.6110 -1.1385
 4996SOL    HW226451   3.496   1.331   6.397 -0.4042 -0.7334  0.4480
 4997SOL     OW26452   3.885   0.367   9.484  0.2390  0.3101 -0.2559
 4997SOL    HW126453   3.801   0.348   9.526  0.2981 -1.2071 -0.8223
 4997SOL    HW226454   3.838   0.391   9.404  0.7666 -0.1841 -0.7110
 4998SOL     OW26455   3.485   1.121  14.140 -0.2470  0.9623  0.0245
 4998SOL    HW126456   3.442   1.045  14.179 -0.2465 -0.1916 -2.2069
 4998SOL    HW226457   3.566   1.120  14.192 -0.4510  2.4178  0.3675
 4999SOL     OW26458   2.480   3.956   5.189  0.1794 -0.6448  0.6773
 4999SOL    HW126459   2.542   4.028   5.185 -0.2464 -0.2898  0.5029
 4999SOL    HW226460   2.544   3.891   5.161  2.5451  0.9287  2.4128
 5000SOL     OW26461   0.854   4.369  11.334 -0.4618 -0.2022 -0.5560
 5000SOL    HW126462   0.795   4.420  11.277  2.1353  1.5193 -1.6909
 5000SOL    HW226463   0.881   4.294  11.282 -1.3723 -1.1070  0.2681
 5001SOL     OW26464   1.204   1.782   6.270  0.5453 -0.6419 -0.5570
 5001SOL    HW126465   1.292   1.809   6.245  1.0791 -0.1563  1.9205
 5001SOL    HW226466   1.214   1.704   6.324 -0.1576  0.1240  0.6838
 5002SOL     OW26467   3.671   2.571   0.434  0.6330 -0.4004  0.5797
 5002SOL    HW126468   3.765   2.590   0.442  0.5131  0.3289  0.2992
 5002SOL    HW226469   3.678   2.502   0.369  1.2505  0.0133  0.2018
 5003SOL     OW26470   3.123   1.897   0.048  0.3825 -0.8017  0.2245
 5003SOL    HW126471   3.147   1.960   0.116  1.9587  0.0713 -1.1512
 5003SOL    HW226472   3.054   1.950   0.007 -1.3205 -1.7924  1.8065
 5004SOL     OW26473   2.380   1.693   1.397  0.4371  0.3117 -0.5984
 5004SOL    HW126474   2.429   1.610   1.406 -0.2943 -0.0476  0.0299
 5004SOL    HW226475   2.417   1.749   1.465 -3.0297  2.5393 -0.5696
 5005SOL     OW26476   1.461   1.125   5.643  0.6027 -0.6924  0.0254
 5005SOL    HW126477   1.447   1.178   5.721 -0.3999  0.6775 -1.0927
 5005SOL    HW226478   1.372   1.109   5.612  0.8170 -0.7501 -0.5563
 5006SOL     OW26479   0.129   0.794  12.697 -0.0204  0.2957 -0.6870
 5006SOL    HW126480   0.036   0.799  12.672 -0.0989  1.0516 -0.2409
 5006SOL    HW226481   0.115   0.784  12.791 -2.0644 -1.4976 -1.1785
 5007SOL     OW26482   4.075   2.247  11.706 -0.0231  0.3392 -0.4729
 5007SOL    HW126483   4.107   2.240  11.616 -2.2435  1.0259 -1.3379
 5007SOL    HW226484   4.042   2.337  11.701 -1.7459 -0.2593  0.3090
 5008SOL     OW26485   1.542   4.214   1.063 -0.4036  1.0621 -0.1809
 5008SOL    HW126486   1.516   4.155   1.133  0.8362  0.8244  0.0683
 5008SOL    HW226487   1.620   4.169   1.031 -0.7162  3.9198 -4.9797
 5009SOL     OW26488   1.366   2.777   7.147 -0.6386 -0.4735 -0.2707
 5009SOL    HW126489   1.358   2.789   7.242  0.0855  1.1290 -0.4171
 5009SOL    HW226490   1.379   2.682   7.145 -1.3404 -0.5586 -0.7405
 5010SOL     OW26491   3.049   0.015   2.295  0.1811 -0.5324  0.0673
 5010SOL    HW126492   3.050   0.098   2.249 -0.4005  0.0514  1.0989
 5010SOL    HW226493   2.974   0.038   2.350  1.0201  1.1639  0.4758
 5011SOL     OW26494   1.199   3.231  17.306  0.5801 -0.6921 -0.2810
 5011SOL    HW126495   1.178   3.227  17.400  0.7475 -0.1189 -0.2241
 5011SOL    HW226496   1.291   3.244  17.329 -0.3339  1.8792  1.9283
 5012SOL     OW26497   2.239   3.825   8.274  0.3235  0.6906 -0.1226
 5012SOL    HW126498   2.193   3.792   8.197 -0.3506 -0.5207  0.8050
 5012SOL    HW226499   2.257   3.742   8.317  2.1195  1.4610  0.5867
 5013SOL     OW26500   2.954   3.829   6.641 -0.1504  0.3845 -0.4204
 5013SOL    HW126501   3.041   3.860   6.664 -0.0776 -1.4248  1.7595
 5013SOL    HW226502   2.924   3.810   6.730 -0.0809 -0.1512 -0.5128
 5014SOL     OW26503   4.551   1.153   2.231  0.0883 -1.0997  0.2502
 5014SOL    HW126504   4.528   1.231   2.181 -0.4787 -0.0291  2.1866
 5014SOL    HW226505   4.466   1.110   2.221 -1.6722  2.2906  0.4251
 5015SOL     OW26506   3.210   3.689   7.647 -0.3152  0.6436 -0.2420
 5015SOL    HW126507   3.154   3.701   7.570 -0.5307 -0.5753 -0.2824
 5015SOL    HW226508   3.161   3.737   7.714 -0.5687  0.6668 -0.4404
 5016SOL     OW26509   2.653   3.542   4.751  0.3567  0.3835  0.2626
 5016SOL    HW126510   2.678   3.629   4.781  2.5753 -0.3177  0.4672
 5016SOL    HW226511   2.732   3.495   4.778  0.0906 -0.5399 -0.5571
 5017SOL     OW26512   1.938   1.552   3.076  0.2714  0.0641 -0.4198
 5017SOL    HW126513   1.953   1.492   3.003  1.5622 -1.0908  0.7820
 5017SOL    HW226514   1.997   1.519   3.144 -0.8295  0.7348  0.8559
 5018SOL     OW26515   1.580   2.173   8.096  0.1600  0.2854 -0.1933
 5018SOL    HW126516   1.506   2.185   8.036  0.6281 -0.0629 -0.8382
 5018SOL    HW226517   1.543   2.202   8.179  2.1185 -0.9931  1.1310
 5019SOL     OW26518   2.301   2.450   3.022  0.2787 -0.8928  0.1539
 5019SOL    HW126519   2.248   2.530   3.012  0.2743 -0.8529  0.4989
 5019SOL    HW226520   2.268   2.407   2.944  0.9757 -0.0304 -0.6173
 5020SOL     OW26521   3.406   1.556   2.895 -0.5613  0.1624  0.8535
 5020SOL    HW126522   3.411   1.513   2.809 -1.0116 -2.5596  2.2057
 5020SOL    HW226523   3.473   1.502   2.936 -0.9265 -1.4546 -0.6476
 5021SOL     OW26524   4.683   1.879   6.813  0.1990 -0.5737 -0.4751
 5021SOL    HW126525   4.613   1.912   6.869  2.2918  1.3601  0.9835
 5021SOL    HW226526   4.625   1.830   6.755  0.5274 -0.2192 -1.1085
 5022SOL     OW26527   3.594   3.860   3.099  0.6004  0.7133  0.5357
 5022SOL    HW126528   3.608   3.828   3.010  0.4043  3.3939 -0.4832
 5022SOL    HW226529   3.546   3.793   3.147  0.1043  0.9564  0.3753
 5023SOL     OW26530   1.418   4.533  14.260  0.3863  0.2590 -0.4434
 5023SOL    HW126531   1.351   4.596  14.234  1.0534  1.5576  0.9906
 5023SOL    HW226532   1.448   4.579  14.338  0.0474 -1.0300  0.4488
 5024SOL     OW26533   4.401   2.086   4.736 -0.1707 -0.3388 -0.1540
 5024SOL    HW126534   4.364   2.081   4.648  0.8413 -0.4643 -0.5832
 5024SOL    HW226535   4.474   2.023   4.740  0.9197  1.0734  2.0780
 5025SOL     OW26536   0.033   2.170   2.067 -0.2968 -1.2091 -0.1680
 5025SOL    HW126537   0.120   2.153   2.104  0.2470  2.5499  0.2745
 5025SOL    HW226538   0.066   2.192   1.980 -0.7560 -0.8511 -0.2490
 5026SOL     OW26539   2.911   1.433   5.884  0.1226  0.1026  0.3682
 5026SOL    HW126540   2.885   1.520   5.912  1.4565  1.6999 -3.4190
 5026SOL    HW226541   2.911   1.448   5.790 -3.7402  1.3512  0.5796
 5027SOL     OW26542   3.105   1.744   3.284  0.1703 -0.1773 -0.4917
 5027SOL    HW126543   3.114   1.830   3.244  0.2330 -0.8251 -1.8552
 5027SOL    HW226544   3.193   1.708   3.270  0.5638  0.6826 -0.2156
 5028SOL     OW26545   2.945   1.646   0.315  0.4345  0.1914 -0.3676
 5028SOL    HW126546   3.034   1.649   0.281  0.4367 -0.4537 -0.4340
 5028SOL    HW226547   2.953   1.695   0.396  3.2846  0.8978 -1.1016
 5029SOL     OW26548   3.070   2.444   6.636 -0.7020 -0.3160  0.1383
 5029SOL    HW126549   3.106   2.368   6.680 -1.0547 -0.1520  0.7186
 5029SOL    HW226550   3.146   2.499   6.617 -0.9157 -0.0008  0.1822
 5030SOL     OW26551   2.031   0.839  15.365 -0.2281  0.7825  0.0577
 5030SOL    HW126552   2.000   0.865  15.279 -1.3774  2.2489  0.9178
 5030SOL    HW226553   2.009   0.746  15.359  0.2839  0.7696 -1.5406
 5031SOL     OW26554   0.011   2.049   7.330 -0.2227  0.3503  0.1238
 5031SOL    HW126555   4.660   2.093   7.370 -2.0354 -0.9391 -1.8562
 5031SOL    HW226556   4.702   1.960   7.316 -2.3352  0.8855  1.7514
 5032SOL     OW26557   1.360   1.319  14.643 -0.4629 -0.2264 -0.1973
 5032SOL    HW126558   1.393   1.363  14.564  1.0624  1.3049  1.2896
 5032SOL    HW226559   1.369   1.390  14.707 -1.0992  0.4400 -0.8410
 5033SOL     OW26560   2.363   0.397   4.941 -0.1299 -0.1081  0.3129
 5033SOL    HW126561   2.319   0.321   4.903  0.9746 -0.1677 -0.8187
 5033SOL    HW226562   2.452   0.368   4.924  1.4539  3.9050  1.9081
 5034SOL     OW26563   1.589   0.816  11.135  0.1129 -0.4751  0.6035
 5034SOL    HW126564   1.680   0.799  11.110  0.2867  0.1003  0.8608
 5034SOL    HW226565   1.542   0.800  11.053  0.9599 -0.6125  0.1435
 5035SOL     OW26566   2.176   1.403   2.418  0.0237  0.1233 -0.4157
 5035SOL    HW126567   2.222   1.478   2.458 -1.9937 -0.0437  2.1586
 5035SOL    HW226568   2.084   1.429   2.416  0.1157  0.4503 -0.3812
 5036SOL     OW26569   3.403   3.994   3.794 -0.4141 -0.5728 -0.1565
 5036SOL    HW126570   3.494   4.020   3.809  0.6312 -3.8904 -0.7117
 5036SOL    HW226571   3.382   4.079   3.757 -0.0183 -0.7913 -0.8824
 5037SOL     OW26572   1.000   4.457  11.037 -0.0121  0.3201 -0.3398
 5037SOL    HW126573   1.044   4.380  11.000  1.2727  1.6781 -1.5899
 5037SOL    HW226574   0.977   4.494  10.952  0.7493 -0.7456 -1.0167
 5038SOL     OW26575   1.780   2.633   4.704  0.8049  0.0864  0.2448
 5038SOL    HW126576   1.754   2.634   4.611 -2.8764 -1.8114  1.2361
 5038SOL    HW226577   1.777   2.537   4.695  1.6119  0.2471 -1.8036
 5039SOL     OW26578   0.595   2.495   3.592  0.7021  0.1697  0.0460
 5039SOL    HW126579   0.588   2.420   3.533  4.9755  0.2072 -0.4828
 5039SOL    HW226580   0.582   2.564   3.527  4.9017 -0.6927 -1.7261
 5040SOL     OW26581   1.591   0.560   0.933 -0.7052 -0.1909  0.3947
 5040SOL    HW126582   1.636   0.476   0.931  1.1896  0.8106  2.2473
 5040SOL    HW226583   1.527   0.531   0.998 -1.4356 -0.5978 -0.4903
 5041SOL     OW26584   1.742   4.300  13.815  0.0527 -0.3311 -1.2984
 5041SOL    HW126585   1.703   4.285  13.729 -2.6346  0.4688 -0.1928
 5041SOL    HW226586   1.832   4.270  13.798  0.6166  0.5899  0.0521
 5042SOL     OW26587   2.872   1.113   5.143 -0.0230 -0.5673  0.8353
 5042SOL    HW126588   2.955   1.070   5.163  0.9222  1.7616  1.8737
 5042SOL    HW226589   2.884   1.124   5.049  0.5797  1.1728  1.1191
 5043SOL     OW26590   4.219   4.143   8.652 -0.2410 -0.2746  0.1110
 5043SOL    HW126591   4.182   4.077   8.710 -2.4546  2.0104  1.3258
 5043SOL    HW226592   4.176   4.129   8.567  2.2698  1.6088 -1.4776
 5044SOL     OW26593   0.902   2.735   3.203  0.4405  0.3393  0.3347
 5044SOL    HW126594   0.912   2.710   3.111 -0.0285  2.1219 -0.1898
 5044SOL    HW226595   0.945   2.819   3.189 -1.0275  0.7492 -1.7599
 5045SOL     OW26596   2.518   3.582   3.408 -0.1492  0.3055  0.3365
 5045SOL    HW126597   2.447   3.526   3.376  1.1688 -1.7756  1.0736
 5045SOL    HW226598   2.459   3.646   3.448  1.6926  0.1255  3.3202
 5046SOL     OW26599   1.664   2.351   7.793 -0.8971 -0.0869  0.7039
 5046SOL    HW126600   1.722   2.316   7.725 -1.7927  0.6532 -0.4566
 5046SOL    HW226601   1.589   2.294   7.773  0.3549 -1.2582 -0.6883
 5047SOL     OW26602   0.781   3.252  17.638  0.4736  0.5760  0.0373
 5047SOL    HW126603   0.758   3.299   0.021  0.0816 -1.0571  0.8936
 5047SOL    HW226604   0.810   3.321  17.579  0.8851  0.2505 -0.1353
 5048SOL     OW26605   1.003   4.375   9.033  0.1967  0.1255  0.0887
 5048SOL    HW126606   1.070   4.332   8.981  0.2113 -0.4780  0.6092
 5048SOL    HW226607   0.982   4.299   9.087  0.4608  1.1589  1.6600
 5049SOL     OW26608   1.059   1.478   8.103 -0.0250 -0.4105  0.0209
 5049SOL    HW126609   1.057   1.390   8.066  1.0362  0.1283 -1.3055
 5049SOL    HW226610   1.149   1.479   8.134  0.7510  0.2068 -2.2686
 5050SOL     OW26611   4.698   3.694   1.219  0.1022  0.3234 -0.2538
 5050SOL    HW126612   4.688   3.778   1.263  0.6505  0.1354  0.2336
 5050SOL    HW226613   4.618   3.650   1.247 -1.7541  4.5566  1.1390
 5051SOL     OW26614   2.346   3.025   4.926 -0.0149 -0.4028 -0.4222
 5051SOL    HW126615   2.338   2.945   4.980 -2.8537 -0.3248 -0.7419
 5051SOL    HW226616   2.366   3.087   4.996 -2.4302  1.3735 -1.3223
 5052SOL     OW26617   3.794   1.530   5.082 -0.4190 -0.1129  0.1658
 5052SOL    HW126618   3.796   1.625   5.098  0.3520  0.2672 -2.1135
 5052SOL    HW226619   3.855   1.497   5.147  0.1824  0.7336  0.0369
 5053SOL     OW26620   3.465   4.129  11.872 -0.4942 -0.1415  0.3872
 5053SOL    HW126621   3.422   4.209  11.904  2.5316  1.5838  0.0948
 5053SOL    HW226622   3.545   4.167  11.837  0.7941 -2.2761  0.9730
 5054SOL     OW26623   3.598   1.648   4.611  0.5458  0.1834  0.3727
 5054SOL    HW126624   3.594   1.693   4.527  0.4573  1.3979  1.0280
 5054SOL    HW226625   3.653   1.708   4.661 -0.5486  0.8497  0.7885
 5055SOL     OW26626   3.100   2.545   2.580  0.0549 -0.2795  0.3866
 5055SOL    HW126627   3.090   2.460   2.624 -2.6122 -0.4485 -0.5374
 5055SOL    HW226628   3.187   2.576   2.605  0.0936  1.4167 -1.9508
 5056SOL     OW26629   2.765   0.102  14.891 -0.6843  0.0760 -0.0234
 5056SOL    HW126630   2.684   0.149  14.909 -0.7299  1.3893 -3.5864
 5056SOL    HW226631   2.784   0.079  14.982 -2.6498 -3.5527 -0.5326
 5057SOL     OW26632   3.433   1.933   6.690 -0.0481  0.2249 -0.1267
 5057SOL    HW126633   3.484   1.854   6.669 -3.9793 -1.5649 -2.9855
 5057SOL    HW226634   3.418   1.920   6.784 -0.4333 -1.9531 -0.4850
 5058SOL     OW26635   2.777   0.012  15.521 -0.0920  0.0991  0.0457
 5058SOL    HW126636   2.711   4.668  15.504 -1.8663  2.3837 -2.2122
 5058SOL    HW226637   2.853   4.685  15.550 -0.7261 -0.6397  0.3984
 5059SOL     OW26638   2.634   0.291  14.393  0.9734  0.3458 -0.2714
 5059SOL    HW126639   2.612   0.377  14.357  2.0658  0.8170  0.1845
 5059SOL    HW226640   2.571   0.288  14.466  2.4900 -0.0797  1.0258
 5060SOL     OW26641   0.730   4.505  11.766  0.0041 -0.4430  0.3933
 5060SOL    HW126642   0.748   4.453  11.688  2.0900  0.5166  0.2308
 5060SOL    HW226643   0.666   4.573  11.745  0.3356 -0.2641 -0.0400
 5061SOL     OW26644   0.047   4.653   7.510  0.0144 -0.2122  0.3931
 5061SOL    HW126645   0.051   4.587   7.441 -0.8094 -0.5388  0.6522
 5061SOL    HW226646   4.683   4.690   7.515  0.8041  1.5271  1.2609
 5062SOL     OW26647   3.819   2.980   5.018 -0.4087  0.0054  0.0187
 5062SOL    HW126648   3.854   3.069   5.007  0.5491 -0.1704  1.5926
 5062SOL    HW226649   3.893   2.934   5.057 -1.0411 -0.9539  0.0821
 5063SOL     OW26650   1.788   1.054   2.910 -0.3750  0.2950  0.3710
 5063SOL    HW126651   1.760   1.119   2.845  0.7550 -0.6178 -1.0435
 5063SOL    HW226652   1.796   0.974   2.858 -1.1461 -0.0044  0.7200
 5064SOL     OW26653   1.845   0.407   0.035  0.0058 -0.1941  0.2422
 5064SOL    HW126654   1.817   0.330   0.085  0.1792 -0.2460  0.2563
 5064SOL    HW226655   1.873   0.367  17.649  1.1563  0.9165  0.1053
 5065SOL     OW26656   1.328   0.550  10.578 -1.0184  0.3772  0.7632
 5065SOL    HW126657   1.383   0.625  10.557 -1.3672  0.9193  1.7859
 5065SOL    HW226658   1.394   0.505  10.631 -1.4870  0.6358  1.5647
 5066SOL     OW26659   4.357   0.783   7.294 -0.5928  0.7000 -0.3361
 5066SOL    HW126660   4.416   0.755   7.224 -0.0140 -0.5459  0.6636
 5066SOL    HW226661   4.295   0.710   7.295  2.3587 -1.7556  2.0253
 5067SOL     OW26662   3.803   1.595   7.972  0.6294  0.1837 -0.7459
 5067SOL    HW126663   3.897   1.609   7.966  0.6778 -0.2022 -0.8177
 5067SOL    HW226664   3.805   1.500   7.967 -0.6999 -0.0498  2.8853
 5068SOL     OW26665   3.683   2.136   7.975 -0.2181 -0.9742  0.5829
 5068SOL    HW126666   3.668   2.179   8.059  1.7753 -0.4597  0.6625
 5068SOL    HW226667   3.596   2.119   7.939  0.0495 -1.4831  0.1894
 5069SOL     OW26668   2.461   2.279   4.960  0.3125  0.0682 -0.6503
 5069SOL    HW126669   2.384   2.277   5.017 -0.6689  0.4936 -1.9536
 5069SOL    HW226670   2.438   2.357   4.909  0.0011  0.3571 -0.0652
 5070SOL     OW26671   3.388   1.762   4.800  0.1971  0.1059 -0.0605
 5070SOL    HW126672   3.344   1.682   4.828  0.7865 -0.2088 -0.0399
 5070SOL    HW226673   3.431   1.725   4.724  0.3003  1.5128 -0.6936
 5071SOL     OW26674   1.203   0.968   6.914  0.2171 -0.4568 -0.3394
 5071SOL    HW126675   1.273   0.938   6.971 -1.0935 -1.4641  0.7467
 5071SOL    HW226676   1.126   0.922   6.947 -0.5681  1.6717  0.7895
 5072SOL     OW26677   4.027   2.098   2.398 -0.0602  0.1446 -0.6919
 5072SOL    HW126678   4.117   2.103   2.429 -0.3802  0.3219  0.2333
 5072SOL    HW226679   3.986   2.054   2.473  2.5850  0.5443  0.9596
 5073SOL     OW26680   0.755   2.169   4.384 -0.1384  0.2617 -0.5616
 5073SOL    HW126681   0.758   2.113   4.462 -0.8201 -0.0723 -0.7741
 5073SOL    HW226682   0.666   2.149   4.355 -0.4154 -0.9688  1.1900
 5074SOL     OW26683   2.522   0.307  10.988 -0.5255 -0.1282  0.1642
 5074SOL    HW126684   2.442   0.256  10.998 -0.2756 -0.4952  0.3222
 5074SOL    HW226685   2.570   0.246  11.045 -2.8620  0.0027  2.2697
 5075SOL     OW26686   0.918   3.642   7.245  0.3983  0.4996 -0.2495
 5075SOL    HW126687   0.880   3.573   7.300  0.6819 -0.2330 -0.9691
 5075SOL    HW226688   0.957   3.592   7.173 -0.9602 -2.6153  1.1419
 5076SOL     OW26689   1.214   0.593   9.422 -0.3859  0.1825  0.4837
 5076SOL    HW126690   1.124   0.585   9.454 -0.6516 -1.8015 -0.7786
 5076SOL    HW226691   1.205   0.642   9.340 -4.0309 -0.2227  0.6172
 5077SOL     OW26692   1.281   2.131   6.096  0.2049  0.2253 -0.4140
 5077SOL    HW126693   1.200   2.103   6.137  1.2545  0.3704  1.7708
 5077SOL    HW226694   1.347   2.070   6.131  0.3457  0.5853 -0.0602
 5078SOL     OW26695   3.341   2.661   2.641 -0.3858  0.3701  0.3027
 5078SOL    HW126696   3.301   2.700   2.563 -0.0925  1.2506  0.5826
 5078SOL    HW226697   3.385   2.737   2.680 -2.6149  0.6765  2.2017
 5079SOL     OW26698   3.450   1.450  14.719 -0.7709  0.5603  0.4323
 5079SOL    HW126699   3.363   1.475  14.688 -0.1214  0.0883 -1.8089
 5079SOL    HW226700   3.427   1.393  14.792  0.4889  1.7167  1.7453
 5080SOL     OW26701   0.235   3.883  15.925  0.5246  0.6918 -0.2302
 5080SOL    HW126702   0.292   3.942  15.975  2.2490  0.6195 -2.1134
 5080SOL    HW226703   0.171   3.866  15.994  1.4895 -0.6599  0.3256
 5081SOL     OW26704   2.000   4.489   2.794  0.2166  0.1523 -0.3493
 5081SOL    HW126705   1.924   4.430   2.799  0.3273  0.0031 -0.4090
 5081SOL    HW226706   1.974   4.559   2.853 -1.5510 -0.9951  0.2429
 5082SOL     OW26707   1.053   1.214   8.052  0.3510 -0.1302  0.0084
 5082SOL    HW126708   1.137   1.174   8.074 -0.1864 -1.1107  0.2631
 5082SOL    HW226709   1.041   1.185   7.962  2.7023 -0.2587 -0.2784
 5083SOL     OW26710   2.853   1.941   8.154 -0.5550  0.4876  0.0623
 5083SOL    HW126711   2.936   1.899   8.131 -0.5215  0.0876  0.9230
 5083SOL    HW226712   2.888   2.030   8.155  0.5388  0.0515 -0.2411
 5084SOL     OW26713   0.992   2.773   3.758 -0.0804  0.0567 -0.5055
 5084SOL    HW126714   1.065   2.832   3.775  0.7930 -1.0513 -0.4135
 5084SOL    HW226715   0.926   2.825   3.712  2.0194  2.9963 -0.1493
 5085SOL     OW26716   2.994   2.137  17.630  0.2292 -0.1198 -0.0961
 5085SOL    HW126717   3.060   2.162  17.695 -2.1114  1.0959  1.8180
 5085SOL    HW226718   3.046   2.138  17.550 -0.8676 -1.2674 -0.8299
 5086SOL     OW26719   3.632   0.511   0.186  0.0511  0.5262 -0.1113
 5086SOL    HW126720   3.542   0.531   0.161 -0.0622  2.1351  1.5132
 5086SOL    HW226721   3.686   0.551   0.118  2.2151 -1.2521  0.5576
 5087SOL     OW26722   2.168   2.755  16.325  0.4396 -0.1953 -0.0922
 5087SOL    HW126723   2.140   2.789  16.240  0.1993 -1.2047 -0.4182
 5087SOL    HW226724   2.235   2.691  16.302  1.3787  1.2391 -1.3493
 5088SOL     OW26725   1.522   4.115  14.506 -0.2951  0.1243  0.2634
 5088SOL    HW126726   1.445   4.168  14.489 -0.0804  0.7397  1.1791
 5088SOL    HW226727   1.543   4.141  14.596 -0.2462  0.9465  0.0143
 5089SOL     OW26728   4.505   1.415   8.287  0.5787 -0.4835 -0.1805
 5089SOL    HW126729   4.468   1.490   8.333 -0.9070 -0.5379 -1.3097
 5089SOL    HW226730   4.431   1.388   8.233  3.0550 -0.9341 -3.3622
 5090SOL     OW26731   0.950   2.880  16.969  0.3864 -0.0159  0.1754
 5090SOL    HW126732   0.880   2.906  17.029  0.3809  0.8053 -0.1821
 5090SOL    HW226733   0.919   2.794  16.942  1.2893 -0.5174  0.7540
 5091SOL     OW26734   2.794   2.878  17.233  0.3138 -0.2520  0.0487
 5091SOL    HW126735   2.741   2.827  17.294  0.4407 -1.1796 -0.6202
 5091SOL    HW226736   2.740   2.956  17.244  0.0101 -0.1402 -2.4411
 5092SOL     OW26737   0.587   1.470  15.335 -0.1596  0.3250 -0.0768
 5092SOL    HW126738   0.649   1.444  15.267 -1.3540  0.2825 -1.1591
 5092SOL    HW226739   0.609   1.563  15.330 -2.4957  0.8992  0.2518
 5093SOL     OW26740   3.087   1.114   4.913 -0.1312 -0.2297  0.0571
 5093SOL    HW126741   3.134   1.190   4.879 -0.3909 -1.3612 -2.7884
 5093SOL    HW226742   3.128   1.106   5.000  1.8904  0.5373 -0.8247
 5094SOL     OW26743   2.105   1.629  15.861  0.2918  0.2484  0.0232
 5094SOL    HW126744   2.172   1.682  15.819  0.6787  0.8167  1.3685
 5094SOL    HW226745   2.069   1.683  15.931  1.6563  0.2707  0.7090
 5095SOL     OW26746   2.678   3.131   4.872  0.1630 -0.5884  0.0086
 5095SOL    HW126747   2.686   3.175   4.787 -0.5247  1.8071  1.1842
 5095SOL    HW226748   2.625   3.187   4.928  1.7652 -1.9266  2.8652
 5096SOL     OW26749   1.392   2.815   7.928  0.1964  0.1419 -0.3670
 5096SOL    HW126750   1.454   2.743   7.922  2.1797  1.8590 -0.5784
 5096SOL    HW226751   1.354   2.788   8.011  0.7606 -0.6874 -0.3789
 5097SOL     OW26752   1.040   2.008   2.769  0.1518 -0.5980  0.3790
 5097SOL    HW126753   1.044   2.032   2.676 -1.0644 -0.3638  0.3969
 5097SOL    HW226754   0.962   2.055   2.799 -0.4014 -1.2434 -0.0609
 5098SOL     OW26755   3.083   1.640  16.922 -0.4864 -0.7087 -0.3083
 5098SOL    HW126756   3.077   1.568  16.859  1.3039 -0.6245 -0.5646
 5098SOL    HW226757   3.154   1.691  16.882  0.2092 -1.1972  0.3103
 5099SOL     OW26758   2.542   2.624  12.371 -0.3450 -0.4910  0.3095
 5099SOL    HW126759   2.540   2.704  12.424  1.1518 -0.5152  0.4055
 5099SOL    HW226760   2.540   2.656  12.281 -1.2245  0.0637  0.5319
 5100SOL     OW26761   2.929   0.055   4.561 -0.1308  0.4400  0.0837
 5100SOL    HW126762   2.955   0.025   4.473  0.1789 -1.4240  0.8081
 5100SOL    HW226763   2.945   0.150   4.561  0.8065  0.2974 -2.4935
 5101SOL     OW26764   3.761   3.046  14.336 -0.2403 -0.0282  0.3047
 5101SOL    HW126765   3.748   2.970  14.279  3.2139  1.1397 -2.0236
 5101SOL    HW226766   3.673   3.083  14.336 -0.1330  0.2173 -0.6128
 5102SOL     OW26767   3.641   1.990   4.956  0.3710 -0.1404  0.7053
 5102SOL    HW126768   3.574   2.058   4.968  1.2979  1.0701 -1.0318
 5102SOL    HW226769   3.720   2.037   4.982 -0.3159  1.0008  0.7531
 5103SOL     OW26770   1.741   0.673  12.563  0.0384  0.1181 -0.2088
 5103SOL    HW126771   1.740   0.740  12.630 -1.6774 -0.7153  0.5951
 5103SOL    HW226772   1.668   0.712  12.515 -0.1219  0.4421  0.3082
 5104SOL     OW26773   0.551   2.171   9.794 -0.4222 -0.5230  0.0878
 5104SOL    HW126774   0.603   2.238   9.750 -1.3266 -1.1929 -2.0220
 5104SOL    HW226775   0.505   2.224   9.858  0.7230  0.0525  0.4186
 5105SOL     OW26776   4.108   1.432   3.096 -0.2595 -0.1134 -0.3065
 5105SOL    HW126777   4.189   1.439   3.046  0.4012  0.7466  0.8960
 5105SOL    HW226778   4.032   1.446   3.038  1.2330  0.3116 -2.1554
 5106SOL     OW26779   1.743   4.031   6.956  0.6073 -0.1507  0.0463
 5106SOL    HW126780   1.702   3.945   6.965 -1.9966  1.2760  1.5914
 5106SOL    HW226781   1.670   4.083   6.924  1.0125 -2.3164 -4.3197
 5107SOL     OW26782   4.060   2.087   0.095 -0.1206 -0.6498 -0.1531
 5107SOL    HW126783   4.051   2.145   0.171 -0.3655  0.1738 -0.8026
 5107SOL    HW226784   4.155   2.083   0.086  0.2097  1.7718  2.1259
 5108SOL     OW26785   0.447   0.616   9.401 -0.7774 -0.1739 -0.4663
 5108SOL    HW126786   0.526   0.668   9.385  0.1174 -0.3502  3.2483
 5108SOL    HW226787   0.384   0.655   9.341 -0.4891  1.2492  0.1374
 5109SOL     OW26788   3.472   1.665   6.160 -0.0419  0.2654  0.0199
 5109SOL    HW126789   3.407   1.595   6.165  1.3174 -1.0767 -1.0133
 5109SOL    HW226790   3.540   1.607   6.127 -0.6131  0.2204 -1.0721
 5110SOL     OW26791   3.953   2.211   2.185  0.0995  0.3511 -0.7578
 5110SOL    HW126792   3.988   2.162   2.259  1.8929  2.0446 -0.4725
 5110SOL    HW226793   4.009   2.289   2.178  1.6238 -0.4790  2.2164
 5111SOL     OW26794   4.155   4.232   3.506 -0.0820  0.0171 -0.0917
 5111SOL    HW126795   4.103   4.167   3.460 -0.4954 -0.2902  0.8024
 5111SOL    HW226796   4.097   4.307   3.495 -0.7887 -0.2060  2.1931
 5112SOL     OW26797   1.546   2.239   2.942 -0.0022 -0.0686 -0.4392
 5112SOL    HW126798   1.570   2.297   3.015 -0.5387 -0.9614  0.4429
 5112SOL    HW226799   1.572   2.289   2.864 -2.0045  1.4619 -0.1480
 5113SOL     OW26800   3.547   2.566   2.780 -0.2530  0.5831 -0.4265
 5113SOL    HW126801   3.454   2.559   2.757 -0.5229  3.2282 -0.0850
 5113SOL    HW226802   3.593   2.520   2.710 -1.2328 -0.7256 -0.2215
 5114SOL     OW26803   4.047   1.041  10.856 -0.1610  0.5232  0.2083
 5114SOL    HW126804   3.977   1.056  10.919  1.9942  0.2577  2.6734
 5114SOL    HW226805   4.066   0.949  10.873 -0.0991  0.6596  0.8774
 5115SOL     OW26806   0.721   3.215  12.807  0.6823  0.5633  0.5180
 5115SOL    HW126807   0.660   3.159  12.760 -0.3408  1.9482  0.2079
 5115SOL    HW226808   0.806   3.191  12.770  0.7548  0.0333  1.0267
 5116SOL     OW26809   3.538   1.182   4.645  0.1060 -0.1845 -0.2259
 5116SOL    HW126810   3.600   1.209   4.577  1.4836  0.6586  1.3769
 5116SOL    HW226811   3.563   1.092   4.665  1.2177 -0.0513 -1.0098
 5117SOL     OW26812   2.183   1.188   0.257  0.2546  0.0522  0.5403
 5117SOL    HW126813   2.194   1.283   0.252 -1.4354  0.1122 -1.9248
 5117SOL    HW226814   2.090   1.169   0.255 -0.0455  1.2624  2.7614
 5118SOL     OW26815   4.026   4.655   0.631 -0.2644  0.4685  0.0675
 5118SOL    HW126816   4.113   4.660   0.593 -0.7641 -0.0213 -1.1629
 5118SOL    HW226817   3.999   4.564   0.615 -2.1463  1.0488 -0.1362
 5119SOL     OW26818   4.542   2.907  10.795 -0.2885 -0.4358 -0.1282
 5119SOL    HW126819   4.595   2.964  10.739  0.2304 -1.8331 -1.0489
 5119SOL    HW226820   4.517   2.972  10.861 -2.3223 -2.7560  1.3795
 5120SOL     OW26821   4.151   4.002   5.544  0.4121  0.0209 -0.1101
 5120SOL    HW126822   4.237   3.971   5.574 -1.5119 -1.5706  3.9034
 5120SOL    HW226823   4.110   3.915   5.542 -0.7014  0.4639  2.8086
 5121SOL     OW26824   1.581   2.811   6.997  0.0984  0.1670 -0.4941
 5121SOL    HW126825   1.507   2.797   7.056 -0.8515  0.4467 -1.6165
 5121SOL    HW226826   1.605   2.904   7.006  1.9364 -0.2616 -1.1023
 5122SOL     OW26827   1.979   3.229  17.545 -0.1000 -0.2416 -0.2164
 5122SOL    HW126828   2.073   3.210  17.542 -0.0275  0.5018 -2.3329
 5122SOL    HW226829   1.963   3.252  17.636  0.3866  0.4842 -0.3104
 5123SOL     OW26830   1.281   3.966   6.479  0.5304  0.3431  0.1798
 5123SOL    HW126831   1.344   4.034   6.502 -0.0006  1.3604 -1.3083
 5123SOL    HW226832   1.209   3.987   6.539  1.3099  0.7636  0.9552
 5124SOL     OW26833   2.796   2.384   2.983  0.1057  0.1549 -0.3630
 5124SOL    HW126834   2.709   2.364   2.949 -0.3630  2.8722 -0.7520
 5124SOL    HW226835   2.774   2.452   3.046  0.4144  2.8284 -3.1341
 5125SOL     OW26836   3.270   0.771   2.749  0.3051 -0.4677  0.1204
 5125SOL    HW126837   3.321   0.851   2.767  0.6749 -0.6519 -0.1056
 5125SOL    HW226838   3.310   0.702   2.802  1.4879  0.1106  0.0010
 5126SOL     OW26839   0.739   4.285   6.859 -0.5178  0.0796 -0.1918
 5126SOL    HW126840   0.781   4.233   6.927 -2.9762 -0.2259  1.0818
 5126SOL    HW226841   0.760   4.374   6.887  1.9784 -1.4218  2.6599
 5127SOL     OW26842   1.107   3.919   2.608 -0.1260  0.6610 -0.5860
 5127SOL    HW126843   1.126   3.923   2.701 -3.3433 -3.1493  0.2608
 5127SOL    HW226844   1.014   3.893   2.608  1.0449 -3.5286  0.8282
 5128SOL     OW26845   2.260   3.875   1.913  0.7745 -0.2349  0.5288
 5128SOL    HW126846   2.290   3.881   2.004  1.1415  0.0783  0.3862
 5128SOL    HW226847   2.187   3.814   1.924  0.9360 -0.1758  1.9221
 5129SOL     OW26848   2.624   0.283  10.454 -0.5995  0.1469  0.4001
 5129SOL    HW126849   2.603   0.236  10.373  1.0937  0.9366 -0.4916
 5129SOL    HW226850   2.620   0.212  10.519 -3.7249  0.1401  0.2345
 5130SOL     OW26851   2.926   1.944   7.725 -0.5839 -0.5553 -0.2354
 5130SOL    HW126852   2.960   1.999   7.795  0.9540 -0.5413 -0.9944
 5130SOL    HW226853   2.965   1.976   7.643  0.4495 -2.3405 -0.4390
 5131SOL     OW26854   2.878   0.795   0.647  0.6416 -0.2163 -0.7184
 5131SOL    HW126855   2.892   0.865   0.583 -2.2380  1.1754  0.1504
 5131SOL    HW226856   2.783   0.795   0.662  0.8123  1.3993  0.3249
 5132SOL     OW26857   0.279   0.481   9.562 -0.3780 -0.2150  0.0998
 5132SOL    HW126858   0.306   0.420   9.631  4.6160 -0.4488 -2.0064
 5132SOL    HW226859   0.364   0.512   9.529 -0.3923 -0.1316  0.1426
 5133SOL     OW26860   0.110   2.529  10.070  0.2961 -0.4365  0.1677
 5133SOL    HW126861   0.127   2.449  10.119 -0.9912 -1.2820 -0.7812
 5133SOL    HW226862   0.127   2.500   9.980  2.1682 -1.2613  0.7703
 5134SOL     OW26863   4.513   0.362   6.061  0.4721  0.9255  0.2503
 5134SOL    HW126864   4.444   0.416   6.101  1.3230  1.7137  0.6699
 5134SOL    HW226865   4.577   0.350   6.130 -0.7788  0.8658  1.4066
 5135SOL     OW26866   1.396   2.445   5.177  0.2260 -0.0579  0.3001
 5135SOL    HW126867   1.380   2.539   5.174 -0.2275 -0.2125 -2.3770
 5135SOL    HW226868   1.389   2.436   5.272 -0.6546  2.0470  0.4294
 5136SOL     OW26869   0.116   4.031   9.607  0.1288  0.2762  0.4648
 5136SOL    HW126870   0.164   4.080   9.674 -0.2120  0.5002  0.5427
 5136SOL    HW226871   0.030   4.028   9.649 -1.8910  0.1697 -3.6770
 5137SOL     OW26872   1.374   1.834   5.489 -0.1053 -0.3968  0.0014
 5137SOL    HW126873   1.453   1.879   5.460 -0.8944  0.8648 -0.1834
 5137SOL    HW226874   1.315   1.909   5.497  0.7899  0.4624 -1.4575
 5138SOL     OW26875   3.044   0.242   7.895  0.3921 -0.0279 -0.3477
 5138SOL    HW126876   3.102   0.176   7.933 -0.5197 -0.3876  0.4151
 5138SOL    HW226877   3.110   0.280   7.837  0.4499  0.9648  0.3762
 5139SOL     OW26878   0.604   0.840   7.284 -0.0137  0.6624  0.4700
 5139SOL    HW126879   0.511   0.822   7.289  0.3853 -1.0002  1.7460
 5139SOL    HW226880   0.641   0.757   7.255 -0.7598  0.8040 -0.8605
 5140SOL     OW26881   1.332   3.081   2.342  0.2816 -0.5926  0.2299
 5140SOL    HW126882   1.267   3.089   2.412  0.6316 -0.8993  0.5928
 5140SOL    HW226883   1.293   3.124   2.266  0.0585  1.0425  1.2705
 5141SOL     OW26884   0.561   2.762   5.597 -0.0377 -0.3593 -0.0518
 5141SOL    HW126885   0.563   2.675   5.637  2.3149 -0.1394  0.3035
 5141SOL    HW226886   0.642   2.804   5.627  0.7117 -1.1332 -0.9778
 5142SOL     OW26887   3.582   3.725  15.738  0.0962  0.7224  0.2277
 5142SOL    HW126888   3.501   3.673  15.741  1.4160 -1.3179  0.1584
 5142SOL    HW226889   3.574   3.760  15.827 -1.9570  1.4577 -0.2310
 5143SOL     OW26890   3.795   0.822   7.500  0.1528 -0.0013 -0.2428
 5143SOL    HW126891   3.853   0.894   7.525  0.5106 -0.3699 -0.0103
 5143SOL    HW226892   3.851   0.752   7.466 -1.3938 -1.7260  0.7405
 5144SOL     OW26893   4.346   4.705  10.473  0.4514  0.5499 -0.6370
 5144SOL    HW126894   4.320   4.690  10.382 -0.7099 -1.8522  0.0861
 5144SOL    HW226895   4.303   4.626  10.505 -0.2917  1.1218 -0.2202
 5145SOL     OW26896   1.220   1.985   4.040  0.2828  0.1915 -0.1231
 5145SOL    HW126897   1.139   1.979   4.090  0.4137 -0.9666 -0.0376
 5145SOL    HW226898   1.273   1.912   4.074 -0.2453 -0.0285  0.2265
 5146SOL     OW26899   0.176   0.480   3.666  0.6947  0.1337 -0.0749
 5146SOL    HW126900   0.105   0.430   3.624  2.4913 -1.2872 -1.4085
 5146SOL    HW226901   0.234   0.479   3.590 -1.4343 -0.2586 -1.6829
 5147SOL     OW26902   2.580   2.201   8.914  0.3221 -0.4627  0.2224
 5147SOL    HW126903   2.552   2.193   9.005 -0.5131  1.6694  0.1598
 5147SOL    HW226904   2.506   2.248   8.873  0.0543 -2.6841 -1.8549
 5148SOL     OW26905   0.257   3.931  15.101  0.3612 -0.0402 -0.6429
 5148SOL    HW126906   0.299   3.847  15.082 -1.3476 -1.6546  2.7228
 5148SOL    HW226907   0.269   3.933  15.196  2.8314 -0.5524 -0.9561
 5149SOL     OW26908   1.574   0.602   1.640 -0.0851 -0.1984 -0.4535
 5149SOL    HW126909   1.643   0.649   1.686 -0.3691  1.8940 -2.1638
 5149SOL    HW226910   1.559   0.665   1.569  1.0653 -2.1933 -2.4937
 5150SOL     OW26911   3.397   4.252   1.648 -0.6507 -0.4722  0.1169
 5150SOL    HW126912   3.354   4.237   1.564 -1.1969  0.0802  0.2995
 5150SOL    HW226913   3.339   4.224   1.718 -1.6583 -1.4591 -1.1142
 5151SOL     OW26914   2.170   2.683   4.896  0.4284  0.1013 -0.2458
 5151SOL    HW126915   2.204   2.610   4.948  1.0176  0.1162 -0.6064
 5151SOL    HW226916   2.253   2.699   4.851  0.5501  0.0485 -0.0405
 5152SOL     OW26917   0.559   2.316   8.377  0.0497  0.2323  0.2798
 5152SOL    HW126918   0.637   2.354   8.418 -1.5386  2.5693  1.1017
 5152SOL    HW226919   0.556   2.235   8.427 -0.0170 -0.8389 -1.4607
 5153SOL     OW26920   2.140   2.269   2.858  0.4254 -0.0452  0.9473
 5153SOL    HW126921   2.047   2.279   2.877 -0.0801  0.9008 -1.9789
 5153SOL    HW226922   2.134   2.210   2.782 -0.9787  1.2283  0.0857
 5154SOL     OW26923   2.654   1.244   0.712  0.4124  0.0768  0.4356
 5154SOL    HW126924   2.652   1.256   0.807 -0.6078  0.6864  0.3402
 5154SOL    HW226925   2.738   1.201   0.695  0.7750  0.3801  1.4588
 5155SOL     OW26926   4.391   0.781   1.226  0.1029  0.1002 -0.3137
 5155SOL    HW126927   4.464   0.776   1.287 -1.3063  0.9923  1.4225
 5155SOL    HW226928   4.332   0.720   1.269  0.8754 -1.9294 -2.1220
 5156SOL     OW26929   3.101   3.482   7.884 -0.0781  0.3604  0.4409
 5156SOL    HW126930   3.024   3.516   7.838  0.6183 -1.3458 -1.9851
 5156SOL    HW226931   3.171   3.533   7.843  0.9552 -0.6044  1.0009
 5157SOL     OW26932   3.049   0.627   5.834 -0.5386  0.6277 -0.4372
 5157SOL    HW126933   3.072   0.696   5.897 -1.6415 -0.1698  0.8266
 5157SOL    HW226934   3.109   0.651   5.764 -0.2132  0.5412 -0.1875
 5158SOL     OW26935   4.358   3.226  13.825 -0.2167  0.5819 -0.3629
 5158SOL    HW126936   4.316   3.288  13.885 -2.3342 -2.9507  1.8020
 5158SOL    HW226937   4.373   3.268  13.740 -0.2245 -1.4162 -1.3459
 5159SOL     OW26938   2.550   4.543  11.031 -0.0150 -0.0140  0.3522
 5159SOL    HW126939   2.572   4.481  11.100  0.2512  2.2022  2.2682
 5159SOL    HW226940   2.593   4.624  11.059  2.0222 -0.8879 -0.2035
 5160SOL     OW26941   1.392   2.550   2.622 -0.4797  0.2608  0.2196
 5160SOL    HW126942   1.373   2.633   2.665 -1.6087  0.1804 -0.1452
 5160SOL    HW226943   1.307   2.534   2.581 -0.1618 -1.2405  0.1256
 5161SOL     OW26944   0.741   1.804   7.934 -0.3607  0.3105  0.3485
 5161SOL    HW126945   0.689   1.776   7.860  0.1597 -0.3084  0.2195
 5161SOL    HW226946   0.705   1.757   8.009 -0.5454 -2.6130 -1.6100
 5162SOL     OW26947   1.721   0.892   4.289 -0.2134 -0.2930 -0.6054
 5162SOL    HW126948   1.769   0.891   4.206 -1.3054  0.1960 -1.2410
 5162SOL    HW226949   1.785   0.875   4.358  0.2266 -0.4994 -1.0648
 5163SOL     OW26950   4.485   1.534   3.466 -0.0014  0.5379  0.2831
 5163SOL    HW126951   4.482   1.488   3.382  1.0088  1.1553 -0.0908
 5163SOL    HW226952   4.474   1.625   3.438 -0.1558  0.4217 -0.0436
 5164SOL     OW26953   4.225   1.161   8.482  0.3468 -0.0232 -0.6949
 5164SOL    HW126954   4.308   1.138   8.524  0.0780  2.9480  1.4861
 5164SOL    HW226955   4.253   1.162   8.391 -0.2360 -2.6383 -0.9187
 5165SOL     OW26956   0.274   2.321   7.618  0.0467 -0.0450  0.5603
 5165SOL    HW126957   0.242   2.240   7.578 -0.0355  0.2716 -0.0144
 5165SOL    HW226958   0.369   2.314   7.607  0.0662  0.5797  0.3609
 5166SOL     OW26959   1.629   0.855   5.323  0.1633 -0.1316 -0.0171
 5166SOL    HW126960   1.715   0.813   5.325  0.4196  0.4241  0.3927
 5166SOL    HW226961   1.607   0.858   5.416  0.1961  1.9402 -0.0742
 5167SOL     OW26962   1.326   0.322  12.812 -0.0094  0.1017  0.1863
 5167SOL    HW126963   1.359   0.350  12.897 -0.3901 -1.1669  0.7492
 5167SOL    HW226964   1.385   0.382  12.766 -0.8363  1.1206  0.4475
 5168SOL     OW26965   0.006   2.488   5.024 -0.3519 -0.0521 -0.8124
 5168SOL    HW126966   4.653   2.491   5.081  0.6388 -1.3912  0.5891
 5168SOL    HW226967   0.064   2.518   5.095 -1.5956 -0.3169  0.3057
 5169SOL     OW26968   3.679   1.438   2.749  0.1012  0.0025 -0.3246
 5169SOL    HW126969   3.653   1.494   2.676 -3.2740  0.2134  1.0434
 5169SOL    HW226970   3.672   1.349   2.712 -2.4234  0.7460 -1.6648
 5170SOL     OW26971   1.971   3.329   5.913  0.1133  0.1516 -0.1381
 5170SOL    HW126972   1.982   3.406   5.857 -0.5439  0.9231  0.7856
 5170SOL    HW226973   1.979   3.266   5.842 -0.8856  0.4765 -0.5348
 5171SOL     OW26974   4.540   0.179   5.217  0.0747 -0.9273  0.3005
 5171SOL    HW126975   4.613   0.212   5.270 -0.8362  2.6108 -0.6232
 5171SOL    HW226976   4.469   0.243   5.212  1.9429  1.1698  0.7412
 5172SOL     OW26977   4.310   3.162   7.043  0.5590 -0.5868  0.4747
 5172SOL    HW126978   4.393   3.122   7.018  0.2575 -1.3162  0.6426
 5172SOL    HW226979   4.249   3.129   6.977 -0.2642 -0.0726  0.9734
 5173SOL     OW26980   1.223   3.097   6.782 -0.4335  0.5433 -0.7824
 5173SOL    HW126981   1.293   3.157   6.809 -1.6844  1.3080  0.7744
 5173SOL    HW226982   1.231   3.027   6.847 -0.5722 -0.8540 -2.2625
 5174SOL     OW26983   2.289   3.855   9.921 -0.1028 -0.4936 -0.2522
 5174SOL    HW126984   2.381   3.843   9.945  0.5217  2.6410 -1.0708
 5174SOL    HW226985   2.291   3.798   9.844  0.2146  0.0600 -0.6571
 5175SOL     OW26986   1.799   2.973  13.114  0.2270  0.7185  0.3263
 5175SOL    HW126987   1.764   2.989  13.026  1.6194 -0.7920 -0.5064
 5175SOL    HW226988   1.838   3.055  13.143  1.4399 -0.0837  0.9683
 5176SOL     OW26989   4.246   0.203  14.300 -0.0536 -0.0218  0.4150
 5176SOL    HW126990   4.283   0.203  14.212 -1.1046 -1.6839 -0.0336
 5176SOL    HW226991   4.301   0.273  14.332 -0.7128  0.7654 -0.1709
 5177SOL     OW26992   2.233   0.487  13.366  0.4005  0.2996 -0.3642
 5177SOL    HW126993   2.247   0.399  13.329  2.5526 -0.1119  1.4360
 5177SOL    HW226994   2.286   0.538  13.305 -0.7112 -0.3179 -1.8718
 5178SOL     OW26995   0.753   3.515   7.657 -0.1024  0.1221 -0.4124
 5178SOL    HW126996   0.671   3.563   7.670  0.4451  0.7884  0.5345
 5178SOL    HW226997   0.745   3.476   7.570  0.3530  0.8185 -0.7648
 5179SOL     OW26998   1.026   3.543   4.847  0.5079  0.1702 -0.1445
 5179SOL    HW126999   1.043   3.631   4.811  0.2885  1.0628  1.9278
 5179SOL    HW227000   1.093   3.490   4.805  0.1680  1.3837 -2.2215
 5180SOL     OW27001   0.892   1.444   9.308  0.1515  0.2332 -0.0541
 5180SOL    HW127002   0.806   1.451   9.349  0.4120 -1.7091  0.8664
 5180SOL    HW227003   0.885   1.519   9.249 -0.3658  1.7889  1.9939
 5181SOL     OW27004   0.733   1.915   9.802 -0.0779  0.3192  0.3099
 5181SOL    HW127005   0.698   2.004   9.796 -0.0468  0.3680  0.8580
 5181SOL    HW227006   0.824   1.938   9.822  0.4437 -1.8826  0.4668
 5182SOL     OW27007   1.700   3.446   3.856  0.1929 -0.2205  0.4282
 5182SOL    HW127008   1.625   3.488   3.814  1.4862  1.1745 -0.5162
 5182SOL    HW227009   1.759   3.425   3.784  0.5949 -0.8603  0.9427
 5183SOL     OW27010   0.706   1.017   7.036 -0.5559 -0.0727 -0.4068
 5183SOL    HW127011   0.618   1.022   7.073 -0.9579 -4.0061 -0.8244
 5183SOL    HW227012   0.755   1.081   7.088  1.4460 -0.3846 -1.9096
 5184SOL     OW27013   0.581   3.076  13.289  0.1075 -0.1922  0.1317
 5184SOL    HW127014   0.599   3.150  13.231 -0.0527  1.2388  1.9221
 5184SOL    HW227015   0.618   3.015  13.225  2.4525  1.1594  0.1806
 5185SOL     OW27016   4.344   2.027  14.735  0.0567 -0.4704  0.0045
 5185SOL    HW127017   4.311   1.997  14.650 -1.6653 -2.6940  1.4814
 5185SOL    HW227018   4.332   1.945  14.782 -0.4690 -1.5487 -2.0099
 5186SOL     OW27019   4.263   1.059  15.386 -0.1268 -0.0940 -0.0612
 5186SOL    HW127020   4.310   1.138  15.413  0.4897 -0.9641  1.3662
 5186SOL    HW227021   4.264   1.008  15.466 -0.4276  2.2260  1.4074
 5187SOL     OW27022   0.321   2.850   4.167  0.5131 -0.0700  0.6236
 5187SOL    HW127023   0.251   2.838   4.103  0.3766 -0.6064  0.8782
 5187SOL    HW227024   0.399   2.818   4.121 -0.9812 -1.1560 -1.1555
 5188SOL     OW27025   1.690   0.148   4.983 -0.3525  0.8507 -0.8635
 5188SOL    HW127026   1.604   0.108   4.972 -0.1944 -0.1502  1.5423
 5188SOL    HW227027   1.737   0.090   5.043 -0.8387  1.7806  0.4046
 5189SOL     OW27028   4.048   3.564   7.092 -0.0175 -0.2582  0.0280
 5189SOL    HW127029   4.111   3.512   7.142 -1.0619  0.1309  1.7372
 5189SOL    HW227030   3.978   3.499   7.089 -0.1648 -0.1147  0.3869
 5190SOL     OW27031   3.348   2.418  17.362  0.0472  0.2386 -0.0991
 5190SOL    HW127032   3.428   2.469  17.375 -0.0977 -0.1389  2.3120
 5190SOL    HW227033   3.343   2.389  17.271 -1.5903 -2.2680  0.7865
 5191SOL     OW27034   3.270   4.095   2.862  0.1557  0.1423 -0.4897
 5191SOL    HW127035   3.258   4.004   2.835 -0.3364  0.4540 -1.3111
 5191SOL    HW227036   3.180   4.126   2.854 -0.6343 -1.8601  0.6658
 5192SOL     OW27037   1.928   2.790  16.469  0.1768 -0.2330 -0.5676
 5192SOL    HW127038   2.010   2.795  16.420 -1.5479 -0.6826 -3.4733
 5192SOL    HW227039   1.904   2.701  16.442 -3.1159  0.4849 -0.0387
 5193SOL     OW27040   2.421   1.856   3.198 -0.7935  0.1624 -0.3708
 5193SOL    HW127041   2.504   1.895   3.227 -0.1857 -2.0861  0.9386
 5193SOL    HW227042   2.441   1.811   3.116  0.5040  2.0574 -1.0876
 5194SOL     OW27043   1.897   0.294   6.658 -0.2613 -0.0902  0.6237
 5194SOL    HW127044   1.811   0.252   6.666 -1.5043  2.4931  0.8709
 5194SOL    HW227045   1.909   0.314   6.751 -0.1593  1.9755  0.1596
 5195SOL     OW27046   0.189   1.610   6.162 -0.0259  0.1870  0.0532
 5195SOL    HW127047   0.171   1.535   6.104  0.0070  0.0563  0.2122
 5195SOL    HW227048   0.215   1.680   6.102  0.8656 -1.8428 -1.9648
 5196SOL     OW27049   3.431   0.927   1.433 -0.6528  0.0500 -0.3375
 5196SOL    HW127050   3.488   0.923   1.356 -0.4634 -1.8643 -0.1045
 5196SOL    HW227051   3.429   0.836   1.462 -0.5646 -0.2580 -1.3069
 5197SOL     OW27052   0.978   1.015   3.198  0.3708 -0.3901 -0.1416
 5197SOL    HW127053   0.925   1.095   3.202 -0.5989 -0.8690 -3.0582
 5197SOL    HW227054   0.918   0.944   3.223  1.3642 -0.9395  0.6814
 5198SOL     OW27055   3.327   3.054  13.121  0.0469  0.3077 -0.0873
 5198SOL    HW127056   3.344   3.083  13.211  0.0657 -0.8372  0.2664
 5198SOL    HW227057   3.395   3.106  13.078 -1.2881  0.1908 -2.3108
 5199SOL     OW27058   2.303   2.846   0.862  0.6232 -0.8016 -0.0642
 5199SOL    HW127059   2.366   2.894   0.915 -1.7657  0.5398  1.5167
 5199SOL    HW227060   2.277   2.916   0.802  1.7962 -0.7906 -0.5750
 5200SOL     OW27061   0.563   2.362   7.459  0.6143  0.4597  0.2978
 5200SOL    HW127062   0.639   2.421   7.457  0.9694  0.0293  1.1000
 5200SOL    HW227063   0.491   2.417   7.427  1.0542 -1.1423 -3.3860
 5201SOL     OW27064   2.138   3.568   7.047  0.3988 -0.3454  0.0047
 5201SOL    HW127065   2.107   3.478   7.062  0.0726  0.0033  1.3781
 5201SOL    HW227066   2.061   3.620   7.069 -0.4703 -0.6666 -2.3488
 5202SOL     OW27067   1.920   2.296   2.352 -0.2410 -0.5531  0.0642
 5202SOL    HW127068   1.835   2.319   2.313 -0.4916 -0.4530  0.6650
 5202SOL    HW227069   1.967   2.379   2.345  2.0016 -1.9042 -0.6722
 5203SOL     OW27070   3.657   1.763   7.794 -0.7313 -0.0126  0.1120
 5203SOL    HW127071   3.703   1.716   7.864 -0.7128  0.1186  0.1894
 5203SOL    HW227072   3.719   1.836   7.787 -1.2739  0.5152  0.7802
 5204SOL     OW27073   3.195   2.583   4.132 -0.1200 -0.0869  0.1662
 5204SOL    HW127074   3.243   2.659   4.163  0.5838  0.7215 -2.9031
 5204SOL    HW227075   3.128   2.631   4.083  0.2156 -0.4537 -0.6646
 5205SOL     OW27076   3.821   2.167   4.133  0.3718 -0.2934 -0.3062
 5205SOL    HW127077   3.885   2.104   4.166  2.9621  1.8449 -1.2820
 5205SOL    HW227078   3.742   2.114   4.145  2.6529 -3.4704  0.6992
 5206SOL     OW27079   4.280   3.961   3.276 -0.0963 -0.0775  0.2394
 5206SOL    HW127080   4.349   3.905   3.239  1.6828  1.3731  1.3173
 5206SOL    HW227081   4.338   4.035   3.293 -1.7852  1.4405 -0.6553
 5207SOL     OW27082   1.208   4.467   6.974 -0.2160  0.4037  0.2162
 5207SOL    HW127083   1.252   4.552   6.969  1.0576 -0.2286  0.8317
 5207SOL    HW227084   1.187   4.469   7.068  2.4555 -1.0903  0.8159
 5208SOL     OW27085   3.188   3.470   6.771 -0.1894  0.1350  0.2166
 5208SOL    HW127086   3.219   3.384   6.798 -0.7212 -0.6867 -1.7668
 5208SOL    HW227087   3.175   3.455   6.677  1.6496 -0.6484  0.0935
 5209SOL     OW27088   0.044   3.658   9.211 -0.3629  0.1403 -0.5120
 5209SOL    HW127089   0.027   3.565   9.228  1.2144  0.0476  0.5398
 5209SOL    HW227090   0.139   3.650   9.208 -0.3010  1.1589 -0.9741
 5210SOL     OW27091   3.220   1.606   5.857 -0.2588  0.8236 -0.6488
 5210SOL    HW127092   3.257   1.674   5.802  0.8876 -0.6836 -1.7094
 5210SOL    HW227093   3.159   1.568   5.794 -1.7151 -0.1207  1.3190
 5211SOL     OW27094   0.963   4.127   7.455 -0.0611  0.1449  0.0350
 5211SOL    HW127095   1.034   4.105   7.396  1.1670 -2.0456  2.3189
 5211SOL    HW227096   0.909   4.050   7.438 -0.0641  0.6728 -2.3013
 5212SOL     OW27097   3.289   1.807   6.933 -0.3686  0.3397  0.0108
 5212SOL    HW127098   3.344   1.839   7.004 -2.4771  1.6270  1.0803
 5212SOL    HW227099   3.248   1.739   6.987  0.5481 -0.9496 -0.9181
 5213SOL     OW27100   2.115   1.805   2.120  0.2269 -0.4910 -0.3861
 5213SOL    HW127101   2.090   1.895   2.142  0.7966 -0.2332 -0.8223
 5213SOL    HW227102   2.094   1.770   2.207  0.1099 -1.2658 -0.7329
 5214SOL     OW27103   0.324   2.419   8.546  0.0722  0.5222  0.0759
 5214SOL    HW127104   0.347   2.336   8.505 -1.7804  0.0214  0.0493
 5214SOL    HW227105   0.253   2.396   8.605  0.3997 -1.5887 -0.3630
 5215SOL     OW27106   2.234   4.463   2.453  0.7033  0.3201 -0.0228
 5215SOL    HW127107   2.164   4.410   2.415 -0.4092  1.0729  0.9599
 5215SOL    HW227108   2.245   4.412   2.534  0.8454  0.9267  0.3433
 5216SOL     OW27109   0.890   2.679   9.072 -0.2617  0.6962  0.4200
 5216SOL    HW127110   0.903   2.774   9.068  1.2745  0.4110 -1.6108
 5216SOL    HW227111   0.951   2.655   9.142  0.5021 -0.5900 -0.6859
 5217SOL     OW27112   2.504   0.468   4.623  0.0656 -0.2613  0.4892
 5217SOL    HW127113   2.524   0.394   4.680 -0.1732 -1.9161 -1.5636
 5217SOL    HW227114   2.430   0.509   4.667  0.5016 -1.0123  1.9277
 5218SOL     OW27115   2.690   2.993   2.750  0.6906 -0.4217  0.0094
 5218SOL    HW127116   2.739   2.991   2.668  1.9029  1.1132  0.7123
 5218SOL    HW227117   2.602   2.998   2.712  0.2114 -2.5930  0.8559
 5219SOL     OW27118   1.289   1.955   0.786  0.0340  0.2566 -0.1642
 5219SOL    HW127119   1.326   1.924   0.869 -0.1788 -0.3947 -0.3090
 5219SOL    HW227120   1.211   1.900   0.791  1.2737 -1.2340  2.9638
 5220SOL     OW27121   3.277   3.429   5.679 -0.0436  0.6150 -0.5146
 5220SOL    HW127122   3.194   3.462   5.646 -1.1297 -0.0647  1.5307
 5220SOL    HW227123   3.320   3.384   5.606 -1.0041 -3.7163  1.5733
 5221SOL     OW27124   3.785   1.291   5.854  0.3332 -0.4763  0.3271
 5221SOL    HW127125   3.878   1.271   5.843  0.4089 -0.7155  1.3467
 5221SOL    HW227126   3.750   1.278   5.766 -1.3203  2.4778  0.5225
 5222SOL     OW27127   2.703   1.908  10.838 -0.0865 -0.2522 -0.1155
 5222SOL    HW127128   2.632   1.948  10.787 -0.9855 -0.2083  1.1616
 5222SOL    HW227129   2.760   1.878  10.767  2.6939  0.6005  1.7713
 5223SOL     OW27130   2.853   3.864   2.361 -0.1876 -0.2620  0.1064
 5223SOL    HW127131   2.883   3.841   2.273 -0.9744 -1.9496  0.2900
 5223SOL    HW227132   2.820   3.954   2.351  3.5115  1.4103  2.8709
 5224SOL     OW27133   2.697   4.479  11.862  0.3483  0.1760 -0.0905
 5224SOL    HW127134   2.631   4.464  11.794 -0.2280  1.2112  0.2529
 5224SOL    HW227135   2.780   4.469  11.815  1.5767  0.4561  2.0329
 5225SOL     OW27136   4.100   1.066  17.565 -0.8083 -0.0224  0.3812
 5225SOL    HW127137   4.105   1.150  17.521 -1.4739  0.1036  0.5483
 5225SOL    HW227138   4.127   1.016  17.488  2.7622  1.3120  0.7549
 5226SOL     OW27139   2.834   3.223  15.651  0.1665  0.6867  0.7209
 5226SOL    HW127140   2.917   3.270  15.658  0.6605  0.0408 -0.6572
 5226SOL    HW227141   2.797   3.264  15.573 -0.0200 -1.2626 -0.2330
 5227SOL     OW27142   0.697   1.466   0.030  0.4427  0.1706  0.6596
 5227SOL    HW127143   0.633   1.504  17.667  1.1135 -1.1854 -0.9264
 5227SOL    HW227144   0.651   1.382   0.031 -0.9682  0.9383 -2.2535
 5228SOL     OW27145   1.406   1.577   6.164 -0.3568 -0.0447  0.2038
 5228SOL    HW127146   1.445   1.512   6.222 -1.1703  1.6627  2.6528
 5228SOL    HW227147   1.444   1.548   6.081 -0.8510  3.7056 -1.3206
 5229SOL     OW27148   2.081   4.536   9.499 -0.4224 -0.0297  0.5938
 5229SOL    HW127149   2.164   4.506   9.537  0.3498  0.7764 -0.4569
 5229SOL    HW227150   2.057   4.595   9.571 -3.3211 -0.4184 -0.0728
 5230SOL     OW27151   3.515   0.922   8.760  0.5321 -0.8101 -0.1712
 5230SOL    HW127152   3.541   0.855   8.824  1.7337  0.7149  0.9325
 5230SOL    HW227153   3.426   0.901   8.734 -0.4094 -0.9393  3.1484
 5231SOL     OW27154   0.911   2.676   0.970  0.3193 -0.0204 -0.3231
 5231SOL    HW127155   0.989   2.674   1.025 -0.1395  1.7182  0.3921
 5231SOL    HW227156   0.927   2.596   0.920  1.2205 -0.3714  0.5298
 5232SOL     OW27157   2.811   2.168   3.714  0.1907 -0.0056  0.6953
 5232SOL    HW127158   2.893   2.156   3.761  0.4018 -0.5820  0.1890
 5232SOL    HW227159   2.811   2.088   3.660 -0.3702  0.5364 -0.1182
 5233SOL     OW27160   4.557   2.203   7.470  0.2366 -0.5342  0.3513
 5233SOL    HW127161   4.556   2.146   7.547  1.4513 -1.9179 -0.6556
 5233SOL    HW227162   4.466   2.231   7.472  0.2957 -0.4220  1.6754
 5234SOL     OW27163   2.337   3.530   8.709  0.0340 -0.0046  0.0330
 5234SOL    HW127164   2.292   3.570   8.783  2.7778  0.7064  1.3039
 5234SOL    HW227165   2.423   3.567   8.727  0.5287 -1.3939  0.5861
 5235SOL     OW27166   3.636   0.385   9.591 -0.4100  0.0644 -0.7281
 5235SOL    HW127167   3.587   0.312   9.628  3.5518 -0.7963  2.8781
 5235SOL    HW227168   3.656   0.449   9.659  2.7009 -2.0076  0.2989
 5236SOL     OW27169   4.115   0.867   4.293  0.3601  0.2827 -0.3779
 5236SOL    HW127170   4.178   0.812   4.245 -0.2400 -0.4226 -0.3615
 5236SOL    HW227171   4.134   0.849   4.385 -0.6014 -1.4987 -0.5292
 5237SOL     OW27172   0.410   2.955   6.886  0.0068 -0.4234 -0.0207
 5237SOL    HW127173   0.374   2.965   6.798 -0.0499  0.7604  0.1410
 5237SOL    HW227174   0.501   2.982   6.873 -0.5521  1.0262 -0.8710
 5238SOL     OW27175   1.999   1.905   6.233  0.3282 -0.2603 -0.1862
 5238SOL    HW127176   1.986   1.990   6.276 -2.0922 -0.8624  0.2643
 5238SOL    HW227177   1.982   1.935   6.144 -0.6009 -2.1301 -0.6364
 5239SOL     OW27178   2.455   2.012   3.495 -0.4670 -0.4375  0.0198
 5239SOL    HW127179   2.527   2.036   3.437  0.0849 -2.5124 -0.1650
 5239SOL    HW227180   2.429   1.922   3.474  1.1783 -0.4910 -1.7908
 5240SOL     OW27181   4.148   4.579   9.803 -0.1819  0.5164 -0.2607
 5240SOL    HW127182   4.163   4.630   9.882  1.7754 -0.2601 -0.1282
 5240SOL    HW227183   4.143   4.644   9.732  0.4323 -0.5239 -1.2576
 5241SOL     OW27184   3.245   1.792   4.183 -0.4369 -0.7379  0.1153
 5241SOL    HW127185   3.274   1.820   4.270  1.1442 -0.9570 -0.3435
 5241SOL    HW227186   3.218   1.702   4.204 -2.1064 -0.0658  0.8169
 5242SOL     OW27187   2.740   4.115   2.341  0.2553 -0.2213 -0.3626
 5242SOL    HW127188   2.777   4.190   2.387 -0.0322 -0.1429 -0.2578
 5242SOL    HW227189   2.660   4.161   2.313  0.4915  1.2160  1.3172
 5243SOL     OW27190   4.178   0.335   7.904 -0.6330 -0.2636 -0.0133
 5243SOL    HW127191   4.185   0.256   7.958  2.4062  2.3746  3.4625
 5243SOL    HW227192   4.116   0.307   7.836 -0.6552  1.7934 -0.8191
 5244SOL     OW27193   3.879   0.020   9.736 -0.4863 -0.5726  0.0629
 5244SOL    HW127194   3.856   4.676   9.799 -0.5797  0.0426  0.6894
 5244SOL    HW227195   3.830   0.088   9.782  0.5663  1.0827 -1.2408
 5245SOL     OW27196   4.343   0.914   2.791 -0.4981  0.1816 -0.0167
 5245SOL    HW127197   4.272   0.963   2.750  1.7032  1.1911 -2.5991
 5245SOL    HW227198   4.342   0.844   2.726  0.7833 -1.7844  2.1057
 5246SOL     OW27199   3.560   4.199   4.818 -0.1478  0.3443 -0.2134
 5246SOL    HW127200   3.602   4.200   4.904 -3.7013  1.6339  1.5089
 5246SOL    HW227201   3.486   4.142   4.838  0.6945 -0.3756  0.8549
 5247SOL     OW27202   2.640   3.105  13.722  0.0439  0.4112 -0.2482
 5247SOL    HW127203   2.665   3.188  13.681 -1.7064  1.3601  0.6076
 5247SOL    HW227204   2.561   3.131  13.768 -0.2967  1.3104 -1.3480
 5248SOL     OW27205   1.366   0.385   3.024  0.0040 -0.3840 -0.3100
 5248SOL    HW127206   1.344   0.478   3.034  0.2326 -0.3483 -0.1236
 5248SOL    HW227207   1.284   0.343   2.998  0.0861 -1.3761  1.0003
 5249SOL     OW27208   0.692   4.452   9.521 -0.4987 -0.8150  0.7032
 5249SOL    HW127209   0.759   4.497   9.572 -0.5123  0.1770 -0.1686
 5249SOL    HW227210   0.740   4.402   9.455  1.2518  1.5730  0.1995
 5250SOL     OW27211   2.211   3.798   2.649 -0.2343  0.0316  0.1907
 5250SOL    HW127212   2.209   3.870   2.587 -1.0719  0.4858  0.7524
 5250SOL    HW227213   2.169   3.835   2.726 -1.9712  1.9443 -1.7017
 5251SOL     OW27214   2.340   1.578  10.729 -0.1258 -0.5317 -0.1773
 5251SOL    HW127215   2.249   1.596  10.754 -0.3309 -1.3362 -0.3468
 5251SOL    HW227216   2.328   1.486  10.709  0.3015 -0.2897 -1.5365
 5252SOL     OW27217   0.974   0.208   3.998 -0.0141 -0.4798 -0.0940
 5252SOL    HW127218   1.030   0.180   3.926 -1.6763 -1.2111 -1.0937
 5252SOL    HW227219   0.930   0.125   4.016 -1.5822  0.4194  0.2021
 5253SOL     OW27220   3.444   4.385   4.646  0.8455 -0.0653 -0.0242
 5253SOL    HW127221   3.506   4.312   4.657  1.0260  0.2538  1.0787
 5253SOL    HW227222   3.377   4.331   4.604  2.1705 -1.7626  0.0589
 5254SOL     OW27223   3.699   2.937   4.754  0.0352  0.0848 -0.2271
 5254SOL    HW127224   3.752   2.960   4.830  0.1032  2.0857 -0.8955
 5254SOL    HW227225   3.747   2.859   4.725  2.7045  2.0881 -1.1647
 5255SOL     OW27226   2.484   1.185   1.947 -0.1421 -0.3864 -0.0133
 5255SOL    HW127227   2.400   1.145   1.925 -1.0384  1.0906  0.7305
 5255SOL    HW227228   2.452   1.249   2.010 -0.2131  0.2469 -0.6915
 5256SOL     OW27229   1.853   2.393   9.412  0.2546 -0.2103  0.0779
 5256SOL    HW127230   1.930   2.390   9.469  1.8603  0.8048 -2.0260
 5256SOL    HW227231   1.846   2.484   9.385 -0.7281 -1.3077 -3.3965
 5257SOL     OW27232   3.111   0.102   4.961  0.1850  0.7589 -0.4814
 5257SOL    HW127233   3.152   0.025   5.000  0.8562  0.5506 -1.5925
 5257SOL    HW227234   3.087   0.149   5.041 -0.3244 -1.6250  0.7604
 5258SOL     OW27235   2.733   2.384   6.303  0.2312 -0.4632 -0.0981
 5258SOL    HW127236   2.667   2.324   6.268  1.2989 -1.7092  0.0289
 5258SOL    HW227237   2.736   2.358   6.395 -0.2325  0.5932  0.2165
 5259SOL     OW27238   1.942   4.103   9.285 -0.0140 -0.2995 -0.3296
 5259SOL    HW127239   1.917   4.167   9.352  0.3932  1.7626 -2.1480
 5259SOL    HW227240   2.034   4.092   9.311 -0.9481 -2.0367  2.2476
 5260SOL     OW27241   2.938   0.256  14.375  0.2540  0.3027 -0.0352
 5260SOL    HW127242   2.851   0.249  14.337 -0.1885  1.0411  0.8355
 5260SOL    HW227243   2.924   0.250  14.470 -0.2861 -1.9145 -0.2647
 5261SOL     OW27244   3.225   4.252  10.543  0.1741 -0.4484 -0.0860
 5261SOL    HW127245   3.221   4.262  10.448  0.3521  0.6484  0.0123
 5261SOL    HW227246   3.228   4.342  10.578 -3.0013  0.0290 -1.1181
 5262SOL     OW27247   1.683   1.845  11.053  0.9657 -0.1158  0.2542
 5262SOL    HW127248   1.655   1.774  11.112  0.6360  1.2842  1.7707
 5262SOL    HW227249   1.632   1.830  10.974  0.1494 -1.8925  1.1024
 5263SOL     OW27250   3.448   0.980  13.678 -0.0177  0.2895  0.1272
 5263SOL    HW127251   3.456   1.034  13.756  0.7867  0.8729 -0.3498
 5263SOL    HW227252   3.517   1.018  13.624 -0.0696  1.1151  0.6384
 5264SOL     OW27253   2.086   0.779   1.918 -0.7706 -0.0464 -0.9908
 5264SOL    HW127254   2.148   0.780   1.991 -0.8813 -0.9875 -0.8876
 5264SOL    HW227255   2.138   0.758   1.841  2.5234 -0.3465  1.3111
 5265SOL     OW27256   2.613   2.331   2.280 -0.5085 -0.1604 -0.4403
 5265SOL    HW127257   2.696   2.361   2.316 -0.5484 -1.4433  0.7431
 5265SOL    HW227258   2.647   2.305   2.195  1.5399  1.4796 -0.1097
 5266SOL     OW27259   0.256   3.969  17.030  0.6986  0.1228 -0.0903
 5266SOL    HW127260   0.231   3.882  16.998  0.1157  0.8834 -1.7217
 5266SOL    HW227261   0.352   3.963  17.032  0.6758  0.0116  0.7208
 5267SOL     OW27262   0.223   0.277   1.136 -0.1950  0.3491 -0.5996
 5267SOL    HW127263   0.212   0.255   1.044 -0.0275  2.8703 -1.1978
 5267SOL    HW227264   0.150   0.226   1.171 -1.4355 -0.0839 -3.8018
 5268SOL     OW27265   1.094   4.648   9.334 -0.3426 -0.0411 -0.2706
 5268SOL    HW127266   1.088   4.710   9.407  0.1368  0.9636 -1.0751
 5268SOL    HW227267   1.127   4.571   9.380  0.4784  1.0534  0.9676
 5269SOL     OW27268   0.271   3.965   6.385 -0.3428 -0.4698 -0.0862
 5269SOL    HW127269   0.360   3.934   6.400  0.4669  1.4052 -1.1261
 5269SOL    HW227270   0.261   4.022   6.462 -3.6480  0.2943 -1.0960
 5270SOL     OW27271   4.360   2.722   2.316  0.0569  0.0964  0.5796
 5270SOL    HW127272   4.264   2.729   2.309  0.3507  3.4941 -0.2364
 5270SOL    HW227273   4.374   2.628   2.326 -0.7952 -0.0383  0.5788
 5271SOL     OW27274   0.382   0.934   8.195  0.1974  0.7579 -0.0359
 5271SOL    HW127275   0.360   1.005   8.135  0.9717  0.8239 -0.2370
 5271SOL    HW227276   0.320   0.959   8.264 -0.7202 -0.0545 -0.5786
 5272SOL     OW27277   1.961   2.445  11.972  0.0513  0.1142 -0.2036
 5272SOL    HW127278   1.956   2.528  11.924 -1.0016 -0.0761 -0.4182
 5272SOL    HW227279   1.989   2.478  12.057  1.9929 -1.6872 -0.1392
 5273SOL     OW27280   0.820   1.024   3.635 -0.1887  0.0751 -0.3847
 5273SOL    HW127281   0.852   0.975   3.711 -0.8268  1.4977  0.8077
 5273SOL    HW227282   0.899   1.053   3.588  0.9526 -1.9888  0.2668
 5274SOL     OW27283   3.889   1.651   6.850  0.2180 -0.5619 -0.2913
 5274SOL    HW127284   3.940   1.686   6.923 -3.0692  0.6663  1.4080
 5274SOL    HW227285   3.927   1.695   6.774  3.0651  1.2544  2.1951
 5275SOL     OW27286   1.256   0.879   5.117  0.2072  0.6527 -0.4356
 5275SOL    HW127287   1.246   0.867   5.023 -0.2771  0.7800 -0.4004
 5275SOL    HW227288   1.326   0.816   5.135 -0.0310  0.9386  1.5022
 5276SOL     OW27289   0.273   4.708   8.427  0.4360  0.5680 -0.1626
 5276SOL    HW127290   0.314   0.023   8.349 -1.5564 -2.3034 -2.6735
 5276SOL    HW227291   0.185   4.693   8.392  1.2387 -2.3675 -0.9394
 5277SOL     OW27292   1.806   0.138   9.026 -0.3247  0.3447 -0.1592
 5277SOL    HW127293   1.751   0.216   9.034  0.5700  0.9085  0.4433
 5277SOL    HW227294   1.779   0.081   9.098 -1.0688 -1.2679 -1.7172
 5278SOL     OW27295   3.215   1.146  11.736 -0.9921  0.2703 -0.1686
 5278SOL    HW127296   3.129   1.106  11.752  0.2264 -1.4663  2.1268
 5278SOL    HW227297   3.265   1.076  11.778 -1.6315  0.8907  1.6617
 5279SOL     OW27298   0.798   1.243   7.458 -0.2582 -0.4544  0.5151
 5279SOL    HW127299   0.706   1.255   7.436  0.4101  0.9279 -1.5407
 5279SOL    HW227300   0.814   1.156   7.420 -0.1840  0.0947 -0.7361
 5280SOL     OW27301   2.010   3.158   3.754 -0.0206  0.3868  0.2302
 5280SOL    HW127302   2.067   3.198   3.688  0.8405  0.8090  1.2375
 5280SOL    HW227303   2.044   3.192   3.836 -1.6411 -0.5552  1.2851
 5281SOL     OW27304   2.233   3.696   5.705  0.8145 -0.2395 -0.1233
 5281SOL    HW127305   2.327   3.710   5.696  0.6005  0.9091 -0.7043
 5281SOL    HW227306   2.220   3.680   5.798 -0.4984 -0.3712 -0.3247
 5282SOL     OW27307   3.672   4.669   0.123  0.0203  0.0564  0.2938
 5282SOL    HW127308   3.711   4.622   0.197 -1.1377  0.8182  1.3983
 5282SOL    HW227309   3.639   4.597   0.069 -0.9259 -0.2274  1.2299
 5283SOL     OW27310   3.991   0.775   3.934  0.6117  0.1911  0.1984
 5283SOL    HW127311   4.059   0.842   3.925 -0.6365  1.4670  0.3204
 5283SOL    HW227312   4.030   0.719   4.002  1.4168 -1.7036 -1.8382
 5284SOL     OW27313   0.514   1.259   2.189 -0.2553  0.0735  0.4307
 5284SOL    HW127314   0.607   1.261   2.166 -0.7434 -0.9387 -1.6579
 5284SOL    HW227315   0.484   1.345   2.161 -0.2746 -0.6097 -1.6570
 5285SOL     OW27316   3.297   4.693  10.290 -0.0817 -0.0997 -0.3443
 5285SOL    HW127317   3.220   0.027  10.286  1.9892  2.8517  2.3375
 5285SOL    HW227318   3.305   4.711  10.384  1.7582  1.2552 -0.7708
 5286SOL     OW27319   1.408   2.757   7.423 -1.2025  0.2779  0.3520
 5286SOL    HW127320   1.451   2.696   7.483  0.7022  0.6051 -0.6851
 5286SOL    HW227321   1.399   2.824   7.491 -2.6345  2.5369 -2.0643
 5287SOL     OW27322   2.234   0.723   3.099  0.0097  0.1225 -0.1290
 5287SOL    HW127323   2.159   0.779   3.121 -0.2625  0.3576 -1.6568
 5287SOL    HW227324   2.297   0.754   3.164 -0.9503 -1.9405  1.7999
 5288SOL     OW27325   3.124   3.738   0.005 -0.4555  0.4838  0.7577
 5288SOL    HW127326   3.195   3.738  17.637 -1.0053  1.9443  0.1604
 5288SOL    HW227327   3.054   3.709  17.642  1.2148  0.8462 -1.3969
 5289SOL     OW27328   4.164   4.350   5.606 -0.2449  0.7652 -0.3502
 5289SOL    HW127329   4.127   4.297   5.676  1.0642  0.5347  0.1603
 5289SOL    HW227330   4.169   4.439   5.642 -1.0883  1.1130 -1.0945
 5290SOL     OW27331   2.889   2.382  16.905 -0.1638  0.3765 -0.4873
 5290SOL    HW127332   2.867   2.290  16.921 -0.5317  0.8009  1.4018
 5290SOL    HW227333   2.835   2.424  16.971  0.4330 -0.0542  0.2740
 5291SOL     OW27334   0.161   1.142   2.031  0.4987 -0.4315 -0.5180
 5291SOL    HW127335   0.225   1.187   1.975  0.3162 -0.4973 -0.7759
 5291SOL    HW227336   0.081   1.127   1.981  1.6897 -2.7218 -1.7355
 5292SOL     OW27337   3.771   3.131   5.397  0.2568  0.0359 -0.4533
 5292SOL    HW127338   3.715   3.201   5.364  0.8388  0.1608 -1.1505
 5292SOL    HW227339   3.723   3.099   5.474  1.8765 -3.0011 -0.7131
 5293SOL     OW27340   1.860   1.974   2.673 -0.4504 -0.3614 -0.5566
 5293SOL    HW127341   1.779   1.925   2.664  0.7123 -2.2568 -0.7009
 5293SOL    HW227342   1.916   1.923   2.732  0.4919  0.3251 -0.8567
 5294SOL     OW27343   2.151   2.334   2.061  0.2434 -0.8663 -0.0524
 5294SOL    HW127344   2.139   2.407   2.122 -1.4156 -0.1907 -1.1876
 5294SOL    HW227345   2.244   2.323   2.081  0.5551 -2.4706 -2.4325
 5295SOL     OW27346   4.417   3.606   3.495  0.1008 -0.2532  0.0038
 5295SOL    HW127347   4.334   3.635   3.457  0.5994 -0.9961 -1.6301
 5295SOL    HW227348   4.465   3.688   3.496 -1.0840  0.4430 -0.1963
 5296SOL     OW27349   3.174   1.142  14.298 -0.1363  0.3840 -0.0007
 5296SOL    HW127350   3.184   1.142  14.203  2.0404  1.2687  0.2408
 5296SOL    HW227351   3.141   1.055  14.322 -0.9582  0.4372 -0.9167
 5297SOL     OW27352   3.697   0.258  15.943  0.2829 -0.1007  0.1100
 5297SOL    HW127353   3.690   0.226  15.853 -1.5656 -1.9977  0.9081
 5297SOL    HW227354   3.761   0.204  15.989  0.6541 -0.4032 -0.7610
 5298SOL     OW27355   1.511   1.674   8.456 -0.6694  0.6690  0.6541
 5298SOL    HW127356   1.551   1.669   8.369 -0.7621 -2.7502  0.8090
 5298SOL    HW227357   1.575   1.642   8.520 -1.9472 -1.5766  0.8125
 5299SOL     OW27358   0.537   1.673   8.872 -0.2069  0.4632 -0.2701
 5299SOL    HW127359   0.625   1.693   8.839  0.1058  0.7794  0.7497
 5299SOL    HW227360   0.557   1.620   8.950  0.1578  2.0181  0.6960
 5300SOL     OW27361   3.933   0.944   7.262  0.0218  0.2761 -0.7874
 5300SOL    HW127362   3.979   0.969   7.182  2.6434 -1.8824  0.0113
 5300SOL    HW227363   3.997   0.876   7.284 -1.1875  0.2316  2.5915
 5301SOL     OW27364   1.867   2.082  16.122  0.0158  0.1130  0.2049
 5301SOL    HW127365   1.816   2.105  16.045 -1.9203 -0.5138  1.2952
 5301SOL    HW227366   1.925   2.157  16.137 -1.9207  1.6571 -0.1019
 5302SOL     OW27367   4.019   3.589   4.944  0.5465  0.3323  0.2420
 5302SOL    HW127368   4.074   3.545   4.879 -1.4486  1.3501 -2.1056
 5302SOL    HW227369   3.930   3.561   4.923  0.7138 -0.5331  0.6797
 5303SOL     OW27370   4.286   2.002   3.785 -0.0470  0.1740 -0.3057
 5303SOL    HW127371   4.293   2.080   3.841  1.1457 -0.5973  0.6075
 5303SOL    HW227372   4.261   1.939   3.853 -1.6754  0.6755 -0.4422
 5304SOL     OW27373   1.401   0.662   6.724  0.6480 -0.1761  0.3924
 5304SOL    HW127374   1.403   0.644   6.818  0.4891 -2.6661 -0.0911
 5304SOL    HW227375   1.475   0.721   6.711  0.5469  0.1124  1.1154
 5305SOL     OW27376   3.707   4.465   2.963  0.5245 -0.0461 -0.0879
 5305SOL    HW127377   3.792   4.449   2.922 -0.2096 -0.0230 -1.6525
 5305SOL    HW227378   3.711   4.412   3.042 -0.2016  0.0022 -0.0190
 5306SOL     OW27379   2.016   0.001  12.878  0.2686 -0.5574  0.2975
 5306SOL    HW127380   2.023   4.630  12.876  1.6644 -0.4566  0.7054
 5306SOL    HW227381   2.006   0.019  12.784  0.0647 -2.3621 -0.0183
 5307SOL     OW27382   0.543   3.136   4.146 -0.4459 -0.0641  0.2085
 5307SOL    HW127383   0.617   3.107   4.093  0.0182 -0.4264  1.0494
 5307SOL    HW227384   0.575   3.110   4.233 -0.7872 -2.0057 -0.2539
 5308SOL     OW27385   2.610   2.305   3.855  0.3683  0.6422  0.3957
 5308SOL    HW127386   2.663   2.246   3.801 -1.6943  0.4816 -1.4272
 5308SOL    HW227387   2.586   2.238   3.920 -1.2307 -0.3390 -1.2368
 5309SOL     OW27388   3.147   0.630   8.940 -0.1562 -0.4784 -0.4394
 5309SOL    HW127389   3.109   0.698   8.884 -0.9816 -1.8869 -1.6055
 5309SOL    HW227390   3.090   0.559   8.912  0.0991 -0.4449 -1.0314
 5310SOL     OW27391   0.266   1.323   7.325  0.1280 -0.1170  0.3613
 5310SOL    HW127392   0.176   1.312   7.293  0.4955 -1.1307 -0.3000
 5310SOL    HW227393   0.244   1.293   7.414  0.2872  0.5159  0.6162
 5311SOL     OW27394   2.477   3.098   2.600  0.3754  0.0711 -0.0607
 5311SOL    HW127395   2.436   3.150   2.531 -0.5309  0.4120  0.7405
 5311SOL    HW227396   2.404   3.079   2.660  0.5458 -0.2880  0.0332
 5312SOL     OW27397   4.274   1.373  12.493 -0.4696  0.5555  0.2613
 5312SOL    HW127398   4.280   1.293  12.440 -0.5457 -1.0606  2.6818
 5312SOL    HW227399   4.275   1.334  12.581 -2.9432 -0.2544 -0.0671
 5313SOL     OW27400   2.718   2.041   9.242  0.5316 -0.3337  0.0844
 5313SOL    HW127401   2.640   2.091   9.216  3.0406  1.2266 -4.5081
 5313SOL    HW227402   2.679   1.955   9.256  0.1202 -0.2801 -0.7530
 5314SOL     OW27403   0.916   3.657   2.742 -0.3638  0.2000  0.3085
 5314SOL    HW127404   0.879   3.721   2.682 -1.8697 -1.8989 -0.9755
 5314SOL    HW227405   0.900   3.574   2.697  0.7444  0.5862 -0.8017
 5315SOL     OW27406   2.851   2.255   1.313  0.1598  0.2982 -0.2102
 5315SOL    HW127407   2.785   2.306   1.360  0.3032  0.1204  0.1903
 5315SOL    HW227408   2.919   2.308   1.273  0.7778 -1.1183 -1.0633
 5316SOL     OW27409   0.961   1.446   0.122  0.4920  0.2935 -0.0526
 5316SOL    HW127410   0.867   1.442   0.101  0.2825 -0.9652  1.1286
 5316SOL    HW227411   1.002   1.412   0.042 -0.7470 -0.4373 -0.3932
 5317SOL     OW27412   3.657   1.563  15.892 -0.3004  0.0153  0.2537
 5317SOL    HW127413   3.738   1.516  15.871  0.2978  0.6738  1.0979
 5317SOL    HW227414   3.680   1.618  15.967  4.2095 -1.5012 -0.0531
 5318SOL     OW27415   1.531   0.645   4.012 -0.4410 -0.4479 -0.4019
 5318SOL    HW127416   1.527   0.575   3.947  1.0661 -0.3563 -0.6122
 5318SOL    HW227417   1.616   0.632   4.055 -0.0444  3.6085  0.1085
 5319SOL     OW27418   3.571   1.808  11.724 -0.4679  0.4826 -0.3637
 5319SOL    HW127419   3.663   1.817  11.749 -0.4711  2.5143 -1.0126
 5319SOL    HW227420   3.552   1.716  11.707 -1.5308  0.5236  0.5576
 5320SOL     OW27421   4.577   4.427  13.999 -0.3615 -0.7585 -0.3640
 5320SOL    HW127422   4.527   4.359  13.956  0.2819 -1.3850 -0.1239
 5320SOL    HW227423   4.559   4.402  14.090 -1.9907 -2.0094 -1.0326
 5321SOL     OW27424   1.528   4.259  15.957 -0.3155 -0.0668 -0.0614
 5321SOL    HW127425   1.569   4.297  15.879  0.8454  0.8564  1.0046
 5321SOL    HW227426   1.574   4.174  15.959 -1.0272 -0.4960 -1.5209
 5322SOL     OW27427   4.686   0.083   2.100  0.5638  0.0596  0.2708
 5322SOL    HW127428   0.026   0.021   2.064 -0.4914 -0.4416 -0.7357
 5322SOL    HW227429   0.014   0.133   2.164  0.8693 -0.0481  0.1084
 5323SOL     OW27430   2.908   3.899   6.942 -0.4065  0.0303 -0.1028
 5323SOL    HW127431   2.816   3.882   6.964 -0.2933  1.1233  1.2415
 5323SOL    HW227432   2.911   3.995   6.940 -1.5353  0.1853  4.2034
 5324SOL     OW27433   3.548   3.482   1.270 -0.4756  0.3954 -0.4435
 5324SOL    HW127434   3.556   3.393   1.306 -0.2944  1.0949  1.2352
 5324SOL    HW227435   3.455   3.504   1.274  0.3216  4.0914 -2.2759
 5325SOL     OW27436   1.957   3.317   0.126  0.2669 -0.2366  0.5657
 5325SOL    HW127437   1.925   3.275   0.206  0.1862 -0.1783  0.5644
 5325SOL    HW227438   2.021   3.384   0.150 -2.4159  2.4482  0.2816
 5326SOL     OW27439   4.078   2.518   2.421  0.0701 -1.0347  0.4761
 5326SOL    HW127440   4.063   2.477   2.336 -0.0014 -0.7766  0.3636
 5326SOL    HW227441   4.173   2.522   2.412 -0.1320 -1.9144 -1.9756
 5327SOL     OW27442   1.059   3.527  16.292  0.0267 -0.1436  0.0389
 5327SOL    HW127443   1.055   3.440  16.333  4.0939 -0.0408  0.6085
 5327SOL    HW227444   1.144   3.537  16.250 -0.1343 -2.0456 -0.7296
 5328SOL     OW27445   1.390   0.850  12.781 -0.0353 -0.3383 -0.2049
 5328SOL    HW127446   1.318   0.913  12.783  0.4698  0.2530 -0.5284
 5328SOL    HW227447   1.478   0.883  12.795 -0.7837  1.8487 -0.6026
 5329SOL     OW27448   2.123   4.672   1.475 -0.7654  0.5237  0.2147
 5329SOL    HW127449   2.186   4.703   1.411 -0.0587 -0.6545  0.3372
 5329SOL    HW227450   2.140   4.579   1.491  1.4355  0.1746 -4.1475
 5330SOL     OW27451   3.121   2.367  14.970 -0.0764  0.4410 -0.2003
 5330SOL    HW127452   3.087   2.332  14.888  0.0139 -2.5638  1.0279
 5330SOL    HW227453   3.204   2.404  14.939 -0.4675 -0.5460 -2.4375
 5331SOL     OW27454   3.524   4.241  16.607 -0.0024 -0.3922 -0.3764
 5331SOL    HW127455   3.548   4.256  16.516  0.3588  0.7979 -0.0736
 5331SOL    HW227456   3.595   4.185  16.640  0.7080 -0.3518 -1.8429
 5332SOL     OW27457   3.717   0.818   8.202  0.1343  0.2048 -0.7198
 5332SOL    HW127458   3.721   0.912   8.219 -1.0694  0.3489 -1.2731
 5332SOL    HW227459   3.756   0.782   8.282  0.2423 -1.6375 -1.6126
 5333SOL     OW27460   2.544   4.538   2.004  0.1673  0.4157  0.2759
 5333SOL    HW127461   2.501   4.551   2.089 -0.9321  0.2372 -0.2573
 5333SOL    HW227462   2.494   4.465   1.968 -0.9169 -0.0314  2.6692
 5334SOL     OW27463   4.644   0.778  15.854  0.0657  0.3136  0.5910
 5334SOL    HW127464   4.720   0.733  15.892  0.6092  1.7734  1.2386
 5334SOL    HW227465   4.586   0.802  15.927 -0.9464  1.2871 -0.5438
 5335SOL     OW27466   2.753   1.941   3.006  0.1300  1.1069 -0.2032
 5335SOL    HW127467   2.832   1.888   2.995  1.3515  2.4433  2.2883
 5335SOL    HW227468   2.687   1.872   2.997 -0.8038  1.9129  0.4716
 5336SOL     OW27469   2.830   1.866   4.293  0.2838  0.2158  0.0311
 5336SOL    HW127470   2.842   1.837   4.203  4.3198  1.6810  0.1075
 5336SOL    HW227471   2.787   1.783   4.315 -1.9516  1.6813  1.2341
 5337SOL     OW27472   4.004   3.329  11.282 -0.1835  0.3128  0.5670
 5337SOL    HW127473   3.965   3.356  11.199 -0.2700 -1.7084 -0.0698
 5337SOL    HW227474   3.934   3.276  11.322  0.0375 -1.6171 -1.6187
 5338SOL     OW27475   1.407   0.168   3.822  0.3153 -0.7490  0.5086
 5338SOL    HW127476   1.498   0.195   3.824  0.0194  0.2628 -0.1581
 5338SOL    HW227477   1.380   0.190   3.912 -0.6300  1.7764 -0.3911
 5339SOL     OW27478   0.709   1.250   6.365  0.1303 -0.6620 -1.6449
 5339SOL    HW127479   0.746   1.266   6.452 -1.4532  1.1887 -1.3154
 5339SOL    HW227480   0.618   1.232   6.392 -0.0897  0.7770 -1.4295
 5340SOL     OW27481   1.194   1.644   6.005 -0.4368  0.0663  0.0198
 5340SOL    HW127482   1.129   1.666   6.072  0.9260  1.6705  0.7987
 5340SOL    HW227483   1.271   1.608   6.050 -0.8835 -1.1887 -0.2289
 5341SOL     OW27484   0.988   2.410   6.487 -0.4176 -0.2524 -0.0676
 5341SOL    HW127485   1.050   2.374   6.423 -1.1160 -0.0145 -0.8801
 5341SOL    HW227486   0.924   2.339   6.492  1.3949 -1.6927  2.8228
 5342SOL     OW27487   0.304   1.559   0.263  0.3767 -0.2511  0.1806
 5342SOL    HW127488   0.256   1.479   0.242 -0.8065  0.3238  0.7370
 5342SOL    HW227489   0.378   1.531   0.317  1.2515 -1.2907 -1.5432
 5343SOL     OW27490   2.423   3.752   6.172 -0.1053  0.6922 -0.1205
 5343SOL    HW127491   2.409   3.819   6.239 -1.5929  1.9122 -1.6539
 5343SOL    HW227492   2.495   3.705   6.215 -0.4942 -1.0816 -1.4206
 5344SOL     OW27493   4.317   4.624   0.521 -0.3290  0.2289  0.6288
 5344SOL    HW127494   4.333   4.704   0.571 -0.9283 -0.2840  1.6398
 5344SOL    HW227495   4.388   4.631   0.457  0.1486  0.2598  1.1596
 5345SOL     OW27496   2.720   3.017  16.974  0.3430 -0.2559 -0.2241
 5345SOL    HW127497   2.655   3.009  16.904  0.9530 -0.9929 -0.7129
 5345SOL    HW227498   2.766   2.933  16.968  2.0316  0.5398  1.7110
 5346SOL     OW27499   2.484   4.154   3.558 -0.1312  0.5560  0.9468
 5346SOL    HW127500   2.516   4.069   3.528 -0.6458  0.5219  0.4876
 5346SOL    HW227501   2.489   4.150   3.654 -0.9850 -1.7838  0.9009
 5347SOL     OW27502   3.343   3.730   4.255 -0.2201  0.4627 -0.0264
 5347SOL    HW127503   3.321   3.687   4.172  1.2843  0.0556 -0.2112
 5347SOL    HW227504   3.436   3.750   4.245  0.1850 -1.0075  0.7637
 5348SOL     OW27505   1.915   3.838   8.208 -0.1061 -0.7070 -0.6198
 5348SOL    HW127506   1.875   3.842   8.294  0.4912 -3.1302 -0.2363
 5348SOL    HW227507   1.930   3.744   8.202  0.0382 -0.6803 -0.6640
 5349SOL     OW27508   3.681   1.548  15.417  0.2595 -0.1887 -0.1826
 5349SOL    HW127509   3.658   1.480  15.480 -1.3910  0.2697 -0.2908
 5349SOL    HW227510   3.592   1.583  15.407  1.4317  2.5595 -1.0540
 5350SOL     OW27511   4.574   2.565   3.899 -0.4650  0.3778  0.4148
 5350SOL    HW127512   4.496   2.596   3.853  0.7620 -1.1331 -2.6666
 5350SOL    HW227513   4.549   2.476   3.925 -1.4098  0.3225 -0.7163
 5351SOL     OW27514   0.604   0.945   1.384 -0.4387 -0.8138  0.1147
 5351SOL    HW127515   0.678   0.933   1.325  1.3531  0.1301  2.1548
 5351SOL    HW227516   0.592   1.039   1.373 -0.0621 -0.6436  1.1021
 5352SOL     OW27517   3.587   0.127   6.457  0.4082 -0.1184 -0.3063
 5352SOL    HW127518   3.581   0.218   6.483 -0.0811  0.3908 -2.1891
 5352SOL    HW227519   3.565   0.148   6.366  1.7129 -1.0177 -0.8318
 5353SOL     OW27520   2.764   2.033   2.378 -0.3443  0.4205 -0.5129
 5353SOL    HW127521   2.744   2.120   2.414  1.4548 -0.8685  3.5211
 5353SOL    HW227522   2.810   1.991   2.451 -0.1425 -0.3386 -1.0816
 5354SOL     OW27523   1.717   3.738  10.961 -0.2079  0.7312  0.3398
 5354SOL    HW127524   1.658   3.668  10.931  2.4108 -0.4946 -1.9343
 5354SOL    HW227525   1.794   3.685  10.981 -0.2126  0.0418 -1.4296
 5355SOL     OW27526   3.584   3.303   7.274 -0.2811  0.4289 -0.7953
 5355SOL    HW127527   3.601   3.244   7.201  1.3404 -0.2551  0.1324
 5355SOL    HW227528   3.669   3.341   7.297 -0.7039  0.5537  0.6016
 5356SOL     OW27529   0.713   1.456  11.728  0.2906 -0.1842  0.0902
 5356SOL    HW127530   0.674   1.373  11.700  1.1542  0.1219 -1.9780
 5356SOL    HW227531   0.803   1.444  11.758 -0.0123 -2.5853  0.0349
 5357SOL     OW27532   1.520   3.856   8.053  0.6736  0.3375 -0.5743
 5357SOL    HW127533   1.555   3.828   7.969  0.0836 -0.3607 -0.5921
 5357SOL    HW227534   1.538   3.774   8.099  2.6170  1.2568  0.2905
 5358SOL     OW27535   0.455   4.400   8.328  0.2925  0.6785  0.2516
 5358SOL    HW127536   0.361   4.387   8.339  0.7031 -0.3121  2.6401
 5358SOL    HW227537   0.441   4.442   8.243 -3.4158 -0.6823  0.1612
 5359SOL     OW27538   0.461   4.231   6.622  0.1390  0.2963  0.0378
 5359SOL    HW127539   0.485   4.300   6.560 -0.5781 -1.5732 -2.2937
 5359SOL    HW227540   0.544   4.183   6.624 -0.7061 -1.1528  0.0971
 5360SOL     OW27541   4.657   2.246  10.124  0.2033  0.0198 -0.0057
 5360SOL    HW127542   4.601   2.279  10.054  0.8816 -0.7385 -0.9061
 5360SOL    HW227543   4.630   2.291  10.204 -2.1054  0.6869 -1.1665
 5361SOL     OW27544   3.350   1.245   2.524 -0.6118  0.1247  0.7304
 5361SOL    HW127545   3.277   1.199   2.566 -1.4327  0.5385 -0.2236
 5361SOL    HW227546   3.306   1.309   2.467  0.9981 -0.5192 -1.2221
 5362SOL     OW27547   0.440   3.412  13.974  0.0476 -0.1038  0.7420
 5362SOL    HW127548   0.432   3.453  13.888  0.3013 -1.6593 -0.0226
 5362SOL    HW227549   0.485   3.331  13.949 -0.9666  0.2485 -2.1552
 5363SOL     OW27550   2.201   0.972   2.704  0.3712 -0.3356  0.0465
 5363SOL    HW127551   2.295   0.955   2.709 -0.0664 -2.3777  1.3975
 5363SOL    HW227552   2.201   1.019   2.620 -0.7084 -1.3708 -0.5244
 5364SOL     OW27553   1.201   0.844   6.664 -0.0894 -0.5430 -1.0660
 5364SOL    HW127554   1.193   0.855   6.759  0.1243  1.8519 -1.3389
 5364SOL    HW227555   1.271   0.779   6.654  0.0813 -0.8772  2.2496
 5365SOL     OW27556   1.777   1.840  11.439 -0.0364 -0.0779  0.1183
 5365SOL    HW127557   1.832   1.866  11.365  1.6885  0.4855  1.6054
 5365SOL    HW227558   1.690   1.875  11.422  0.8164  1.1510 -1.6276
 5366SOL     OW27559   2.011   0.281   7.716 -0.1952  0.0122  0.0680
 5366SOL    HW127560   2.104   0.274   7.696 -0.6106 -0.3094 -1.7892
 5366SOL    HW227561   1.994   0.373   7.699  0.3641 -0.1568 -1.3700
 5367SOL     OW27562   1.712   1.970   3.704 -0.0688  1.0551  0.4230
 5367SOL    HW127563   1.658   1.985   3.627  0.5460 -0.6127 -0.3267
 5367SOL    HW227564   1.661   2.010   3.774  1.7985  2.3167  1.0618
 5368SOL     OW27565   4.090   2.357  11.119 -0.0807 -0.1062 -0.4209
 5368SOL    HW127566   4.122   2.271  11.148 -0.8308 -0.1901  0.1376
 5368SOL    HW227567   4.142   2.410  11.180 -2.1774  0.9300  0.4739
 5369SOL     OW27568   2.720   1.547   2.642 -0.2954  0.3530 -0.0526
 5369SOL    HW127569   2.784   1.583   2.703 -0.6901  0.6646  0.1823
 5369SOL    HW227570   2.693   1.630   2.604  2.2011  1.7863  1.3809
 5370SOL     OW27571   1.210   4.632  11.843 -0.1771  0.6963  0.3511
 5370SOL    HW127572   1.282   4.614  11.783  0.4233  0.3720  1.1803
 5370SOL    HW227573   1.146   4.646  11.773  0.6291  0.6224 -0.3951
 5371SOL     OW27574   3.213   2.301   6.363 -0.0658 -0.1536 -0.0831
 5371SOL    HW127575   3.259   2.228   6.405 -0.4032  0.7460  1.8822
 5371SOL    HW227576   3.269   2.377   6.382  1.5919 -0.9856 -1.7358
 5372SOL     OW27577   1.207   2.676  12.573 -0.1739  0.0099  0.2191
 5372SOL    HW127578   1.301   2.693  12.576 -0.6266  2.4372  0.5311
 5372SOL    HW227579   1.175   2.761  12.542  2.8286  1.0812  0.0854
 5373SOL     OW27580   2.584   0.170   7.040  0.2589 -0.1692 -0.5824
 5373SOL    HW127581   2.544   0.120   6.969 -0.5200 -1.7123  0.9179
 5373SOL    HW227582   2.675   0.150   7.022  0.2632 -0.2123 -0.5162
 5374SOL     OW27583   0.448   1.869  13.896 -0.2090  0.0357  0.3057
 5374SOL    HW127584   0.468   1.945  13.950  1.6102 -0.2914  0.1040
 5374SOL    HW227585   0.386   1.826  13.954 -0.2489  0.6862  0.7392
 5375SOL     OW27586   4.269   3.065   5.923 -0.7573  0.3457 -0.5337
 5375SOL    HW127587   4.335   3.010   5.881 -0.1632 -0.2452  1.1592
 5375SOL    HW227588   4.203   2.996   5.914 -0.0226 -0.5695  1.0881
 5376SOL     OW27589   4.528   0.863  15.617 -0.5400  0.4069 -0.0941
 5376SOL    HW127590   4.585   0.815  15.677 -2.0195  1.6274  2.2533
 5376SOL    HW227591   4.491   0.911  15.691  0.1521  0.8638 -0.0506
 5377SOL     OW27592   4.471   3.212   5.571  0.5573  0.5575  0.3600
 5377SOL    HW127593   4.402   3.263   5.528  1.1467  2.0187  1.1284
 5377SOL    HW227594   4.436   3.124   5.581 -1.3073  1.4474  1.8134
 5378SOL     OW27595   0.490   1.476  14.347  0.8271  0.0410 -0.8059
 5378SOL    HW127596   0.506   1.566  14.317 -0.3112  0.1295 -1.1374
 5378SOL    HW227597   0.464   1.498  14.436  1.1552  0.0615 -0.7150
 5379SOL     OW27598   1.354   3.098  17.110  0.3122  0.0364  0.1449
 5379SOL    HW127599   1.274   3.109  17.161 -0.5161  2.1093 -1.6174
 5379SOL    HW227600   1.376   3.185  17.078  1.0924 -0.1315  0.2370
 5380SOL     OW27601   3.424   3.459   7.800 -0.7835 -0.5156 -0.1801
 5380SOL    HW127602   3.376   3.482   7.721 -1.7835 -1.9491  0.0229
 5380SOL    HW227603   3.491   3.398   7.768 -2.2485 -1.3833 -1.5682
 5381SOL     OW27604   0.235   4.388   5.535 -0.6727 -0.3660 -0.8433
 5381SOL    HW127605   0.309   4.449   5.545  0.2070 -1.4082 -1.0265
 5381SOL    HW227606   0.156   4.441   5.529  0.9197  2.2544  1.1615
 5382SOL     OW27607   4.422   2.154  10.350  0.1279  0.0347 -0.3381
 5382SOL    HW127608   4.514   2.133  10.364 -0.5614 -1.6781  1.5209
 5382SOL    HW227609   4.437   2.246  10.371 -1.1809 -0.4968  2.9301
 5383SOL     OW27610   1.480   1.869  16.705  0.8107 -0.1185 -0.1143
 5383SOL    HW127611   1.419   1.890  16.634 -0.1330 -2.3031  0.0460
 5383SOL    HW227612   1.556   1.913  16.669  1.6625  0.8370  2.8421
 5384SOL     OW27613   1.374   4.188   6.207 -0.2507  0.3525  0.0104
 5384SOL    HW127614   1.315   4.264   6.214 -0.7552 -0.2511  2.6702
 5384SOL    HW227615   1.436   4.199   6.279 -0.9495  0.7404  0.5677
 5385SOL     OW27616   1.773   1.935   2.068  0.0932 -0.4754  0.5901
 5385SOL    HW127617   1.730   2.017   2.045  0.6454 -0.0338  1.1193
 5385SOL    HW227618   1.862   1.971   2.071 -0.8634  2.0514 -1.3936
 5386SOL     OW27619   1.882   2.237   2.897 -0.1292 -0.2761 -0.4556
 5386SOL    HW127620   1.829   2.282   2.963 -0.8143 -0.7308 -0.6979
 5386SOL    HW227621   1.860   2.148   2.924  2.2522 -1.5379 -2.6982
 5387SOL     OW27622   4.020   2.074   6.112 -0.6287 -0.1465 -0.4086
 5387SOL    HW127623   4.004   2.131   6.188  1.7529 -1.8855  1.3812
 5387SOL    HW227624   3.985   1.992   6.146  2.2150 -0.5996  1.4007
 5388SOL     OW27625   3.686   0.844   7.219 -0.6485 -0.0598  0.4447
 5388SOL    HW127626   3.768   0.835   7.170 -0.0717  0.3815  1.3159
 5388SOL    HW227627   3.723   0.886   7.296  2.3388  0.2154 -1.1199
 5389SOL     OW27628   4.279   2.940   9.821  0.4511 -0.3213 -0.3834
 5389SOL    HW127629   4.310   2.987   9.743  1.1842  3.0876  1.9632
 5389SOL    HW227630   4.188   2.933   9.794  0.2619 -2.6441  0.8696
 5390SOL     OW27631   3.166   3.975   0.134  0.3587  0.0482  0.2676
 5390SOL    HW127632   3.148   3.899   0.079  1.7758  0.4891 -0.7960
 5390SOL    HW227633   3.256   3.992   0.107  1.0937 -3.1966  0.6930
 5391SOL     OW27634   1.823   1.429  15.042  0.0620  0.2304 -0.2037
 5391SOL    HW127635   1.736   1.465  15.058 -1.0928 -2.2605 -0.9365
 5391SOL    HW227636   1.800   1.380  14.963 -0.0856  0.6915 -0.4504
 5392SOL     OW27637   3.112   1.985   5.754 -0.2275  0.6025 -0.3317
 5392SOL    HW127638   3.194   1.938   5.737  0.1385  0.6134  1.3463
 5392SOL    HW227639   3.143   2.052   5.815  1.3671 -1.6594  1.3570
 5393SOL     OW27640   3.112   2.255   8.404 -0.1180  0.1725  0.0256
 5393SOL    HW127641   3.095   2.251   8.498  0.4112 -0.2976  0.0972
 5393SOL    HW227642   3.173   2.183   8.394 -1.5786 -1.0157 -0.3695
 5394SOL     OW27643   3.342   2.954   0.879  0.2044  0.1057 -0.4559
 5394SOL    HW127644   3.256   2.924   0.850  1.4335 -3.7577 -0.0449
 5394SOL    HW227645   3.371   2.894   0.948 -2.2653 -0.1959  0.3207
 5395SOL     OW27646   4.298   2.118   9.664  0.1683 -0.1935 -0.5213
 5395SOL    HW127647   4.232   2.158   9.722  0.2825  0.6624 -0.9812
 5395SOL    HW227648   4.339   2.055   9.724  2.0785  0.5153 -1.0879
 5396SOL     OW27649   3.817   2.720  14.935  0.8627 -0.4740  0.0195
 5396SOL    HW127650   3.832   2.813  14.916 -0.6166 -0.9232 -3.4582
 5396SOL    HW227651   3.755   2.729  15.007  0.1503 -0.8232 -0.5409
 5397SOL     OW27652   0.887   2.776   6.774  0.5165 -0.3056  0.3832
 5397SOL    HW127653   0.844   2.691   6.772  1.2890 -0.6746 -1.6033
 5397SOL    HW227654   0.964   2.755   6.720  0.8926 -1.0723  1.2123
 5398SOL     OW27655   4.055   3.846   2.957  0.7452  0.1940  0.2075
 5398SOL    HW127656   4.008   3.925   2.930 -0.2794 -0.0025  1.4158
 5398SOL    HW227657   4.115   3.832   2.883 -1.9399 -1.2743 -1.7010
 5399SOL     OW27658   0.088   3.528   0.430  0.4455 -0.6050  0.3320
 5399SOL    HW127659   0.091   3.442   0.389  1.7727  0.4508 -1.7788
 5399SOL    HW227660   0.182   3.534   0.449  0.1039  2.2622  1.0532
 5400SOL     OW27661   2.611   0.040   0.157  0.2814 -0.2515  0.0718
 5400SOL    HW127662   2.654   0.119   0.189 -0.3523  0.6551 -1.3169
 5400SOL    HW227663   2.641   4.697   0.219 -0.7201 -0.3678  0.4460
 5401SOL     OW27664   2.884   2.868   7.161  0.1042  0.1780 -0.0314
 5401SOL    HW127665   2.802   2.868   7.111  0.0806  0.1114  0.0069
 5401SOL    HW227666   2.871   2.950   7.208  2.5151  1.3809 -1.4628
 5402SOL     OW27667   3.952   3.266   8.406  0.1367  0.5313 -0.3319
 5402SOL    HW127668   3.940   3.174   8.383  1.4814  0.1601  0.4376
 5402SOL    HW227669   3.861   3.290   8.390  0.2621  0.1133 -1.6580
 5403SOL     OW27670   3.820   2.088   4.627 -0.7984  0.6283  0.0463
 5403SOL    HW127671   3.877   2.165   4.623  0.2758 -0.2846 -2.1542
 5403SOL    HW227672   3.882   2.026   4.665 -1.7895 -0.6525 -0.4318
 5404SOL     OW27673   4.192   1.145  15.969 -0.2647 -0.1835  0.2925
 5404SOL    HW127674   4.236   1.226  15.997 -1.2469  0.4035  0.1447
 5404SOL    HW227675   4.111   1.183  15.934  0.8052  1.1013 -0.7717
 5405SOL     OW27676   3.367   3.597   2.907 -0.1751  0.3111  0.4120
 5405SOL    HW127677   3.324   3.583   2.992  0.7523  1.4426  1.0643
 5405SOL    HW227678   3.347   3.521   2.853  1.0183  1.0656 -1.0790
 5406SOL     OW27679   1.973   0.958  10.536  0.1952 -0.5189 -1.0242
 5406SOL    HW127680   2.005   0.950  10.626  0.1914 -1.6350 -1.1274
 5406SOL    HW227681   1.986   1.051  10.518  1.3843 -0.4737  0.0803
 5407SOL     OW27682   0.841   4.674  11.459  0.1466 -0.0806 -0.4641
 5407SOL    HW127683   0.752   4.639  11.463 -0.3185  1.0927 -0.5790
 5407SOL    HW227684   0.848   4.673  11.364  0.5458  2.3802 -0.4594
 5408SOL     OW27685   3.237   3.958   3.156  0.1991 -0.7985 -0.1843
 5408SOL    HW127686   3.281   4.014   3.220 -1.7270  0.4145  0.0941
 5408SOL    HW227687   3.302   3.960   3.085 -0.5151 -2.1330 -0.8688
 5409SOL     OW27688   1.078   0.165   9.018 -0.2230 -0.1338 -0.7079
 5409SOL    HW127689   1.090   0.100   8.949 -0.6649 -0.7482 -0.2035
 5409SOL    HW227690   1.156   0.144   9.070 -0.8123  2.5513  1.2997
 5410SOL     OW27691   3.323   4.626   7.831 -0.3105 -0.4214 -0.1447
 5410SOL    HW127692   3.333   4.678   7.751 -1.0653 -0.6413 -0.3853
 5410SOL    HW227693   3.414   4.621   7.858 -0.8215 -1.2979  1.3813
 5411SOL     OW27694   4.453   1.261   8.902  0.8552  0.4287  0.0122
 5411SOL    HW127695   4.443   1.345   8.857 -0.2525  0.9855  1.2860
 5411SOL    HW227696   4.541   1.272   8.938  1.6735 -1.9381 -1.2856
 5412SOL     OW27697   4.431   4.132   6.780 -0.0545 -0.0258 -0.4274
 5412SOL    HW127698   4.384   4.087   6.710  1.9822 -1.4795 -0.8789
 5412SOL    HW227699   4.370   4.121   6.853 -0.4718 -2.1697 -1.1118
 5413SOL     OW27700   0.993   0.408   3.253  0.2575  0.0376  0.5121
 5413SOL    HW127701   1.085   0.411   3.282  0.6479  1.3928 -0.8972
 5413SOL    HW227702   0.993   0.318   3.219  0.3957  0.3401 -0.2866
 5414SOL     OW27703   2.009   2.172   5.764 -0.3474 -0.6062 -0.1114
 5414SOL    HW127704   2.028   2.255   5.808  0.7099 -0.7419 -0.3091
 5414SOL    HW227705   1.990   2.124   5.844 -0.3517 -0.9328 -0.3072
 5415SOL     OW27706   4.658   0.565  11.904 -1.3489  0.0621 -0.0640
 5415SOL    HW127707   4.623   0.477  11.918 -1.2624  0.3513  1.9165
 5415SOL    HW227708   4.608   0.608  11.973 -2.9789 -1.5617 -0.2231
 5416SOL     OW27709   3.230   2.444   2.867 -0.0883  0.5918  0.1882
 5416SOL    HW127710   3.222   2.408   2.956 -0.8467  1.3884  0.4354
 5416SOL    HW227711   3.308   2.398   2.834 -0.1250  0.2400  0.5886
 5417SOL     OW27712   3.963   2.225   5.631  0.4717  0.4316  0.5202
 5417SOL    HW127713   3.925   2.205   5.717  0.5971 -1.7488  0.0642
 5417SOL    HW227714   4.001   2.143   5.599  2.7403  1.5188  0.4113
 5418SOL     OW27715   4.233   3.324   8.682 -0.2253 -0.6599  0.1932
 5418SOL    HW127716   4.324   3.342   8.656 -0.2106 -2.0100 -0.6654
 5418SOL    HW227717   4.265   3.290   8.766  1.3081  1.4463  0.4780
 5419SOL     OW27718   4.078   4.340  10.088  0.1344 -0.4294 -0.4015
 5419SOL    HW127719   4.159   4.288  10.093  0.2774 -0.2986 -1.3121
 5419SOL    HW227720   4.037   4.305  10.166  0.3693 -1.2979 -0.6741
 5420SOL     OW27721   2.014   0.236   0.230 -0.1773 -0.1216  0.1290
 5420SOL    HW127722   1.922   0.212   0.225  0.1017 -1.1945  0.0740
 5420SOL    HW227723   2.044   0.233   0.139 -0.2423 -0.7940  0.1252
 5421SOL     OW27724   0.057   3.476   3.597  0.0807 -0.6911  0.2656
 5421SOL    HW127725   4.695   3.443   3.624 -1.1121  2.1582 -0.0578
 5421SOL    HW227726   0.113   3.439   3.665 -0.6923  1.1380  1.8974
 5422SOL     OW27727   0.488   2.057  11.294  0.1233  0.2344  0.3017
 5422SOL    HW127728   0.581   2.072  11.275  0.0046  0.2604 -0.2443
 5422SOL    HW227729   0.450   2.031  11.211 -1.8626  0.0148  1.2810
 5423SOL     OW27730   0.037   3.981   7.934  0.2113 -0.0747  0.0207
 5423SOL    HW127731   0.021   3.888   7.948  0.8041 -0.1773  0.0057
 5423SOL    HW227732   4.692   4.007   7.996  1.7469 -0.3621  1.8587
 5424SOL     OW27733   1.075   0.999   2.452 -0.4152  0.6061  0.2461
 5424SOL    HW127734   1.010   1.059   2.414 -0.9706 -1.0705 -1.4286
 5424SOL    HW227735   1.049   0.991   2.544 -1.1685 -0.8797 -0.1029
 5425SOL     OW27736   3.757   0.988   1.298 -0.3470  0.3082  0.1303
 5425SOL    HW127737   3.691   0.968   1.232 -0.1004  1.0250 -0.3300
 5425SOL    HW227738   3.751   1.083   1.303 -0.7785  0.3114 -0.5595
 5426SOL     OW27739   2.589   0.570  11.002  0.6440  0.2839  0.1434
 5426SOL    HW127740   2.569   0.480  10.977 -0.4473  0.5744 -0.0407
 5426SOL    HW227741   2.508   0.608  10.969 -0.2374 -1.1779  0.6235
 5427SOL     OW27742   0.659   2.146   6.114 -0.0817 -0.3779  0.3757
 5427SOL    HW127743   0.667   2.199   6.193  0.9996 -0.2009  0.1373
 5427SOL    HW227744   0.585   2.174   6.059  0.0195  2.2985  1.6373
 5428SOL     OW27745   2.833   3.244  12.185  0.2142 -0.2690 -0.1573
 5428SOL    HW127746   2.833   3.174  12.120 -1.6049 -0.8133  0.4381
 5428SOL    HW227747   2.876   3.202  12.259 -0.6008 -2.8822 -1.1872
 5429SOL     OW27748   2.133   0.374  10.725  0.1425  0.0311 -0.1025
 5429SOL    HW127749   2.228   0.382  10.731  0.2045 -0.8320  0.2372
 5429SOL    HW227750   2.123   0.323  10.645 -2.7116  0.8495 -0.2772
 5430SOL     OW27751   2.165   0.740   8.052  0.4217 -0.1739 -0.0915
 5430SOL    HW127752   2.242   0.703   8.094  1.1847  0.2494 -1.1063
 5430SOL    HW227753   2.111   0.663   8.037 -1.3252  0.9643  0.2974
 5431SOL     OW27754   4.071   4.477   8.408  0.2711 -0.0361  0.5280
 5431SOL    HW127755   4.046   4.558   8.452 -0.0235 -0.8960  1.9136
 5431SOL    HW227756   4.007   4.418   8.446  1.3148 -2.2688 -1.1483
 5432SOL     OW27757   3.182   1.273   7.507  0.0104  0.0131 -0.2367
 5432SOL    HW127758   3.130   1.313   7.437  0.2813 -1.7632 -1.4430
 5432SOL    HW227759   3.164   1.331   7.581  4.5970  0.8007  0.2505
 5433SOL     OW27760   4.107   0.701   9.730  0.1436 -0.0722  0.3592
 5433SOL    HW127761   4.040   0.640   9.698  1.1569 -0.4631 -1.0417
 5433SOL    HW227762   4.143   0.651   9.804  0.2185 -1.2363 -0.4580
 5434SOL     OW27763   3.524   3.213   3.248  0.3218 -0.5622  0.1558
 5434SOL    HW127764   3.582   3.274   3.202 -0.8186  1.6953  1.7377
 5434SOL    HW227765   3.465   3.188   3.177  2.9848  2.4781 -3.1455
 5435SOL     OW27766   4.662   2.034   3.046  0.3952  0.3589  0.0180
 5435SOL    HW127767   4.688   2.116   3.089 -1.1662  0.6442  0.3958
 5435SOL    HW227768   0.016   1.983   3.069  1.2629  0.5109 -2.5253
 5436SOL     OW27769   0.774   2.300   7.651  0.1413 -0.0869 -0.3840
 5436SOL    HW127770   0.712   2.295   7.724  0.3292  0.4179 -0.1950
 5436SOL    HW227771   0.717   2.266   7.582 -0.0299 -1.1567  0.2671
 5437SOL     OW27772   2.063   3.478   4.548 -0.4691 -0.0111  0.0513
 5437SOL    HW127773   1.996   3.414   4.522 -1.9417  2.5933 -2.6607
 5437SOL    HW227774   2.059   3.469   4.643 -0.6389 -1.2255 -0.0748
 5438SOL     OW27775   3.530   3.346  10.440  0.0454  0.0289 -0.3911
 5438SOL    HW127776   3.508   3.283  10.371 -1.4493  1.3562 -1.1406
 5438SOL    HW227777   3.466   3.415  10.423 -1.6010 -1.2753  0.5080
 5439SOL     OW27778   0.441   0.425   2.000  0.2412 -0.5526  0.4445
 5439SOL    HW127779   0.489   0.507   1.991 -0.9473  0.0042 -0.8510
 5439SOL    HW227780   0.410   0.432   2.091 -1.1774 -0.6103 -0.0364
 5440SOL     OW27781   0.911   2.526   1.384  0.2987  0.2933 -0.6100
 5440SOL    HW127782   0.872   2.508   1.470 -1.0864 -1.8404 -1.6795
 5440SOL    HW227783   0.990   2.472   1.389  0.8495  1.0306 -1.3601
 5441SOL     OW27784   2.572   1.355   4.099  0.2893  0.3552 -0.4555
 5441SOL    HW127785   2.546   1.441   4.130  1.4055  0.8638 -0.9264
 5441SOL    HW227786   2.652   1.335   4.147  0.6702  1.4127 -0.6600
 5442SOL     OW27787   1.554   2.574  12.325  0.0370  0.0012 -0.1058
 5442SOL    HW127788   1.505   2.581  12.407  0.3490 -1.5952  0.2240
 5442SOL    HW227789   1.624   2.639  12.330 -1.1522  1.4157 -1.8828
 5443SOL     OW27790   1.410   2.616   0.174  0.2788  0.5494 -0.0682
 5443SOL    HW127791   1.464   2.547   0.137 -2.7238 -2.0634  0.3508
 5443SOL    HW227792   1.481   2.667   0.214  2.2092 -0.8536 -1.7676
 5444SOL     OW27793   3.404   4.252   3.661  0.0366  0.2248 -0.4907
 5444SOL    HW127794   3.314   4.283   3.656 -0.2205 -0.2754  1.1963
 5444SOL    HW227795   3.436   4.315   3.726  1.0413 -0.4237 -0.3531
 5445SOL     OW27796   1.732   0.514   5.430  0.1889  0.1910 -0.0704
 5445SOL    HW127797   1.748   0.476   5.516  2.3941  1.7592  0.2198
 5445SOL    HW227798   1.679   0.442   5.397 -0.9719  0.5626  1.0182
 5446SOL     OW27799   2.825   1.395   5.610  0.3010  0.2287 -0.1408
 5446SOL    HW127800   2.738   1.409   5.572 -0.3089 -2.4712  0.2559
 5446SOL    HW227801   2.820   1.303   5.634  2.5994  0.6171  1.7283
 5447SOL     OW27802   1.016   3.354   5.865 -0.3894  0.2097 -0.5122
 5447SOL    HW127803   1.068   3.432   5.845 -0.3073 -0.2048 -1.8638
 5447SOL    HW227804   0.997   3.370   5.958 -0.4552 -2.7880 -0.0084
 5448SOL     OW27805   3.327   2.568   6.374  0.3432 -0.0754 -0.9241
 5448SOL    HW127806   3.309   2.652   6.416  0.4308 -0.9547  0.8833
 5448SOL    HW227807   3.422   2.579   6.379  0.0895  1.8936 -0.4865
 5449SOL     OW27808   0.688   0.625   5.531 -0.6710  0.3514  0.0444
 5449SOL    HW127809   0.700   0.717   5.508 -0.0317  0.1529 -0.4143
 5449SOL    HW227810   0.645   0.596   5.450 -0.7061 -1.6145  0.7764
 5450SOL     OW27811   2.854   1.626  16.642  0.0737  0.2892 -0.3279
 5450SOL    HW127812   2.914   1.603  16.571 -0.9737 -0.1245 -1.0710
 5450SOL    HW227813   2.833   1.543  16.686  1.8853  0.5263  0.9928
 5451SOL     OW27814   2.884   0.872   1.903 -0.3872 -0.6122  0.2114
 5451SOL    HW127815   2.872   0.947   1.846  0.0183  0.5977  1.7144
 5451SOL    HW227816   2.839   0.799   1.860  0.0314  0.2392 -1.6483
 5452SOL     OW27817   1.688   0.518   6.076 -0.2235  0.2424  0.1081
 5452SOL    HW127818   1.709   0.425   6.081  2.1372  0.7676 -0.2686
 5452SOL    HW227819   1.732   0.533   5.992 -0.7839 -1.0598 -0.4086
 5453SOL     OW27820   0.918   0.083  10.604 -0.1665 -0.1916  0.3843
 5453SOL    HW127821   0.996   0.082  10.549  0.8522  2.1185  1.7746
 5453SOL    HW227822   0.844   0.085  10.544 -0.0617  1.5240  0.3170
 5454SOL     OW27823   1.914   1.242   3.295 -0.2622  0.4212 -0.1053
 5454SOL    HW127824   1.958   1.326   3.306  2.6774 -1.0936 -0.2833
 5454SOL    HW227825   1.890   1.224   3.386 -0.4684  1.7023  0.1005
 5455SOL     OW27826   1.719   0.358   4.311  0.3824 -0.2135 -0.6326
 5455SOL    HW127827   1.627   0.364   4.286  0.9642  1.3035 -2.3760
 5455SOL    HW227828   1.710   0.418   4.386 -1.1466  0.5532 -1.4270
 5456SOL     OW27829   4.273   4.498   4.050 -0.1967 -0.7726 -0.4863
 5456SOL    HW127830   4.186   4.475   4.084  0.0256 -0.1908  0.4719
 5456SOL    HW227831   4.248   4.544   3.970  1.1926  0.1481 -0.3902
 5457SOL     OW27832   3.217   2.361   9.770 -0.2746  0.0156 -0.1517
 5457SOL    HW127833   3.197   2.409   9.690  0.2860 -0.3987 -0.5301
 5457SOL    HW227834   3.132   2.343   9.811 -0.3907  1.9713  0.4516
 5458SOL     OW27835   0.324   2.200  11.447  0.7123 -0.7136 -0.1194
 5458SOL    HW127836   0.370   2.130  11.402  0.2413 -0.1973 -1.4004
 5458SOL    HW227837   0.347   2.193  11.540 -1.0806  0.3472  0.4147
 5459SOL     OW27838   4.309   0.675   4.173  0.5836 -0.1428 -0.1848
 5459SOL    HW127839   4.313   0.580   4.183  0.4384 -0.1278  0.0182
 5459SOL    HW227840   4.403   0.689   4.184  0.3285  0.8943  0.7500
 5460SOL     OW27841   0.277   1.809   4.621  0.0543 -0.4967 -0.1095
 5460SOL    HW127842   0.280   1.725   4.575 -2.1224  0.1648 -1.4695
 5460SOL    HW227843   0.372   1.821   4.613  0.2820 -2.4004 -0.4012
 5461SOL     OW27844   3.397   2.375   8.193 -0.3031 -0.4769 -0.7321
 5461SOL    HW127845   3.444   2.292   8.197 -2.2804 -1.5431  0.4087
 5461SOL    HW227846   3.389   2.380   8.098 -2.1764 -0.6877 -0.5827
 5462SOL     OW27847   3.797   1.431  10.170  0.2399  0.0786  0.0256
 5462SOL    HW127848   3.822   1.504  10.227  2.5184  0.6705 -1.7118
 5462SOL    HW227849   3.872   1.437  10.112  0.3295  1.1597  0.2517
 5463SOL     OW27850   1.865   0.880   6.654  0.7197 -0.3637 -0.0109
 5463SOL    HW127851   1.824   0.803   6.695 -2.4547  1.2127 -0.2159
 5463SOL    HW227852   1.878   0.937   6.730 -1.5269 -0.5162  0.4969
 5464SOL     OW27853   1.089   0.280  10.779  0.2277 -0.2506 -0.4011
 5464SOL    HW127854   1.025   0.213  10.803  0.7567 -0.7357 -0.3451
 5464SOL    HW227855   1.076   0.346  10.847  1.7819 -0.5730  0.1910
 5465SOL     OW27856   2.633   4.441   6.386  0.1747  0.2047 -0.3695
 5465SOL    HW127857   2.638   4.412   6.295 -1.1002 -1.3387  0.0535
 5465SOL    HW227858   2.666   4.530   6.376  0.7365  0.0135 -0.2813
 5466SOL     OW27859   0.926   3.441   8.850  0.1616 -0.3866 -0.5437
 5466SOL    HW127860   0.893   3.356   8.822  0.0418 -0.2789 -0.7254
 5466SOL    HW227861   0.900   3.492   8.774  0.0622  1.4712  0.7388
 5467SOL     OW27862   1.091   1.783   2.499  0.0910 -0.2104  0.0803
 5467SOL    HW127863   0.997   1.772   2.517 -0.1837  2.4302  0.2547
 5467SOL    HW227864   1.094   1.878   2.491  0.3203  0.0140  2.5874
 5468SOL     OW27865   3.948   2.669   5.732  0.3344  0.6111 -0.6408
 5468SOL    HW127866   4.006   2.601   5.698 -0.6093 -0.8777  0.7723
 5468SOL    HW227867   3.944   2.633   5.820 -0.1825  0.2892 -0.8009
 5469SOL     OW27868   2.477   1.792   5.019 -0.1311 -0.5710 -0.3252
 5469SOL    HW127869   2.514   1.718   4.972 -0.9017 -0.4823 -1.0753
 5469SOL    HW227870   2.510   1.871   4.975 -1.7350  0.9107  1.1169
 5470SOL     OW27871   4.581   0.049   1.199 -0.0179  0.0005 -0.1478
 5470SOL    HW127872   4.648   0.091   1.253 -1.3508  0.4670  1.1525
 5470SOL    HW227873   4.628   4.712   1.142 -0.4294 -0.5521  0.0943
 5471SOL     OW27874   0.286   0.550   5.690 -0.4201  0.0935 -0.0895
 5471SOL    HW127875   0.362   0.607   5.696 -0.8297  0.4182  1.9647
 5471SOL    HW227876   0.307   0.505   5.608 -1.0059 -1.9382  0.8643
 5472SOL     OW27877   2.522   2.462   4.321  0.8653  0.3642  0.7457
 5472SOL    HW127878   2.554   2.551   4.333  2.6756 -0.1658 -0.1656
 5472SOL    HW227879   2.452   2.479   4.259 -0.6453  2.3404  3.0068
 5473SOL     OW27880   4.087   0.339   3.498 -0.2613  0.1133  0.4979
 5473SOL    HW127881   4.063   0.326   3.406  1.7309  2.0400 -0.2695
 5473SOL    HW227882   4.174   0.376   3.483  0.2003 -0.4408  1.8007
 5474SOL     OW27883   3.012   2.597   3.136  0.0068 -0.3656  0.1178
 5474SOL    HW127884   3.022   2.673   3.078 -1.1132  0.7762  1.4311
 5474SOL    HW227885   2.917   2.594   3.147 -0.0983 -0.6987 -0.9144
 5475SOL     OW27886   1.944   1.928   6.794  0.4979  0.1704  0.1273
 5475SOL    HW127887   1.966   2.020   6.780 -0.0061  0.1852 -0.6006
 5475SOL    HW227888   1.890   1.938   6.872 -0.1901 -1.1842 -0.1826
 5476SOL     OW27889   4.263   0.343   7.083 -0.4282  0.6190  0.4662
 5476SOL    HW127890   4.183   0.389   7.056  0.5312  0.8017 -2.1228
 5476SOL    HW227891   4.302   0.316   7.000  0.7116  2.0820  0.5208
 5477SOL     OW27892   0.975   4.045   9.765  0.3112 -0.4278 -0.0269
 5477SOL    HW127893   0.949   4.023   9.854 -1.1951 -0.6971 -0.5411
 5477SOL    HW227894   0.901   4.104   9.750  0.8227 -0.2886 -2.0600
 5478SOL     OW27895   1.381   2.934   7.634  0.0576  1.0197 -0.2331
 5478SOL    HW127896   1.297   2.910   7.671  0.2031  0.0978 -0.5084
 5478SOL    HW227897   1.442   2.901   7.700  0.7287 -0.3230 -1.5356
 5479SOL     OW27898   4.459   4.083  10.453 -0.2030 -0.3040  0.1722
 5479SOL    HW127899   4.486   3.992  10.451  1.0395  0.0039  2.3577
 5479SOL    HW227900   4.521   4.119  10.389 -0.5039 -1.9860 -1.0453
 5480SOL     OW27901   2.505   4.460  16.325  0.5728 -0.0013 -0.0130
 5480SOL    HW127902   2.428   4.438  16.377 -0.6702  0.7298 -1.5371
 5480SOL    HW227903   2.572   4.494  16.384  0.1698 -0.3908  0.6613
 5481SOL     OW27904   3.223   1.984   7.914  0.0593  0.5383 -0.3309
 5481SOL    HW127905   3.220   2.075   7.884  0.4835  0.5194 -0.4235
 5481SOL    HW227906   3.283   1.938   7.855  1.9496  2.6168 -0.0170
 5482SOL     OW27907   2.392   4.181   1.022 -0.0842  0.4742  0.5112
 5482SOL    HW127908   2.394   4.272   1.051  1.2878  0.3355  0.8508
 5482SOL    HW227909   2.486   4.166   1.010 -0.0052  1.5267 -0.1642
 5483SOL     OW27910   2.058   2.572   9.120 -0.9608  0.0744  0.1305
 5483SOL    HW127911   2.085   2.531   9.202 -1.3625  0.2606  0.3579
 5483SOL    HW227912   2.066   2.500   9.057 -1.0794 -0.7349  1.0360
 5484SOL     OW27913   2.257   2.294   7.485 -0.1527 -0.0752 -0.1261
 5484SOL    HW127914   2.246   2.368   7.426  0.6257 -0.0594 -0.2574
 5484SOL    HW227915   2.262   2.223   7.421  1.6650  0.4859 -0.6152
 5485SOL     OW27916   3.337   1.925  14.437  0.1216  0.0414  0.0073
 5485SOL    HW127917   3.374   1.838  14.451 -1.5649 -0.7916 -0.7238
 5485SOL    HW227918   3.244   1.905  14.446  0.2385  0.0974  1.2429
 5486SOL     OW27919   3.217   0.240  13.141 -0.2745  0.1658  0.2651
 5486SOL    HW127920   3.237   0.331  13.119  2.0101 -0.4028  0.0069
 5486SOL    HW227921   3.240   0.202  13.056 -1.4484 -1.8754  0.8694
 5487SOL     OW27922   2.914   3.560   7.706 -0.2403  0.6651 -0.3182
 5487SOL    HW127923   2.865   3.490   7.662  0.8674 -0.3158 -0.0034
 5487SOL    HW227924   2.932   3.624   7.636 -1.3745 -0.2946 -1.4801
 5488SOL     OW27925   3.241   2.966   1.831  0.2291  0.9328  0.0404
 5488SOL    HW127926   3.333   2.963   1.803 -0.3610  1.7936 -2.0193
 5488SOL    HW227927   3.197   3.022   1.767 -0.9694  0.9510  0.8971
 5489SOL     OW27928   3.820   2.691   4.820  0.1126 -0.5031 -0.0748
 5489SOL    HW127929   3.875   2.627   4.775 -0.1796 -1.6912  1.2447
 5489SOL    HW227930   3.858   2.695   4.907  1.1831 -0.0745 -0.5627
 5490SOL     OW27931   2.254   3.173   7.454  0.4830 -0.3159  0.1320
 5490SOL    HW127932   2.194   3.104   7.483 -1.0831  0.6599 -0.7645
 5490SOL    HW227933   2.338   3.143   7.487  0.1618 -0.1793  1.0873
 5491SOL     OW27934   2.813   0.839   7.538  0.2627  0.6119 -0.3167
 5491SOL    HW127935   2.846   0.923   7.569  0.1118  0.9647 -1.1209
 5491SOL    HW227936   2.727   0.858   7.501  0.4263  1.2140 -0.3873
 5492SOL     OW27937   1.411   0.150   2.775  0.0190  0.1088  0.5301
 5492SOL    HW127938   1.430   0.243   2.758  0.6881  0.0787  1.0964
 5492SOL    HW227939   1.364   0.161   2.858  0.1652  1.2056  0.4675
 5493SOL     OW27940   2.447   1.701   5.792 -0.1085  0.1278  0.0247
 5493SOL    HW127941   2.374   1.746   5.751 -0.3744 -1.9228 -1.7455
 5493SOL    HW227942   2.472   1.641   5.721  1.7223  0.3105  0.5114
 5494SOL     OW27943   4.608   2.698   3.540 -0.0965  0.0335  0.4742
 5494SOL    HW127944   4.625   2.769   3.479 -2.7304  0.6253  0.4374
 5494SOL    HW227945   4.519   2.717   3.571 -0.5436 -3.5960  1.4184
 5495SOL     OW27946   3.199   0.624  12.535 -0.0272 -0.7809  0.5414
 5495SOL    HW127947   3.205   0.571  12.455 -0.2020 -1.6314  1.1020
 5495SOL    HW227948   3.113   0.666  12.532  0.3807  0.0144 -0.2186
 5496SOL     OW27949   2.034   0.646  14.483  0.4639 -0.6316  0.4036
 5496SOL    HW127950   2.011   0.707  14.553  2.3625 -0.2813  0.7322
 5496SOL    HW227951   2.068   0.570  14.530  2.1038  0.2541  0.6660
 5497SOL     OW27952   1.643   0.908   3.094  0.1186  0.3597 -0.3491
 5497SOL    HW127953   1.649   0.968   3.168 -0.1599  0.2948 -0.2734
 5497SOL    HW227954   1.661   0.968   3.022  1.9105  0.9723  0.6177
 5498SOL     OW27955   1.236   1.247   8.886 -0.3905 -0.2194 -0.1431
 5498SOL    HW127956   1.204   1.335   8.906  1.2258  0.1120  1.0281
 5498SOL    HW227957   1.285   1.227   8.965  0.9899  1.2587 -0.6174
 5499SOL     OW27958   1.015   2.101  15.367  0.4515 -0.0537 -0.1363
 5499SOL    HW127959   0.991   2.010  15.384  0.7676 -0.0103  0.5332
 5499SOL    HW227960   1.110   2.099  15.377  0.7145  2.1633 -2.0404
 5500SOL     OW27961   1.035   4.497   4.435 -0.1426 -0.3422 -0.3245
 5500SOL    HW127962   0.978   4.434   4.391  0.7436 -1.6933  0.4396
 5500SOL    HW227963   1.059   4.552   4.360  0.4909 -1.2783 -0.8101
 5501SOL     OW27964   4.564   0.591   9.569 -0.4077  0.1406  0.7243
 5501SOL    HW127965   4.476   0.564   9.544 -0.2236 -0.4957  0.7790
 5501SOL    HW227966   4.601   0.514   9.612 -0.4370 -0.1942  0.1516
 5502SOL     OW27967   0.385   2.103   1.192 -0.3271 -0.2786 -0.1134
 5502SOL    HW127968   0.395   2.065   1.279 -0.2353 -0.2646 -0.1182
 5502SOL    HW227969   0.289   2.104   1.192 -0.3251 -0.2812  0.5907
 5503SOL     OW27970   3.608   3.987  12.502 -0.1621  0.0441 -0.4760
 5503SOL    HW127971   3.682   4.048  12.500 -0.3197  0.3066  2.0566
 5503SOL    HW227972   3.578   3.984  12.593 -2.5169 -0.8088 -1.2616
 5504SOL     OW27973   4.203   1.625   8.089 -0.1393  0.2535  1.1009
 5504SOL    HW127974   4.169   1.674   8.164 -0.9102  0.9196  0.3143
 5504SOL    HW227975   4.269   1.687   8.061 -0.7458  0.8492  0.9861
 5505SOL     OW27976   1.257   3.307   9.646  0.8182  0.3580 -0.1097
 5505SOL    HW127977   1.219   3.278   9.563  2.0609 -2.5214  0.3365
 5505SOL    HW227978   1.271   3.402   9.636 -0.0571  0.5391  0.3480
 5506SOL     OW27979   0.576   1.034  17.213  0.0501 -0.2530 -0.0207
 5506SOL    HW127980   0.648   0.971  17.210 -0.1819 -0.4351 -1.7036
 5506SOL    HW227981   0.514   1.003  17.279  0.0893 -2.3013 -0.9603
 5507SOL     OW27982   2.651   3.260  10.926 -0.1621 -0.0969 -0.8523
 5507SOL    HW127983   2.701   3.240  11.005 -0.0077 -2.1318 -1.4769
 5507SOL    HW227984   2.670   3.187  10.867 -1.5391 -1.1357  0.0274
 5508SOL     OW27985   3.022   2.329   4.599  0.2957  0.1009 -0.0252
 5508SOL    HW127986   3.030   2.417   4.637  0.5208  0.3590 -0.6643
 5508SOL    HW227987   3.095   2.287   4.645 -0.5675  1.2260  2.3500
 5509SOL     OW27988   2.299   4.306   5.691 -0.3850  0.4585  0.1115
 5509SOL    HW127989   2.288   4.369   5.762 -1.9496 -0.5923  0.8011
 5509SOL    HW227990   2.210   4.308   5.657 -0.7804 -2.0490  1.0109
 5510SOL     OW27991   1.450   0.362   4.265  0.0826 -0.8377  0.4037
 5510SOL    HW127992   1.405   0.358   4.181 -0.3951 -2.9774  0.7441
 5510SOL    HW227993   1.433   0.269   4.281 -1.9731 -0.5831 -0.3654
 5511SOL     OW27994   1.546   1.186   9.345 -0.1496 -0.1093  0.2743
 5511SOL    HW127995   1.600   1.163   9.270 -0.4474  2.0692 -0.5928
 5511SOL    HW227996   1.591   1.135   9.413 -0.7262 -0.3270  0.4939
 5512SOL     OW27997   2.265   2.000   6.956 -0.2740 -0.3329 -0.1259
 5512SOL    HW127998   2.200   2.004   7.027  3.0441  0.2235  2.8975
 5512SOL    HW227999   2.219   1.961   6.882  0.7956  0.8418 -1.4047
 5513SOL     OW28000   4.227   2.005   8.650 -1.2495  0.2332 -0.0273
 5513SOL    HW128001   4.270   1.922   8.666 -1.8719 -0.2681 -0.9247
 5513SOL    HW228002   4.183   2.018   8.734  1.2785  1.0543  1.1626
 5514SOL     OW28003   0.453   1.369  10.417 -0.7761 -0.0206  0.3790
 5514SOL    HW128004   0.363   1.399  10.421 -1.0357 -0.8042  0.4563
 5514SOL    HW228005   0.484   1.390  10.505 -0.6733 -0.9279  0.5641
 5515SOL     OW28006   3.384   0.893  17.524 -0.1782  0.0613 -0.5262
 5515SOL    HW128007   3.389   0.798  17.508  0.0129 -0.0867  0.4265
 5515SOL    HW228008   3.427   0.900  17.609  1.9771  0.8053 -1.6724
 5516SOL     OW28009   0.547   4.023   3.948  0.2849 -0.2709 -0.1665
 5516SOL    HW128010   0.636   4.051   3.969  0.6585 -1.5424 -0.0941
 5516SOL    HW228011   0.509   4.102   3.910  1.0366 -0.3659 -1.1333
 5517SOL     OW28012   4.518   0.511   1.083 -0.4390 -1.0123 -0.1139
 5517SOL    HW128013   4.583   0.478   1.021  0.0241 -0.1309 -0.0929
 5517SOL    HW228014   4.560   0.498   1.168 -0.4133  1.7147  0.2896
 5518SOL     OW28015   3.541   2.959  10.360 -0.1606  0.4380 -0.2776
 5518SOL    HW128016   3.518   3.051  10.348 -0.1226  0.5150  0.2006
 5518SOL    HW228017   3.477   2.925  10.423 -1.3541  1.1048 -1.1600
 5519SOL     OW28018   3.830   3.513  11.542 -0.4203 -0.4495 -0.0194
 5519SOL    HW128019   3.925   3.515  11.552 -0.7572  3.3372  2.4180
 5519SOL    HW228020   3.813   3.474  11.628  2.7581 -2.3355 -0.2351
 5520SOL     OW28021   4.502   2.841   8.384  0.1076 -0.5081 -0.4741
 5520SOL    HW128022   4.421   2.796   8.361 -0.3089  0.1022 -0.1794
 5520SOL    HW228023   4.566   2.787   8.337  1.2747 -0.6840  1.3362
 5521SOL     OW28024   0.492   3.417   4.260  0.7103 -0.0383 -0.0747
 5521SOL    HW128025   0.498   3.323   4.277 -0.1598 -0.1343 -0.2955
 5521SOL    HW228026   0.512   3.465   4.340  1.6105  2.4634 -1.8015
 5522SOL     OW28027   2.246   4.359   8.025  0.2402 -0.4197  0.2505
 5522SOL    HW128028   2.232   4.442   7.980 -1.6119  0.4377  2.4072
 5522SOL    HW228029   2.340   4.343   8.016  0.2379  0.3537 -1.0071
 5523SOL     OW28030   1.058   0.808   9.606 -0.1515 -0.8757  0.0874
 5523SOL    HW128031   1.154   0.805   9.610 -0.2214 -2.3861  0.6119
 5523SOL    HW228032   1.047   0.715   9.588  0.5805 -1.1156  0.8499
 5524SOL     OW28033   2.110   3.780   9.250 -0.0264 -0.3594  0.3282
 5524SOL    HW128034   2.188   3.731   9.272  0.1144 -0.1733  0.2470
 5524SOL    HW228035   2.130   3.820   9.165 -1.0815 -2.6677 -1.0188
 5525SOL     OW28036   2.786   2.412  12.397  0.1821  0.2312 -0.5122
 5525SOL    HW128037   2.718   2.479  12.397  0.1141  0.1691 -1.2626
 5525SOL    HW228038   2.847   2.450  12.460 -1.2053 -1.0962  1.6271
 5526SOL     OW28039   3.036   0.432   0.820 -0.1920  0.2850  0.3575
 5526SOL    HW128040   3.081   0.392   0.746  1.6899  0.7970  1.2193
 5526SOL    HW228041   2.969   0.364   0.834  1.2722 -1.4788 -1.1774
 5527SOL     OW28042   4.227   3.163  11.222 -0.4312 -0.4745 -0.1200
 5527SOL    HW128043   4.224   3.185  11.129  1.2139  0.1430 -0.0345
 5527SOL    HW228044   4.152   3.211  11.256  0.3766  0.0369  0.9459
 5528SOL     OW28045   4.567   3.986  14.392  0.0373  0.0509  0.5658
 5528SOL    HW128046   4.512   4.019  14.322 -0.8504 -1.8016  0.3742
 5528SOL    HW228047   4.541   3.894  14.390 -0.4268  0.2782 -2.8188
 5529SOL     OW28048   1.644   3.291   2.525 -0.1734  0.0636  0.0932
 5529SOL    HW128049   1.665   3.336   2.443  0.6422 -1.6972 -0.6536
 5529SOL    HW228050   1.709   3.333   2.582  0.8012  2.4267 -2.7552
 5530SOL     OW28051   0.536   0.018   5.459 -0.5443  0.1164 -0.4907
 5530SOL    HW128052   0.541   0.087   5.392 -2.1500 -2.1256 -2.9216
 5530SOL    HW228053   0.452   0.034   5.503 -0.0839 -0.5488  0.6385
 5531SOL     OW28054   3.261   0.927   8.688  0.3277 -0.2624  0.3522
 5531SOL    HW128055   3.194   0.859   8.679  0.3108 -0.3759  1.3432
 5531SOL    HW228056   3.245   0.979   8.610 -1.8025  0.1618  1.0821
 5532SOL     OW28057   1.346   2.955   9.377 -0.2115  0.3543  0.2776
 5532SOL    HW128058   1.438   2.929   9.382  0.4785  2.7612 -0.1233
 5532SOL    HW228059   1.309   2.867   9.380 -0.6520  0.5967  2.4623
 5533SOL     OW28060   2.416   1.274  17.526  0.4965  0.1450  0.2997
 5533SOL    HW128061   2.379   1.256  17.440  0.9606  2.9054 -0.4725
 5533SOL    HW228062   2.476   1.345  17.505 -1.7651  2.0156  0.2247
 5534SOL     OW28063   3.406   2.367   7.909 -0.0932 -0.1202 -0.0032
 5534SOL    HW128064   3.331   2.350   7.853 -0.9373  0.4790  0.9652
 5534SOL    HW228065   3.477   2.335   7.852  2.1903  2.3084  1.5073
 5535SOL     OW28066   0.096   2.982   5.541  0.5093 -0.1975 -0.0147
 5535SOL    HW128067   0.044   2.903   5.528  0.2478 -0.3070  1.5876
 5535SOL    HW228068   0.181   2.943   5.519  0.8203  0.6593 -0.3114
 5536SOL     OW28069   2.701   3.828   5.430 -0.4191 -0.7208  0.2685
 5536SOL    HW128070   2.647   3.899   5.465 -0.7447 -0.6089 -0.4822
 5536SOL    HW228071   2.776   3.877   5.395 -0.9943 -1.3121 -1.7928
 5537SOL     OW28072   3.982   1.389   1.151  0.3771 -0.0295  0.1439
 5537SOL    HW128073   3.947   1.476   1.129 -0.1426 -0.1864  0.3575
 5537SOL    HW228074   4.053   1.398   1.215  0.4674 -3.0050  0.4462
 5538SOL     OW28075   0.843   1.437   2.346 -0.2042 -0.1033  0.6430
 5538SOL    HW128076   0.932   1.443   2.310 -0.2791  0.0138  0.4744
 5538SOL    HW228077   0.796   1.496   2.287  2.5237  0.8460 -0.5898
 5539SOL     OW28078   1.736   0.956   2.161 -0.4175  0.4921 -0.4137
 5539SOL    HW128079   1.749   0.954   2.256 -0.1058  0.4103 -0.4587
 5539SOL    HW228080   1.721   1.050   2.157 -1.6891  0.3055 -0.0230
 5540SOL     OW28081   0.893   2.764  15.525 -0.0096  0.7439  0.3001
 5540SOL    HW128082   0.960   2.697  15.536 -0.1618  0.7928  1.5995
 5540SOL    HW228083   0.908   2.831  15.593 -0.7407  1.7434 -0.5241
 5541SOL     OW28084   3.045   1.435   6.196  0.0723 -0.5867 -0.2617
 5541SOL    HW128085   3.015   1.502   6.256 -1.0260 -1.8997  0.6514
 5541SOL    HW228086   2.968   1.402   6.149 -2.5429  4.4276  0.5367
 5542SOL     OW28087   1.281   4.622  11.511 -0.0513 -0.0574 -0.3294
 5542SOL    HW128088   1.289   4.667  11.427 -0.4579  0.2519 -0.2041
 5542SOL    HW228089   1.225   4.547  11.494  0.8153 -0.6931 -0.3653
 5543SOL     OW28090   0.743   3.956  10.178  0.3177  0.1460 -0.5323
 5543SOL    HW128091   0.822   3.920  10.138  2.1526  2.3142  1.1011
 5543SOL    HW228092   0.760   4.050  10.174  0.9760 -0.0089 -1.4719
 5544SOL     OW28093   0.912   0.858   0.842  0.4892  0.5589 -0.1814
 5544SOL    HW128094   0.982   0.912   0.878  0.5910  0.8531 -0.8332
 5544SOL    HW228095   0.955   0.776   0.819 -1.1132 -0.4499  0.3732
 5545SOL     OW28096   1.331   2.116   3.482 -0.0214 -0.1186  0.2453
 5545SOL    HW128097   1.311   2.077   3.567  1.0186  1.5053  1.2387
 5545SOL    HW228098   1.264   2.183   3.475 -0.1741 -0.3607 -0.6895
 5546SOL     OW28099   1.567   3.973   5.072 -0.3475  0.2038 -0.0174
 5546SOL    HW128100   1.511   4.014   5.006  0.3909 -2.0494 -2.0363
 5546SOL    HW228101   1.507   3.901   5.094 -0.4643 -0.3336 -2.0810
 5547SOL     OW28102   2.308   3.780  10.300 -0.4523  0.2493  0.0724
 5547SOL    HW128103   2.358   3.856  10.330 -2.2455  0.5255  2.3588
 5547SOL    HW228104   2.237   3.822  10.251 -0.4117 -1.1464 -1.1759
 5548SOL     OW28105   0.277   1.844   6.981  0.3206 -0.2605 -0.4145
 5548SOL    HW128106   0.281   1.884   6.894 -3.1398  0.8061 -0.1162
 5548SOL    HW228107   0.303   1.755   6.958  0.4622 -0.6665  1.3254
 5549SOL     OW28108   2.083   0.144   4.537 -0.5744 -1.1033  0.1772
 5549SOL    HW128109   2.069   0.170   4.446  1.9571  1.6635  0.6038
 5549SOL    HW228110   2.148   0.074   4.527  0.2029 -0.2551 -0.6238
 5550SOL     OW28111   3.331   3.907   6.200 -0.1946 -0.0389 -0.3675
 5550SOL    HW128112   3.363   3.824   6.236 -0.9966  1.1563  3.0438
 5550SOL    HW228113   3.238   3.897   6.222 -0.1370  1.3239  0.5070
 5551SOL     OW28114   0.624   0.717  13.150 -0.0735  0.1297  0.5640
 5551SOL    HW128115   0.560   0.739  13.082  1.2798  1.0336 -0.4140
 5551SOL    HW228116   0.690   0.683  13.091  0.4717  2.2301 -0.0483
 5552SOL     OW28117   2.288   1.619   2.538  0.3619  0.5027  0.0229
 5552SOL    HW128118   2.349   1.649   2.471  1.3901 -0.4504  0.5199
 5552SOL    HW228119   2.345   1.609   2.615 -0.7087  0.0160  0.7524
 5553SOL     OW28120   2.523   2.926   8.177  0.6332  0.8936  0.0565
 5553SOL    HW128121   2.503   3.014   8.208 -0.7158  0.6088 -0.0032
 5553SOL    HW228122   2.555   2.934   8.087  1.0066  3.3429  0.4077
 5554SOL     OW28123   3.278   3.942  14.018 -0.5531 -0.4052  0.0195
 5554SOL    HW128124   3.202   3.998  14.029  0.8581  1.3000  0.9736
 5554SOL    HW228125   3.233   3.872  13.971 -0.3337 -0.0807 -0.6608
 5555SOL     OW28126   0.736   2.537   8.344 -0.0317 -0.2423 -0.2551
 5555SOL    HW128127   0.725   2.632   8.336 -2.6198 -0.5521 -0.1669
 5555SOL    HW228128   0.721   2.533   8.438  2.1408 -0.5352  0.0831
 5556SOL     OW28129   1.122   2.423  17.070 -0.0542  0.0738 -0.4443
 5556SOL    HW128130   1.153   2.342  17.032 -0.4471 -0.2709 -0.0344
 5556SOL    HW228131   1.187   2.490  17.046  0.8956 -1.0015 -0.8481
 5557SOL     OW28132   3.460   1.661  15.735 -0.2592  0.5098 -0.7110
 5557SOL    HW128133   3.525   1.611  15.783 -0.1876  0.0340 -1.3052
 5557SOL    HW228134   3.383   1.663  15.791 -0.1681  0.9048 -0.5984
 5558SOL     OW28135   4.449   4.229   9.262  0.2651  0.3314 -0.2356
 5558SOL    HW128136   4.508   4.187   9.325  1.5453  0.6918 -1.1933
 5558SOL    HW228137   4.429   4.155   9.204  0.4593 -1.2035  1.6414
 5559SOL     OW28138   3.662   1.315   6.279 -0.0084  0.5976 -0.0161
 5559SOL    HW128139   3.600   1.302   6.206 -4.0569 -0.8452  3.6757
 5559SOL    HW228140   3.720   1.385   6.249  1.2614 -0.5235 -0.1663
 5560SOL     OW28141   2.247   4.421   6.387 -0.1353  0.1714  0.3384
 5560SOL    HW128142   2.230   4.351   6.324  0.0974  0.1074  0.3440
 5560SOL    HW228143   2.313   4.471   6.338  0.0568  0.2878  0.7107
 5561SOL     OW28144   0.691   3.359   2.409 -0.1950  0.8195  0.7238
 5561SOL    HW128145   0.607   3.369   2.365 -0.6550 -0.2023  1.3660
 5561SOL    HW228146   0.674   3.350   2.503  0.9146 -1.8933  0.6606
 5562SOL     OW28147   2.775   3.289   5.492  0.4181 -0.3768 -0.8346
 5562SOL    HW128148   2.853   3.273   5.545  0.0064  0.6288  0.0757
 5562SOL    HW228149   2.707   3.265   5.555 -1.9624  1.1143 -2.8678
 5563SOL     OW28150   2.392   0.409  15.951  0.6276 -0.1161  0.3100
 5563SOL    HW128151   2.341   0.490  15.951  0.9504  0.1055  2.0862
 5563SOL    HW228152   2.431   0.407  15.864  0.2871  0.8973  0.1288
 5564SOL     OW28153   1.219   2.795   9.126  0.1783 -0.3970 -0.3085
 5564SOL    HW128154   1.196   2.747   9.206 -0.4592  1.3746  0.5596
 5564SOL    HW228155   1.137   2.839   9.103  0.0757  0.7633  2.3241
 5565SOL     OW28156   4.348   0.920  15.841 -0.5845  0.2749 -0.2101
 5565SOL    HW128157   4.315   1.004  15.872  1.2637  0.8458  0.2269
 5565SOL    HW228158   4.410   0.905  15.912 -0.9905 -0.2836  0.0271
 5566SOL     OW28159   4.029   3.134   8.068 -0.7308 -0.1900  0.2198
 5566SOL    HW128160   3.989   3.191   8.003  0.6872 -0.9179 -1.2923
 5566SOL    HW228161   3.958   3.132   8.132 -0.9130 -3.4703 -0.0596
 5567SOL     OW28162   1.401   2.374  13.435 -0.4922  0.0995  0.5484
 5567SOL    HW128163   1.409   2.304  13.371 -3.3223  1.0933 -0.9128
 5567SOL    HW228164   1.326   2.418  13.395 -0.7480 -1.9900 -1.2570
 5568SOL     OW28165   0.632   0.303   2.295  0.6644 -0.0254 -0.4717
 5568SOL    HW128166   0.580   0.222   2.287  0.8806 -0.0035 -2.1793
 5568SOL    HW228167   0.724   0.276   2.294  0.6313 -0.0911 -1.8776
 5569SOL     OW28168   1.088   3.561  10.849  0.1648 -0.5911 -0.5157
 5569SOL    HW128169   1.068   3.468  10.862 -0.9553 -0.2047  0.6180
 5569SOL    HW228170   1.181   3.552  10.827 -0.2383 -3.9841 -0.8954
 5570SOL     OW28171   3.870   3.923   0.520 -0.5137  0.0383  0.3495
 5570SOL    HW128172   3.832   3.851   0.471 -0.8595  0.0331  0.6245
 5570SOL    HW228173   3.824   3.999   0.485  0.5337  0.5354  0.0302
 5571SOL     OW28174   0.506   1.599  17.533 -0.4438 -0.1017 -0.2398
 5571SOL    HW128175   0.423   1.562  17.562  1.2689 -1.6238  2.6514
 5571SOL    HW228176   0.483   1.588  17.440  0.5683 -1.4388 -0.3336
 5572SOL     OW28177   1.702   4.671   6.532 -0.3597 -0.3138  0.2699
 5572SOL    HW128178   1.653   4.712   6.461 -0.3315  0.4806  0.7055
 5572SOL    HW228179   1.642   4.600   6.556  0.1361 -0.9772 -0.4504
 5573SOL     OW28180   0.180   4.328  14.364  0.2358  0.2035 -0.1713
 5573SOL    HW128181   0.156   4.410  14.321  1.2042  0.7209  0.2738
 5573SOL    HW228182   0.138   4.336  14.449 -2.4879 -1.2989 -1.3813
 5574SOL     OW28183   3.160   3.194   0.699 -0.2231  0.4032  0.1979
 5574SOL    HW128184   3.128   3.115   0.744 -0.0674 -0.6875 -1.5777
 5574SOL    HW228185   3.175   3.157   0.612 -0.6895 -1.2144  0.8007
 5575SOL     OW28186   4.289   1.752  16.280  0.4218 -0.1412  0.4083
 5575SOL    HW128187   4.336   1.833  16.257  1.3814  0.1682  3.5035
 5575SOL    HW228188   4.261   1.766  16.371 -0.0842 -0.8725  0.3633
 5576SOL     OW28189   0.919   1.476   5.462 -0.1751  0.2127  0.9182
 5576SOL    HW128190   0.969   1.395   5.445  2.3144  1.8730  0.3650
 5576SOL    HW228191   0.962   1.530   5.396  0.5363  1.0407  2.0648
 5577SOL     OW28192   3.157   0.127   6.179 -0.1637  0.6399 -0.4161
 5577SOL    HW128193   3.167   0.038   6.214 -0.0779  1.2648  1.1240
 5577SOL    HW228194   3.062   0.131   6.166 -0.3040  1.6521  1.0226
 5578SOL     OW28195   4.598   0.188   6.405 -0.1298  0.2639  0.5217
 5578SOL    HW128196   4.613   0.125   6.335 -0.0895 -1.4879  2.1188
 5578SOL    HW228197   4.617   0.271   6.361 -1.9982 -0.1088 -1.0369
 5579SOL     OW28198   0.811   3.715   9.623  0.2990  0.4735  0.2040
 5579SOL    HW128199   0.774   3.787   9.572 -0.1339 -0.0576 -0.2382
 5579SOL    HW228200   0.803   3.755   9.709  0.9211  1.4007 -0.1743
 5580SOL     OW28201   1.930   3.973   1.326  0.3503 -0.4677 -0.3289
 5580SOL    HW128202   1.931   4.037   1.255 -2.2865  0.0817  0.1373
 5580SOL    HW228203   1.834   3.973   1.326  0.3445 -1.3251  2.6904
 5581SOL     OW28204   3.746   0.478  13.007 -0.0933  0.4068 -0.6636
 5581SOL    HW128205   3.721   0.564  12.976  3.4771  2.2089  1.4420
 5581SOL    HW228206   3.841   0.479  12.992  0.2995  1.1940  1.7439
 5582SOL     OW28207   2.528   2.667  12.111 -0.5586 -0.0447  0.8728
 5582SOL    HW128208   2.446   2.643  12.067  0.9962  0.0149 -2.0846
 5582SOL    HW228209   2.586   2.594  12.087  0.5557  0.6907  1.3412
 5583SOL     OW28210   4.717   1.609   4.139  0.7203  0.0826  0.8220
 5583SOL    HW128211   4.667   1.547   4.191  0.0468 -0.6247 -0.6826
 5583SOL    HW228212   0.069   1.606   4.199  1.8058 -1.0347 -0.6149
 5584SOL     OW28213   0.476   4.456   5.674 -0.1295  0.0720  0.5510
 5584SOL    HW128214   0.531   4.496   5.607 -1.3931  0.5338 -0.2091
 5584SOL    HW228215   0.460   4.527   5.736 -0.3301  1.4661 -1.0915
 5585SOL     OW28216   2.771   4.450   9.442 -0.0222 -0.2105 -0.2896
 5585SOL    HW128217   2.840   4.409   9.493 -2.7373 -2.6382  1.4598
 5585SOL    HW228218   2.761   4.397   9.362 -0.0861 -0.5315 -0.0715
 5586SOL     OW28219   1.917   0.508   5.214  0.1164 -0.4484 -0.3807
 5586SOL    HW128220   1.944   0.598   5.234 -0.7916  0.3200 -2.6178
 5586SOL    HW228221   1.837   0.511   5.266 -0.7927 -0.6175 -1.7861
 5587SOL     OW28222   0.639   3.461   9.364 -0.1984  0.3812 -0.0262
 5587SOL    HW128223   0.629   3.409   9.284  0.3950  1.7570 -0.9947
 5587SOL    HW228224   0.690   3.404   9.421  0.7812 -0.2849 -1.5654
 5588SOL     OW28225   0.864   2.520  12.566 -0.2882 -0.2507  0.1800
 5588SOL    HW128226   0.844   2.611  12.590  0.7397 -0.0785  0.3646
 5588SOL    HW228227   0.801   2.477  12.624 -0.5356 -1.7379 -1.1845
 5589SOL     OW28228   1.223   3.162   9.187 -0.1593 -0.2424  1.4368
 5589SOL    HW128229   1.307   3.162   9.234 -1.1559  0.7297  3.2240
 5589SOL    HW228230   1.153   3.168   9.252  1.3175 -1.2617  3.1091
 5590SOL     OW28231   1.655   2.682   0.630  0.3501 -0.1804  0.2637
 5590SOL    HW128232   1.636   2.773   0.606  2.3151  0.7423  2.2400
 5590SOL    HW228233   1.712   2.694   0.705  1.4641 -0.2180 -0.5863
 5591SOL     OW28234   1.780   1.804  15.062  0.2893 -0.4898  0.3545
 5591SOL    HW128235   1.705   1.859  15.039 -0.1361 -1.1806  0.1111
 5591SOL    HW228236   1.790   1.765  14.975 -0.8847 -0.7662  0.3469
 5592SOL     OW28237   1.358   2.894  10.265 -0.1093  0.3812  0.2544
 5592SOL    HW128238   1.387   2.957  10.200 -1.9953  2.6012  1.5642
 5592SOL    HW228239   1.422   2.913  10.333  1.0527 -1.7898 -0.2488
 5593SOL     OW28240   4.633   4.492   6.855 -0.0347 -0.6905  0.1153
 5593SOL    HW128241   4.722   4.507   6.822 -0.4059 -0.8806 -0.9938
 5593SOL    HW228242   4.594   4.577   6.833 -3.1023 -1.6075  2.1501
 5594SOL     OW28243   3.612   3.194   8.684  0.0705  0.0509  0.6766
 5594SOL    HW128244   3.560   3.134   8.630  1.2598 -0.1180 -0.2941
 5594SOL    HW228245   3.643   3.248   8.610 -0.4923  1.4603  1.4657
 5595SOL     OW28246   1.387   0.105   4.211 -0.2083  0.6622  0.0269
 5595SOL    HW128247   1.296   0.106   4.243 -0.1488  2.0065  0.1755
 5595SOL    HW228248   1.410   0.014   4.195 -0.4039  0.5272  0.5273
 5596SOL     OW28249   1.541   4.222   5.661  0.0042 -0.1157  0.2055
 5596SOL    HW128250   1.599   4.256   5.593  0.6363 -0.6338  0.4839
 5596SOL    HW228251   1.459   4.224   5.613 -0.7307 -0.2054  1.4622
 5597SOL     OW28252   1.844   0.424   1.453  0.4303  0.4124 -0.3932
 5597SOL    HW128253   1.854   0.517   1.471 -1.6525  0.6525 -0.4960
 5597SOL    HW228254   1.843   0.414   1.357 -1.2156 -1.5407 -0.1748
 5598SOL     OW28255   0.890   1.242   7.093 -0.1666 -0.7127  0.0306
 5598SOL    HW128256   0.946   1.240   7.015 -0.4221  0.6425 -0.1775
 5598SOL    HW228257   0.920   1.328   7.121  1.5496 -0.5600 -2.2610
 5599SOL     OW28258   3.374   2.409  14.331 -0.1033 -0.1081 -0.4976
 5599SOL    HW128259   3.387   2.315  14.334  0.9825  0.0454 -0.3152
 5599SOL    HW228260   3.294   2.421  14.381 -0.3188  0.4387 -0.9734
 5600SOL     OW28261   0.603   0.589   6.595 -0.4305  0.2041 -0.4419
 5600SOL    HW128262   0.641   0.534   6.526 -0.9572 -0.1720 -0.4293
 5600SOL    HW228263   0.624   0.675   6.558  0.7264  0.0464 -0.1798
 5601SOL     OW28264   3.306   2.126   3.010 -0.5552  0.6556 -0.1005
 5601SOL    HW128265   3.346   2.053   2.962 -1.6782 -0.2766  0.3782
 5601SOL    HW228266   3.336   2.195   2.951 -0.5420 -0.3226 -1.2274
 5602SOL     OW28267   1.890   0.135   3.725  0.1417  0.2185 -0.0864
 5602SOL    HW128268   1.890   0.224   3.688 -0.1830 -0.5609 -1.9336
 5602SOL    HW228269   1.975   0.097   3.703  0.0456 -0.8553  1.4120
 5603SOL     OW28270   4.687   0.352   9.689 -0.3521 -0.6394 -0.9503
 5603SOL    HW128271   0.033   0.325   9.630 -0.0395 -3.7446  0.8369
 5603SOL    HW228272   4.643   0.267   9.696 -0.0900 -0.6570  0.5097
 5604SOL     OW28273   1.624   0.886   8.183 -0.0115  0.4423  0.1933
 5604SOL    HW128274   1.616   0.915   8.274  1.7577  2.9196 -0.4519
 5604SOL    HW228275   1.537   0.847   8.173  0.2913  0.2229 -1.5182
 5605SOL     OW28276   3.815   1.858  10.594  0.2434  0.0820 -0.1718
 5605SOL    HW128277   3.888   1.854  10.532  0.9196  1.2601  0.5511
 5605SOL    HW228278   3.786   1.767  10.599 -0.0669  0.0909 -1.6361
 5606SOL     OW28279   0.093   0.481  11.679  0.1638  0.4062 -0.2614
 5606SOL    HW128280   0.015   0.513  11.633 -0.1793 -0.9513 -0.6147
 5606SOL    HW228281   0.071   0.502  11.769 -0.7028 -1.1386 -0.1252
 5607SOL     OW28282   2.236   2.791  15.793 -0.5395 -0.3748  0.1670
 5607SOL    HW128283   2.210   2.876  15.758  1.4601 -0.3003 -1.1459
 5607SOL    HW228284   2.194   2.782  15.878  0.3147  2.2449  0.8526
 5608SOL     OW28285   3.900   1.810   6.053  0.5610  0.3110  0.1951
 5608SOL    HW128286   3.953   1.740   6.092  0.2340 -0.5074 -0.8181
 5608SOL    HW228287   3.870   1.761   5.976  0.9326  0.5670 -0.1168
 5609SOL     OW28288   4.408   3.503   7.989  0.5814  0.1251  0.1483
 5609SOL    HW128289   4.316   3.530   7.991  0.9276  1.2970  0.3153
 5609SOL    HW228290   4.395   3.426   7.934 -0.4411 -1.1043  2.1125
 5610SOL     OW28291   1.849   3.442   4.067 -0.7633  0.0603 -0.4149
 5610SOL    HW128292   1.804   3.456   3.984  0.4740  2.0513 -0.7431
 5610SOL    HW228293   1.780   3.405   4.122 -0.8820 -0.7769 -1.1372
 5611SOL     OW28294   1.706   3.964  15.172 -0.2729 -0.2290  0.0505
 5611SOL    HW128295   1.781   4.022  15.157 -0.1371 -0.8076 -1.5383
 5611SOL    HW228296   1.658   3.963  15.089 -1.2830 -0.7153  0.6289
 5612SOL     OW28297   4.230   2.777   3.967  0.0022 -0.7807 -0.0532
 5612SOL    HW128298   4.292   2.767   3.894 -1.0515 -0.3714 -1.0040
 5612SOL    HW228299   4.198   2.867   3.965 -0.4081 -0.9276 -0.0929
 5613SOL     OW28300   0.990   3.314  10.929 -0.1121 -0.4558 -0.4645
 5613SOL    HW128301   0.943   3.324  10.847 -0.7827 -2.3514 -0.3099
 5613SOL    HW228302   0.964   3.227  10.959 -0.8187 -0.5228 -1.3023
 5614SOL     OW28303   1.315   4.134   2.562 -0.1171  0.4825  0.1202
 5614SOL    HW128304   1.243   4.071   2.553  0.3373 -0.4251  2.8640
 5614SOL    HW228305   1.314   4.180   2.478  2.1966 -1.5077 -0.9945
 5615SOL     OW28306   0.843   3.221   4.092 -0.1251  0.5114  0.0819
 5615SOL    HW128307   0.886   3.217   4.178 -3.4225  0.6356  1.7448
 5615SOL    HW228308   0.779   3.292   4.100  0.4172  0.9597  0.4690
 5616SOL     OW28309   1.472   2.353   6.005 -0.1589 -0.6491  0.3734
 5616SOL    HW128310   1.477   2.331   5.912  0.0813  0.4508  0.1203
 5616SOL    HW228311   1.408   2.290   6.038  1.5982 -1.2331  2.6181
 5617SOL     OW28312   0.852   3.645   8.674  0.4074  0.2522 -0.1389
 5617SOL    HW128313   0.772   3.693   8.691 -0.3986 -0.9051 -0.6691
 5617SOL    HW228314   0.922   3.693   8.719 -0.4530  0.5582  0.8708
 5618SOL     OW28315   1.339   3.912  14.155  0.4673  0.3761  0.0173
 5618SOL    HW128316   1.315   3.898  14.247 -0.4639 -1.9489 -0.5676
 5618SOL    HW228317   1.264   3.961  14.124  1.1518  0.2165 -1.8890
 5619SOL     OW28318   1.274   1.688   7.848  0.1101  0.2357  0.5624
 5619SOL    HW128319   1.313   1.766   7.889 -1.0519  0.6391  0.9011
 5619SOL    HW228320   1.183   1.690   7.877  0.8904 -0.0107  3.0826
 5620SOL     OW28321   3.322   2.000  12.003  0.5400  0.0241  0.3749
 5620SOL    HW128322   3.382   2.069  12.031  2.1945 -2.0603  1.9182
 5620SOL    HW228323   3.364   1.933  12.056  1.6600  0.4663  0.0629
 5621SOL     OW28324   0.250   3.848   7.627 -0.0298 -0.3690  0.1347
 5621SOL    HW128325   0.172   3.847   7.572 -0.0916  3.3593  0.2009
 5621SOL    HW228326   0.328   3.853   7.572 -0.0700 -0.4324  0.0721
 5622SOL     OW28327   3.395   0.401   7.524  0.5503 -0.3738  0.1163
 5622SOL    HW128328   3.404   0.402   7.429  1.4863 -0.0101  0.2062
 5622SOL    HW228329   3.464   0.464   7.546  0.6113  0.1189 -1.4753
 5623SOL     OW28330   4.417   1.051   4.767  0.1547 -0.0702 -0.0637
 5623SOL    HW128331   4.439   0.958   4.771 -0.0293 -0.0867  0.5408
 5623SOL    HW228332   4.407   1.061   4.672 -2.7485  0.0135  0.2405
 5624SOL     OW28333   4.303   2.153   3.538 -0.0568  0.1454  0.4630
 5624SOL    HW128334   4.285   2.100   3.615 -0.7378 -1.2432 -0.6511
 5624SOL    HW228335   4.221   2.141   3.489  0.9409  1.2015 -1.4797
 5625SOL     OW28336   4.414   0.859  11.253 -0.1135  0.6094 -0.0324
 5625SOL    HW128337   4.442   0.769  11.236  1.0938  1.0507 -0.3621
 5625SOL    HW228338   4.483   0.886  11.314  0.2930  0.0489 -0.2350
 5626SOL     OW28339   0.650   4.197   4.591  0.1306 -0.4141 -0.5431
 5626SOL    HW128340   0.718   4.158   4.645 -0.3639  0.1502  0.4797
 5626SOL    HW228341   0.570   4.172   4.637  0.4888 -2.3084 -0.9350
 5627SOL     OW28342   4.302   0.396   6.612  0.5982 -0.4509 -0.1638
 5627SOL    HW128343   4.271   0.364   6.528 -0.3232 -0.4756  0.1856
 5627SOL    HW228344   4.374   0.455   6.591 -1.2314  0.1456 -4.6559
 5628SOL     OW28345   4.006   4.409   4.340 -0.1673  0.1836 -0.0372
 5628SOL    HW128346   4.098   4.382   4.347 -0.0289  0.7971  0.5648
 5628SOL    HW228347   3.958   4.361   4.407 -0.6041  0.7322  0.0456
 5629SOL     OW28348   1.966   4.232   9.023  0.9265  0.2078 -0.0219
 5629SOL    HW128349   1.936   4.176   9.096 -0.8037  1.4986  0.2384
 5629SOL    HW228350   1.973   4.317   9.067 -1.8733  0.2856  0.2403
 5630SOL     OW28351   4.281   0.920   6.192  1.3078  0.3562  0.3250
 5630SOL    HW128352   4.289   0.825   6.182 -0.6524 -0.0066  2.3258
 5630SOL    HW228353   4.353   0.927   6.129  0.0791  2.1445 -0.8834
 5631SOL     OW28354   0.956   0.428   0.398 -0.0009  0.3868  0.0738
 5631SOL    HW128355   1.036   0.382   0.372  0.8838  1.3825  1.0597
 5631SOL    HW228356   0.887   0.386   0.346  1.1613 -2.1369  0.5991
 5632SOL     OW28357   4.622   1.225   9.169  0.2250  0.1377 -1.1768
 5632SOL    HW128358   4.714   1.213   9.196  0.4907 -2.7809 -3.5318
 5632SOL    HW228359   4.619   1.318   9.145 -0.0002  0.2492 -0.7140
 5633SOL     OW28360   4.170   4.605  17.641 -0.3595  0.1826 -0.1527
 5633SOL    HW128361   4.137   4.516  17.632  0.1361  0.0901 -1.0952
 5633SOL    HW228362   4.096   4.666  17.636 -0.7233 -0.3724 -1.7271
 5634SOL     OW28363   0.800   3.119   1.660  0.4585  0.2808 -0.0758
 5634SOL    HW128364   0.771   3.209   1.653  1.0020  0.4820  0.2611
 5634SOL    HW228365   0.896   3.124   1.651  0.6444  1.3867  2.5642
 5635SOL     OW28366   4.101   0.122  11.844  0.5798  0.0674 -0.0030
 5635SOL    HW128367   4.096   0.028  11.826 -1.1484  0.3926 -1.2467
 5635SOL    HW228368   4.113   0.131  11.939  0.8749  1.6856 -0.2010
 5636SOL     OW28369   1.532   1.922   3.485 -0.0436 -0.2228  0.2537
 5636SOL    HW128370   1.507   1.833   3.511 -1.7577  0.0860 -0.3070
 5636SOL    HW228371   1.452   1.976   3.491  0.4944  0.3546  2.3133
 5637SOL     OW28372   3.693   2.310  13.992 -0.0016 -0.3573 -0.1836
 5637SOL    HW128373   3.651   2.272  14.069 -0.1993 -0.4538 -0.3399
 5637SOL    HW228374   3.780   2.272  14.005  0.5106  0.4331 -1.2932
 5638SOL     OW28375   2.318   3.466   6.295 -0.0754  0.6304 -0.5074
 5638SOL    HW128376   2.229   3.444   6.267 -0.3713  1.0493  0.1026
 5638SOL    HW228377   2.370   3.450   6.216  0.4952  0.6418 -0.1299
 5639SOL     OW28378   0.288   0.440   2.765 -0.4778 -0.2482 -0.0171
 5639SOL    HW128379   0.306   0.374   2.832 -1.4040  1.1881  1.6586
 5639SOL    HW228380   0.291   0.519   2.819  2.4900 -0.7713  0.5942
 5640SOL     OW28381   1.169   1.869   1.987  0.1056  0.3055  0.4360
 5640SOL    HW128382   1.163   1.807   1.915 -0.0192  0.7610  0.0536
 5640SOL    HW228383   1.259   1.900   1.976  0.5323 -0.7312  0.9922
 5641SOL     OW28384   4.186   3.279   3.207 -0.4179 -0.1379  0.1566
 5641SOL    HW128385   4.185   3.198   3.155  1.1477  1.3426 -2.1653
 5641SOL    HW228386   4.131   3.348   3.170 -0.6334 -0.6792 -0.5516
 5642SOL     OW28387   1.893   2.680   5.704 -0.4662  0.5199 -0.2025
 5642SOL    HW128388   1.919   2.750   5.764  1.4704 -0.1558 -0.2616
 5642SOL    HW228389   1.916   2.721   5.620  0.5044  1.7703  0.6774
 5643SOL     OW28390   0.003   3.079   7.405 -0.5625 -0.2879  0.2012
 5643SOL    HW128391   4.720   3.018   7.478 -0.2935 -1.2033 -0.5455
 5643SOL    HW228392   4.722   3.158   7.458  2.1745  0.7080 -1.0481
 5644SOL     OW28393   3.749   3.971   5.660 -0.3174 -0.1479  0.4623
 5644SOL    HW128394   3.807   4.009   5.595 -0.8318  1.0740  0.7290
 5644SOL    HW228395   3.751   4.030   5.736 -0.4797 -2.5560  2.3662
 5645SOL     OW28396   2.236   2.907  11.750  0.3113  0.3838  0.4475
 5645SOL    HW128397   2.282   2.922  11.833 -0.8458  0.9400  0.9866
 5645SOL    HW228398   2.234   2.997  11.717 -4.1028  1.1248  2.7916
 5646SOL     OW28399   1.454   0.811   4.248 -0.1440 -0.4659 -0.3376
 5646SOL    HW128400   1.550   0.815   4.257 -0.1690  1.3527 -0.8498
 5646SOL    HW228401   1.452   0.755   4.170 -0.1653  0.5836 -1.0872
 5647SOL     OW28402   1.576   2.999   5.872  0.0670  0.2437 -0.1211
 5647SOL    HW128403   1.519   2.936   5.916  0.8778 -0.3084  0.1441
 5647SOL    HW228404   1.658   2.957   5.899  0.7382  0.4794 -1.7924
 5648SOL     OW28405   3.333   3.140   9.994 -0.2815 -0.0643  0.1721
 5648SOL    HW128406   3.270   3.178   9.932 -0.7461 -0.5853  0.3295
 5648SOL    HW228407   3.355   3.055   9.956 -1.9572 -0.4182  0.0011
 5649SOL     OW28408   1.944   0.002  12.348  0.2063 -0.9579  0.3853
 5649SOL    HW128409   1.973   4.653  12.402 -1.8414  1.1267  4.2754
 5649SOL    HW228410   1.877   4.680  12.297 -2.9091  0.8297  2.8679
 5650SOL     OW28411   1.812   4.078   4.563  0.1275  0.2409  0.2607
 5650SOL    HW128412   1.728   4.041   4.589  1.4554 -0.4070  3.6013
 5650SOL    HW228413   1.841   4.012   4.500 -1.6290  0.3612 -0.6629
 5651SOL     OW28414   2.736   4.335   9.197 -0.4399  0.4721  0.4727
 5651SOL    HW128415   2.751   4.345   9.103  0.4905 -2.3971  0.3161
 5651SOL    HW228416   2.701   4.246   9.196  0.5124  0.1185 -0.6432
 5652SOL     OW28417   4.637   4.533   0.540  1.0439 -0.5874  0.2481
 5652SOL    HW128418   4.581   4.474   0.591  0.1527 -0.0259 -0.0790
 5652SOL    HW228419   4.583   4.526   0.462 -0.6404 -2.6120  1.5922
 5653SOL     OW28420   3.827   4.508   9.341  0.2869  0.1628  0.4578
 5653SOL    HW128421   3.805   4.470   9.426 -0.7427  0.5062  0.3461
 5653SOL    HW228422   3.752   4.563   9.318  2.0111  1.2329 -2.7033
 5654SOL     OW28423   4.312   2.711   3.496  0.0750 -0.2444 -0.1182
 5654SOL    HW128424   4.237   2.685   3.442 -1.2170  3.0078  0.0658
 5654SOL    HW228425   4.363   2.767   3.437  0.0385  0.3586  0.4160
 5655SOL     OW28426   3.136   2.505  16.899 -0.6655  0.3464  0.0404
 5655SOL    HW128427   3.080   2.438  16.858 -1.2052  1.2176 -0.6632
 5655SOL    HW228428   3.067   2.552  16.946  1.6186  2.1310  1.5481
 5656SOL     OW28429   2.121   3.042  15.733 -0.2223 -0.7123  0.0273
 5656SOL    HW128430   2.101   3.124  15.689  0.1524 -0.5857  0.0867
 5656SOL    HW228431   2.055   3.037  15.802 -0.6955  3.7010 -0.1452
 5657SOL     OW28432   1.001   1.220  12.703 -0.5607 -0.2848 -0.1702
 5657SOL    HW128433   0.986   1.295  12.762 -0.2657 -0.9691  0.7778
 5657SOL    HW228434   1.034   1.153  12.762 -1.3852  0.3311  0.9982
 5658SOL     OW28435   1.081   1.599   8.516 -0.2379 -0.4867  0.4071
 5658SOL    HW128436   1.033   1.559   8.444 -0.8601 -1.6473  1.4617
 5658SOL    HW228437   1.153   1.539   8.535  1.2500  1.6748  1.5549
 5659SOL     OW28438   0.345   1.626   8.690  0.0389  0.2307 -0.2249
 5659SOL    HW128439   0.387   1.647   8.774 -2.0047 -0.7869  1.0506
 5659SOL    HW228440   0.405   1.564   8.648 -0.3340 -0.8208  0.8012
 5660SOL     OW28441   3.027   3.186   2.573  0.5199  0.0713 -0.0699
 5660SOL    HW128442   3.006   3.276   2.599 -0.4218  0.2010 -1.3077
 5660SOL    HW228443   2.983   3.161   2.492 -2.0835 -0.0106  1.3591
 5661SOL     OW28444   3.441   0.873   0.277  0.4148  0.2094 -0.0694
 5661SOL    HW128445   3.474   0.855   0.189  1.5817 -0.3687  0.4921
 5661SOL    HW228446   3.498   0.828   0.339 -1.5856 -1.1686  0.7729
 5662SOL     OW28447   0.605   1.412   2.844  0.2932 -0.1151  0.2607
 5662SOL    HW128448   0.626   1.327   2.881 -0.6025  1.1727  3.6780
 5662SOL    HW228449   0.646   1.414   2.757  0.9971 -2.9714  0.5309
 5663SOL     OW28450   1.624   1.970   3.054  0.0473 -0.0012 -0.1840
 5663SOL    HW128451   1.702   1.916   3.038 -0.0870  0.0187 -0.8921
 5663SOL    HW228452   1.625   1.987   3.148 -0.7876  3.1146 -0.7381
 5664SOL     OW28453   1.786   2.064  16.789 -0.1077 -0.7578 -0.1331
 5664SOL    HW128454   1.798   2.082  16.696 -0.0430 -0.9027 -0.1530
 5664SOL    HW228455   1.860   2.006  16.806  1.7524  1.6730  0.0761
 5665SOL     OW28456   0.285   3.997   8.052  0.1107 -0.1975 -0.1652
 5665SOL    HW128457   0.361   3.958   8.008  1.4976  1.2821  0.9576
 5665SOL    HW228458   0.215   3.992   7.987 -0.9641  1.5572  0.8638
 5666SOL     OW28459   4.433   2.460   3.370  0.1869  0.4468 -0.4115
 5666SOL    HW128460   4.469   2.541   3.335  0.2357  0.8968  0.6857
 5666SOL    HW228461   4.346   2.449   3.332 -0.6309 -1.7550  2.0879
 5667SOL     OW28462   4.406   2.035  12.304  0.6550 -0.6368  0.0291
 5667SOL    HW128463   4.482   2.084  12.335  1.5977 -0.4090 -2.6633
 5667SOL    HW228464   4.422   1.950  12.346  0.0817 -1.2946 -1.0635
 5668SOL     OW28465   2.780   1.585   1.618 -0.5302 -0.1548  0.0757
 5668SOL    HW128466   2.745   1.661   1.571 -0.8852 -1.0608 -1.1015
 5668SOL    HW228467   2.723   1.519   1.578 -1.8514  0.2966  1.2199
 5669SOL     OW28468   0.681   0.346  10.295 -0.1202  0.3909  0.2397
 5669SOL    HW128469   0.648   0.399  10.223  0.6123 -1.3572 -1.3593
 5669SOL    HW228470   0.739   0.286  10.249  0.2113 -1.4381  3.0219
 5670SOL     OW28471   2.875   3.535  15.573 -0.6953 -0.1073 -0.2335
 5670SOL    HW128472   2.800   3.489  15.535 -1.2085 -0.4920  1.2498
 5670SOL    HW228473   2.868   3.543  15.668  1.2414 -0.3803 -0.0587
 5671SOL     OW28474   4.234   1.028  11.098  0.2211  0.5789 -0.0327
 5671SOL    HW128475   4.285   0.979  11.162  0.4407 -0.9599 -1.3966
 5671SOL    HW228476   4.181   0.959  11.059 -0.6587  1.7773 -0.9758
 5672SOL     OW28477   3.704   4.448  10.663 -0.7301 -0.3420  0.1689
 5672SOL    HW128478   3.647   4.520  10.689 -2.2240 -1.8519  1.1170
 5672SOL    HW228479   3.667   4.429  10.577 -0.7787  0.5437 -0.0062
 5673SOL     OW28480   4.055   0.299   4.989 -0.2401 -0.2480 -0.2075
 5673SOL    HW128481   4.071   0.325   4.899  0.5459 -1.8565 -0.5277
 5673SOL    HW228482   3.962   0.280   5.001 -0.0771 -0.4775  0.7066
 5674SOL     OW28483   3.840   0.342  12.370  0.3214  0.7099  0.0526
 5674SOL    HW128484   3.867   0.428  12.335  1.8651 -0.9131 -2.7323
 5674SOL    HW228485   3.880   0.349  12.456  1.4419  0.8100 -0.4734
 5675SOL     OW28486   0.042   0.711   5.751 -0.1132 -0.3713  0.4478
 5675SOL    HW128487   0.082   0.641   5.804  0.1694 -0.6829 -0.1730
 5675SOL    HW228488   0.119   0.765   5.731 -0.9007  1.2204  1.7597
 5676SOL     OW28489   1.356   0.535   4.554 -0.0201 -0.2299  0.1836
 5676SOL    HW128490   1.440   0.531   4.507 -0.0437 -0.2502  0.1425
 5676SOL    HW228491   1.363   0.467   4.620  2.4421  0.9783  1.1628
 5677SOL     OW28492   0.080   1.877   1.682 -0.6527 -0.1790  0.5201
 5677SOL    HW128493   0.001   1.860   1.734 -1.8630 -0.3689 -1.3765
 5677SOL    HW228494   0.142   1.872   1.755  0.8826  0.7584 -0.7112
 5678SOL     OW28495   2.703   4.101   5.211  0.1410 -0.0569  0.4550
 5678SOL    HW128496   2.780   4.086   5.267 -0.0569 -1.9513  0.2186
 5678SOL    HW228497   2.743   4.144   5.135 -1.2435 -0.5465 -0.5370
 5679SOL     OW28498   4.128   0.510   3.063 -0.0176  0.1196 -0.3111
 5679SOL    HW128499   4.048   0.499   3.012 -0.7788  0.6681  0.7688
 5679SOL    HW228500   4.157   0.598   3.041 -0.9762  0.5434  0.1279
 5680SOL     OW28501   2.631   4.460  10.636 -0.0550 -0.1532  0.4843
 5680SOL    HW128502   2.593   4.522  10.698 -0.2177 -1.1301  1.3637
 5680SOL    HW228503   2.725   4.476  10.646 -0.0705  0.6226 -0.6146
 5681SOL     OW28504   1.926   4.430   0.926  0.9508  0.4441  0.3090
 5681SOL    HW128505   1.835   4.428   0.895  1.4394 -0.1627 -1.0629
 5681SOL    HW228506   1.895   4.478   1.003  1.2875 -1.7766  1.8477
 5682SOL     OW28507   1.191   4.484   8.444 -0.3839  0.1719  0.0630
 5682SOL    HW128508   1.159   4.405   8.487  0.3349 -0.7485 -1.1018
 5682SOL    HW228509   1.191   4.459   8.351 -0.2885 -0.7571  0.3126
 5683SOL     OW28510   2.989   1.353   5.303  0.5532  0.0610 -0.2708
 5683SOL    HW128511   2.935   1.337   5.380  0.0653 -0.3144 -0.6902
 5683SOL    HW228512   2.965   1.271   5.259  0.2112  0.3047 -0.5365
 5684SOL     OW28513   0.859   2.216   8.884 -0.2356  0.1087  0.4574
 5684SOL    HW128514   0.848   2.284   8.951 -1.0560 -1.7647  2.2170
 5684SOL    HW228515   0.777   2.167   8.893 -0.8255  0.7516 -1.3815
 5685SOL     OW28516   3.821   0.330   3.021  0.3165 -0.2970  0.2299
 5685SOL    HW128517   3.776   0.338   3.104  1.6725  2.0236  0.7378
 5685SOL    HW228518   3.772   0.263   2.973 -0.8536 -1.4791  3.0675
 5686SOL     OW28519   2.778   1.013   3.690 -0.0478  0.2715 -0.1867
 5686SOL    HW128520   2.753   0.923   3.670  0.3101 -0.1636  1.3488
 5686SOL    HW228521   2.853   1.025   3.631  1.8950 -3.0849  1.6095
 5687SOL     OW28522   3.044   4.159  14.088  0.3742  0.2982 -0.0154
 5687SOL    HW128523   2.992   4.127  14.014  1.1708  0.1331 -0.5164
 5687SOL    HW228524   3.015   4.102  14.158  0.4869  0.4540  0.1582
 5688SOL     OW28525   0.826   0.608  15.106  0.5310  0.2686 -0.3133
 5688SOL    HW128526   0.832   0.515  15.083 -1.1063  0.1739 -0.4107
 5688SOL    HW228527   0.919   0.623  15.118  0.6737 -0.7111 -0.1322
 5689SOL     OW28528   4.150   1.086  15.030  0.2145  0.1233  0.0197
 5689SOL    HW128529   4.156   1.176  15.064 -0.7675  1.0636 -2.3440
 5689SOL    HW228530   4.217   1.043  15.084  0.4686  0.8919  0.3283
 5690SOL     OW28531   2.889   1.585  16.335 -0.5244 -0.0948  0.1031
 5690SOL    HW128532   2.941   1.658  16.300  0.6510 -0.2892  1.4338
 5690SOL    HW228533   2.821   1.581  16.268  2.4246 -0.1241 -2.8929
 5691SOL     OW28534   0.435   0.232   3.612  0.8870 -0.0578  0.7850
 5691SOL    HW128535   0.529   0.231   3.595  0.9139 -0.3427  0.9542
 5691SOL    HW228536   0.405   0.315   3.577 -0.3105 -1.4204 -1.4234
 5692SOL     OW28537   0.025   2.152   4.607 -0.3071 -0.1615 -0.2139
 5692SOL    HW128538   0.093   2.109   4.555  0.0584  0.7448 -0.4748
 5692SOL    HW228539   4.671   2.124   4.560 -0.0121 -0.2439 -0.6534
 5693SOL     OW28540   3.988   4.692   8.539 -0.2351  0.1781  0.3111
 5693SOL    HW128541   3.914   4.683   8.599  0.7657 -3.4006  1.0176
 5693SOL    HW228542   3.958   0.040   8.484  2.8625  0.8846 -0.4226
 5694SOL     OW28543   1.448   4.355   7.654  0.2785 -0.2030 -0.1825
 5694SOL    HW128544   1.438   4.450   7.667 -1.6003 -0.7249  2.1736
 5694SOL    HW228545   1.544   4.354   7.649  0.2359  0.4542 -1.1546
 5695SOL     OW28546   3.550   1.360   3.034 -0.3804  0.0936 -0.7614
 5695SOL    HW128547   3.628   1.363   2.979  0.5294 -0.3256  0.5279
 5695SOL    HW228548   3.504   1.286   2.995 -0.1414  0.1376 -1.1322
 5696SOL     OW28549   0.813   2.122   2.555  0.1658  0.1123 -1.2458
 5696SOL    HW128550   0.800   2.028   2.560 -1.5619  0.2903 -2.7514
 5696SOL    HW228551   0.822   2.137   2.461  2.4010  1.5421 -0.8296
 5697SOL     OW28552   3.922   1.084  15.619 -0.2573  0.0111  0.4751
 5697SOL    HW128553   3.946   1.133  15.698 -0.2671 -0.3532  0.7006
 5697SOL    HW228554   3.828   1.070  15.631 -0.9474  2.8431 -1.4787
 5698SOL     OW28555   4.601   2.364   8.325 -0.1716 -0.6864 -0.0784
 5698SOL    HW128556   4.600   2.347   8.419  0.4309  1.4870  0.3362
 5698SOL    HW228557   4.659   2.299   8.285 -0.1323  0.4995 -1.9585
 5699SOL     OW28558   1.905   2.647   4.960  0.3321 -0.1189  0.3354
 5699SOL    HW128559   1.857   2.660   4.878 -1.1021  0.8984  1.3460
 5699SOL    HW228560   1.991   2.653   4.918 -0.3697 -1.1903 -1.2565
 5700SOL     OW28561   1.238   3.332   8.184  0.0619 -0.1935  0.7222
 5700SOL    HW128562   1.249   3.398   8.253  0.3531  0.5682 -0.0506
 5700SOL    HW228563   1.226   3.255   8.239  0.4443 -1.2106 -0.6287
 5701SOL     OW28564   0.207   2.603   5.512  0.6029 -0.3038  0.3601
 5701SOL    HW128565   0.175   2.663   5.579  1.3885  0.5652 -0.0305
 5701SOL    HW228566   0.277   2.659   5.478 -0.1307  0.6297  0.3832
 5702SOL     OW28567   0.223   4.107   6.654  0.4687 -0.1402 -0.1578
 5702SOL    HW128568   0.151   4.150   6.608  0.3534  1.1232  1.1972
 5702SOL    HW228569   0.303   4.155   6.633  1.8017 -2.7248 -0.9578
 5703SOL     OW28570   0.683   3.369  15.317 -0.1985 -0.2351  0.6475
 5703SOL    HW128571   0.723   3.287  15.345 -0.4466 -1.1827 -1.7717
 5703SOL    HW228572   0.650   3.401  15.400 -0.2877 -3.9592  2.0341
 5704SOL     OW28573   0.787   4.090   9.447 -0.2179  0.4776 -0.3790
 5704SOL    HW128574   0.758   4.150   9.378 -0.6657  0.1956 -0.4358
 5704SOL    HW228575   0.836   4.156   9.497  0.1735  0.7338 -1.1072
 5705SOL     OW28576   3.110   2.628   3.821 -0.2052 -0.5601 -0.2860
 5705SOL    HW128577   3.153   2.543   3.821  0.6919 -0.1031 -0.9203
 5705SOL    HW228578   3.033   2.593   3.775 -1.0018 -1.4465  1.7406
 5706SOL     OW28579   2.302   3.405  13.798 -0.8350 -0.0948 -0.1760
 5706SOL    HW128580   2.258   3.468  13.740 -0.9452  0.2631  0.2999
 5706SOL    HW228581   2.262   3.418  13.883  1.1829 -1.2097  0.9428
 5707SOL     OW28582   1.463   0.114   9.619  0.1886 -0.0911 -0.2905
 5707SOL    HW128583   1.531   0.085   9.679 -1.1407  0.1065  1.2978
 5707SOL    HW228584   1.502   0.200   9.604  0.4824  0.0186  1.1736
 5708SOL     OW28585   0.051   0.412   0.950 -0.2766  0.4202 -0.3899
 5708SOL    HW128586   0.143   0.407   0.925 -0.7117 -3.3412 -1.2008
 5708SOL    HW228587   0.028   0.322   0.972 -1.7532  1.1400  0.9947
 5709SOL     OW28588   3.449   2.537  13.813 -0.1073  0.5714 -0.3253
 5709SOL    HW128589   3.461   2.446  13.787 -1.6007  0.1636  0.3846
 5709SOL    HW228590   3.539   2.567  13.807 -0.8648  2.3700 -2.5380
 5710SOL     OW28591   0.077   4.148   2.467 -0.3780  0.4642  0.2667
 5710SOL    HW128592   4.709   4.171   2.482 -0.2366  1.5498 -0.5285
 5710SOL    HW228593   0.113   4.194   2.543  1.0011 -0.8240  0.4067
 5711SOL     OW28594   3.825   1.324   5.450 -0.6367 -0.2114 -0.4018
 5711SOL    HW128595   3.740   1.363   5.429 -1.1290 -0.8972  0.3033
 5711SOL    HW228596   3.800   1.232   5.457 -1.5418  0.1920  1.4869
 5712SOL     OW28597   0.144   2.333   9.888 -0.3556  0.2043 -0.1864
 5712SOL    HW128598   0.084   2.284   9.944 -0.1478  1.0553  0.7812
 5712SOL    HW228599   0.106   2.325   9.800  0.4384 -1.0841 -0.4036
 5713SOL     OW28600   3.805   0.028   5.235 -0.1776  0.5020 -0.3075
 5713SOL    HW128601   3.825   0.025   5.328  1.0469  0.3393 -0.5777
 5713SOL    HW228602   3.715   4.719   5.246  0.1385 -0.4427 -0.5585
 5714SOL     OW28603   4.375   1.998   5.349 -0.1335  0.0792 -0.2885
 5714SOL    HW128604   4.378   2.091   5.369 -0.4072  0.4216 -1.8579
 5714SOL    HW228605   4.460   1.974   5.387 -1.0868  0.9383  2.3080
 5715SOL     OW28606   4.365   3.513   6.974 -0.2945  0.0644  0.1373
 5715SOL    HW128607   4.418   3.434   6.977  2.7737  2.1436 -0.1329
 5715SOL    HW228608   4.384   3.557   7.057 -2.3829 -1.3806  1.3797
 5716SOL     OW28609   0.837   0.340   4.414 -0.0613  0.6112 -0.0732
 5716SOL    HW128610   0.920   0.360   4.372 -0.2649  1.9834  0.1844
 5716SOL    HW228611   0.784   0.298   4.345  0.0803  2.7892 -1.5025
 5717SOL     OW28612   4.512   1.796   7.146  0.3809  0.1322 -0.1999
 5717SOL    HW128613   4.509   1.810   7.240 -1.8887  3.0745 -0.7023
 5717SOL    HW228614   4.606   1.811   7.135 -0.0786  1.8094 -1.9119
 5718SOL     OW28615   2.509   3.027   7.578  0.2590 -0.1788 -0.0976
 5718SOL    HW128616   2.463   3.000   7.658  0.9464  0.6210  0.5785
 5718SOL    HW228617   2.510   2.950   7.522  0.1022  0.6723 -1.2740
 5719SOL     OW28618   2.906   2.219  10.993  0.4721  0.1992 -0.0436
 5719SOL    HW128619   2.972   2.181  11.051  1.3350 -0.8662 -1.7348
 5719SOL    HW228620   2.864   2.145  10.950  1.5448  0.7720 -2.0682
 5720SOL     OW28621   2.841   0.602   7.407  0.0603 -0.2543 -0.4889
 5720SOL    HW128622   2.881   0.639   7.328  1.5070  0.9052  0.8040
 5720SOL    HW228623   2.836   0.676   7.466 -2.5365 -1.0489  0.2943
 5721SOL     OW28624   1.961   1.994  16.553  0.1117 -0.0601 -0.1297
 5721SOL    HW128625   2.013   2.053  16.498  1.4274 -0.9465  0.1746
 5721SOL    HW228626   2.020   1.993  16.629 -2.4254  0.2229  1.8362
 5722SOL     OW28627   3.075   0.063   3.408  0.0558 -0.5495 -0.2236
 5722SOL    HW128628   3.153   0.045   3.460 -0.2809  0.8757  0.7831
 5722SOL    HW228629   3.107   0.137   3.357 -1.3059  0.0262 -0.2389
 5723SOL     OW28630   3.855   2.660   8.083  0.4582 -0.8316 -0.3804
 5723SOL    HW128631   3.888   2.641   8.171 -1.7035  2.0164  1.0612
 5723SOL    HW228632   3.762   2.637   8.087 -0.1045  1.5655  0.6043
 5724SOL     OW28633   3.164   4.010  10.689 -0.4821  0.5829 -0.3591
 5724SOL    HW128634   3.081   3.966  10.673  1.3445 -2.5486 -1.2707
 5724SOL    HW228635   3.157   4.088  10.633 -0.5442 -0.1516 -1.3873
 5725SOL     OW28636   3.779   2.662  12.682  0.0084 -0.3844  0.1758
 5725SOL    HW128637   3.819   2.578  12.659  1.3777  0.2882  0.0858
 5725SOL    HW228638   3.785   2.678  12.776 -1.2179  0.7651  0.0637
 5726SOL     OW28639   4.695   0.401   5.317  0.4385 -0.5717  0.1152
 5726SOL    HW128640   4.706   0.482   5.367  0.9359 -0.3789 -0.3051
 5726SOL    HW228641   4.651   0.442   5.242 -0.6590 -0.8044  0.6385
 5727SOL     OW28642   3.972   0.921   8.971 -0.0705 -0.0657  0.3743
 5727SOL    HW128643   4.030   0.931   9.046 -0.2007  1.5072  0.2684
 5727SOL    HW228644   3.910   0.860   9.009  1.0801 -2.1184 -1.0060
 5728SOL     OW28645   1.275   4.256   1.043 -0.8261 -0.6196  0.6167
 5728SOL    HW128646   1.257   4.163   1.031  1.1279 -1.1401  1.7040
 5728SOL    HW228647   1.370   4.250   1.057 -0.7365 -1.1991 -0.2676
 5729SOL     OW28648   0.114   3.352   6.968 -0.9090 -0.2854  0.2410
 5729SOL    HW128649   0.189   3.328   7.022 -0.2960 -1.6673 -1.2189
 5729SOL    HW228650   0.143   3.433   6.926  1.5072 -1.2848 -0.0596
 5730SOL     OW28651   1.894   1.238   2.420 -0.0882  0.5532  0.4840
 5730SOL    HW128652   1.915   1.331   2.416 -0.6096  0.6721  0.5706
 5730SOL    HW228653   1.852   1.238   2.334 -0.5215 -1.6847  0.6934
 5731SOL     OW28654   0.544   3.430   5.707 -0.1599 -0.3832 -0.3066
 5731SOL    HW128655   0.549   3.344   5.666 -1.1692 -1.4220  1.7027
 5731SOL    HW228656   0.556   3.496   5.639 -1.9900 -1.1524 -1.3394
 5732SOL     OW28657   3.023   0.702  15.130 -0.1827 -0.1461 -0.7058
 5732SOL    HW128658   2.967   0.780  15.123  1.9497  1.2586 -2.1885
 5732SOL    HW228659   3.000   0.677  15.219 -0.3083 -1.4682 -1.1079
 5733SOL     OW28660   0.257   2.023   7.221  0.2697  0.4329  0.5292
 5733SOL    HW128661   0.171   1.988   7.244 -0.2019  1.9394  1.0191
 5733SOL    HW228662   0.267   1.963   7.146  2.0142  0.2176  0.9410
 5734SOL     OW28663   1.308   1.974   3.754 -0.4310 -0.4150 -1.3082
 5734SOL    HW128664   1.298   1.968   3.850  0.4957 -1.0358 -1.2570
 5734SOL    HW228665   1.223   1.934   3.732 -1.1457  0.7405 -0.6395
 5735SOL     OW28666   4.597   0.713   4.973  0.0813 -0.6815 -0.5858
 5735SOL    HW128667   4.587   0.798   5.017 -1.4743 -1.7262  1.0833
 5735SOL    HW228668   4.592   0.740   4.881 -2.1573 -0.4527 -0.4192
 5736SOL     OW28669   3.137   1.724   0.786  0.7514 -0.0412 -0.5708
 5736SOL    HW128670   3.179   1.656   0.839  0.7372  1.3728  1.2805
 5736SOL    HW228671   3.160   1.799   0.842  0.2368 -0.9223  0.8229
 5737SOL     OW28672   3.801   0.583   3.904 -0.0896  0.1165  0.1211
 5737SOL    HW128673   3.851   0.509   3.871  1.2343  0.9377  0.2941
 5737SOL    HW228674   3.863   0.656   3.898 -1.3484  1.1044 -0.8970
 5738SOL     OW28675   0.081   3.158   1.549 -0.4079 -0.2174 -0.2441
 5738SOL    HW128676   0.072   3.081   1.605 -1.8181  1.3159  1.6526
 5738SOL    HW228677   0.174   3.177   1.558  0.1571 -2.4294 -1.5324
 5739SOL     OW28678   0.818   4.236   0.282  0.1620 -0.2928 -0.1527
 5739SOL    HW128679   0.864   4.175   0.340  0.6723 -1.0348 -1.3410
 5739SOL    HW228680   0.885   4.260   0.218 -0.9984 -1.4165 -1.7811
 5740SOL     OW28681   1.640   3.749   7.596 -0.1509  0.0365 -0.0732
 5740SOL    HW128682   1.678   3.698   7.525  0.8749  1.1166 -0.2964
 5740SOL    HW228683   1.555   3.776   7.561  0.1564 -0.6680 -1.3421
 5741SOL     OW28684   0.522   1.189   3.769  0.0607  0.3983  0.1272
 5741SOL    HW128685   0.489   1.224   3.852  0.7520  0.2982  0.4384
 5741SOL    HW228686   0.450   1.129   3.750 -0.4235  0.5955  1.3182
 5742SOL     OW28687   3.317   4.303   2.445 -0.2463 -0.3726  0.1332
 5742SOL    HW128688   3.391   4.266   2.492 -0.0310  1.5408  1.2883
 5742SOL    HW228689   3.368   4.382   2.431  0.7076 -0.6070  2.2521
 5743SOL     OW28690   1.820   1.387   6.866 -0.3330 -0.2206 -0.3508
 5743SOL    HW128691   1.800   1.339   6.785 -0.0092  0.1350 -0.6430
 5743SOL    HW228692   1.906   1.424   6.846 -0.4377 -0.8782 -2.0361
 5744SOL     OW28693   3.074   2.058   2.179  0.1250 -0.1346  0.0818
 5744SOL    HW128694   3.001   2.006   2.146 -1.8688  0.7914  3.0866
 5744SOL    HW228695   3.050   2.142   2.139 -0.3278 -0.2082  0.2038
 5745SOL     OW28696   2.513   2.633   2.392 -0.0605  0.1705 -0.7524
 5745SOL    HW128697   2.485   2.543   2.410  1.9376 -0.0190  1.4693
 5745SOL    HW228698   2.548   2.659   2.478  1.8842 -0.1980 -1.4383
 5746SOL     OW28699   1.051   4.662  12.185  0.8036 -0.0253 -0.4830
 5746SOL    HW128700   1.098   4.716  12.121 -0.3173 -0.3323 -1.5673
 5746SOL    HW228701   1.066   4.712  12.265  1.9908 -0.4080 -0.4711
 5747SOL     OW28702   0.828   2.858  10.437 -0.4535  0.1833  0.0290
 5747SOL    HW128703   0.825   2.806  10.516  0.3199 -2.0602 -1.4275
 5747SOL    HW228704   0.735   2.865  10.415  0.1639  3.9520 -1.4278
 5748SOL     OW28705   4.429   3.914  14.711 -0.0580  0.3399  0.5650
 5748SOL    HW128706   4.381   3.852  14.657 -0.2761 -1.4290  2.7595
 5748SOL    HW228707   4.515   3.874  14.696 -0.1528  0.3430  0.0189
 5749SOL     OW28708   1.969   4.091   2.970 -0.0654 -0.1924 -0.5095
 5749SOL    HW128709   2.026   4.107   3.046 -0.9463 -0.2488  0.1681
 5749SOL    HW228710   1.901   4.158   2.981 -0.4509 -0.8309  1.0928
 5750SOL     OW28711   0.661   4.182   1.174  0.0601  0.3489 -0.0669
 5750SOL    HW128712   0.755   4.198   1.171  0.8426 -4.1600  0.1169
 5750SOL    HW228713   0.656   4.112   1.110 -0.6547 -1.5243  2.0279
 5751SOL     OW28714   4.087   0.002  12.336 -0.3647  0.1927 -0.0309
 5751SOL    HW128715   4.118   4.636  12.346  3.8645  1.7952  1.2874
 5751SOL    HW228716   4.123   0.019  12.248  1.7742  2.4998  1.2958
 5752SOL     OW28717   0.237   4.122  13.519  0.1744 -0.2886 -0.5710
 5752SOL    HW128718   0.142   4.128  13.517  0.3090  2.4983  1.9767
 5752SOL    HW228719   0.250   4.141  13.612  0.4784 -0.4623 -0.5769
 5753SOL     OW28720   4.722   2.441   7.428  0.2182 -0.3107  0.4915
 5753SOL    HW128721   4.662   2.372   7.458  1.2638 -1.3527  0.1868
 5753SOL    HW228722   4.668   2.511   7.392 -0.3850 -1.0153  0.0358
 5754SOL     OW28723   3.682   3.421   1.955 -0.1075  0.0072 -0.3183
 5754SOL    HW128724   3.676   3.379   1.869 -0.0090 -0.0287 -0.3084
 5754SOL    HW228725   3.773   3.399   1.976 -0.1621 -0.2315 -0.3267
 5755SOL     OW28726   2.387   1.071  10.276 -0.0974  0.1941 -0.5268
 5755SOL    HW128727   2.360   0.984  10.247  1.5992 -0.3609 -0.4846
 5755SOL    HW228728   2.351   1.138  10.218 -0.1441 -1.0938 -2.0105
 5756SOL     OW28729   3.061   4.344  10.965  0.1124  0.7565 -0.2063
 5756SOL    HW128730   3.004   4.325  10.890  0.1933  0.7688 -0.2705
 5756SOL    HW228731   3.100   4.259  10.980 -0.8007  0.2694 -0.5586
 5757SOL     OW28732   3.463   1.953   6.079  0.1555  0.2957  0.4114
 5757SOL    HW128733   3.460   1.945   6.174 -2.1288  0.5442  0.3617
 5757SOL    HW228734   3.459   1.859   6.058 -3.5305 -0.1190  2.8665
 5758SOL     OW28735   2.784   2.674  15.534  0.1501  0.1049  0.6680
 5758SOL    HW128736   2.809   2.761  15.564 -0.9739  0.4473  0.5946
 5758SOL    HW228737   2.700   2.656  15.576 -0.6472 -1.9482 -1.7876
 5759SOL     OW28738   3.491   3.058   7.065 -1.0102  0.1005 -0.1061
 5759SOL    HW128739   3.485   3.141   7.019 -0.9398  1.4979  2.4301
 5759SOL    HW228740   3.586   3.065   7.071 -0.8217 -0.7127 -2.0632
 5760SOL     OW28741   3.563   3.893  11.955  0.2109 -0.3542 -0.2173
 5760SOL    HW128742   3.498   3.861  12.017 -0.4321 -0.2049 -0.8111
 5760SOL    HW228743   3.508   3.962  11.917 -1.5176  0.1148  3.1692
 5761SOL     OW28744   0.394   0.895   3.672 -0.1897 -0.4522 -0.7669
 5761SOL    HW128745   0.417   0.893   3.764 -0.0848  2.4581 -0.7353
 5761SOL    HW228746   0.316   0.950   3.672 -0.1459 -0.4127  3.1313
 5762SOL     OW28747   1.007   2.515   3.580 -0.0882  0.0299  0.5621
 5762SOL    HW128748   0.976   2.454   3.647 -0.0374  0.2050  0.7442
 5762SOL    HW228749   1.008   2.590   3.639  0.3984 -0.7628  1.5550
 5763SOL     OW28750   1.784   2.450   9.696  0.3561 -0.7283  0.2997
 5763SOL    HW128751   1.778   2.424   9.604 -0.9299  1.0250 -0.1214
 5763SOL    HW228752   1.871   2.490   9.699 -0.1752  0.5071 -0.8646
 5764SOL     OW28753   3.595   3.920   4.119 -0.2448  0.0079 -0.0686
 5764SOL    HW128754   3.666   3.952   4.175 -0.4462 -1.6960  1.1438
 5764SOL    HW228755   3.605   3.987   4.051  0.8318  0.4073  0.4743
 5765SOL     OW28756   3.391   4.472  16.645 -0.1997 -0.2279  1.1367
 5765SOL    HW128757   3.314   4.455  16.699 -1.3485 -0.5860 -0.6080
 5765SOL    HW228758   3.425   4.382  16.639  2.9466  1.0643 -0.6233
 5766SOL     OW28759   2.077   3.227  15.525 -0.0792  0.2132 -0.1643
 5766SOL    HW128760   2.091   3.162  15.456  1.0719 -0.0878  0.3588
 5766SOL    HW228761   2.143   3.290  15.499  0.2668 -0.1093 -0.0741
 5767SOL     OW28762   4.370   0.973  16.792 -0.1290  0.1934 -0.3934
 5767SOL    HW128763   4.397   1.029  16.719 -1.9359  1.5074 -0.0457
 5767SOL    HW228764   4.315   1.031  16.845  0.2326 -1.6077  1.8974
 5768SOL     OW28765   3.744   3.211  10.624  0.2541  0.1844 -0.2089
 5768SOL    HW128766   3.678   3.273  10.593 -0.0803  1.3543  2.9314
 5768SOL    HW228767   3.699   3.145  10.677 -0.8196  0.5567 -0.6621
 5769SOL     OW28768   2.559   0.361   9.115  0.0514 -0.2935 -0.5252
 5769SOL    HW128769   2.465   0.371   9.100 -0.0047 -1.9155 -1.2969
 5769SOL    HW228770   2.570   0.277   9.071 -1.7521 -1.2142  0.8102
 5770SOL     OW28771   0.264   1.520  17.532 -0.2592 -0.0176 -0.1225
 5770SOL    HW128772   0.205   1.480  17.597  0.8744  0.0135  0.9360
 5770SOL    HW228773   0.210   1.525  17.453 -0.4544 -0.8026 -0.0425
 5771SOL     OW28774   0.346   0.126  12.255  0.5919 -0.3836  0.3960
 5771SOL    HW128775   0.265   0.092  12.293  1.0028 -1.9615 -0.1247
 5771SOL    HW228776   0.399   0.093  12.327  2.0257 -1.9468 -1.3432
 5772SOL     OW28777   0.415   3.649   2.386 -0.1024  0.4602  0.3860
 5772SOL    HW128778   0.445   3.680   2.301  0.8243 -2.6854 -0.4260
 5772SOL    HW228779   0.338   3.597   2.364  0.1650  0.6892 -1.0553
 5773SOL     OW28780   3.066   0.089   8.324 -0.6623 -0.2174 -0.5959
 5773SOL    HW128781   3.001   0.064   8.258  0.1339  1.9256 -2.2025
 5773SOL    HW228782   3.103   0.165   8.279  1.8246 -1.6169 -0.9196
 5774SOL     OW28783   3.042   0.701  17.403  0.0271  0.1705 -0.3977
 5774SOL    HW128784   3.028   0.795  17.405  1.3444  0.3918 -1.6136
 5774SOL    HW228785   2.972   0.678  17.342 -2.6938  0.5833  2.5608
 5775SOL     OW28786   1.048   4.606   2.852 -0.0075 -0.0268  0.5624
 5775SOL    HW128787   1.119   4.579   2.795  0.6434  1.9685  0.4160
 5775SOL    HW228788   1.018   4.680   2.799  4.0860 -1.3384 -3.5407
 5776SOL     OW28789   4.637   0.841   8.002  0.0618 -0.1529 -0.3086
 5776SOL    HW128790   0.000   0.826   7.966 -0.1626  1.4547 -1.5328
 5776SOL    HW228791   4.628   0.755   8.042  1.3598 -0.1659 -0.0575
 5777SOL     OW28792   4.532   3.425   3.691  0.6375 -0.0782 -0.8106
 5777SOL    HW128793   4.490   3.429   3.605 -1.3594  0.0072  0.1585
 5777SOL    HW228794   4.489   3.500   3.732 -0.3962 -1.6425  0.9901
 5778SOL     OW28795   0.510   0.080  17.572 -0.0038 -0.2081 -0.1906
 5778SOL    HW128796   0.542   0.114  17.489 -1.0976 -2.1070 -1.3845
 5778SOL    HW228797   0.491   4.711  17.553  1.2956 -0.2196 -1.3977
 5779SOL     OW28798   3.537   1.128   6.951 -0.4740 -0.1946  0.1987
 5779SOL    HW128799   3.628   1.099   6.957 -1.4958 -3.5239 -0.9409
 5779SOL    HW228800   3.497   1.071   7.016  1.3049 -0.7101  0.8338
 5780SOL     OW28801   3.275   0.953   3.791 -0.0805 -0.0770 -0.4508
 5780SOL    HW128802   3.323   1.024   3.834  0.4760  0.0908 -1.3552
 5780SOL    HW228803   3.267   0.888   3.861  1.0970 -0.2737 -0.5114
 5781SOL     OW28804   3.197   2.624  13.689  0.4478 -0.4831  0.1456
 5781SOL    HW128805   3.221   2.569  13.615 -1.0613 -0.2274 -0.5344
 5781SOL    HW228806   3.258   2.590  13.755 -0.1562 -0.9311  0.4673
 5782SOL     OW28807   3.954   1.533   5.305  0.1144 -0.8495 -0.5558
 5782SOL    HW128808   3.976   1.591   5.378  1.1010  1.9758 -3.0815
 5782SOL    HW228809   3.930   1.449   5.344 -2.4107 -0.2352 -0.8074
 5783SOL     OW28810   2.635   1.970  13.635  0.2620  0.1118  0.3100
 5783SOL    HW128811   2.592   2.020  13.565  2.0747 -2.4502 -2.6298
 5783SOL    HW228812   2.723   2.007  13.633 -0.7114  2.4383  0.5410
 5784SOL     OW28813   2.578   3.638   5.610  0.3234  0.5237 -0.4460
 5784SOL    HW128814   2.596   3.721   5.567 -0.5599  0.1810 -1.4826
 5784SOL    HW228815   2.597   3.665   5.700 -1.1790 -1.0546  0.3499
 5785SOL     OW28816   3.770   1.212   3.272 -0.3241  0.0349  0.3738
 5785SOL    HW128817   3.747   1.259   3.192 -0.7501 -1.7158 -0.5268
 5785SOL    HW228818   3.837   1.272   3.305  0.0046  0.3377 -0.8449
 5786SOL     OW28819   0.053   1.053   3.058 -0.0681 -0.2523  0.3022
 5786SOL    HW128820   0.029   1.131   3.108 -0.3703 -0.0733 -0.1281
 5786SOL    HW228821   4.695   1.029   3.015  1.2967  0.9896 -2.9555
 5787SOL     OW28822   3.101   0.690   2.207  0.5370  0.3986  0.4488
 5787SOL    HW128823   3.049   0.769   2.223 -1.8163 -0.6760 -1.8114
 5787SOL    HW228824   3.096   0.649   2.294  1.6039 -0.4525  0.0976
 5788SOL     OW28825   2.053   2.945   4.881 -0.3355  0.3079 -0.5603
 5788SOL    HW128826   2.134   2.984   4.846 -0.3144  0.5403 -0.2529
 5788SOL    HW228827   2.085   2.865   4.922 -0.1783  0.4560 -0.3924
 5789SOL     OW28828   0.361   3.122   2.006  0.2261 -0.5848 -0.0970
 5789SOL    HW128829   0.450   3.122   1.971  0.1925 -1.6001 -0.1752
 5789SOL    HW228830   0.306   3.162   1.939  0.1827 -1.7372 -0.7457
 5790SOL     OW28831   1.824   0.927   7.127  0.5437  0.0752  0.5245
 5790SOL    HW128832   1.816   1.021   7.117 -0.3712  0.0717  1.3435
 5790SOL    HW228833   1.877   0.933   7.206  0.1051  2.8531  0.5943
 5791SOL     OW28834   2.607   3.197   1.626  0.2986  0.0384  0.0175
 5791SOL    HW128835   2.578   3.228   1.540 -0.6416 -0.3270  0.2002
 5791SOL    HW228836   2.609   3.278   1.677 -0.3488 -0.4136  0.7701
 5792SOL     OW28837   4.181   0.332  14.733  0.4168 -0.0557  0.3175
 5792SOL    HW128838   4.188   0.250  14.685 -0.8388 -0.3802  0.6916
 5792SOL    HW228839   4.269   0.370  14.725 -0.1566  1.3770  0.6897
 5793SOL     OW28840   0.100   3.048   7.862 -0.0865 -0.1950  0.4431
 5793SOL    HW128841   0.048   2.968   7.866 -1.4026  0.5736 -1.1588
 5793SOL    HW228842   0.026   3.108   7.868  0.0194 -0.1121  0.8852
 5794SOL     OW28843   0.444   4.149   5.626 -0.1674 -0.4700  0.0893
 5794SOL    HW128844   0.411   4.237   5.644  1.5430  0.5992 -2.0694
 5794SOL    HW228845   0.482   4.128   5.712  1.5130  1.0408 -0.2827
 5795SOL     OW28846   0.501   2.052   7.796 -0.0699  0.1383  0.4460
 5795SOL    HW128847   0.507   2.086   7.706 -0.4607 -1.7618 -0.3103
 5795SOL    HW228848   0.512   1.966   7.756  0.0126 -0.4116  1.6601
 5796SOL     OW28849   3.536   3.594   3.215 -0.0298  0.1598 -0.4160
 5796SOL    HW128850   3.453   3.575   3.171 -0.6097  0.6628  0.4545
 5796SOL    HW228851   3.497   3.649   3.282 -0.6966 -1.2372  0.3489
 5797SOL     OW28852   3.365   2.916   6.879 -0.3629 -0.3435 -0.2952
 5797SOL    HW128853   3.285   2.897   6.929  0.1721 -0.4733  0.5112
 5797SOL    HW228854   3.410   2.947   6.958  2.3564 -2.1767 -1.1358
 5798SOL     OW28855   2.191   2.347   1.329 -0.0116  0.5534 -0.4615
 5798SOL    HW128856   2.183   2.254   1.308 -2.0561  0.6512 -0.0358
 5798SOL    HW228857   2.127   2.353   1.399  2.0683  1.4575  1.3820
 5799SOL     OW28858   0.836   2.698   5.695 -0.4715 -0.3595  0.1537
 5799SOL    HW128859   0.888   2.621   5.716  0.2724 -0.3720 -1.7850
 5799SOL    HW228860   0.797   2.718   5.780  0.0721 -0.5163  0.4380
 5800SOL     OW28861   0.789   2.003   5.925  0.3381 -0.1925  0.4199
 5800SOL    HW128862   0.736   2.038   5.997 -1.5558 -0.7380 -0.7007
 5800SOL    HW228863   0.872   2.047   5.940  0.5726 -0.2366 -0.7094
 5801SOL     OW28864   4.422   4.292   4.777 -0.0896  0.3288  0.0311
 5801SOL    HW128865   4.348   4.270   4.720  1.0226 -0.2773 -1.1813
 5801SOL    HW228866   4.469   4.209   4.773  0.7333  0.7908  0.1870
 5802SOL     OW28867   1.587   2.180   7.362 -0.5943  0.4223 -0.2528
 5802SOL    HW128868   1.626   2.174   7.275 -0.5781 -0.5235 -0.1716
 5802SOL    HW228869   1.654   2.199   7.428 -0.5631  1.0017 -0.4431
 5803SOL     OW28870   1.242   0.842  15.905  0.0408  0.4427  0.0065
 5803SOL    HW128871   1.280   0.804  15.985 -0.6607 -2.6748 -1.1511
 5803SOL    HW228872   1.211   0.761  15.865 -1.6380  0.6930  0.8029
 5804SOL     OW28873   1.672   2.273  16.005  0.7074  0.0934  0.0968
 5804SOL    HW128874   1.698   2.322  16.083  0.3123  1.7968 -0.8214
 5804SOL    HW228875   1.581   2.247  16.016  0.3257  0.7724 -1.4577
 5805SOL     OW28876   4.576   0.839   3.210  0.3223 -0.0039 -0.3870
 5805SOL    HW128877   4.582   0.904   3.140  0.9611  0.5418  0.1653
 5805SOL    HW228878   4.559   0.887   3.291  2.3552 -2.0654  1.2558
 5806SOL     OW28879   1.333   4.515  11.101  0.5220 -0.3709 -0.8112
 5806SOL    HW128880   1.341   4.575  11.175 -1.9260 -2.9288  1.4947
 5806SOL    HW228881   1.290   4.577  11.041  1.6338  0.5292 -0.6798
 5807SOL     OW28882   0.674   0.933   9.038 -0.4505  0.1731 -0.0291
 5807SOL    HW128883   0.711   1.007   8.991  1.4505 -1.9939 -1.9048
 5807SOL    HW228884   0.655   0.878   8.963 -1.1270 -0.0242  0.2851
 5808SOL     OW28885   4.175   3.801  14.207 -0.2593 -0.0878 -0.0023
 5808SOL    HW128886   4.201   3.871  14.147  1.0765 -0.0731  0.5995
 5808SOL    HW228887   4.120   3.846  14.271  2.1302  3.1497 -0.2687
 5809SOL     OW28888   3.765   4.175  14.622 -0.3914  0.4204 -1.0065
 5809SOL    HW128889   3.781   4.174  14.527  0.2179  0.6205 -0.9074
 5809SOL    HW228890   3.843   4.224  14.649 -1.5131  2.1244 -0.8280
 5810SOL     OW28891   2.927   1.547   4.510  0.0705 -0.8302 -0.0499
 5810SOL    HW128892   2.959   1.561   4.599  3.1685 -0.4223 -1.2019
 5810SOL    HW228893   2.926   1.452   4.513 -0.3446 -0.7869  0.9505
 5811SOL     OW28894   1.460   3.213   6.868  0.7385  0.0575  0.5254
 5811SOL    HW128895   1.497   3.165   6.941  0.9777  3.6948  2.8155
 5811SOL    HW228896   1.491   3.155   6.799 -1.2062 -0.1399 -0.1830
 5812SOL     OW28897   3.409   4.323   8.545 -0.2423 -0.0217 -0.1577
 5812SOL    HW128898   3.338   4.340   8.607  0.9023 -1.1136  1.4540
 5812SOL    HW228899   3.405   4.228   8.546 -0.2403 -0.0045  1.0745
 5813SOL     OW28900   0.865   1.041   4.419 -0.0650 -0.3290 -0.0142
 5813SOL    HW128901   0.834   1.131   4.429 -0.2180 -0.0227 -3.2002
 5813SOL    HW228902   0.783   1.002   4.388  0.8565 -1.5312 -0.9502
 5814SOL     OW28903   0.209   4.273   7.542 -0.3098  0.5642  0.4339
 5814SOL    HW128904   0.143   4.280   7.610 -0.6959 -3.4627  0.4176
 5814SOL    HW228905   0.160   4.232   7.471  0.3720 -0.4958  0.5780
 5815SOL     OW28906   0.956   3.390   6.141  0.3063  0.4344 -0.1051
 5815SOL    HW128907   0.905   3.456   6.188  1.7922  2.4693 -1.4001
 5815SOL    HW228908   1.036   3.403   6.191 -1.0078 -1.3144  2.4735
 5816SOL     OW28909   2.427   4.417   6.576  0.5700 -0.2472 -0.1572
 5816SOL    HW128910   2.503   4.443   6.524 -0.5250 -0.5612 -1.9356
 5816SOL    HW228911   2.358   4.394   6.514  0.4857 -2.3298  0.7311
 5817SOL     OW28912   1.719   4.231   8.249  0.1262  0.1784  0.2640
 5817SOL    HW128913   1.776   4.298   8.211  0.1596 -0.2221 -0.4004
 5817SOL    HW228914   1.708   4.177   8.170  0.0606  0.8220 -0.1630
 5818SOL     OW28915   1.680   1.754  16.037  0.1152 -0.5749  0.6569
 5818SOL    HW128916   1.660   1.668  16.073 -0.9749 -1.0893 -1.1687
 5818SOL    HW228917   1.648   1.749  15.947 -0.2653  1.2126  0.6945
 5819SOL     OW28918   4.036   3.409  12.275 -0.0363 -0.3522 -0.1345
 5819SOL    HW128919   4.082   3.486  12.306  3.3782 -1.3416 -2.8137
 5819SOL    HW228920   3.966   3.453  12.226  0.4991  0.9174  0.2488
 5820SOL     OW28921   0.286   4.398  13.677  0.2684  0.4248  0.2551
 5820SOL    HW128922   0.367   4.404  13.729  0.6271 -2.4279  0.0570
 5820SOL    HW228923   0.220   4.425  13.741  0.4994 -1.0705  1.1310
 5821SOL     OW28924   2.745   4.311   8.410 -0.2082  0.4268 -0.4879
 5821SOL    HW128925   2.772   4.219   8.405  0.2016  0.6672 -2.8516
 5821SOL    HW228926   2.830   4.350   8.390  0.2052 -0.1921  0.0555
 5822SOL     OW28927   0.513   2.582   2.180  0.1075  0.2773 -0.1316
 5822SOL    HW128928   0.496   2.520   2.252  0.5835 -1.6648 -1.6874
 5822SOL    HW228929   0.602   2.553   2.160  0.4971  1.0436  0.5098
 5823SOL     OW28930   1.740   4.392   1.726 -0.3788 -0.1415  0.4535
 5823SOL    HW128931   1.661   4.439   1.698  0.6506  1.9385  1.0236
 5823SOL    HW228932   1.764   4.352   1.643  1.4676  2.3447 -0.2158
 5824SOL     OW28933   4.662   2.696  16.071  0.2175 -0.6497  0.0513
 5824SOL    HW128934   4.663   2.604  16.047 -2.7894 -0.7562  0.3645
 5824SOL    HW228935   0.017   2.734  16.032 -1.0478 -0.1172 -1.9298
 5825SOL     OW28936   2.916   3.692  12.456 -0.2944 -0.3397 -0.3482
 5825SOL    HW128937   2.928   3.597  12.459  1.2956 -0.1094  0.7087
 5825SOL    HW228938   2.898   3.713  12.548  1.7116 -1.5027  0.2926
 5826SOL     OW28939   1.649   3.466   4.576 -0.4174  0.3467 -0.4600
 5826SOL    HW128940   1.643   3.433   4.486  1.4122 -0.3416 -0.3220
 5826SOL    HW228941   1.564   3.461   4.621 -1.9644 -0.5984 -3.5187
 5827SOL     OW28942   1.034   1.425   2.693  0.3738 -0.2196  0.2743
 5827SOL    HW128943   1.082   1.391   2.617  2.5590  3.5946 -0.0986
 5827SOL    HW228944   1.078   1.511   2.698  0.9482 -0.6558  2.4887
 5828SOL     OW28945   4.707   3.850   9.014 -0.1804  0.4301  0.3329
 5828SOL    HW128946   0.059   3.899   9.046 -1.3751  2.2928  0.3163
 5828SOL    HW228947   4.697   3.772   9.068  0.1851 -0.0038 -0.2195
 5829SOL     OW28948   0.651   3.588   8.000  0.0495 -0.1322  0.5276
 5829SOL    HW128949   0.729   3.587   8.055 -0.0475 -0.6748  0.6598
 5829SOL    HW228950   0.663   3.507   7.950  1.5849 -0.4010  1.3633
 5830SOL     OW28951   1.326   2.400   9.080  0.4173 -0.0043 -0.7663
 5830SOL    HW128952   1.378   2.471   9.043 -1.3164  1.8705  0.3701
 5830SOL    HW228953   1.287   2.431   9.162  0.6118  1.7572 -1.3443
 5831SOL     OW28954   4.046   1.040   6.228 -0.0988  0.6450  0.1213
 5831SOL    HW128955   4.050   1.062   6.321  2.8132 -0.5813  0.3006
 5831SOL    HW228956   4.129   0.993   6.223 -1.4763 -1.7943  0.3365
 5832SOL     OW28957   2.103   0.027  10.177  0.3214 -0.3308 -0.1867
 5832SOL    HW128958   2.135   0.117  10.180 -1.1341  0.0904  2.2849
 5832SOL    HW228959   2.099   0.002  10.270 -1.6921 -1.2536 -0.5261
 5833SOL     OW28960   0.380   3.937   5.370 -0.6471  0.0730  0.1709
 5833SOL    HW128961   0.326   4.015   5.359 -2.3030 -1.1560 -0.4364
 5833SOL    HW228962   0.363   3.919   5.462 -0.2358  2.7469  0.7749
 5834SOL     OW28963   4.267   4.160   7.042  0.2078 -0.5712  0.0099
 5834SOL    HW128964   4.280   4.188   7.132 -0.2761 -2.0658  0.5405
 5834SOL    HW228965   4.171   4.159   7.045  0.2624 -0.9580  1.4099
 5835SOL     OW28966   3.980   0.100   6.063 -0.5071  0.6445 -0.4768
 5835SOL    HW128967   4.030   0.063   6.136 -0.1171  0.8810 -0.6201
 5835SOL    HW228968   4.049   0.137   6.007 -0.2898  0.3390 -0.4127
 5836SOL     OW28969   1.966   2.551  15.912 -0.3526 -0.4909 -1.3674
 5836SOL    HW128970   2.060   2.537  15.918 -0.4571  0.3300  2.0088
 5836SOL    HW228971   1.923   2.498  15.980 -0.1783 -0.4142 -1.1988
 5837SOL     OW28972   3.425   4.698  14.880  0.0560  0.4749 -0.0239
 5837SOL    HW128973   3.487   4.715  14.950  1.1856 -0.5386 -0.7902
 5837SOL    HW228974   3.439   0.054  14.828 -1.2840  0.2153 -0.7877
 5838SOL     OW28975   1.647   2.007   2.370  0.2207 -0.2580  0.0747
 5838SOL    HW128976   1.658   2.101   2.356 -0.7661  0.0747  1.5149
 5838SOL    HW228977   1.714   1.963   2.317  0.9045  0.9512 -0.0481
 5839SOL     OW28978   4.423   2.744   6.085  0.1350 -0.0628  0.3898
 5839SOL    HW128979   4.504   2.695   6.073  1.9266  3.1713 -0.7118
 5839SOL    HW228980   4.403   2.774   5.996  2.1635  0.1349 -0.0091
 5840SOL     OW28981   4.338   0.494  14.490 -0.1427 -0.3836  0.0260
 5840SOL    HW128982   4.364   0.554  14.420 -1.2518 -0.9024 -0.8280
 5840SOL    HW228983   4.321   0.559  14.558 -0.6522  0.0542 -0.5169
 5841SOL     OW28984   2.800   0.041   1.876  0.0331  0.2016 -0.4203
 5841SOL    HW128985   2.839   0.014   1.959  1.6559 -0.7833 -1.5088
 5841SOL    HW228986   2.817   0.135   1.875  0.7707  0.0561 -1.4503
 5842SOL     OW28987   0.298   0.114  14.503  0.4872  0.5021  0.3089
 5842SOL    HW128988   0.249   0.171  14.562  2.3540  0.8341  1.5511
 5842SOL    HW228989   0.287   0.159  14.419  0.4302  2.2626  1.2656
 5843SOL     OW28990   3.841   0.722   8.730 -0.4216 -0.0506 -0.1698
 5843SOL    HW128991   3.748   0.731   8.752 -0.2114  0.0673  0.6975
 5843SOL    HW228992   3.845   0.626   8.731 -1.2264 -0.0835 -0.4808
 5844SOL     OW28993   4.234   4.010   6.637  0.2775  0.0107  0.1663
 5844SOL    HW128994   4.224   4.061   6.556 -1.7594 -1.7294 -0.6806
 5844SOL    HW228995   4.261   3.924   6.608  1.1122  0.2043  0.3832
 5845SOL     OW28996   2.670   1.014  17.276  0.5202  0.5563 -0.7108
 5845SOL    HW128997   2.683   1.107  17.295  0.2137  0.2945  0.7913
 5845SOL    HW228998   2.633   1.023  17.188 -2.8972  0.5814  0.7181
 5846SOL     OW28999   2.727   0.656   4.598 -0.7238  0.1140 -0.0246
 5846SOL    HW129000   2.778   0.625   4.523 -0.4848 -3.0296  1.4552
 5846SOL    HW229001   2.654   0.594   4.594 -0.0843 -0.5625 -1.2692
 5847SOL     OW29002   3.485   2.013   4.661 -0.5788 -0.2200  0.2566
 5847SOL    HW129003   3.541   1.963   4.720 -1.6723 -1.2329  0.4557
 5847SOL    HW229004   3.413   2.032   4.721  1.8778  1.7840  2.4782
 5848SOL     OW29005   2.829   1.194  11.412  0.0200 -0.0937  0.2851
 5848SOL    HW129006   2.788   1.118  11.452  1.2833 -0.4555  0.8892
 5848SOL    HW229007   2.857   1.224  11.498  0.3213 -1.2352  0.5741
 5849SOL     OW29008   0.342   1.008   5.234 -0.2467  0.0147 -0.0371
 5849SOL    HW129009   0.306   1.087   5.194 -0.8054 -0.0124  0.4119
 5849SOL    HW229010   0.425   1.043   5.266 -0.1837 -0.8102  0.6921
 5850SOL     OW29011   3.792   4.589   5.016 -0.8891  0.8536 -0.0652
 5850SOL    HW129012   3.759   4.668   5.058  0.7785  2.3917 -1.6899
 5850SOL    HW229013   3.828   4.543   5.092 -2.1074  2.2991  1.3816
 5851SOL     OW29014   0.744   1.428   7.962  0.1815  0.1752  0.6317
 5851SOL    HW129015   0.797   1.366   8.013  0.6016  0.3892  0.4531
 5851SOL    HW229016   0.787   1.437   7.877  0.5651  0.8142  0.8976
 5852SOL     OW29017   4.458   0.229   3.444  0.6633 -0.8764  0.2260
 5852SOL    HW129018   4.414   0.191   3.368  1.1245  0.6948 -0.8312
 5852SOL    HW229019   4.401   0.306   3.446 -0.9011 -1.9792 -1.1984
 5853SOL     OW29020   4.170   3.151  10.142 -0.0555 -0.0632 -0.1298
 5853SOL    HW129021   4.173   3.246  10.152  3.8738 -0.0612 -1.3711
 5853SOL    HW229022   4.126   3.131  10.060  0.9859 -0.7078 -0.5361
 5854SOL     OW29023   2.954   0.536  15.373 -0.4938 -0.0890  0.1899
 5854SOL    HW129024   2.930   0.586  15.451  2.1809  0.6729  0.5028
 5854SOL    HW229025   2.938   0.446  15.402 -0.5386  0.0297  0.5405
 5855SOL     OW29026   1.459   4.698   5.214  0.1690  0.1640 -0.9527
 5855SOL    HW129027   1.371   0.008   5.226  0.9583  2.3915 -1.4988
 5855SOL    HW229028   1.483   4.719   5.124  3.2124 -3.6202 -1.0351
 5856SOL     OW29029   1.245   1.329  10.715 -0.3788  0.3906  0.2809
 5856SOL    HW129030   1.220   1.278  10.792  0.3054  1.9436  1.5451
 5856SOL    HW229031   1.162   1.378  10.707 -2.0367 -2.0569  2.3751
 5857SOL     OW29032   1.324   1.382  11.776  0.1177 -0.4054  0.3948
 5857SOL    HW129033   1.387   1.454  11.776  1.9241 -1.9876 -1.6812
 5857SOL    HW229034   1.313   1.373  11.870 -0.2585 -0.0476  0.3882
 5858SOL     OW29035   2.459   0.438   3.409  0.6695 -0.3608  0.3216
 5858SOL    HW129036   2.528   0.453   3.345 -0.9449 -0.6197 -1.4904
 5858SOL    HW229037   2.418   0.362   3.367 -0.3160  0.4749 -0.2180
 5859SOL     OW29038   1.189   3.231   4.179  0.5796  0.1677 -0.5152
 5859SOL    HW129039   1.216   3.252   4.268  1.4393  2.9526 -1.4411
 5859SOL    HW229040   1.196   3.135   4.185 -0.5070  0.1987  1.0569
 5860SOL     OW29041   3.446   3.948   6.748 -0.0856 -0.1182  0.1001
 5860SOL    HW129042   3.417   3.857   6.761  0.3823 -0.2831 -0.0340
 5860SOL    HW229043   3.389   3.994   6.810 -2.9679 -0.9796 -1.8886
 5861SOL     OW29044   0.533   3.035   9.377 -0.5735  0.1873 -0.1951
 5861SOL    HW129045   0.474   3.051   9.450  1.4221  2.1774  0.9835
 5861SOL    HW229046   0.617   3.060   9.416 -1.0761  0.0185  0.9848
 5862SOL     OW29047   3.817   3.600   9.276 -0.3935 -0.3539  0.5204
 5862SOL    HW129048   3.816   3.657   9.352 -0.7966  0.8471 -0.3792
 5862SOL    HW229049   3.732   3.558   9.292  0.9489 -2.6387  1.5774
 5863SOL     OW29050   2.280   0.506   2.901 -0.6640 -0.2766  0.9178
 5863SOL    HW129051   2.263   0.433   2.960  0.9726  0.3975  2.2156
 5863SOL    HW229052   2.219   0.571   2.934  0.9572  1.1882  1.0263
 5864SOL     OW29053   3.246   4.417  10.232  0.2594 -0.1565 -0.6798
 5864SOL    HW129054   3.159   4.396  10.265  1.0833 -3.8757 -0.8455
 5864SOL    HW229055   3.261   4.506  10.264 -0.3529 -0.5774  0.7643
 5865SOL     OW29056   1.714   3.557   9.696  0.0746  0.8197 -0.4902
 5865SOL    HW129057   1.806   3.555   9.722 -0.3360  0.0478  0.9333
 5865SOL    HW229058   1.709   3.498   9.621 -0.8085  0.5447 -0.2159
 5866SOL     OW29059   2.728   3.420   3.454 -0.5713 -0.0419  0.1379
 5866SOL    HW129060   2.757   3.427   3.545 -0.1658 -0.9002  0.0787
 5866SOL    HW229061   2.667   3.491   3.435  0.2349  1.5908  3.6041
 5867SOL     OW29062   4.349   0.001   0.106  0.0335 -0.1334  0.4522
 5867SOL    HW129063   4.286   4.658   0.079  0.3516 -0.3291  0.1988
 5867SOL    HW229064   4.286   0.071   0.124  1.0016  1.0370 -0.7134
 5868SOL     OW29065   0.963   1.776   1.074 -0.1436 -0.2957  0.0948
 5868SOL    HW129066   1.023   1.707   1.100 -4.3141 -4.1377 -0.5508
 5868SOL    HW229067   0.875   1.749   1.101  0.6720  0.5875  3.5941
 5869SOL     OW29068   3.870   3.203   3.447  0.0967  0.4834  0.2676
 5869SOL    HW129069   3.813   3.146   3.500 -0.9760  0.1229 -1.2950
 5869SOL    HW229070   3.950   3.150   3.452  0.2614  0.7711  0.7026
 5870SOL     OW29071   3.165   1.199   9.328  0.3394 -0.6161  0.0941
 5870SOL    HW129072   3.204   1.260   9.391  0.8219 -1.4737  0.6297
 5870SOL    HW229073   3.208   1.124   9.369 -1.7958 -1.2090  1.2889
 5871SOL     OW29074   1.843   0.100   2.633  0.0322 -0.1113 -0.0286
 5871SOL    HW129075   1.756   0.089   2.671 -0.4627 -0.2794 -1.2166
 5871SOL    HW229076   1.875   0.182   2.671 -0.2378 -0.1410  0.2619
 5872SOL     OW29077   0.400   3.695   8.552 -0.1219  0.7394  0.2107
 5872SOL    HW129078   0.433   3.608   8.573 -1.9169 -0.2685 -1.0712
 5872SOL    HW229079   0.472   3.737   8.506  2.2554 -1.5506  1.8714
 5873SOL     OW29080   3.280   1.536   7.738 -0.1144 -0.0295 -0.3019
 5873SOL    HW129081   3.194   1.531   7.697 -0.5616 -1.9062  0.9095
 5873SOL    HW229082   3.272   1.486   7.819 -0.3678  1.5440  0.6377
 5874SOL     OW29083   1.784   0.292   7.178  0.7751 -0.3669 -0.2600
 5874SOL    HW129084   1.743   0.271   7.262 -1.1032  0.2179 -1.0121
 5874SOL    HW229085   1.873   0.282   7.211  0.3689  1.5230  1.4086
 5875SOL     OW29086   3.203   0.142   5.915  0.7130  0.3619  0.5906
 5875SOL    HW129087   3.158   0.227   5.913 -1.1817 -0.6940 -1.1653
 5875SOL    HW229088   3.190   0.126   6.008 -0.6179  2.3255  0.7329
 5876SOL     OW29089   0.075   3.248   5.650 -0.0700  0.2307  0.1771
 5876SOL    HW129090   0.075   3.152   5.641  0.8662  0.0286  2.4922
 5876SOL    HW229091   0.153   3.262   5.703  1.1018 -0.8148 -1.2681
 5877SOL     OW29092   1.668   3.077   7.655 -0.1065  0.4684 -0.2022
 5877SOL    HW129093   1.689   2.992   7.615 -0.8108  0.1019  0.2187
 5877SOL    HW229094   1.622   3.053   7.735  2.9836  0.1802  1.5205
 5878SOL     OW29095   1.098   2.135   1.287 -0.4322  0.3376 -0.0966
 5878SOL    HW129096   1.004   2.121   1.298  0.0623 -2.1897  0.9979
 5878SOL    HW229097   1.102   2.230   1.289  0.2861  0.3188 -0.7125
 5879SOL     OW29098   1.620   2.314   6.566 -0.3528  0.5459 -0.3872
 5879SOL    HW129099   1.670   2.282   6.491 -0.6047 -0.6573 -0.0474
 5879SOL    HW229100   1.652   2.404   6.576 -0.1838  0.2940  1.3492
 5880SOL     OW29101   3.311   2.023   3.639 -0.1154 -0.1952  0.0266
 5880SOL    HW129102   3.268   2.096   3.595  1.1411  0.0699 -0.7680
 5880SOL    HW229103   3.329   2.072   3.719 -0.0940  0.2577 -0.2516
 5881SOL     OW29104   2.517   4.429   0.194 -0.1667 -0.3299  0.2985
 5881SOL    HW129105   2.502   4.335   0.204  2.4185 -0.7102  0.4630
 5881SOL    HW229106   2.457   4.454   0.265  0.3494  0.3960  0.4804
 5882SOL     OW29107   1.677   1.855   5.874  0.0248  0.1278  0.7833
 5882SOL    HW129108   1.589   1.873   5.841  0.2129  0.0029  0.2150
 5882SOL    HW229109   1.666   1.835   5.967 -0.0942 -2.4614  0.2158
 5883SOL     OW29110   2.976   2.280   9.904 -0.3113  0.1517 -0.0473
 5883SOL    HW129111   3.055   2.268   9.957  0.2623  0.7766 -0.7609
 5883SOL    HW229112   2.916   2.296   9.977  2.3269  2.2332  1.6890
 5884SOL     OW29113   2.760   3.001   5.241 -0.4720 -0.1469  0.3190
 5884SOL    HW129114   2.667   3.024   5.253 -0.1398  0.7420  1.2524
 5884SOL    HW229115   2.781   3.070   5.179 -0.7814  1.1109  1.6069
 5885SOL     OW29116   2.011   4.466   7.001  0.2647  0.2346 -0.4219
 5885SOL    HW129117   2.070   4.399   6.965  0.1782 -1.1718  1.9946
 5885SOL    HW229118   1.985   4.432   7.087  0.7436 -0.3194 -0.4971
 5886SOL     OW29119   4.007   1.859   6.651  0.2687  0.1606  0.4909
 5886SOL    HW129120   4.074   1.798   6.682  1.3449  1.5120  0.8352
 5886SOL    HW229121   4.035   1.935   6.703  0.9963 -0.8155  1.5048
 5887SOL     OW29122   1.082   1.574   2.308 -0.8949  0.0963  0.3832
 5887SOL    HW129123   1.086   1.654   2.361  4.0253 -0.2900  0.6249
 5887SOL    HW229124   1.143   1.588   2.236  1.0704  2.4662  2.4693
 5888SOL     OW29125   2.830   0.602   3.503 -0.2789  0.3880 -0.3222
 5888SOL    HW129126   2.793   0.671   3.558  1.6357 -0.5751  2.1934
 5888SOL    HW229127   2.822   0.534   3.570  1.8327  0.4100 -0.0244
 5889SOL     OW29128   2.128   3.281   8.042 -0.6461 -0.0383  0.0972
 5889SOL    HW129129   2.062   3.313   8.103 -1.3603 -1.5624  0.1300
 5889SOL    HW229130   2.080   3.277   7.959 -0.7852  0.8668  0.1384
 5890SOL     OW29131   4.630   2.860   7.992  0.0158 -0.6033 -0.4447
 5890SOL    HW129132   4.596   2.775   8.020 -0.4659 -0.4788 -0.6540
 5890SOL    HW229133   4.707   2.829   7.944 -0.2316 -1.3841 -0.3296
 5891SOL     OW29134   1.409   1.933  11.662 -0.6195 -0.1825 -0.7626
 5891SOL    HW129135   1.461   1.911  11.739 -0.8723 -0.6384 -0.7252
 5891SOL    HW229136   1.421   2.028  11.665  2.6446 -0.5979 -0.3853
 5892SOL     OW29137   1.831   4.079   5.167  0.6753  0.2109 -0.3799
 5892SOL    HW129138   1.738   4.095   5.151  1.0240  0.7324 -1.9187
 5892SOL    HW229139   1.870   4.093   5.080  1.6143  0.4002  0.0667
 5893SOL     OW29140   1.381   3.772   5.094 -0.0886  1.0469 -1.0056
 5893SOL    HW129141   1.425   3.697   5.134  1.8062  2.1402 -1.0191
 5893SOL    HW229142   1.307   3.777   5.155 -0.1410  0.4120 -1.0260
 5894SOL     OW29143   3.451   3.410   7.506 -0.2723  0.3233  0.3027
 5894SOL    HW129144   3.519   3.365   7.556 -1.5115 -0.8148  0.9871
 5894SOL    HW229145   3.490   3.417   7.419  0.6274  1.1816  0.7833
 5895SOL     OW29146   0.905   1.009   5.784 -0.3163 -0.4941 -0.0067
 5895SOL    HW129147   0.903   1.019   5.688 -1.0110  2.8999  0.3726
 5895SOL    HW229148   0.915   1.102   5.805  0.0735 -0.7095  0.7292
 5896SOL     OW29149   3.658   4.113   7.857 -0.1043  0.1577  0.4931
 5896SOL    HW129150   3.703   4.154   7.783  1.2540  0.1750  1.3306
 5896SOL    HW229151   3.586   4.175   7.871  0.7510  1.1895  0.3283
 5897SOL     OW29152   4.711   4.352  13.610  1.1998  0.3296 -0.1114
 5897SOL    HW129153   0.080   4.364  13.588  1.6042 -1.9967  0.2740
 5897SOL    HW229154   4.711   4.259  13.634  1.6405  0.1045 -0.9701
 5898SOL     OW29155   0.166   4.312  15.928  0.2847 -0.1218  0.6399
 5898SOL    HW129156   0.127   4.337  15.845  1.2336 -0.9270 -0.0427
 5898SOL    HW229157   0.139   4.220  15.934 -1.9086  0.6442  2.5057
 5899SOL     OW29158   0.448   0.487   6.793  0.3192 -0.1290 -0.2486
 5899SOL    HW129159   0.489   0.542   6.727  1.2258 -0.0042  0.4119
 5899SOL    HW229160   0.357   0.500   6.766  0.3579 -1.0078 -0.8088
 5900SOL     OW29161   0.366   4.241   3.866 -0.0156  0.5738  0.0959
 5900SOL    HW129162   0.340   4.293   3.942 -2.2058 -1.2979  0.6292
 5900SOL    HW229163   0.298   4.256   3.799  1.2232  1.4962 -0.9539
 5901SOL     OW29164   4.256   0.728   0.113  0.5200  0.1521 -0.1520
 5901SOL    HW129165   4.320   0.730   0.043 -2.2743  0.8820 -2.6747
 5901SOL    HW229166   4.312   0.755   0.185  0.8745 -0.4817 -0.1875
 5902SOL     OW29167   4.260   3.315   7.811  0.2588  0.3118  0.5299
 5902SOL    HW129168   4.225   3.337   7.725 -0.1021  1.3027  0.9283
 5902SOL    HW229169   4.211   3.376   7.866 -0.2518 -1.4187  1.9624
 5903SOL     OW29170   3.899   1.008  15.965  0.5316  0.6140  0.1226
 5903SOL    HW129171   3.936   1.071  15.904 -2.4064  1.0880 -1.1843
 5903SOL    HW229172   3.920   0.928  15.918 -0.3844  1.1406 -1.1952
 5904SOL     OW29173   2.285   1.373   8.866  0.0083  0.0697 -0.0970
 5904SOL    HW129174   2.191   1.384   8.879  0.7793  4.3683  1.6049
 5904SOL    HW229175   2.303   1.467   8.862  0.8253 -0.0801 -0.0700
 5905SOL     OW29176   3.029   3.766   6.046  0.4465  0.7018 -0.1076
 5905SOL    HW129177   3.090   3.803   5.982  1.1818  1.7858  1.2396
 5905SOL    HW229178   2.941   3.774   6.009 -0.1178 -0.0412  1.0859
 5906SOL     OW29179   3.468   1.302  17.486  0.2602  0.2330  0.0003
 5906SOL    HW129180   3.474   1.218  17.441 -2.1737 -0.0748  0.2311
 5906SOL    HW229181   3.521   1.348  17.420 -0.4694  0.4061 -0.4708
 5907SOL     OW29182   3.106   0.528   3.058 -0.3017  0.5387  0.2060
 5907SOL    HW129183   3.062   0.549   3.140 -1.9953 -1.6949 -0.1266
 5907SOL    HW229184   3.047   0.464   3.018 -1.1003  0.0762  2.1153
 5908SOL     OW29185   4.297   0.065   3.276  0.0282 -0.1807  0.1535
 5908SOL    HW129186   4.306   0.052   3.182 -3.2137 -0.3503 -0.1370
 5908SOL    HW229187   4.230   0.132   3.266 -0.9396 -1.2115 -0.1926
 5909SOL     OW29188   3.418   3.293   3.486 -0.4349 -0.0567 -1.0228
 5909SOL    HW129189   3.466   3.251   3.414 -0.5170 -1.7055 -0.1100
 5909SOL    HW229190   3.364   3.218   3.509 -0.6592  0.9376  1.7347
 5910SOL     OW29191   3.661   0.988   5.383 -0.1222  0.4965 -0.0557
 5910SOL    HW129192   3.662   0.957   5.473 -1.0824  2.4672  0.6368
 5910SOL    HW229193   3.748   1.025   5.367 -0.1274  0.7555  0.5353
 5911SOL     OW29194   2.923   0.796   1.144  0.2787  0.3680  0.7230
 5911SOL    HW129195   2.930   0.754   1.059 -0.4557  1.2687  0.2194
 5911SOL    HW229196   3.002   0.849   1.137 -0.7486  1.6606 -0.8886
 5912SOL     OW29197   4.145   1.025   2.632  0.0930  0.0601 -0.4401
 5912SOL    HW129198   4.058   0.989   2.615  0.3046 -0.6655 -0.0322
 5912SOL    HW229199   4.114   1.115   2.640  2.3266  0.9634 -1.9211
 5913SOL     OW29200   0.555   1.236   0.772  0.2401  0.2851 -0.1819
 5913SOL    HW129201   0.512   1.154   0.795 -3.1878  1.0639 -3.6238
 5913SOL    HW229202   0.533   1.237   0.679  2.3600  1.3443 -0.6517
 5914SOL     OW29203   3.378   0.701   5.956  0.4215 -0.2748  0.4888
 5914SOL    HW129204   3.452   0.729   5.901  0.3542  1.0047  1.0779
 5914SOL    HW229205   3.410   0.724   6.043  0.0793 -1.2744  0.8839
 5915SOL     OW29206   4.225   0.063   4.928 -0.1499 -0.2067  0.1182
 5915SOL    HW129207   4.163   0.020   4.869  1.6076 -1.5437 -0.7871
 5915SOL    HW229208   4.174   0.105   4.998 -0.8368 -1.6436  0.4760
 5916SOL     OW29209   3.169   0.447   9.177 -0.2984  0.1101  0.6964
 5916SOL    HW129210   3.258   0.461   9.147 -1.0343  1.7747 -0.7110
 5916SOL    HW229211   3.151   0.539   9.196 -0.7231 -0.2769  2.2193
 5917SOL     OW29212   1.707   1.287   7.881 -0.2806  0.3464 -0.6665
 5917SOL    HW129213   1.779   1.331   7.927  0.1448 -1.0232 -0.0508
 5917SOL    HW229214   1.626   1.302   7.929 -0.9203  1.3188 -2.0332
 5918SOL     OW29215   3.097   4.081   8.653  0.4805 -0.1106  0.8266
 5918SOL    HW129216   3.007   4.108   8.672 -0.6384 -1.4065 -2.5957
 5918SOL    HW229217   3.096   3.991   8.687  0.2710 -0.8985 -1.2562
 5919SOL     OW29218   4.395   3.891  13.984 -0.1182  0.7037  0.6025
 5919SOL    HW129219   4.435   3.897  13.897 -2.2811 -0.4457 -0.4766
 5919SOL    HW229220   4.366   3.800  13.977  1.5381  0.2367 -0.1835
 5920SOL     OW29221   2.667   2.244   4.179  0.1656 -0.4492  0.1738
 5920SOL    HW129222   2.637   2.334   4.165  0.7695 -0.4391 -1.0492
 5920SOL    HW229223   2.753   2.251   4.139  0.2980 -1.1630  0.3302
 5921SOL     OW29224   4.278   2.223   8.206  0.1469  0.6669 -0.4417
 5921SOL    HW129225   4.245   2.146   8.252  0.3231  0.8509 -0.0078
 5921SOL    HW229226   4.303   2.275   8.283 -0.7394 -0.3184  0.5084
 5922SOL     OW29227   4.450   0.903   0.884 -0.0980 -0.0317  0.1193
 5922SOL    HW129228   4.424   0.988   0.919 -1.9992 -0.6641  0.2822
 5922SOL    HW229229   4.541   0.922   0.861 -0.5617  0.5938 -1.1791
 5923SOL     OW29230   4.472   0.252   2.048  0.2516  0.0349  0.5237
 5923SOL    HW129231   4.462   0.237   1.954  2.2844 -0.4980  0.3801
 5923SOL    HW229232   4.554   0.203   2.061 -0.4625 -0.6109  2.5333
 5924SOL     OW29233   1.857   0.513   4.928  0.1247 -0.0248  0.1089
 5924SOL    HW129234   1.876   0.489   5.019  1.5768  0.9043  0.0477
 5924SOL    HW229235   1.919   0.586   4.926  1.6305 -1.3387 -0.2215
 5925SOL     OW29236   0.478   0.361   7.082 -0.0406 -0.1548  0.0817
 5925SOL    HW129237   0.398   0.361   7.134 -0.3799  4.6754 -0.4173
 5925SOL    HW229238   0.464   0.295   7.014  1.1083 -0.9858  0.6574
 5926SOL     OW29239   2.445   0.714  12.684  0.1911  1.0412  0.3807
 5926SOL    HW129240   2.518   0.686  12.630  1.7885 -0.7399  3.4674
 5926SOL    HW229241   2.374   0.649  12.679  0.8787  0.2817  0.6046
 5927SOL     OW29242   3.194   4.291   9.137 -0.0181 -0.5748  0.1189
 5927SOL    HW129243   3.262   4.255   9.080  0.7591  0.7649  0.1947
 5927SOL    HW229244   3.191   4.381   9.107 -1.3853 -0.3765  0.8257
 5928SOL     OW29245   1.177   2.680   1.093  0.0588  0.6905 -0.7255
 5928SOL    HW129246   1.166   2.720   1.179  0.5666  1.0476 -0.8317
 5928SOL    HW229247   1.244   2.617   1.119 -2.5296 -0.5350  2.8593
 5929SOL     OW29248   2.832   1.618   0.740  0.8206 -0.2274  0.4287
 5929SOL    HW129249   2.801   1.705   0.765  0.4078  0.2162 -1.6249
 5929SOL    HW229250   2.915   1.610   0.786  1.2832  1.3873 -0.1290
 5930SOL     OW29251   0.706   0.312   6.286  0.4120  0.4256 -0.4776
 5930SOL    HW129252   0.799   0.328   6.267  1.2473 -2.3061  1.2051
 5930SOL    HW229253   0.659   0.394   6.271  1.1211  1.0117  0.5655
 5931SOL     OW29254   0.994   2.795  13.574  0.1199 -0.6330 -0.2433
 5931SOL    HW129255   0.906   2.825  13.549 -0.2088 -0.4517  1.1243
 5931SOL    HW229256   1.012   2.851  13.649 -0.1882  2.0557 -2.1829
 5932SOL     OW29257   0.854   2.644   6.503 -0.0991  0.0432 -0.3862
 5932SOL    HW129258   0.875   2.552   6.516 -2.4753 -0.3733  0.5862
 5932SOL    HW229259   0.768   2.619   6.468 -0.7327  0.0708  1.1404
 5933SOL     OW29260   1.024   2.697  10.328  0.6073  0.2790 -0.1239
 5933SOL    HW129261   1.079   2.717  10.403  1.3864 -0.6293 -0.4526
 5933SOL    HW229262   0.965   2.772  10.327  2.8286  2.0569  0.9359
 5934SOL     OW29263   2.188   2.799   7.661 -0.1367  1.0917  0.1394
 5934SOL    HW129264   2.187   2.843   7.746  2.0825 -0.2560  0.8411
 5934SOL    HW229265   2.279   2.773   7.665 -0.5284 -0.2768 -0.0067
 5935SOL     OW29266   0.691   2.360   2.580 -0.2001  0.0432  0.0137
 5935SOL    HW129267   0.729   2.273   2.596  2.1570  1.0020 -0.3674
 5935SOL    HW229268   0.615   2.358   2.639 -0.1751 -2.0981 -0.0116
 5936SOL     OW29269   3.181   1.228   6.335  0.7115 -0.9963 -0.3105
 5936SOL    HW129270   3.266   1.258   6.366  0.3490 -0.1159 -0.1713
 5936SOL    HW229271   3.146   1.297   6.279  0.8683 -0.6622  0.0022
 5937SOL     OW29272   1.902   0.766   8.269  0.1048 -0.2628  0.6504
 5937SOL    HW129273   1.967   0.696   8.280 -2.0197 -2.2492  0.5505
 5937SOL    HW229274   1.822   0.730   8.307 -0.9997  0.2961 -1.1634
 5938SOL     OW29275   0.840   3.773   8.937 -0.3646 -0.1632 -0.3085
 5938SOL    HW129276   0.763   3.798   8.885 -1.3068  3.4735  2.9022
 5938SOL    HW229277   0.801   3.739   9.017 -0.7132 -0.8260 -0.7524
 5939SOL     OW29278   2.250   4.552   0.919  0.6311  0.2264 -0.3721
 5939SOL    HW129279   2.238   4.641   0.952 -0.4819  0.1536 -0.5804
 5939SOL    HW229280   2.334   4.536   0.961 -0.8407  0.1831  2.5542
 5940SOL     OW29281   1.898   1.406   1.704  0.0129  0.2165 -0.1477
 5940SOL    HW129282   1.979   1.435   1.660  1.6010 -0.0716  2.5788
 5940SOL    HW229283   1.858   1.380   1.621  1.2190 -2.5764  0.1430
 5941SOL     OW29284   4.680   4.046   6.787 -0.4584  0.9724 -0.4486
 5941SOL    HW129285   0.000   4.096   6.718  1.1274  0.2051  0.0007
 5941SOL    HW229286   4.595   4.090   6.789 -0.3717  1.0521  1.6671
 5942SOL     OW29287   2.639   0.210   7.309 -0.3367 -0.3589  0.0793
 5942SOL    HW129288   2.669   0.120   7.320  1.9839  0.2445 -1.3964
 5942SOL    HW229289   2.601   0.208   7.221 -1.3323 -2.5042  0.5544
 5943SOL     OW29290   2.330   2.792   4.305  0.0848  0.5181  0.3924
 5943SOL    HW129291   2.364   2.881   4.308  0.7522  0.3354 -1.8668
 5943SOL    HW229292   2.384   2.758   4.377 -0.3246  0.1862  0.5453
 5944SOL     OW29293   2.883   3.829   4.432 -0.3570  0.1234 -0.3525
 5944SOL    HW129294   2.800   3.813   4.475  0.1158  2.9029  1.6247
 5944SOL    HW229295   2.936   3.749   4.439  0.1333  0.2855 -2.0302
 5945SOL     OW29296   3.883   0.404  10.755 -0.3875 -0.5254 -0.0661
 5945SOL    HW129297   3.801   0.422  10.801  1.0065  1.3674  1.6715
 5945SOL    HW229298   3.880   0.471  10.687 -1.8145 -1.7200 -1.1892
 5946SOL     OW29299   2.281   2.998   2.763 -0.1401 -0.0630 -0.3650
 5946SOL    HW129300   2.258   2.973   2.853 -4.3187 -0.7334 -1.6220
 5946SOL    HW229301   2.194   3.022   2.731  0.0523  1.1934  0.0519
 5947SOL     OW29302   0.079   3.583  14.334  0.1099  0.0313  0.6198
 5947SOL    HW129303   4.708   3.585  14.347  0.1164 -0.2929  0.7147
 5947SOL    HW229304   0.088   3.496  14.296  0.8781  0.5027 -0.2970
 5948SOL     OW29305   1.663   4.556  16.894  0.0273 -1.0281 -0.3955
 5948SOL    HW129306   1.755   4.548  16.870  0.4552  1.6728  0.2762
 5948SOL    HW229307   1.636   4.465  16.887  0.0143 -0.9012 -2.0012
 5949SOL     OW29308   0.756   0.871   6.401 -0.4352 -0.1019 -0.1475
 5949SOL    HW129309   0.722   0.854   6.314 -3.4432 -0.5656  1.1035
 5949SOL    HW229310   0.844   0.836   6.392 -0.4316 -0.0841 -0.1786
 5950SOL     OW29311   1.832   4.424   5.125  0.6416 -0.0817 -0.2335
 5950SOL    HW129312   1.905   4.377   5.167 -0.3133  1.0157  2.6270
 5950SOL    HW229313   1.757   4.367   5.141  0.9083  0.0382  1.4281
 5951SOL     OW29314   0.447   0.144  11.994 -0.1711  0.2897 -0.1111
 5951SOL    HW129315   0.416   0.060  11.961  2.6541 -0.5853 -0.5422
 5951SOL    HW229316   0.446   0.140  12.090 -2.1077 -0.2500 -0.1507
 5952SOL     OW29317   1.283   2.878   6.347  0.6475 -0.1236 -0.1355
 5952SOL    HW129318   1.357   2.866   6.408  1.3296  1.1777 -0.7073
 5952SOL    HW229319   1.221   2.922   6.405  0.7503  0.8991 -0.7989
 5953SOL     OW29320   0.308   0.137   9.581  0.2032 -0.2708  0.1560
 5953SOL    HW129321   0.370   0.170   9.646 -0.4511 -0.1115  0.7025
 5953SOL    HW229322   0.358   0.173   9.509 -0.7763 -1.5866 -1.1822
 5954SOL     OW29323   1.099   3.751  13.916  0.8814 -0.2437  0.3006
 5954SOL    HW129324   1.032   3.819  13.911  2.9253  1.7435  0.0167
 5954SOL    HW229325   1.103   3.739  14.011 -0.2988  2.6666  0.7328
 5955SOL     OW29326   3.050   2.959  16.955 -0.5964 -0.3237 -0.1066
 5955SOL    HW129327   3.132   2.918  16.983 -0.8750 -0.2166  0.8600
 5955SOL    HW229328   2.998   2.894  16.909 -2.1138 -1.5056  3.2380
 5956SOL     OW29329   4.319   2.714   8.648  0.1158 -0.1081 -0.1566
 5956SOL    HW129330   4.369   2.792   8.671  0.2259 -0.0652 -0.5367
 5956SOL    HW229331   4.371   2.698   8.569  0.2250 -1.9019  0.2861
 5957SOL     OW29332   3.023   2.854   3.933 -0.1703  0.2971 -0.0080
 5957SOL    HW129333   3.044   2.771   3.891  0.3972  1.1659 -1.4378
 5957SOL    HW229334   2.972   2.900   3.866 -1.5293  1.2230  1.6642
 5958SOL     OW29335   0.689   1.490   6.200  0.1395 -0.4469  0.1459
 5958SOL    HW129336   0.683   1.396   6.216  0.2734 -0.2415  1.3837
 5958SOL    HW229337   0.722   1.519   6.285  0.2438  1.5821 -0.5793
 5959SOL     OW29338   3.648   3.004   3.522  0.5106  0.2709  0.5441
 5959SOL    HW129339   3.688   2.922   3.551  0.0369 -0.1685 -0.0687
 5959SOL    HW229340   3.580   3.024   3.586 -1.7134 -1.0078 -1.4242
 5960SOL     OW29341   4.107   1.561  11.124 -0.1328 -0.2587 -0.3457
 5960SOL    HW129342   4.098   1.471  11.157 -2.3238 -0.1317 -0.5937
 5960SOL    HW229343   4.110   1.533  11.032 -1.1627 -1.1609 -0.1083
 5961SOL     OW29344   4.473   2.172   8.876  0.4809 -0.6302  0.2537
 5961SOL    HW129345   4.443   2.106   8.939 -1.5728 -1.0934 -1.2216
 5961SOL    HW229346   4.419   2.241   8.915  0.3153  0.2561 -1.5469
 5962SOL     OW29347   4.425   1.062   4.465  0.5359 -0.2984 -0.0269
 5962SOL    HW129348   4.390   1.118   4.396  2.1772  1.4546  0.5549
 5962SOL    HW229349   4.501   1.022   4.422  1.6596  0.4619  1.2526
 5963SOL     OW29350   1.293   2.716   9.721 -0.7865  0.4267 -0.1085
 5963SOL    HW129351   1.294   2.657   9.796  0.9193  0.2964 -0.2181
 5963SOL    HW229352   1.347   2.783   9.764 -0.4527 -0.3516  0.6646
 5964SOL     OW29353   3.656   2.521   4.209  0.2740  0.2051  0.1216
 5964SOL    HW129354   3.713   2.451   4.177  1.1854 -0.6926  3.6763
 5964SOL    HW229355   3.648   2.501   4.302  1.8842  0.3691  0.3002
 5965SOL     OW29356   4.622   1.098   5.508  0.3048  0.0990  0.2335
 5965SOL    HW129357   4.651   1.043   5.435  2.0119 -0.1325  1.0921
 5965SOL    HW229358   4.593   1.033   5.571  1.5488  0.3602  1.0772
 5966SOL     OW29359   0.673   4.634   8.993  0.2496 -0.0612 -0.2635
 5966SOL    HW129360   0.761   4.614   9.025  0.3720  1.5287  0.4141
 5966SOL    HW229361   0.627   4.654   9.074  0.6218  0.5896 -0.2041
 5967SOL     OW29362   3.428   2.955   3.127 -0.1106 -0.3202  0.2420
 5967SOL    HW129363   3.516   2.961   3.165 -0.9150  1.4044  1.8291
 5967SOL    HW229364   3.427   2.865   3.095 -2.2098  0.5472 -2.1753
 5968SOL     OW29365   1.178   3.756   5.264  0.1517  0.0950 -0.5300
 5968SOL    HW129366   1.083   3.765   5.272  0.0129 -2.1760  0.4668
 5968SOL    HW229367   1.191   3.679   5.320 -2.1504 -1.1141 -1.6484
 5969SOL     OW29368   1.758   0.213   0.197  0.6019  0.1958  0.1774
 5969SOL    HW129369   1.726   0.271   0.265 -1.3635  0.3533 -0.8619
 5969SOL    HW229370   1.705   0.133   0.195  0.0749  0.5600 -0.7810
 5970SOL     OW29371   4.567   3.287   6.906 -0.5398 -0.0314 -0.6564
 5970SOL    HW129372   4.656   3.321   6.912 -0.4609 -0.6622  1.6936
 5970SOL    HW229373   4.538   3.293   6.815 -1.7068 -3.0789 -0.4824
 5971SOL     OW29374   2.045   4.279  15.899  0.1054 -0.0488 -0.4681
 5971SOL    HW129375   2.094   4.355  15.930  1.3391 -1.0023 -0.0534
 5971SOL    HW229376   1.971   4.281  15.960 -0.0410  1.6817 -0.7140
 5972SOL     OW29377   4.620   0.950  15.226  0.1993  0.2692  0.4907
 5972SOL    HW129378   4.635   0.858  15.246  0.5912  0.0005 -1.0467
 5972SOL    HW229379   4.534   0.945  15.183  1.1894  1.7057 -1.6524
 5973SOL     OW29380   0.175   3.639   9.789 -0.2024 -0.2545  0.9129
 5973SOL    HW129381   0.160   3.691   9.868 -1.7791 -0.1804  0.5518
 5973SOL    HW229382   0.237   3.700   9.748 -0.4131 -0.5962  0.0965
 5974SOL     OW29383   2.337   3.502   3.705 -0.7492  0.6762 -0.5522
 5974SOL    HW129384   2.331   3.578   3.646 -0.8764  0.8818 -0.2738
 5974SOL    HW229385   2.320   3.533   3.794 -1.3028 -0.5688 -0.2397
 5975SOL     OW29386   4.217   3.951   4.848  0.2005  0.2121  0.4480
 5975SOL    HW129387   4.248   3.979   4.762  1.5825 -0.7021  0.6551
 5975SOL    HW229388   4.239   4.029   4.899  1.8783 -0.5043  0.8193
 5976SOL     OW29389   0.548   0.437   4.393 -0.3622  0.1741  0.3316
 5976SOL    HW129390   0.491   0.370   4.354 -1.1247 -0.1212  1.9302
 5976SOL    HW229391   0.627   0.393   4.424 -0.3363 -1.2485 -1.7553
 5977SOL     OW29392   4.590   2.210   8.609 -0.0093 -0.1452  0.5661
 5977SOL    HW129393   4.519   2.219   8.545  1.1199 -2.0211 -0.9473
 5977SOL    HW229394   4.538   2.208   8.690 -0.4213 -3.1560  0.2562
 5978SOL     OW29395   4.288   1.999   2.454  0.0908 -0.5188 -0.8538
 5978SOL    HW129396   4.362   1.950   2.418  0.3242  0.1297 -1.2627
 5978SOL    HW229397   4.311   2.003   2.547 -0.4912 -2.5773 -0.6235
 5979SOL     OW29398   3.789   0.930   9.413  0.2264 -0.0812 -0.0052
 5979SOL    HW129399   3.844   0.949   9.336  0.7036  1.4061  0.6905
 5979SOL    HW229400   3.727   0.863   9.385  0.4176 -1.1934  2.2318
 5980SOL     OW29401   1.222   1.473   1.443 -0.2207  0.2768 -0.1845
 5980SOL    HW129402   1.244   1.566   1.438  0.7790 -0.0653 -2.1537
 5980SOL    HW229403   1.290   1.425   1.395  1.0864  1.5762  0.3690
 5981SOL     OW29404   1.257   3.790   3.731  0.1298  0.5197  0.0348
 5981SOL    HW129405   1.321   3.795   3.660 -0.1048 -0.1513 -0.2186
 5981SOL    HW229406   1.291   3.715   3.779 -2.4725 -0.1790  0.7861
 5982SOL     OW29407   4.502   0.701   7.011  1.1285 -0.2397 -0.4347
 5982SOL    HW129408   4.562   0.718   6.938  0.9427 -1.9217 -0.9546
 5982SOL    HW229409   4.422   0.682   6.963 -0.0628  0.1348  1.3795
 5983SOL     OW29410   2.137   3.754   8.030  0.2283  0.2961 -0.2299
 5983SOL    HW129411   2.115   3.662   8.048  0.4831  0.0617 -1.1318
 5983SOL    HW229412   2.075   3.794   7.970 -0.5122 -1.5899 -0.7167
 5984SOL     OW29413   1.601   4.702  10.390  0.1500 -0.0281 -0.2986
 5984SOL    HW129414   1.630   0.052  10.443 -3.0345  2.7589 -2.4636
 5984SOL    HW229415   1.536   4.660  10.447  0.5344  0.7397  0.7021
 5985SOL     OW29416   1.736   0.983   7.496  0.1901  0.0071  0.0851
 5985SOL    HW129417   1.777   1.062   7.460  1.8075 -0.1797  1.4854
 5985SOL    HW229418   1.719   1.007   7.587  2.6986  2.3019 -0.0360
 5986SOL     OW29419   1.530   3.902   7.799  0.0133 -0.3262 -0.0777
 5986SOL    HW129420   1.515   3.994   7.820  3.7046 -0.2604  2.1684
 5986SOL    HW229421   1.573   3.896   7.713  2.7187  0.8391  1.2196
 5987SOL     OW29422   3.057   2.186   7.540 -0.1370 -0.2800 -0.4624
 5987SOL    HW129423   3.072   2.277   7.514 -0.7638  0.1205  0.5974
 5987SOL    HW229424   2.962   2.176   7.526 -0.4486  0.9718  0.8675
 5988SOL     OW29425   4.293   3.051  10.762 -0.2123  0.6681 -0.3376
 5988SOL    HW129426   4.224   3.018  10.704 -0.4850 -0.5394  0.6753
 5988SOL    HW229427   4.367   2.994  10.741 -2.1891 -2.0798  0.0834
 5989SOL     OW29428   4.318   0.324   1.306 -0.1765 -0.1445  0.7883
 5989SOL    HW129429   4.411   0.345   1.302 -0.4083  0.9907  1.3798
 5989SOL    HW229430   4.325   0.249   1.364  2.9403  0.5698  1.3218
 5990SOL     OW29431   4.372   2.421   4.133 -0.1837  0.3875 -0.0306
 5990SOL    HW129432   4.428   2.423   4.211  1.3258  1.3416 -1.1238
 5990SOL    HW229433   4.417   2.364   4.071 -0.3624  1.0441 -0.7623
 5991SOL     OW29434   1.629   4.047  16.726 -0.1547  0.6517 -0.1086
 5991SOL    HW129435   1.602   4.138  16.742 -0.7268  0.3336  0.7358
 5991SOL    HW229436   1.696   4.041  16.793  0.0841 -1.0902 -0.5004
 5992SOL     OW29437   2.886   4.453  12.378  0.4058 -1.1184 -0.4420
 5992SOL    HW129438   2.831   4.375  12.372  0.9445 -1.5066 -0.3492
 5992SOL    HW229439   2.912   4.459  12.470 -3.0169 -2.8440  0.6489
 5993SOL     OW29440   4.521   3.007  10.529  0.3728 -0.2873 -0.5644
 5993SOL    HW129441   4.595   2.955  10.499  2.0417  1.1568  1.0978
 5993SOL    HW229442   4.457   2.936  10.539 -0.9631  0.9109 -0.5180
 5994SOL     OW29443   0.158   0.831  13.237 -0.3431 -0.3385 -0.8636
 5994SOL    HW129444   0.093   0.898  13.258  0.1858  0.8145 -2.8391
 5994SOL    HW229445   0.229   0.858  13.295 -0.6969  0.3152 -0.7321
 5995SOL     OW29446   1.016   0.355  10.542  0.2048  0.2838  0.2492
 5995SOL    HW129447   0.934   0.384  10.583 -0.3447 -0.4623 -0.3024
 5995SOL    HW229448   1.051   0.301  10.613 -0.0056  0.0372  0.1686
 5996SOL     OW29449   0.723   3.742   7.063  0.1122 -0.1059  0.0458
 5996SOL    HW129450   0.777   3.723   6.987 -0.3698 -1.8090  0.1394
 5996SOL    HW229451   0.782   3.724   7.136  1.8072  2.3817 -0.7125
 5997SOL     OW29452   1.023   1.395   4.743 -0.6014 -0.0758  0.0872
 5997SOL    HW129453   1.067   1.336   4.804 -0.9470 -0.1247  0.2943
 5997SOL    HW229454   1.024   1.341   4.664  0.8836  0.0971 -0.0009
 5998SOL     OW29455   0.637   4.497   2.289 -0.7791  0.5939  0.0018
 5998SOL    HW129456   0.663   4.563   2.224  1.0688 -0.0192  0.1385
 5998SOL    HW229457   0.560   4.455   2.252 -0.1506  0.3245 -1.0101
 5999SOL     OW29458   4.005   3.022   2.826 -0.2306 -0.3969  0.6321
 5999SOL    HW129459   3.920   2.999   2.864 -0.6220 -1.0814 -0.6368
 5999SOL    HW229460   4.023   2.951   2.764 -1.5195 -1.2766  1.2633
 6000SOL     OW29461   1.266   1.050  14.544 -0.2551 -0.1784 -0.2122
 6000SOL    HW129462   1.251   1.141  14.570  2.9382  0.8133 -1.8043
 6000SOL    HW229463   1.351   1.030  14.583  0.7435  2.8112 -0.8619
 6001SOL     OW29464   2.640   3.180  17.158  0.4933 -0.0924 -0.0333
 6001SOL    HW129465   2.682   3.123  17.093  0.5745  0.5844 -0.5751
 6001SOL    HW229466   2.584   3.240  17.109  0.8356  0.5362  0.3502
 6002SOL     OW29467   2.931   0.940  15.068 -0.2759 -0.0163  0.3877
 6002SOL    HW129468   2.867   1.011  15.068  3.3282  3.2243  0.2566
 6002SOL    HW229469   2.979   0.964  14.989 -1.7863  0.0023 -0.5215
 6003SOL     OW29470   0.763   3.390   6.933 -0.1655  0.4613  0.0721
 6003SOL    HW129471   0.792   3.302   6.957  1.6791  1.3820  1.2815
 6003SOL    HW229472   0.800   3.437   7.008  1.3796 -1.2859  0.4045
 6004SOL     OW29473   3.316   1.797   7.327  0.5033 -0.0026 -0.5025
 6004SOL    HW129474   3.254   1.730   7.300  0.8630 -0.3751 -0.4092
 6004SOL    HW229475   3.396   1.770   7.282 -0.2415 -1.7368 -0.7945
 6005SOL     OW29476   3.717   3.175   0.455  1.3036  0.4733  0.1236
 6005SOL    HW129477   3.680   3.111   0.394  3.2785  0.1501 -0.7286
 6005SOL    HW229478   3.741   3.112   0.523 -1.0834 -0.6974 -0.1160
 6006SOL     OW29479   2.394   2.750   4.758  0.1924 -0.2984  0.3422
 6006SOL    HW129480   2.398   2.839   4.723 -0.8982 -0.0655  0.8087
 6006SOL    HW229481   2.403   2.712   4.671 -0.4038  1.6208 -0.5658
 6007SOL     OW29482   0.762   2.741   1.310  0.2493 -0.2170 -0.3765
 6007SOL    HW129483   0.717   2.728   1.227 -2.6431 -1.2906  1.3654
 6007SOL    HW229484   0.793   2.653   1.332  0.6419 -0.0100 -0.0972
 6008SOL     OW29485   2.936   2.135   3.011  0.1402  0.6412  0.0667
 6008SOL    HW129486   2.861   2.076   3.010 -0.0836  0.9213  0.6611
 6008SOL    HW229487   2.897   2.222   3.001  1.9975  1.4254 -0.2717
 6009SOL     OW29488   4.128   1.906  13.585 -0.9961  0.5122 -0.3146
 6009SOL    HW129489   4.067   1.979  13.581 -0.5634  1.0885  3.7316
 6009SOL    HW229490   4.128   1.857  13.502 -0.3474 -0.4128  0.2269
 6010SOL     OW29491   4.038   3.496   9.140  0.0968 -0.9282  0.0912
 6010SOL    HW129492   3.944   3.509   9.131  0.3178  2.1638  1.9523
 6010SOL    HW229493   4.056   3.549   9.218  1.6469 -1.8866  0.3849
 6011SOL     OW29494   0.941   1.691   6.161 -0.1064 -0.4804 -0.1865
 6011SOL    HW129495   0.952   1.600   6.187 -0.2554 -0.3953  0.1727
 6011SOL    HW229496   0.872   1.679   6.096 -1.4805  2.0680  0.7766
 6012SOL     OW29497   3.300   0.944  11.888  0.4586  0.0698  0.5403
 6012SOL    HW129498   3.327   0.889  11.961  0.6025  0.1431  0.5415
 6012SOL    HW229499   3.310   0.880  11.817  1.8067  2.7319 -1.7104
 6013SOL     OW29500   3.662   3.425   6.438 -0.0811  0.1932 -0.3648
 6013SOL    HW129501   3.722   3.479   6.491 -0.2292 -0.7242  0.7388
 6013SOL    HW229502   3.714   3.430   6.358  1.8559 -1.7711  0.7827
 6014SOL     OW29503   3.893   2.361   3.670  0.6723 -0.8988 -0.0504
 6014SOL    HW129504   3.878   2.269   3.649  1.0875 -0.6879 -1.2706
 6014SOL    HW229505   3.928   2.396   3.588  2.6948  1.2382  1.7194
 6015SOL     OW29506   1.424   3.445   6.748  0.3580  0.0048 -0.6716
 6015SOL    HW129507   1.443   3.356   6.780  2.6226 -0.0684 -2.2279
 6015SOL    HW229508   1.330   3.447   6.735  0.5502  0.6090 -1.9486
 6016SOL     OW29509   3.184   0.703   3.528 -0.5218 -0.2873 -0.4142
 6016SOL    HW129510   3.149   0.625   3.569  1.1890  0.3864  2.2953
 6016SOL    HW229511   3.110   0.763   3.537  0.0446  0.0878  1.6263
 6017SOL     OW29512   4.278   2.246   6.328  0.0552 -0.0650  0.3346
 6017SOL    HW129513   4.350   2.284   6.277  0.5144  2.1222  2.6042
 6017SOL    HW229514   4.297   2.152   6.323  1.3097  0.2668 -1.4019
 6018SOL     OW29515   0.741   4.375  13.107  0.6177 -0.3085 -0.2039
 6018SOL    HW129516   0.814   4.313  13.107 -0.6729 -1.8351 -0.7148
 6018SOL    HW229517   0.758   4.424  13.027 -2.5720 -0.8536 -1.1846
 6019SOL     OW29518   0.277   3.036   9.080  0.2348  0.7865  0.1629
 6019SOL    HW129519   0.243   3.104   9.137 -2.0136  0.8253 -1.2488
 6019SOL    HW229520   0.371   3.031   9.099  0.3386  0.2405 -0.4831
 6020SOL     OW29521   3.618   0.093   8.031  0.1919  0.0046 -0.3931
 6020SOL    HW129522   3.643   0.042   8.108  0.4533 -0.0690 -0.5232
 6020SOL    HW229523   3.697   0.147   8.023 -0.2437  0.6952  0.0746
 6021SOL     OW29524   2.129   2.492   7.341 -0.5096  0.4958 -0.0485
 6021SOL    HW129525   2.139   2.576   7.297 -2.8462  2.1272  2.5185
 6021SOL    HW229526   2.077   2.507   7.420 -1.4377 -0.0531 -0.5399
 6022SOL     OW29527   1.980   4.532   2.230 -0.2054  0.7434  0.4061
 6022SOL    HW129528   1.991   4.474   2.305 -0.0886  1.0273  0.6076
 6022SOL    HW229529   1.890   4.508   2.210  0.5628 -0.9403 -1.0777
 6023SOL     OW29530   1.198   0.044   5.273 -0.8549 -0.0175 -0.1150
 6023SOL    HW129531   1.247   0.094   5.338 -2.1335 -0.5338  1.2454
 6023SOL    HW229532   1.120   0.031   5.327 -0.5245  1.0018  0.6087
 6024SOL     OW29533   1.662   3.137   9.888 -0.4020 -0.3844 -0.1646
 6024SOL    HW129534   1.698   3.222   9.912 -0.3505 -0.1601 -1.0069
 6024SOL    HW229535   1.688   3.092   9.968 -2.7799  1.9269  1.8818
 6025SOL     OW29536   0.594   2.249   2.046  0.2437 -0.0527 -0.4903
 6025SOL    HW129537   0.643   2.331   2.048  1.0942 -0.6685  2.9443
 6025SOL    HW229538   0.659   2.181   2.064 -1.2509 -0.8788  1.7514
 6026SOL     OW29539   4.091   2.529   6.851 -0.2395  0.4041  0.3265
 6026SOL    HW129540   4.017   2.478   6.884  1.2457 -2.0955 -0.1813
 6026SOL    HW229541   4.105   2.609   6.902  1.3468  1.1404 -1.2625
 6027SOL     OW29542   1.861   0.469   7.401  0.3825 -0.0416  0.0860
 6027SOL    HW129543   1.893   0.510   7.321  0.7712 -0.1606  0.1790
 6027SOL    HW229544   1.941   0.450   7.451 -0.0579 -1.2485  0.3280
 6028SOL     OW29545   0.845   3.591   6.316  0.4635  0.7401  0.0986
 6028SOL    HW129546   0.779   3.615   6.251  0.5178  1.3962  0.2865
 6028SOL    HW229547   0.787   3.573   6.390 -0.1820 -0.5893 -0.7335
 6029SOL     OW29548   2.011   3.315   9.883  0.3427 -0.9131  0.1365
 6029SOL    HW129549   2.085   3.281   9.832  0.9811 -0.5723  0.8474
 6029SOL    HW229550   1.934   3.314   9.826 -0.1324 -1.2129  0.7764
 6030SOL     OW29551   1.369   0.588  10.269  0.7436  0.0984  0.0793
 6030SOL    HW129552   1.429   0.642  10.320 -0.5858 -0.4807  2.2792
 6030SOL    HW229553   1.417   0.581  10.187 -2.7407  1.6710 -2.0887
 6031SOL     OW29554   2.984   4.362   1.795  0.6880  0.1524 -0.2871
 6031SOL    HW129555   2.940   4.297   1.740  0.0682  0.4037 -0.0939
 6031SOL    HW229556   2.915   4.406   1.845  0.2124 -1.1641  0.2426
 6032SOL     OW29557   1.949   3.630   5.825  0.8647  0.1723 -0.5130
 6032SOL    HW129558   2.002   3.708   5.808 -0.7193  1.0200 -1.4862
 6032SOL    HW229559   1.877   3.671   5.871 -0.0339 -1.2431 -0.6500
 6033SOL     OW29560   2.999   4.314   4.780 -0.1774  0.6381 -0.2600
 6033SOL    HW129561   3.016   4.281   4.691  0.5756  0.3533 -0.0143
 6033SOL    HW229562   3.086   4.346   4.805  1.2171 -2.8657 -0.5517
 6034SOL     OW29563   0.559   1.755   0.741  0.2045  0.7386  0.1305
 6034SOL    HW129564   0.519   1.784   0.659 -0.3836 -2.7950 -0.8454
 6034SOL    HW229565   0.492   1.696   0.774  1.5995 -2.1233 -2.1424
 6035SOL     OW29566   1.431   0.554   7.718  0.4115  0.1031  0.6382
 6035SOL    HW129567   1.377   0.628   7.689  0.1169 -1.7072 -3.5079
 6035SOL    HW229568   1.387   0.546   7.802 -2.4868 -0.4803 -0.9340
 6036SOL     OW29569   1.666   0.339   8.569  0.1513  0.0818 -0.1474
 6036SOL    HW129570   1.745   0.373   8.526  0.3065  0.2265  0.2554
 6036SOL    HW229571   1.622   0.279   8.509  2.0323 -1.4870  0.0214
 6037SOL     OW29572   3.039   3.961   1.646 -0.2269  0.6000  0.0196
 6037SOL    HW129573   3.105   3.991   1.708 -0.5650  0.4038  0.4762
 6037SOL    HW229574   3.086   3.965   1.563  0.3745 -2.6618  0.1727
 6038SOL     OW29575   0.748   0.855   2.449 -0.1016 -0.0485 -0.3411
 6038SOL    HW129576   0.823   0.804   2.482 -0.2451  0.4190  0.7105
 6038SOL    HW229577   0.765   0.948   2.467  2.7181 -0.2779 -1.7586
 6039SOL     OW29578   4.128   4.433  12.300 -0.0055  0.1925 -0.2802
 6039SOL    HW129579   4.069   4.361  12.278  1.7949 -0.7653 -1.8977
 6039SOL    HW229580   4.175   4.409  12.380  0.4036 -2.3904 -1.3068
 6040SOL     OW29581   4.324   0.890   8.801 -0.2117 -0.0645 -0.6026
 6040SOL    HW129582   4.251   0.835   8.830 -0.5820  0.4447 -0.5689
 6040SOL    HW229583   4.355   0.836   8.729  1.0965  0.3612 -0.3543
 6041SOL     OW29584   0.664   3.853   9.444 -0.0299 -0.2144 -0.1802
 6041SOL    HW129585   0.586   3.838   9.498  0.0615 -0.5341 -0.1353
 6041SOL    HW229586   0.673   3.948   9.438 -3.9824  0.2767  1.0664
 6042SOL     OW29587   2.692   3.893  13.628 -0.1269 -0.3862  0.7012
 6042SOL    HW129588   2.781   3.905  13.596 -1.0446  1.8592 -1.0180
 6042SOL    HW229589   2.648   3.967  13.585 -0.9541 -0.7672  0.8836
 6043SOL     OW29590   1.451   2.334   7.550 -0.2718  0.4324 -0.3986
 6043SOL    HW129591   1.358   2.354   7.539 -0.4036 -0.5594 -1.0882
 6043SOL    HW229592   1.474   2.314   7.459 -0.6766 -0.9755 -0.2002
 6044SOL     OW29593   0.853   1.037   4.070 -0.5418  0.1784  0.7751
 6044SOL    HW129594   0.820   1.001   3.988 -2.4773  2.2135  0.6614
 6044SOL    HW229595   0.814   0.973   4.129  0.6516 -2.9189 -1.8068
 6045SOL     OW29596   3.428   4.427   8.282 -0.7675  0.2552 -0.2660
 6045SOL    HW129597   3.342   4.469   8.271  0.0395  2.2183  1.0268
 6045SOL    HW229598   3.421   4.386   8.368 -0.7240 -1.0619 -0.9032
 6046SOL     OW29599   1.790   1.887  14.001  0.1334  0.4239 -0.0911
 6046SOL    HW129600   1.814   1.957  13.941  0.4272  0.5571  0.1865
 6046SOL    HW229601   1.704   1.864  13.965 -0.4672  0.7486  1.1365
 6047SOL     OW29602   2.359   1.337  11.419  0.6210  0.2080  0.1474
 6047SOL    HW129603   2.266   1.327  11.400  0.4103  0.2266  1.1818
 6047SOL    HW229604   2.392   1.326  11.330  1.0627 -0.2933  0.3755
 6048SOL     OW29605   2.842   3.625   9.519 -0.3600 -0.5162  0.1691
 6048SOL    HW129606   2.900   3.696   9.491 -1.7169 -0.5589 -2.7444
 6048SOL    HW229607   2.769   3.630   9.457 -0.5704  0.0705  0.4606
 6049SOL     OW29608   4.289   3.325   5.404  0.4362 -0.1013 -0.0279
 6049SOL    HW129609   4.198   3.322   5.373 -0.1231  0.2058  1.6040
 6049SOL    HW229610   4.334   3.316   5.320  1.5774 -1.1587  0.7068
 6050SOL     OW29611   0.350   3.933   2.447  0.6254  0.1065  0.3254
 6050SOL    HW129612   0.262   3.905   2.471  0.5670 -0.1383 -0.1651
 6050SOL    HW229613   0.392   3.848   2.437  0.3461  0.0211 -0.1602
 6051SOL     OW29614   1.872   3.249   3.358  0.0763 -0.1967  0.0404
 6051SOL    HW129615   1.846   3.158   3.346 -0.7985  0.1692 -0.8134
 6051SOL    HW229616   1.858   3.285   3.271  2.5942  0.6215 -0.0237
 6052SOL     OW29617   0.506   3.328  10.322  0.1674 -0.2746 -0.0134
 6052SOL    HW129618   0.479   3.244  10.284 -1.5051 -0.8977  2.5439
 6052SOL    HW229619   0.590   3.326  10.278 -0.7751 -1.5095 -1.7719
 6053SOL     OW29620   0.757   2.663   4.610 -0.2457 -0.2444  0.2368
 6053SOL    HW129621   0.843   2.633   4.581 -1.3122 -2.1219 -0.9545
 6053SOL    HW229622   0.704   2.583   4.600  1.7783 -1.5557  0.0080
 6054SOL     OW29623   1.866   1.707   7.183  0.1973 -0.0736  0.1656
 6054SOL    HW129624   1.930   1.636   7.182  2.0046  1.5324  2.0044
 6054SOL    HW229625   1.881   1.740   7.271 -2.1397 -2.3797  1.4104
 6055SOL     OW29626   0.732   2.611  15.383 -0.1623  0.0454  0.1469
 6055SOL    HW129627   0.783   2.679  15.426  1.0730 -0.7823 -0.0236
 6055SOL    HW229628   0.714   2.555  15.458 -1.8023  0.6173  0.1989
 6056SOL     OW29629   1.253   1.454   9.376 -0.2485  0.7929  0.0709
 6056SOL    HW129630   1.323   1.424   9.434 -0.2921 -0.0902 -0.3257
 6056SOL    HW229631   1.302   1.519   9.326 -1.5218  2.6822  1.2970
 6057SOL     OW29632   1.533   3.560   5.157 -0.1025  0.6547  1.0720
 6057SOL    HW129633   1.598   3.508   5.110 -0.6654 -0.3723  1.4289
 6057SOL    HW229634   1.585   3.574   5.236  3.3759 -1.1382 -0.8682
 6058SOL     OW29635   0.245   3.820   3.274 -0.2269  0.5343  0.3879
 6058SOL    HW129636   0.308   3.882   3.310 -0.4706  3.0594 -3.5008
 6058SOL    HW229637   0.309   3.751   3.258  0.7005  1.5328 -0.2110
 6059SOL     OW29638   4.095   2.424   6.187 -0.8378 -0.0810  0.7701
 6059SOL    HW129639   4.135   2.346   6.227 -1.2136 -1.2078 -1.0511
 6059SOL    HW229640   4.145   2.494   6.229 -0.9119  0.6691 -0.4134
 6060SOL     OW29641   1.157   0.404   2.294  0.0686 -0.1144  0.5053
 6060SOL    HW129642   1.202   0.351   2.360 -0.5720 -1.0699  0.1741
 6060SOL    HW229643   1.221   0.474   2.284  0.1051 -0.2219 -0.0237
 6061SOL     OW29644   2.872   1.562  11.603  0.7917 -0.5652  0.1872
 6061SOL    HW129645   2.940   1.600  11.657 -1.6435  3.1180  0.6683
 6061SOL    HW229646   2.892   1.469  11.618  0.1597 -0.4040  1.9761
 6062SOL     OW29647   2.628   2.576   0.132 -0.6374  0.6187 -0.0984
 6062SOL    HW129648   2.613   2.496   0.083 -2.5844  1.5319 -0.9820
 6062SOL    HW229649   2.602   2.650   0.077  2.3070  1.3530 -0.4739
 6063SOL     OW29650   0.547   4.303   6.364  0.2150 -0.4892  0.0190
 6063SOL    HW129651   0.610   4.346   6.307  0.0023 -2.0772 -1.4334
 6063SOL    HW229652   0.548   4.208   6.348  0.7148 -0.3786 -0.6345
 6064SOL     OW29653   3.079   0.668  11.943 -0.0895 -0.3141 -0.2654
 6064SOL    HW129654   2.985   0.650  11.952 -0.3335  1.2795  0.4640
 6064SOL    HW229655   3.083   0.761  11.966 -1.9508  0.1291 -1.7365
 6065SOL     OW29656   1.577   4.320   2.434 -0.1003 -0.6043  0.3763
 6065SOL    HW129657   1.571   4.414   2.455  0.9667 -0.5347  0.4087
 6065SOL    HW229658   1.500   4.309   2.378 -0.2705  1.1321  0.2707
 6066SOL     OW29659   3.282   0.931   5.832  0.5604 -0.1852 -0.0804
 6066SOL    HW129660   3.301   0.851   5.881 -3.2544 -0.5163  0.8244
 6066SOL    HW229661   3.195   0.954   5.864  0.9957  0.2954  0.7489
 6067SOL     OW29662   3.742   3.838   6.108 -0.1842  0.2922 -0.2117
 6067SOL    HW129663   3.697   3.755   6.095 -0.3196  0.2563  0.5178
 6067SOL    HW229664   3.679   3.901   6.072  1.9706  1.4610 -1.9241
 6068SOL     OW29665   4.077   2.601   2.726 -0.5648  0.2234 -0.0596
 6068SOL    HW129666   4.029   2.680   2.700  0.8916  2.4881  3.9525
 6068SOL    HW229667   4.043   2.531   2.671 -1.6282  2.9289 -2.8734
 6069SOL     OW29668   1.999   2.561   6.992  0.0324  0.0126 -0.2721
 6069SOL    HW129669   2.016   2.651   6.964  2.2318  0.4931  2.5845
 6069SOL    HW229670   1.914   2.575   7.033  0.1096 -1.1688  0.2796
 6070SOL     OW29671   4.377   4.211  13.905 -0.4777 -0.3697  0.1383
 6070SOL    HW129672   4.306   4.214  13.969 -0.4469 -1.0755  0.2090
 6070SOL    HW229673   4.436   4.146  13.943  0.4185  0.0723 -0.5116
 6071SOL     OW29674   3.609   3.290   4.719 -0.3672 -0.4535 -0.1070
 6071SOL    HW129675   3.539   3.264   4.659  0.1088  0.0715 -0.8760
 6071SOL    HW229676   3.623   3.207   4.765  0.6186 -0.0184  0.3760
 6072SOL     OW29677   1.700   2.383   0.594  0.1765  0.6045  0.0246
 6072SOL    HW129678   1.734   2.457   0.644 -1.3326  0.9964  0.4872
 6072SOL    HW229679   1.738   2.299   0.620  0.0306  0.0703 -1.4636
 6073SOL     OW29680   3.429   0.440   4.486  0.0918 -0.0370  0.2737
 6073SOL    HW129681   3.515   0.475   4.511  0.3431 -0.6291  0.2293
 6073SOL    HW229682   3.469   0.354   4.472 -0.3223  0.1341 -2.0051
 6074SOL     OW29683   3.384   0.073   1.789  0.4651  0.0044 -0.2970
 6074SOL    HW129684   3.365   0.046   1.699  0.4949  0.7602 -0.5270
 6074SOL    HW229685   3.474   0.107   1.794 -0.3974  2.4418 -1.7701
 6075SOL     OW29686   4.552   3.028   3.104  1.0753  0.2724  0.7745
 6075SOL    HW129687   4.622   3.003   3.044 -0.3561  0.3229 -0.9542
 6075SOL    HW229688   4.554   3.124   3.102  0.6447  0.3654  5.2450
 6076SOL     OW29689   1.579   1.546  15.149  0.5985 -0.0784  0.1822
 6076SOL    HW129690   1.561   1.631  15.189  0.3771 -0.2521  0.4474
 6076SOL    HW229691   1.572   1.489  15.226 -1.5270  0.8823  0.7023
 6077SOL     OW29692   4.664   0.256   5.563 -0.4803 -0.3355 -0.0836
 6077SOL    HW129693   4.714   0.296   5.634  0.6825  2.0639 -2.2541
 6077SOL    HW229694   4.699   0.299   5.485  0.0918 -0.4738  0.0913
 6078SOL     OW29695   3.421   0.267   6.746 -0.0970  0.2575  0.0927
 6078SOL    HW129696   3.464   0.308   6.670 -0.6256  0.0279 -0.3234
 6078SOL    HW229697   3.388   0.347   6.788 -0.5912 -0.8893  1.8750
 6079SOL     OW29698   2.330   4.213   2.321  0.4057 -0.1309  0.6443
 6079SOL    HW129699   2.383   4.231   2.244 -1.6404  0.0488 -0.7111
 6079SOL    HW229700   2.389   4.249   2.387  0.8334  0.6157 -0.1476
 6080SOL     OW29701   3.359   0.447   7.273 -0.2600  0.3479 -0.1126
 6080SOL    HW129702   3.326   0.536   7.256 -1.1555  0.9353  4.8642
 6080SOL    HW229703   3.344   0.419   7.183  1.9841  0.7191 -0.6088
 6081SOL     OW29704   4.368   1.744   7.636 -0.1355 -0.4951  0.3214
 6081SOL    HW129705   4.425   1.743   7.712 -0.2640  0.1892  0.4308
 6081SOL    HW229706   4.338   1.653   7.631  1.1814 -0.8675 -0.8260
 6082SOL     OW29707   0.059   3.011   9.846 -0.6947 -0.1923 -0.3899
 6082SOL    HW129708   0.116   3.066   9.898  0.0560 -1.5892  0.2687
 6082SOL    HW229709   0.090   2.925   9.873 -0.7784  0.1221  0.6995
 6083SOL     OW29710   1.564   3.579  13.669  0.6966 -0.3432 -0.5522
 6083SOL    HW129711   1.496   3.600  13.605  2.2873  0.3268 -2.0268
 6083SOL    HW229712   1.522   3.625  13.741 -0.7957  0.2997 -1.8288
 6084SOL     OW29713   4.151   1.802   5.389  0.3133 -1.0571  0.9904
 6084SOL    HW129714   4.117   1.848   5.466 -2.8336  1.2371 -1.7298
 6084SOL    HW229715   4.221   1.859   5.357 -1.1261 -0.8700 -1.7935
 6085SOL     OW29716   2.131   2.006   5.385 -0.3853  0.0564  0.4400
 6085SOL    HW129717   2.111   2.100   5.384 -2.3201 -0.3858 -1.3633
 6085SOL    HW229718   2.217   2.011   5.428  0.5620 -0.6471 -1.3855
 6086SOL     OW29719   3.427   4.138   0.808  0.1121  0.2440  0.6227
 6086SOL    HW129720   3.470   4.216   0.842  2.9918 -0.4457 -1.3728
 6086SOL    HW229721   3.487   4.122   0.735  0.3624  0.2578  0.8253
 6087SOL     OW29722   0.364   4.317   3.108  0.1993 -0.4833 -0.5222
 6087SOL    HW129723   0.440   4.259   3.100  0.6342  0.0329 -0.0903
 6087SOL    HW229724   0.298   4.256   3.077  0.1310 -0.0031 -1.3116
 6088SOL     OW29725   4.105   1.427   9.187 -0.3392 -0.5506 -0.3490
 6088SOL    HW129726   4.140   1.347   9.226 -0.2985 -0.3081  0.0994
 6088SOL    HW229727   4.076   1.402   9.099  0.7424 -1.5756 -0.4100
 6089SOL     OW29728   1.974   3.085   7.615 -0.1400 -0.6749 -0.5583
 6089SOL    HW129729   1.896   3.044   7.652  0.7617 -1.0862  0.9063
 6089SOL    HW229730   1.968   3.057   7.524 -0.8655 -1.7485 -0.1793
 6090SOL     OW29731   4.396   4.045   1.815 -0.0109  0.4299 -0.0035
 6090SOL    HW129732   4.361   4.081   1.734 -0.5923  0.8340  0.4265
 6090SOL    HW229733   4.311   4.018   1.849  1.0977  2.3108  4.3151
 6091SOL     OW29734   3.417   2.597  16.847 -0.4036 -0.5482 -0.3549
 6091SOL    HW129735   3.328   2.562  16.857 -0.7067  0.8338  1.7572
 6091SOL    HW229736   3.461   2.516  16.872 -1.8686 -1.3194 -0.2219
 6092SOL     OW29737   4.141   1.048   7.533  0.1655 -0.2750 -0.6834
 6092SOL    HW129738   4.228   1.009   7.541 -0.8307 -2.7019 -1.7782
 6092SOL    HW229739   4.090   0.999   7.597  1.1013 -0.0194  0.2581
 6093SOL     OW29740   2.385   4.053   0.476 -1.0281  0.1104 -0.4356
 6093SOL    HW129741   2.353   3.966   0.498 -1.4366  0.3185 -0.2210
 6093SOL    HW229742   2.410   4.078   0.565 -0.4624 -0.5209 -0.4077
 6094SOL     OW29743   2.265   2.650  11.622 -0.3549  0.0104  0.6269
 6094SOL    HW129744   2.274   2.591  11.697  0.4238  0.8194  1.1683
 6094SOL    HW229745   2.258   2.738  11.660 -0.1315  0.1308  0.3853
 6095SOL     OW29746   3.852   1.169   4.884 -0.2422 -0.5140  0.3351
 6095SOL    HW129747   3.883   1.094   4.833 -0.9110  0.2750 -1.2272
 6095SOL    HW229748   3.795   1.124   4.946 -0.0890 -0.3607  0.5847
 6096SOL     OW29749   1.865   2.266  10.610 -0.7439 -0.3854  0.3558
 6096SOL    HW129750   1.949   2.310  10.620 -0.5514 -1.0397  1.6767
 6096SOL    HW229751   1.823   2.314  10.682 -1.7643  0.1031 -0.5785
 6097SOL     OW29752   4.468   2.312   8.031 -0.6893 -0.1539 -0.0018
 6097SOL    HW129753   4.530   2.256   8.076 -0.7134  0.0466  0.2788
 6097SOL    HW229754   4.391   2.268   8.067 -0.1219  0.6283  2.1101
 6098SOL     OW29755   4.684   1.503  14.033 -0.1248 -0.6160 -0.5909
 6098SOL    HW129756   4.622   1.568  14.066 -0.5491 -0.6536 -1.3200
 6098SOL    HW229757   4.630   1.429  14.004 -0.6129 -1.6827  3.0253
 6099SOL     OW29758   4.722   2.301   8.945  0.7100  0.8634 -0.2392
 6099SOL    HW129759   0.001   2.331   9.036 -2.6836 -1.3783  0.6498
 6099SOL    HW229760   4.643   2.246   8.940  2.0520 -0.6297 -4.7969
 6100SOL     OW29761   0.317   1.390   2.989  0.4219  0.7567 -0.5782
 6100SOL    HW129762   0.257   1.403   2.915  1.6111  1.4479 -1.4123
 6100SOL    HW229763   0.384   1.336   2.947 -0.4557 -0.7887  0.0073
 6101SOL     OW29764   0.502   4.623   1.241  0.2091  0.1502  0.2904
 6101SOL    HW129765   0.586   4.653   1.278 -0.2656  0.7990  0.8387
 6101SOL    HW229766   0.514   4.529   1.236 -0.5610 -0.0387  2.1704
 6102SOL     OW29767   0.548   1.628   6.866 -0.7150  0.0340 -0.2203
 6102SOL    HW129768   0.530   1.715   6.830 -0.8750 -0.7035 -1.9393
 6102SOL    HW229769   0.604   1.584   6.802  2.3590  2.7973  0.5970
 6103SOL     OW29770   1.322   2.340   6.553  0.6387  0.0719  0.3631
 6103SOL    HW129771   1.293   2.325   6.463 -2.0378 -4.5087  1.9643
 6103SOL    HW229772   1.417   2.324   6.556  0.8505  1.3256  0.3581
 6104SOL     OW29773   2.717   1.496   6.300  0.1711  0.0513 -0.0846
 6104SOL    HW129774   2.669   1.418   6.327  2.1770 -0.8660  0.8065
 6104SOL    HW229775   2.690   1.495   6.209  0.0149 -2.1948  0.0084
 6105SOL     OW29776   1.692   0.393  16.065  0.6195 -0.2087 -0.0214
 6105SOL    HW129777   1.600   0.375  16.046  0.4915  1.7280 -1.2566
 6105SOL    HW229778   1.693   0.413  16.158  0.3913  0.5663 -0.1876
 6106SOL     OW29779   0.445   3.080  10.256  0.1119  0.1654  0.1296
 6106SOL    HW129780   0.497   3.019  10.308  0.0590 -0.8398 -0.9801
 6106SOL    HW229781   0.356   3.045  10.250 -1.4272  3.7230  2.0013
 6107SOL     OW29782   0.264   3.570   6.396  0.2812 -0.4811 -0.1987
 6107SOL    HW129783   0.301   3.587   6.482  1.3879  0.5469 -0.8978
 6107SOL    HW229784   0.321   3.512   6.347 -1.8636 -1.8498 -1.0909
 6108SOL     OW29785   3.407   2.935   4.792  0.0683 -0.1586 -0.3613
 6108SOL    HW129786   3.488   2.898   4.757 -0.0784  0.3965 -1.3022
 6108SOL    HW229787   3.408   2.903   4.882  1.6429 -0.0672 -0.3426
 6109SOL     OW29788   1.271   1.935  16.506 -0.3106  0.2481 -0.2031
 6109SOL    HW129789   1.236   2.023  16.513  2.0459  1.0650  1.2757
 6109SOL    HW229790   1.217   1.894  16.574 -1.6093  0.2000 -1.2510
 6110SOL     OW29791   4.671   0.444   4.548 -0.0603  0.1616  0.3945
 6110SOL    HW129792   4.701   0.447   4.457  1.0743  1.6751  0.8003
 6110SOL    HW229793   0.011   0.387   4.590  1.5316  0.4158 -1.6725
 6111SOL     OW29794   4.599   2.647   7.295  0.0067  0.4495 -0.0768
 6111SOL    HW129795   4.671   2.707   7.273  0.7033 -0.8133 -1.2151
 6111SOL    HW229796   4.606   2.591   7.218 -0.7277  0.1021  0.1086
 6112SOL     OW29797   3.913   3.692   0.238 -0.5451  0.0349 -0.2375
 6112SOL    HW129798   3.840   3.740   0.277 -0.4486  0.4165 -0.5194
 6112SOL    HW229799   3.906   3.613   0.290 -1.8981  1.8873  2.3851
 6113SOL     OW29800   1.785   0.453   2.844  0.0298  0.6304  0.2246
 6113SOL    HW129801   1.726   0.495   2.907  1.2207  2.8138 -0.0930
 6113SOL    HW229802   1.781   0.364   2.879 -0.4654  1.8939  3.4288
 6114SOL     OW29803   1.295   1.741   8.952  0.0714  0.4213  0.4330
 6114SOL    HW129804   1.217   1.796   8.945 -0.2615 -0.2460 -1.1457
 6114SOL    HW229805   1.292   1.684   9.029  0.8475  2.4369  1.9539
 6115SOL     OW29806   2.236   0.942   2.242 -0.5962 -0.3743  1.2432
 6115SOL    HW129807   2.144   0.961   2.226  0.4381  0.2025 -4.0729
 6115SOL    HW229808   2.252   0.859   2.196 -0.0404  0.2714  0.2545
 6116SOL     OW29809   2.513   3.800   7.660 -0.1680  0.3058  0.0220
 6116SOL    HW129810   2.453   3.872   7.676 -1.1294 -0.4649 -0.1587
 6116SOL    HW229811   2.576   3.852   7.610  1.6236 -0.5366  1.4149
 6117SOL     OW29812   4.057   2.099  17.523  0.5230 -0.0088 -0.4651
 6117SOL    HW129813   4.141   2.054  17.533 -0.6006 -2.3970 -1.7589
 6117SOL    HW229814   4.032   2.126  17.611  0.5680  1.8252 -1.0192
 6118SOL     OW29815   3.400   2.137  14.056  0.4839  0.0939  0.0871
 6118SOL    HW129816   3.478   2.135  14.111  1.7216 -1.2550 -1.7414
 6118SOL    HW229817   3.331   2.154  14.120  0.1096 -2.8326  0.4697
 6119SOL     OW29818   3.575   4.493   2.037 -0.3171 -0.1484 -0.4337
 6119SOL    HW129819   3.547   4.525   1.951 -1.7361  1.1099  0.4994
 6119SOL    HW229820   3.598   4.404   2.010 -1.4727 -1.0298  1.4660
 6120SOL     OW29821   3.421   0.685   4.197  0.1033  0.1720 -0.3664
 6120SOL    HW129822   3.355   0.639   4.247 -0.5336 -1.7619 -2.9916
 6120SOL    HW229823   3.436   0.759   4.257 -0.9573  0.1153 -0.0481
 6121SOL     OW29824   2.163   2.201   6.579 -0.2094 -0.5817  0.6856
 6121SOL    HW129825   2.129   2.268   6.639  0.0043 -0.8547  1.1107
 6121SOL    HW229826   2.209   2.265   6.525  0.8020 -0.2750  1.8935
 6122SOL     OW29827   3.410   0.629   9.055  0.1193 -0.3233  0.4468
 6122SOL    HW129828   3.330   0.633   9.003  1.4062 -0.1475 -1.5399
 6122SOL    HW229829   3.378   0.682   9.128 -0.0951 -1.1159  0.9281
 6123SOL     OW29830   1.689   4.432   7.532 -0.3934  0.5941  1.0782
 6123SOL    HW129831   1.723   4.467   7.615 -0.0818 -0.0023  1.1995
 6123SOL    HW229832   1.730   4.492   7.469  1.8619 -1.1383  0.9211
 6124SOL     OW29833   1.916   2.329   6.091  0.6653  0.2741 -0.6025
 6124SOL    HW129834   1.938   2.346   6.182  2.1132 -0.4392 -0.8243
 6124SOL    HW229835   2.000   2.348   6.050  0.9619 -2.6983 -1.3925
 6125SOL     OW29836   0.554   0.190   0.113  0.1692 -0.0933 -1.0724
 6125SOL    HW129837   0.470   0.211   0.153  0.4251 -0.6568 -0.2545
 6125SOL    HW229838   0.533   0.136   0.037  1.2404  1.0878 -2.2107
 6126SOL     OW29839   1.936   3.671   4.171 -0.2807  0.4806  0.2094
 6126SOL    HW129840   1.917   3.598   4.113 -2.6091  1.0365  0.2406
 6126SOL    HW229841   1.857   3.661   4.224 -0.0786 -1.9135  0.0197
 6127SOL     OW29842   0.129   3.977   8.282  0.3427  0.0983 -0.0306
 6127SOL    HW129843   0.184   3.982   8.204 -0.8456  0.1470 -0.8634
 6127SOL    HW229844   0.204   3.988   8.341 -0.7495 -0.8755  1.5269
 6128SOL     OW29845   0.758   3.778   9.906  0.6885 -0.3042  0.4450
 6128SOL    HW129846   0.787   3.688   9.893  0.0655 -0.1528 -2.0274
 6128SOL    HW229847   0.838   3.812   9.946 -0.0946  2.8457 -0.6754
 6129SOL     OW29848   1.228   2.682   8.127  0.2518  0.1505 -0.1072
 6129SOL    HW129849   1.138   2.702   8.100  0.7401  2.1612 -0.2161
 6129SOL    HW229850   1.219   2.649   8.216  0.4217  1.9386  0.5580
 6130SOL     OW29851   3.171   0.063   4.050  0.1514 -0.5380 -0.0394
 6130SOL    HW129852   3.110   0.134   4.031  2.4934  2.1706  2.6331
 6130SOL    HW229853   3.153   0.010   3.973  0.3511  0.3883 -0.7125
 6131SOL     OW29854   0.144   0.011   4.997 -0.4956 -0.1640 -0.2531
 6131SOL    HW129855   0.112   4.651   5.031 -1.4768  0.7845  1.1876
 6131SOL    HW229856   0.223   4.703   4.952  0.1145  0.7270  0.1877
 6132SOL     OW29857   2.126   1.648  12.010  0.3568  0.3988 -0.2751
 6132SOL    HW129858   2.179   1.618  11.936 -0.7345  1.2811 -1.4162
 6132SOL    HW229859   2.116   1.739  11.982 -0.5787  0.2687 -0.3560
 6133SOL     OW29860   3.903   3.334   2.066 -0.4996 -0.6333 -0.4378
 6133SOL    HW129861   3.979   3.276   2.060  0.4368  0.7097 -1.5342
 6133SOL    HW229862   3.938   3.381   2.142  1.4403  1.1691 -2.4457
 6134SOL     OW29863   2.690   2.027  17.334 -0.1826  0.1553  0.1819
 6134SOL    HW129864   2.667   2.033  17.427 -0.7637 -0.8800  0.1031
 6134SOL    HW229865   2.752   1.954  17.327 -0.4656  0.1800 -2.5737
 6135SOL     OW29866   3.980   0.463   6.104 -0.0958 -0.4697  0.2510
 6135SOL    HW129867   4.060   0.436   6.059  1.1587  0.6511  1.8087
 6135SOL    HW229868   3.956   0.543   6.057  2.0366  0.0496  0.0700
 6136SOL     OW29869   0.402   2.362   1.783 -0.0656  0.0824  0.3316
 6136SOL    HW129870   0.358   2.416   1.849 -1.6765 -2.2772  1.2072
 6136SOL    HW229871   0.432   2.424   1.716  1.0635 -2.9147 -1.8961
 6137SOL     OW29872   2.033   1.865   4.073  0.3790  0.1326 -0.3048
 6137SOL    HW129873   2.040   1.931   4.004 -1.8863  2.0567  1.2804
 6137SOL    HW229874   1.949   1.873   4.119 -0.5926 -2.1463 -1.6820
 6138SOL     OW29875   0.369   1.869   2.233  0.2368  0.3768  0.0425
 6138SOL    HW129876   0.416   1.794   2.268  1.0651  0.6494 -0.4698
 6138SOL    HW229877   0.284   1.860   2.275  0.4058  1.2726  0.5678
 6139SOL     OW29878   0.196   4.096  12.458 -0.2992  0.2294  0.6697
 6139SOL    HW129879   0.271   4.117  12.402 -0.0575 -1.9994  0.1857
 6139SOL    HW229880   0.233   4.037  12.524 -0.5540  0.2563  0.8367
 6140SOL     OW29881   3.664   4.101   3.814  0.0653  0.1964 -0.0913
 6140SOL    HW129882   3.714   4.093   3.896 -2.5802  0.6708  1.5828
 6140SOL    HW229883   3.731   4.125   3.750 -1.1266  3.2127 -0.2289
 6141SOL     OW29884   4.399   2.003   9.885 -0.1089 -0.2113  0.0271
 6141SOL    HW129885   4.435   2.089   9.907  1.9020 -0.6633 -1.5121
 6141SOL    HW229886   4.422   1.954   9.964 -1.5956  2.1618  1.9126
 6142SOL     OW29887   3.215   4.021   1.430  0.0965  0.1748  0.0031
 6142SOL    HW129888   3.239   4.113   1.423  0.0372  0.1896 -0.0019
 6142SOL    HW229889   3.295   3.985   1.471  1.4496  2.1520 -0.8941
 6143SOL     OW29890   3.284   3.929   8.369  0.2493 -0.4245  0.2841
 6143SOL    HW129891   3.246   4.009   8.335 -2.2954 -0.3789  3.2612
 6143SOL    HW229892   3.375   3.956   8.356  0.0081  1.1042  1.7624
 6144SOL     OW29893   2.280   2.238  10.810  0.3820 -0.2066 -0.2790
 6144SOL    HW129894   2.222   2.168  10.780  0.9341 -0.8257  0.1004
 6144SOL    HW229895   2.216   2.282  10.866  1.0311  0.0750  0.2490
 6145SOL     OW29896   3.661   4.699   9.964 -0.2265  0.0198  0.2675
 6145SOL    HW129897   3.646   4.637  10.036 -2.2284  0.7237  0.4363
 6145SOL    HW229898   3.581   0.027   9.973 -0.3691 -0.1483 -0.0598
 6146SOL     OW29899   1.450   3.687   1.987 -0.0509  0.0786  0.2636
 6146SOL    HW129900   1.470   3.616   1.925 -1.0255  1.3185 -1.4776
 6146SOL    HW229901   1.467   3.763   1.930 -2.3054  0.8877  0.6783
 6147SOL     OW29902   4.575   2.252   9.873  0.0129  0.4128  0.2586
 6147SOL    HW129903   4.630   2.272   9.797 -2.9471 -0.3827 -2.0824
 6147SOL    HW229904   4.487   2.282   9.848 -0.4443 -1.7791 -0.7348
 6148SOL     OW29905   1.821   1.262   1.115 -0.7207 -0.3144 -0.6984
 6148SOL    HW129906   1.757   1.318   1.158  0.2051  0.9162 -0.9149
 6148SOL    HW229907   1.901   1.315   1.122 -0.4549 -1.3532  4.3215
 6149SOL     OW29908   4.075   3.266   2.352  0.8127 -0.0465 -0.4493
 6149SOL    HW129909   4.118   3.292   2.271 -0.7221  0.2276 -1.1765
 6149SOL    HW229910   4.066   3.171   2.351 -1.4299  0.1776 -2.8538
 6150SOL     OW29911   1.259   1.609   0.237  0.1831  0.3595 -0.5043
 6150SOL    HW129912   1.240   1.664   0.161  1.3862  2.4968  0.7417
 6150SOL    HW229913   1.347   1.633   0.266 -0.9253  1.6971  1.6983
 6151SOL     OW29914   1.013   0.748   7.200 -0.3182  0.3959 -0.1108
 6151SOL    HW129915   0.997   0.755   7.294 -0.7991  1.2765 -0.2565
 6151SOL    HW229916   1.097   0.702   7.202 -0.1577  0.6026 -2.7460
 6152SOL     OW29917   0.731   2.405   1.182 -0.0658  0.7718 -0.2895
 6152SOL    HW129918   0.817   2.417   1.222  1.7635 -2.0985 -3.3498
 6152SOL    HW229919   0.726   2.312   1.163 -1.8320  0.3791  2.1568
 6153SOL     OW29920   0.437   0.321  16.051 -0.6900 -0.4254 -0.2916
 6153SOL    HW129921   0.494   0.377  16.104 -1.2897 -0.1470  0.0532
 6153SOL    HW229922   0.469   0.327  15.961 -0.8363 -2.2101 -0.4751
 6154SOL     OW29923   4.540   0.726   3.714 -0.1484  0.2243 -0.2864
 6154SOL    HW129924   4.627   0.688   3.699  0.7561  2.0974  0.3333
 6154SOL    HW229925   4.510   0.730   3.623  1.0109 -1.2244 -0.7324
 6155SOL     OW29926   4.191   1.531  11.411 -0.0277 -0.2523 -0.3189
 6155SOL    HW129927   4.151   1.578  11.337  0.0202  1.1774  0.5446
 6155SOL    HW229928   4.236   1.462  11.363 -1.2686 -0.3983 -1.2815
 6156SOL     OW29929   3.157   4.379   6.696 -0.5087 -0.0507  0.0938
 6156SOL    HW129930   3.215   4.444   6.658 -0.0022  0.4458  1.7150
 6156SOL    HW229931   3.187   4.369   6.786 -1.1037 -0.1317  0.2878
 6157SOL     OW29932   3.083   0.105  17.599  0.0081 -0.4290  0.6855
 6157SOL    HW129933   3.045   0.183  17.558  2.6005 -0.9708 -2.8168
 6157SOL    HW229934   3.122   0.148  17.675 -0.1393  1.1700 -0.1359
 6158SOL     OW29935   3.169   3.335   5.067 -0.1121 -0.3762  0.4164
 6158SOL    HW129936   3.139   3.313   5.155 -0.9896 -1.2097 -0.0853
 6158SOL    HW229937   3.249   3.283   5.058  0.5157  0.6796 -0.0434
 6159SOL     OW29938   2.737   3.459   3.720  0.5441  0.0211 -1.2977
 6159SOL    HW129939   2.833   3.463   3.723  0.4448  1.7896 -0.7770
 6159SOL    HW229940   2.719   3.475   3.812  1.1366  1.4464 -1.4301
 6160SOL     OW29941   3.083   0.544   7.860 -0.1330  0.0368  0.2208
 6160SOL    HW129942   3.123   0.482   7.800 -1.7002 -1.4850  0.7446
 6160SOL    HW229943   2.990   0.536   7.838 -1.0260  0.9955  3.7279
 6161SOL     OW29944   2.315   2.503  15.775  0.7585  0.3098 -0.1578
 6161SOL    HW129945   2.311   2.597  15.792 -0.9870  0.0980  0.6041
 6161SOL    HW229946   2.294   2.473  15.863 -1.1927  0.5117 -0.5484
 6162SOL     OW29947   3.965   1.958   1.240 -0.1096 -0.1881 -0.3692
 6162SOL    HW129948   3.872   1.943   1.220 -0.9832  2.0352  2.0194
 6162SOL    HW229949   4.015   1.894   1.190 -0.5175  1.4088 -2.8337
 6163SOL     OW29950   4.474   2.925  11.645  0.1932 -0.2648 -0.2787
 6163SOL    HW129951   4.422   2.893  11.718  0.4455  1.0965  0.4969
 6163SOL    HW229952   4.496   3.012  11.677  0.7735  0.2613 -2.0680
 6164SOL     OW29953   2.472   0.629  16.251  0.5172 -0.6166  0.4220
 6164SOL    HW129954   2.472   0.720  16.220  0.2648  0.1142  2.5131
 6164SOL    HW229955   2.388   0.599  16.216 -0.1068 -0.2726  1.6174
 6165SOL     OW29956   2.945   4.350   3.614  0.1320 -0.3892  0.4505
 6165SOL    HW129957   2.915   4.324   3.701 -0.0241 -1.1803  0.1585
 6165SOL    HW229958   2.937   4.263   3.576  1.8377 -0.6430  0.6785
 6166SOL     OW29959   4.325   3.421  16.862 -0.2656 -1.1940  0.0222
 6166SOL    HW129960   4.268   3.384  16.794  2.3982 -2.9946 -1.2455
 6166SOL    HW229961   4.363   3.346  16.907  1.1890  0.3310  1.3438
 6167SOL     OW29962   1.062   0.267  12.127  0.1396  0.0181  0.1113
 6167SOL    HW129963   1.010   0.265  12.047  1.1222 -1.0952 -0.5100
 6167SOL    HW229964   1.137   0.216  12.095  1.9013  2.3478  0.5444
 6168SOL     OW29965   0.957   2.198   4.642 -0.3544 -0.7025 -0.0734
 6168SOL    HW129966   1.013   2.193   4.564 -0.5767 -0.0033 -0.2766
 6168SOL    HW229967   1.018   2.242   4.701 -3.1532  2.8247  0.2007
 6169SOL     OW29968   3.842   0.114   0.723 -0.1778 -0.3154 -0.1930
 6169SOL    HW129969   3.904   0.046   0.698 -0.5238 -0.5049 -0.5285
 6169SOL    HW229970   3.756   0.080   0.700 -0.0920 -0.9502  0.4053
 6170SOL     OW29971   0.765   3.948   4.236 -0.1205  0.3392 -0.6512
 6170SOL    HW129972   0.703   4.018   4.254  0.2254  0.4429  0.1016
 6170SOL    HW229973   0.791   3.964   4.145 -2.4477  1.1490 -1.1921
 6171SOL     OW29974   2.043   4.407   8.782 -0.1453  0.0982 -0.4073
 6171SOL    HW129975   1.991   4.372   8.710 -0.7621  1.9678 -0.8562
 6171SOL    HW229976   1.980   4.392   8.853 -1.7628 -1.2038 -2.1203
 6172SOL     OW29977   0.218   4.574   5.905 -0.5211  0.1590  0.3986
 6172SOL    HW129978   0.187   4.646   5.850  0.0585 -0.2045 -0.3956
 6172SOL    HW229979   0.309   4.595   5.922 -0.1366 -1.6084  0.4833
 6173SOL     OW29980   2.943   0.879  12.067  0.3489 -0.1418  0.0412
 6173SOL    HW129981   2.879   0.928  12.118  1.2189  1.9455 -0.8778
 6173SOL    HW229982   2.890   0.800  12.060  0.0308  0.0255  0.5562
 6174SOL     OW29983   2.528   3.690  13.659  0.2053 -0.3383 -0.6485
 6174SOL    HW129984   2.587   3.765  13.664 -0.9613  0.5401  0.0784
 6174SOL    HW229985   2.587   3.625  13.696 -0.3834 -1.6846 -2.0752
 6175SOL     OW29986   3.076   1.628   6.725  0.0599  0.4990 -0.4192
 6175SOL    HW129987   3.109   1.545   6.691  0.8805  0.9498 -0.7513
 6175SOL    HW229988   2.985   1.600   6.728  0.5877 -0.9887  1.8899
 6176SOL     OW29989   4.560   3.824  15.016  0.0815  0.6451 -0.2022
 6176SOL    HW129990   4.562   3.819  15.112 -2.0802  3.5739 -0.0271
 6176SOL    HW229991   4.570   3.732  14.992  1.9375  0.8853 -0.3704
 6177SOL     OW29992   1.189   4.455   0.869  0.6119  0.2902  0.2120
 6177SOL    HW129993   1.202   4.380   0.928  0.7525 -1.2754 -1.8066
 6177SOL    HW229994   1.106   4.488   0.903 -0.0709 -0.5361 -0.6351
 6178SOL     OW29995   1.063   0.528  13.708 -0.4867  0.3966 -0.1353
 6178SOL    HW129996   1.087   0.507  13.798  0.1311  0.6730 -0.2344
 6178SOL    HW229997   1.133   0.593  13.697 -0.4860  0.7842  2.1456
 6179SOL     OW29998   3.131   3.041   2.789 -0.3836  0.1752  0.0037
 6179SOL    HW129999   3.064   2.974   2.777  0.1768 -0.0069 -2.1155
 6179SOL    HW230000   3.099   3.095   2.717 -2.1809 -1.4175 -0.3909
 6180SOL     OW30001   3.295   0.823   7.632 -0.1684 -0.1481 -0.0603
 6180SOL    HW130002   3.363   0.889   7.648 -0.5628 -0.1936  1.7957
 6180SOL    HW230003   3.327   0.788   7.548 -4.5284 -3.3894 -0.3554
 6181SOL     OW30004   2.324   4.717   9.168 -0.6581  0.0794  0.1243
 6181SOL    HW130005   2.373   4.645   9.208  0.1181 -0.0941 -1.1203
 6181SOL    HW230006   2.231   4.697   9.177 -0.4137 -1.7146 -1.4662
 6182SOL     OW30007   2.400   2.657  11.367  0.5248  0.0123  0.3327
 6182SOL    HW130008   2.361   2.653  11.455  1.9707  0.0225  0.9828
 6182SOL    HW230009   2.385   2.566  11.343 -0.3515  0.0877  0.6220
 6183SOL     OW30010   4.561   1.068   8.146  0.1627  0.1312 -0.0045
 6183SOL    HW130011   4.601   1.006   8.086 -0.3435 -1.4767  1.2950
 6183SOL    HW230012   4.564   1.152   8.100 -2.4186  0.0833 -0.2401
 6184SOL     OW30013   2.521   0.855   8.127  0.3570  0.6067 -0.2112
 6184SOL    HW130014   2.555   0.943   8.113 -1.8896  1.3884 -0.8313
 6184SOL    HW230015   2.557   0.828   8.211  0.3512  0.4716 -0.2510
 6185SOL     OW30016   3.341   2.565  14.982  0.6924  0.2045 -0.3535
 6185SOL    HW130017   3.424   2.588  15.025 -0.1037  3.4847 -0.5435
 6185SOL    HW230018   3.290   2.590  15.059 -0.4419  0.7245 -1.2880
 6186SOL     OW30019   3.795   4.136   4.050  0.2637  0.4360  0.0059
 6186SOL    HW130020   3.801   4.094   4.136  1.9654  0.4305 -0.1239
 6186SOL    HW230021   3.769   4.224   4.078 -0.3134 -0.2726  1.7604
 6187SOL     OW30022   2.725   2.977   2.468 -0.1298  0.4246  0.3379
 6187SOL    HW130023   2.652   2.968   2.407  0.0744 -0.1983  0.1856
 6187SOL    HW230024   2.790   2.918   2.429 -0.0852  0.5113  0.2804
 6188SOL     OW30025   3.888   2.129   5.006  0.6285 -0.2985  0.0594
 6188SOL    HW130026   3.902   2.167   5.092  0.3304  0.4630 -0.2275
 6188SOL    HW230027   3.887   2.213   4.960  0.2562 -0.9660 -1.1568
 6189SOL     OW30028   0.392   3.760   7.082 -0.2283  0.5168  0.0069
 6189SOL    HW130029   0.439   3.815   7.144 -0.5650  1.2120 -0.3646
 6189SOL    HW230030   0.448   3.683   7.092  1.1874  1.6628  0.8554
 6190SOL     OW30031   4.318   0.531  11.631 -0.8246 -0.3564 -0.0891
 6190SOL    HW130032   4.233   0.573  11.641  0.0165  1.1931  0.4845
 6190SOL    HW230033   4.311   0.458  11.692 -0.9914  0.3900  0.7849
 6191SOL     OW30034   2.920   2.726   4.941  0.3056  0.2351 -0.3360
 6191SOL    HW130035   2.888   2.669   5.011 -4.3393 -0.3354 -2.9241
 6191SOL    HW230036   2.850   2.792   4.946  0.3359  0.1669  1.0147
 6192SOL     OW30037   2.221   4.272   4.996 -0.2334 -0.2305 -0.0593
 6192SOL    HW130038   2.290   4.336   4.978  1.9777 -3.7806 -4.0969
 6192SOL    HW230039   2.255   4.224   5.072  0.1011 -0.1752 -0.1736
 6193SOL     OW30040   1.291   1.350   5.271 -0.0675  0.6335  0.6543
 6193SOL    HW130041   1.338   1.433   5.280  1.5956 -0.1720 -0.6128
 6193SOL    HW230042   1.366   1.290   5.266  0.5248  1.3613  0.8238
 6194SOL     OW30043   4.319   1.849   7.969  0.5059  0.5814  0.1987
 6194SOL    HW130044   4.256   1.920   7.956 -0.7646 -0.5998 -0.1616
 6194SOL    HW230045   4.401   1.899   7.968  1.4821 -1.0329 -0.4817
 6195SOL     OW30046   4.241   2.891   4.349  0.3146  0.1380  0.0273
 6195SOL    HW130047   4.328   2.918   4.320  1.0777 -1.3035  1.0059
 6195SOL    HW230048   4.231   2.807   4.305 -1.3907  0.0706  0.5154
 6196SOL     OW30049   4.067   2.566   1.589 -0.6766  0.1773 -0.2310
 6196SOL    HW130050   4.081   2.653   1.552  0.6901  0.2450  0.4473
 6196SOL    HW230051   3.973   2.570   1.605 -0.4482  3.5411  0.1374
 6197SOL     OW30052   0.871   0.848   8.042 -0.3526  0.1960  0.3689
 6197SOL    HW130053   0.868   0.769   8.095  0.4950  1.2475  2.0074
 6197SOL    HW230054   0.906   0.906   8.110  3.3953 -1.4179 -0.1988
 6198SOL     OW30055   4.531   3.510   7.574 -0.0077  0.3415 -0.2820
 6198SOL    HW130056   4.485   3.589   7.603  0.4155  0.7128 -0.6198
 6198SOL    HW230057   4.574   3.486   7.655  2.1211 -1.0033 -1.8319
 6199SOL     OW30058   2.769   0.842   4.855  0.8378  0.0057  0.0396
 6199SOL    HW130059   2.766   0.775   4.787 -0.4861  0.2862 -0.1929
 6199SOL    HW230060   2.799   0.785   4.926 -0.9629 -0.1253  0.7163
 6200SOL     OW30061   2.508   2.041   8.111  0.4074  0.3691 -0.0563
 6200SOL    HW130062   2.510   2.018   8.204  0.0101 -0.0762 -0.1586
 6200SOL    HW230063   2.428   2.092   8.122 -0.1594 -0.9962  2.0923
 6201SOL     OW30064   1.501   2.686   8.192  0.4712  0.2382 -0.1896
 6201SOL    HW130065   1.466   2.697   8.280 -0.1079  3.3580 -0.8047
 6201SOL    HW230066   1.418   2.683   8.144  0.6673  0.8839 -0.5644
 6202SOL     OW30067   0.866   1.889  14.173 -0.1261 -0.2425  0.2364
 6202SOL    HW130068   0.887   1.819  14.111 -1.4605  0.0610 -0.5573
 6202SOL    HW230069   0.905   1.971  14.143 -2.3531  0.6702 -0.1745
 6203SOL     OW30070   0.187   3.784  14.506  0.7121 -0.4238  0.5164
 6203SOL    HW130071   0.181   3.860  14.448 -1.5657 -1.0901 -0.1053
 6203SOL    HW230072   0.148   3.721  14.446  3.0881  0.9534 -2.5353
 6204SOL     OW30073   1.059   1.676  10.786 -0.5597 -0.4124 -0.0941
 6204SOL    HW130074   1.057   1.581  10.797 -0.2170 -0.3372  0.6007
 6204SOL    HW230075   1.146   1.687  10.747 -1.3226 -0.7638 -1.9188
 6205SOL     OW30076   2.752   1.351  11.206  0.0946  0.4106  0.0951
 6205SOL    HW130077   2.773   1.431  11.255  1.1881  0.0099  0.2797
 6205SOL    HW230078   2.782   1.296  11.278  0.9981  0.8667  0.0604
 6206SOL     OW30079   2.812   2.852   6.572  0.4029  0.6090 -0.0675
 6206SOL    HW130080   2.816   2.944   6.596 -5.0609  0.7424  0.4410
 6206SOL    HW230081   2.848   2.860   6.484  0.9511 -2.4786 -0.1383
 6207SOL     OW30082   1.251   1.251   2.188  0.3404 -0.0075 -0.5247
 6207SOL    HW130083   1.284   1.164   2.167 -1.4622 -0.8312  0.0211
 6207SOL    HW230084   1.210   1.279   2.106 -0.9707 -1.2268 -0.2860
 6208SOL     OW30085   0.696   2.807   8.301 -0.6367 -0.3291  0.1078
 6208SOL    HW130086   0.776   2.838   8.258 -0.5462  0.6747  1.0124
 6208SOL    HW230087   0.651   2.881   8.340  1.5131  1.4014 -0.6432
 6209SOL     OW30088   3.591   0.925   8.469 -0.1729 -0.0394  0.0932
 6209SOL    HW130089   3.556   0.910   8.557  2.2376  0.8269  1.2096
 6209SOL    HW230090   3.584   0.842   8.422 -0.4680  0.5637 -0.9435
 6210SOL     OW30091   4.653   4.184  11.315  0.4459  1.0334  0.0537
 6210SOL    HW130092   4.711   4.120  11.274 -0.7826 -1.0364  1.5240
 6210SOL    HW230093   4.577   4.126  11.309  1.3446 -0.3172  1.4708
 6211SOL     OW30094   4.129   4.611   5.699  0.0811 -0.3618 -0.6908
 6211SOL    HW130095   4.058   4.675   5.690  1.5717  1.3947 -0.0296
 6211SOL    HW230096   4.211   4.658   5.714  1.2717 -1.9756 -2.2010
 6212SOL     OW30097   1.957   0.508  13.385 -0.1448  0.4629 -0.2280
 6212SOL    HW130098   1.935   0.420  13.354 -0.2220  0.1195  0.8113
 6212SOL    HW230099   2.052   0.500  13.373  0.2223  0.2175  2.8695
 6213SOL     OW30100   4.454   3.108   0.475 -0.1159  0.4614 -0.3474
 6213SOL    HW130101   4.425   3.132   0.563  1.2992  0.3393  0.1477
 6213SOL    HW230102   4.527   3.168   0.458  1.1536 -1.0027 -0.0622
 6214SOL     OW30103   2.760   0.442   5.379  0.4268 -0.0121  0.0669
 6214SOL    HW130104   2.842   0.473   5.339  1.7684  0.6193  3.3259
 6214SOL    HW230105   2.786   0.448   5.471 -1.0627 -2.2051  0.6425
 6215SOL     OW30106   2.875   0.111   4.210 -0.1939  0.1738 -0.7576
 6215SOL    HW130107   2.942   0.180   4.212  0.5393 -0.6095  1.2879
 6215SOL    HW230108   2.863   0.085   4.118 -1.1940 -0.5579 -0.4087
 6216SOL     OW30109   1.807   0.780   4.609 -0.4834  0.0965 -0.4276
 6216SOL    HW130110   1.865   0.735   4.670 -0.1886  1.2747  0.1634
 6216SOL    HW230111   1.876   0.812   4.550 -0.3022  1.0751  0.3181
 6217SOL     OW30112   0.967   0.893   6.982  0.0394 -0.2414 -0.1775
 6217SOL    HW130113   0.974   0.830   7.054 -1.6464 -1.8791 -1.4833
 6217SOL    HW230114   0.895   0.948   7.015  0.4774  0.6029 -0.6276
 6218SOL     OW30115   3.516   0.390   6.506  0.0791 -0.0948 -0.1576
 6218SOL    HW130116   3.590   0.450   6.490  0.4935 -0.3919  0.6182
 6218SOL    HW230117   3.457   0.433   6.444  0.5529  1.5783  0.5571
 6219SOL     OW30118   1.551   1.954  13.865  0.0547 -0.0244 -0.0034
 6219SOL    HW130119   1.466   1.996  13.876 -0.7317 -1.9658  1.3092
 6219SOL    HW230120   1.541   1.920  13.776  1.2967  0.7537 -0.4376
 6220SOL     OW30121   2.904   3.554  16.276  0.5067  0.2030  0.3149
 6220SOL    HW130122   2.926   3.635  16.230  0.4149  0.7612  1.2742
 6220SOL    HW230123   2.827   3.593  16.316  0.7871 -0.6850  1.7053
 6221SOL     OW30124   4.426   2.356  13.325  0.1815 -0.6583 -0.1284
 6221SOL    HW130125   4.487   2.333  13.255  1.1558 -0.6630  0.7308
 6221SOL    HW230126   4.413   2.275  13.374 -2.4363 -0.8098 -1.0345
 6222SOL     OW30127   1.360   4.043  13.283  0.7031  0.2597 -0.7277
 6222SOL    HW130128   1.278   4.086  13.260  0.1169 -1.4658 -1.8506
 6222SOL    HW230129   1.346   3.959  13.239 -1.1996  1.0628 -1.6491
 6223SOL     OW30130   0.200   3.590   5.901 -0.0114 -0.1678 -0.1208
 6223SOL    HW130131   0.274   3.609   5.959  0.6444 -0.3721 -0.9014
 6223SOL    HW230132   0.228   3.589   5.810  0.7057  0.3440  0.0896
 6224SOL     OW30133   4.709   4.655  14.059  0.0036 -0.3088  0.2479
 6224SOL    HW130134   4.684   4.570  14.023 -1.2246  0.5855 -1.0121
 6224SOL    HW230135   4.625   4.701  14.065  0.3359  0.2305  0.7470
 6225SOL     OW30136   3.973   1.933  14.460 -0.0128  0.2991  0.6528
 6225SOL    HW130137   4.063   1.933  14.428 -0.5198 -1.5330 -0.7575
 6225SOL    HW230138   3.967   2.018  14.504  1.7066  0.4804  0.5596
 6226SOL     OW30139   0.910   0.167   2.969  0.0500  0.1961  0.2074
 6226SOL    HW130140   0.843   0.158   2.901  1.4673  0.4178 -1.2212
 6226SOL    HW230141   0.884   0.118   3.047 -1.0446 -0.9988 -0.9049
 6227SOL     OW30142   0.025   4.616   8.346  0.2454  0.2417 -0.1466
 6227SOL    HW130143   4.711   4.588   8.263 -2.3353  1.9550  0.4698
 6227SOL    HW230144   4.685   4.585   8.410 -0.4081 -1.2040 -1.5004
 6228SOL     OW30145   0.693   2.248   5.200 -0.3129  0.7019  0.1752
 6228SOL    HW130146   0.767   2.260   5.139 -1.1036  1.4183 -0.6453
 6228SOL    HW230147   0.653   2.182   5.143  0.1158 -0.0986  0.8008
 6229SOL     OW30148   0.237   0.984   0.797  0.4787  0.4417 -0.0343
 6229SOL    HW130149   0.330   1.000   0.810  1.0589 -0.7948 -2.6726
 6229SOL    HW230150   0.224   0.922   0.868  1.6985 -2.3253 -2.2545
 6230SOL     OW30151   3.238   4.081   8.090 -0.0141 -0.2693 -0.2965
 6230SOL    HW130152   3.249   4.144   8.018 -2.0194 -0.4876 -0.7945
 6230SOL    HW230153   3.143   4.085   8.098  0.0698  1.1582  0.0603
 6231SOL     OW30154   3.733   4.478  12.547 -0.1026 -0.1619 -0.3008
 6231SOL    HW130155   3.709   4.536  12.475 -0.0681  0.0910 -0.1102
 6231SOL    HW230156   3.828   4.491  12.545  0.0082 -0.7742  1.0293
 6232SOL     OW30157   1.227   2.862   6.949  0.2895  0.6090 -0.0771
 6232SOL    HW130158   1.184   2.887   7.031 -2.5870 -0.4171 -1.2674
 6232SOL    HW230159   1.298   2.809   6.984  0.2947 -0.1108 -1.1787
 6233SOL     OW30160   0.209   4.628   3.586  0.1658 -0.2161 -0.0220
 6233SOL    HW130161   0.155   4.682   3.645  2.0827  0.2452  1.3342
 6233SOL    HW230162   0.299   4.641   3.614 -0.4662  0.3303  1.7856
 6234SOL     OW30163   3.388   0.709   2.356 -0.1859 -0.2384  0.1149
 6234SOL    HW130164   3.304   0.665   2.367 -1.3674  2.4349  1.6721
 6234SOL    HW230165   3.371   0.787   2.409  1.4790 -0.0517  0.3881
 6235SOL     OW30166   3.969   2.251   5.254  0.0279  0.3511 -0.2947
 6235SOL    HW130167   3.949   2.322   5.316  2.6848 -0.2068  1.1970
 6235SOL    HW230168   3.948   2.168   5.297  1.4466  0.1863  0.0837
 6236SOL     OW30169   0.510   3.659  16.850 -0.2719 -0.4689  0.4910
 6236SOL    HW130170   0.492   3.740  16.897 -0.8865 -0.5025  0.3250
 6236SOL    HW230171   0.421   3.622  16.850 -1.0211  1.3722  2.5781
 6237SOL     OW30172   3.923   0.732  17.151 -0.5393 -0.3142  0.3323
 6237SOL    HW130173   3.942   0.798  17.084  0.1138 -0.0111  0.8200
 6237SOL    HW230174   4.005   0.690  17.176  0.8134  0.3518 -3.0864
 6238SOL     OW30175   3.473   2.460   7.494  0.5177  0.2039  0.2308
 6238SOL    HW130176   3.516   2.379   7.521  0.4186  0.5511  1.4250
 6238SOL    HW230177   3.541   2.502   7.441  1.8443 -2.0700  0.1466
 6239SOL     OW30178   3.373   1.000   3.164  0.5407  0.2574 -0.1175
 6239SOL    HW130179   3.336   1.078   3.207 -0.2340  0.2192 -0.7181
 6239SOL    HW230180   3.363   0.935   3.234 -2.0123 -1.0621 -1.7201
 6240SOL     OW30181   2.498   2.307   7.804 -0.2595 -0.1452 -0.0473
 6240SOL    HW130182   2.566   2.329   7.741 -0.9567  1.6510 -0.1507
 6240SOL    HW230183   2.467   2.397   7.811 -0.7719 -0.3443  0.2575
 6241SOL     OW30184   1.781   0.979   0.472  0.5534 -0.0365 -0.1426
 6241SOL    HW130185   1.785   1.070   0.499  0.2754 -0.6659  2.0342
 6241SOL    HW230186   1.796   0.996   0.378  0.4662 -1.5959 -0.4379
 6242SOL     OW30187   2.971   4.022   3.186 -0.0211 -0.1424 -0.0451
 6242SOL    HW130188   3.059   3.984   3.180  0.0987  0.2123 -0.4912
 6242SOL    HW230189   2.946   4.012   3.095 -1.8682  1.8944  0.2419
 6243SOL     OW30190   2.044   3.833   4.864 -0.0846 -0.3895  0.3240
 6243SOL    HW130191   2.025   3.871   4.778  0.3538 -2.4323 -0.6668
 6243SOL    HW230192   1.963   3.855   4.912  1.6333  1.0326  2.5678
 6244SOL     OW30193   3.492   4.343  10.538 -0.0392 -0.2085 -0.3004
 6244SOL    HW130194   3.520   4.289  10.612  1.3775  1.3591  0.3014
 6244SOL    HW230195   3.402   4.312  10.530 -0.1150 -0.0413 -0.0937
 6245SOL     OW30196   0.107   4.197   9.182  0.2106 -0.0942  0.5590
 6245SOL    HW130197   0.183   4.232   9.135 -0.1371 -1.0039 -0.6697
 6245SOL    HW230198   0.127   4.105   9.199  1.4334 -0.5460 -3.2974
 6246SOL     OW30199   2.552   2.207  13.441 -0.4571 -0.0169  0.5088
 6246SOL    HW130200   2.583   2.272  13.504 -1.6339  1.7106 -0.7224
 6246SOL    HW230201   2.457   2.221  13.450 -0.9948 -1.9510 -2.1600
 6247SOL     OW30202   3.050   0.321   8.148  0.5329 -0.0844 -0.2505
 6247SOL    HW130203   3.074   0.307   8.056 -0.8230 -2.2981 -0.2462
 6247SOL    HW230204   3.064   0.416   8.142  0.1090  0.0106  0.3113
 6248SOL     OW30205   1.101   0.323   9.451  0.7278  0.1075 -0.3859
 6248SOL    HW130206   1.142   0.363   9.374 -0.3543 -0.6001 -1.3257
 6248SOL    HW230207   1.063   0.399   9.494 -2.4166  0.3712 -3.6255
 6249SOL     OW30208   1.447   4.627   5.816  0.6351 -0.4485  0.2284
 6249SOL    HW130209   1.538   4.624   5.787  0.5612 -0.0755 -0.0381
 6249SOL    HW230210   1.409   4.679   5.746 -0.6483  0.6273  1.7119
 6250SOL     OW30211   2.244   2.132  12.726 -0.0731  0.3833 -0.1307
 6250SOL    HW130212   2.149   2.121  12.717 -0.2178  0.2612  1.5394
 6250SOL    HW230213   2.275   2.140  12.636  0.0996 -0.5582 -0.1606
 6251SOL     OW30214   2.958   1.123  16.858  0.5018  0.1689 -0.1994
 6251SOL    HW130215   2.945   1.122  16.764  0.5673  2.2544 -0.2442
 6251SOL    HW230216   2.896   1.192  16.883  1.4803  1.4035 -1.2068
 6252SOL     OW30217   2.596   4.006   3.254 -0.0423 -0.2506 -0.4727
 6252SOL    HW130218   2.511   4.026   3.215 -1.8944 -2.4870  2.3873
 6252SOL    HW230219   2.657   4.077   3.236 -1.0153  0.6294 -0.2514
 6253SOL     OW30220   3.454   1.473   1.297 -0.5267 -0.5369 -0.3727
 6253SOL    HW130221   3.374   1.511   1.333  0.6544 -0.4446  2.1742
 6253SOL    HW230222   3.443   1.380   1.318  0.4456 -0.5393  0.1546
 6254SOL     OW30223   3.472   2.162  14.425  0.1851 -0.2452 -0.1960
 6254SOL    HW130224   3.474   2.212  14.506  1.7422 -0.4998 -0.0900
 6254SOL    HW230225   3.437   2.077  14.453  0.6825 -0.6738 -0.8586
 6255SOL     OW30226   1.164   0.066   2.427 -0.2307 -0.1304 -0.4306
 6255SOL    HW130227   1.214   0.137   2.468 -0.5342 -0.6125  0.7459
 6255SOL    HW230228   1.210   0.052   2.344 -0.0320 -1.7022 -0.0451
 6256SOL     OW30229   2.078   2.669   8.782 -0.4868 -0.0606 -0.3333
 6256SOL    HW130230   2.134   2.601   8.820  0.1901  0.6475 -0.0382
 6256SOL    HW230231   2.099   2.667   8.689  1.2641  1.0000  0.0250
 6257SOL     OW30232   3.148   0.779  10.341 -0.0474 -0.1897 -0.3355
 6257SOL    HW130233   3.157   0.738  10.255 -0.3180 -3.1292  1.0680
 6257SOL    HW230234   3.056   0.804  10.353 -0.0000 -0.5101  0.6235
 6258SOL     OW30235   1.535   3.166   3.196  0.4050  0.5350  0.0284
 6258SOL    HW130236   1.604   3.100   3.186  0.2370  0.0231  2.1902
 6258SOL    HW230237   1.534   3.167   3.291 -0.1361 -0.2791  0.0394
 6259SOL     OW30238   0.632   2.216   4.028 -0.1971  0.1995  0.2172
 6259SOL    HW130239   0.589   2.186   3.948  0.4491 -1.1579  0.3843
 6259SOL    HW230240   0.688   2.285   3.992 -0.5049 -0.6833 -1.9500
 6260SOL     OW30241   1.223   1.659  12.233 -0.3230  0.1646  0.2771
 6260SOL    HW130242   1.146   1.612  12.201  0.8170 -0.7330 -1.1298
 6260SOL    HW230243   1.267   1.588  12.279 -0.1027 -0.2431 -0.5627
 6261SOL     OW30244   1.050   2.063   5.265  0.3084 -0.2888  0.4291
 6261SOL    HW130245   1.031   2.092   5.176  0.5169 -1.3451  0.0390
 6261SOL    HW230246   1.141   2.038   5.249 -0.1198 -2.2479  1.0046
 6262SOL     OW30247   0.860   1.685   0.379  0.2474 -0.4779  0.3734
 6262SOL    HW130248   0.809   1.605   0.390 -1.7159  0.7355  0.0964
 6262SOL    HW230249   0.786   1.746   0.374  3.1400  3.0218  0.2095
 6263SOL     OW30250   0.571   3.185  12.376  0.5435 -0.1368 -0.4292
 6263SOL    HW130251   0.580   3.183  12.281 -0.6882  1.1677 -0.5829
 6263SOL    HW230252   0.662   3.190  12.403  0.6708 -2.9153 -0.3108
 6264SOL     OW30253   2.904   1.685   6.027 -0.1725  0.5396 -0.6854
 6264SOL    HW130254   2.944   1.709   5.943 -0.2365  0.6921 -0.6727
 6264SOL    HW230255   2.954   1.741   6.086 -1.6593  1.3416 -0.1779
 6265SOL     OW30256   2.121   1.048   4.735 -0.4713 -0.1656 -0.4509
 6265SOL    HW130257   2.031   1.020   4.720 -0.5421  0.4497 -1.1718
 6265SOL    HW230258   2.136   1.005   4.819 -0.2110 -0.5420 -0.6921
 6266SOL     OW30259   2.294   3.863  12.612 -0.5364  0.1657 -0.3827
 6266SOL    HW130260   2.335   3.812  12.682  0.1137 -0.2305 -1.0535
 6266SOL    HW230261   2.254   3.786  12.572 -2.1756  0.4045  0.8031
 6267SOL     OW30262   0.953   0.693   2.983  0.3206 -0.3415  0.0025
 6267SOL    HW130263   0.934   0.746   2.906  1.0454  1.3292  0.9845
 6267SOL    HW230264   0.908   0.617   2.946  0.2884 -0.2739 -0.0957
 6268SOL     OW30265   1.442   1.871   6.070  0.0960 -0.0680  0.2757
 6268SOL    HW130266   1.412   1.781   6.054  1.0758 -0.1606 -1.0180
 6268SOL    HW230267   1.403   1.917   5.995  0.4050 -1.1184 -0.5362
 6269SOL     OW30268   4.322   4.489  10.759 -0.2299  0.5495  0.1819
 6269SOL    HW130269   4.291   4.414  10.810  2.5866 -1.2358 -0.6932
 6269SOL    HW230270   4.395   4.457  10.706 -0.3663  0.0158  0.3085
 6270SOL     OW30271   2.596   1.652  14.443  0.4084 -0.1348 -0.3157
 6270SOL    HW130272   2.662   1.616  14.384  2.9047  0.7740  1.8916
 6270SOL    HW230273   2.587   1.744  14.422 -0.3516 -0.1955 -0.2644
 6271SOL     OW30274   0.495   2.467   6.931 -0.3400  0.3565  0.0660
 6271SOL    HW130275   0.522   2.541   6.984  0.9471  0.0123 -0.1103
 6271SOL    HW230276   0.549   2.403   6.977 -1.4905 -0.7163 -0.0770
 6272SOL     OW30277   1.724   3.613   3.518  0.3955 -0.2228 -0.5361
 6272SOL    HW130278   1.782   3.539   3.536  0.9464 -0.0777 -1.7189
 6272SOL    HW230279   1.639   3.569   3.510  1.6570 -2.5953 -0.8099
 6273SOL     OW30280   2.091   1.190   2.873 -0.2671  0.2447 -0.1007
 6273SOL    HW130281   2.084   1.114   2.816  0.5185 -1.3815  1.9877
 6273SOL    HW230282   2.005   1.230   2.860  0.0754  0.7319 -0.8561
 6274SOL     OW30283   2.156   0.483   4.135  0.6783 -0.8017  0.4739
 6274SOL    HW130284   2.201   0.406   4.101 -0.4638 -0.9414 -0.7326
 6274SOL    HW230285   2.191   0.545   4.071  1.3244  0.2592  1.8560
 6275SOL     OW30286   0.429   2.814   2.394 -0.0579 -0.2667  0.3297
 6275SOL    HW130287   0.393   2.858   2.317  0.3644  0.0790  0.3253
 6275SOL    HW230288   0.395   2.727   2.373 -0.1747 -0.3427  0.8404
 6276SOL     OW30289   4.157   3.649   8.266  0.4281  0.3445  0.0660
 6276SOL    HW130290   4.250   3.629   8.279  0.1283 -0.6287  0.7549
 6276SOL    HW230291   4.123   3.581   8.324 -0.9142 -0.3939 -1.6114
 6277SOL     OW30292   1.983   4.441   4.836  0.0311 -0.1646  0.2361
 6277SOL    HW130293   1.911   4.383   4.863  1.3253 -1.4323  0.9421
 6277SOL    HW230294   2.045   4.396   4.892 -1.7942 -1.8784  0.8928
 6278SOL     OW30295   2.945   1.264  17.522 -0.2680  0.1725 -0.6931
 6278SOL    HW130296   3.025   1.212  17.519 -0.6811 -0.5440  0.9258
 6278SOL    HW230297   2.962   1.306  17.607  2.3222  1.6323 -1.9163
 6279SOL     OW30298   0.113   3.399   3.992  0.0631 -0.7891  0.4520
 6279SOL    HW130299   0.036   3.448   3.965  0.8377 -0.4987 -1.2498
 6279SOL    HW230300   0.165   3.453   4.051  0.2774  1.7348 -2.0565
 6280SOL     OW30301   0.593   3.995   9.837 -0.0445  0.0033  0.1071
 6280SOL    HW130302   0.535   3.942   9.781  0.1087 -0.3228  0.2577
 6280SOL    HW230303   0.647   3.926   9.876 -0.5647 -1.1899 -1.2724
 6281SOL     OW30304   0.447   3.898   7.450 -0.3052  0.3809 -0.7219
 6281SOL    HW130305   0.484   3.900   7.361  1.3395  1.6068 -0.0166
 6281SOL    HW230306   0.447   3.992   7.470 -0.9032  0.4961 -1.2476
 6282SOL     OW30307   1.014   3.530   9.569 -0.1523  0.2801  0.0953
 6282SOL    HW130308   0.964   3.448   9.565  0.4860 -0.0373 -1.4562
 6282SOL    HW230309   0.946   3.596   9.563  0.2833  0.8791  1.6784
 6283SOL     OW30310   0.728   1.542   6.712  0.2437  0.9695 -0.4241
 6283SOL    HW130311   0.759   1.451   6.707 -0.0958  0.8225  0.1581
 6283SOL    HW230312   0.793   1.587   6.766 -0.5222  0.0500  1.2958
 6284SOL     OW30313   0.783   2.020   6.321 -0.0872  0.0853 -0.8485
 6284SOL    HW130314   0.745   2.043   6.236 -2.8179 -2.8463 -0.4297
 6284SOL    HW230315   0.704   2.048   6.368  0.5341  0.3862  0.0125
 6285SOL     OW30316   1.964   0.943   7.347 -0.4353  0.4631 -0.3071
 6285SOL    HW130317   1.986   1.003   7.418  1.2911 -1.7391  1.0019
 6285SOL    HW230318   1.987   0.855   7.376 -0.2918  0.7374  0.4173
 6286SOL     OW30319   0.647   2.806   2.843 -0.0807 -0.3468 -0.5610
 6286SOL    HW130320   0.572   2.862   2.863 -0.1009 -0.6913  0.3607
 6286SOL    HW230321   0.633   2.771   2.755 -1.5327 -2.6275  0.5901
 6287SOL     OW30322   2.432   4.233  10.931 -0.0682  0.6542  0.0520
 6287SOL    HW130323   2.464   4.323  10.931 -1.8642  1.2934 -0.0806
 6287SOL    HW230324   2.506   4.174  10.944 -0.9234 -0.7019 -1.2709
 6288SOL     OW30325   0.163   2.163   8.363  0.0273  0.3471  0.1983
 6288SOL    HW130326   0.233   2.142   8.425  0.1193 -0.2561 -0.1110
 6288SOL    HW230327   0.093   2.102   8.387 -1.0090  1.0141 -1.1001
 6289SOL     OW30328   1.910   2.892  12.101  0.3140  0.0767  0.3869
 6289SOL    HW130329   1.948   2.954  12.039 -0.1807 -1.0660 -1.0403
 6289SOL    HW230330   1.818   2.890  12.074 -0.6004 -2.7647  3.6615
 6290SOL     OW30331   1.372   3.741   1.410  0.5359 -0.3220 -0.7798
 6290SOL    HW130332   1.397   3.823   1.452  0.4024  0.7332 -2.7887
 6290SOL    HW230333   1.455   3.697   1.389 -0.1520 -1.5967 -0.8513
 6291SOL     OW30334   3.259   1.011   2.926 -0.0549  0.3495 -0.5042
 6291SOL    HW130335   3.186   0.970   2.971  0.9166 -1.0965 -0.2481
 6291SOL    HW230336   3.331   0.996   2.987  0.7366  0.2931 -1.4471
 6292SOL     OW30337   3.175   3.124   0.443  0.0951 -0.2537 -0.0580
 6292SOL    HW130338   3.096   3.080   0.412 -1.3186  0.8832  1.9223
 6292SOL    HW230339   3.236   3.069   0.393 -1.7246 -0.8640 -1.5990
 6293SOL     OW30340   3.394   2.061   8.449 -0.0038  0.3046  0.0973
 6293SOL    HW130341   3.390   1.969   8.476  0.4868  0.4168  0.5775
 6293SOL    HW230342   3.417   2.102   8.532 -0.2850 -1.5765  1.1052
 6294SOL     OW30343   0.848   2.121   1.352 -0.0403  0.5526 -0.6287
 6294SOL    HW130344   0.793   2.135   1.275  0.0815 -1.7434 -1.1180
 6294SOL    HW230345   0.807   2.180   1.416  2.3529  0.3424  1.1084
 6295SOL     OW30346   3.890   0.790   1.426  0.0693 -0.5449  0.0529
 6295SOL    HW130347   3.828   0.856   1.396 -0.5797 -0.6860  1.0929
 6295SOL    HW230348   3.833   0.735   1.479  0.7884 -2.5541 -1.2668
 6296SOL     OW30349   1.419   0.811  10.906 -0.6683 -0.6621 -0.3284
 6296SOL    HW130350   1.368   0.737  10.874  1.2132 -2.1545  0.1094
 6296SOL    HW230351   1.415   0.862  10.826 -2.2217  0.4727  0.4820
 6297SOL     OW30352   0.967   3.242   5.617  0.0826  0.3579 -0.1197
 6297SOL    HW130353   0.981   3.267   5.708  1.7052  0.7838 -0.4883
 6297SOL    HW230354   0.981   3.327   5.577  3.6968  0.0221  0.5003
 6298SOL     OW30355   1.161   0.354   6.022  0.0946 -0.2624 -0.4490
 6298SOL    HW130356   1.220   0.429   6.021 -1.1862  0.7716  0.4960
 6298SOL    HW230357   1.210   0.296   5.965 -0.1851 -0.4199 -0.5297
 6299SOL     OW30358   2.455   3.420   5.514 -0.0464 -0.7213 -0.5330
 6299SOL    HW130359   2.494   3.502   5.543 -1.7835  0.0336 -0.3426
 6299SOL    HW230360   2.506   3.409   5.434 -0.4706  0.0783 -0.9203
 6300SOL     OW30361   1.942   1.652   8.725  0.4479 -1.0857  0.7792
 6300SOL    HW130362   2.019   1.645   8.668  0.9452 -2.6537  1.6510
 6300SOL    HW230363   1.971   1.662   8.816  0.1988  1.4925  0.5684
 6301SOL     OW30364   3.198   3.837  15.015 -0.2826 -0.0440  0.1831
 6301SOL    HW130365   3.206   3.911  15.075 -0.5015 -0.1210  0.3094
 6301SOL    HW230366   3.289   3.818  14.994  0.3587  2.0762  1.0264
 6302SOL     OW30367   3.887   0.802   6.597 -0.3192  0.6492 -0.3430
 6302SOL    HW130368   3.894   0.897   6.612 -2.2656  0.6706  0.5197
 6302SOL    HW230369   3.980   0.781   6.596 -0.5972 -0.5635 -0.7771
 6303SOL     OW30370   0.151   3.131  12.316  0.5158 -0.5549 -0.6403
 6303SOL    HW130371   0.181   3.040  12.312 -1.0484 -1.1007  0.2621
 6303SOL    HW230372   0.074   3.120  12.371  0.6207 -2.0076 -0.7783
 6304SOL     OW30373   0.940   4.182   1.109 -0.0930 -0.0931 -0.7106
 6304SOL    HW130374   0.984   4.098   1.122  0.0559 -0.2076 -1.9195
 6304SOL    HW230375   1.014   4.241   1.097  0.2747  0.4241  4.0267
 6305SOL     OW30376   2.055   2.732   3.998 -0.3308 -0.4062  0.5605
 6305SOL    HW130377   2.036   2.644   3.964  0.8401 -0.3602 -0.2045
 6305SOL    HW230378   2.150   2.732   4.010 -0.3239  1.6709  0.3285
 6306SOL     OW30379   3.146   2.888   7.456  0.3646  0.3556 -0.3483
 6306SOL    HW130380   3.086   2.949   7.413 -1.1381 -1.5181 -0.8768
 6306SOL    HW230381   3.218   2.930   7.409  0.6770 -1.0170 -1.0738
 6307SOL     OW30382   0.224   1.171  14.752  0.0962 -0.6912 -0.0077
 6307SOL    HW130383   0.247   1.144  14.841 -1.1251 -2.8189 -0.3259
 6307SOL    HW230384   0.206   1.089  14.706  1.2147 -0.9514  0.0062
 6308SOL     OW30385   3.198   2.265   7.775 -0.1200 -0.1974  0.0602
 6308SOL    HW130386   3.114   2.289   7.814 -0.0289  0.0398  0.1082
 6308SOL    HW230387   3.166   2.220   7.696  1.0574 -1.4916  0.3139
 6309SOL     OW30388   2.985   3.499   7.441  0.1357 -0.0736 -0.1830
 6309SOL    HW130389   3.021   3.420   7.481  1.0184 -1.1568 -3.0909
 6309SOL    HW230390   3.015   3.506   7.350 -0.7063  1.4500 -0.3466
 6310SOL     OW30391   2.136   1.327   5.895 -0.2302 -0.5386  0.0563
 6310SOL    HW130392   2.115   1.259   5.831 -0.1506  0.8752 -1.4853
 6310SOL    HW230393   2.065   1.389   5.877 -0.4935 -0.3712  1.6998
 6311SOL     OW30394   2.026   2.968   2.479  0.6976 -0.2228  0.7600
 6311SOL    HW130395   1.942   2.923   2.470  0.0237  0.7122  2.3538
 6311SOL    HW230396   2.037   2.965   2.574 -0.4745  0.6744  0.9234
 6312SOL     OW30397   3.108   0.918  15.498 -0.1738  0.2361  0.5695
 6312SOL    HW130398   3.133   0.907  15.407  0.0078 -0.0498  0.6531
 6312SOL    HW230399   3.189   0.903  15.547  1.1281  1.3664 -1.2265
 6313SOL     OW30400   3.782   0.707   3.236  0.5015  0.4265  0.1524
 6313SOL    HW130401   3.834   0.713   3.316 -1.0910 -2.1309  1.3683
 6313SOL    HW230402   3.738   0.793   3.232 -0.5710 -0.0749  1.2520
 6314SOL     OW30403   0.773   0.774   5.101 -0.3035  0.4960  0.2549
 6314SOL    HW130404   0.857   0.798   5.140 -0.7895  0.9900  0.9881
 6314SOL    HW230405   0.745   0.860   5.072 -0.2763  0.4980  0.2348
 6315SOL     OW30406   2.461   0.238  16.163 -0.4375  0.3072 -0.1753
 6315SOL    HW130407   2.381   0.223  16.213  0.5449 -1.1340  0.9839
 6315SOL    HW230408   2.438   0.298  16.092 -2.7671  0.6153  0.8319
 6316SOL     OW30409   3.868   3.462   7.631 -0.0392 -0.0812 -1.2436
 6316SOL    HW130410   3.859   3.558   7.627 -2.2361 -0.2295  0.2141
 6316SOL    HW230411   3.962   3.458   7.617  0.0509 -1.8593 -0.0775
 6317SOL     OW30412   0.108   4.198   4.240  0.6267 -0.1138  0.4340
 6317SOL    HW130413   0.027   4.195   4.292  0.3264  0.0212 -0.0315
 6317SOL    HW230414   0.094   4.109   4.207  1.7271 -0.2652  0.3958
 6318SOL     OW30415   2.109   3.038   9.564 -0.0680 -0.3211 -0.1977
 6318SOL    HW130416   2.088   2.945   9.563 -0.2051 -0.2753 -1.0914
 6318SOL    HW230417   2.014   3.055   9.567  0.1868  1.0363  0.3503
 6319SOL     OW30418   1.699   3.131   5.433  0.0763  0.0847 -0.2496
 6319SOL    HW130419   1.654   3.178   5.503  1.0235  0.5637  0.0355
 6319SOL    HW230420   1.704   3.042   5.468  2.6298 -0.1918 -1.3459
 6320SOL     OW30421   1.445   0.695  14.586  0.8244 -0.1069  0.2891
 6320SOL    HW130422   1.447   0.642  14.666 -2.4205  0.7306  0.9134
 6320SOL    HW230423   1.360   0.668  14.553  1.0373 -0.3413 -0.0742
 6321SOL     OW30424   0.301   1.206  16.574 -0.0079  0.3035 -0.6121
 6321SOL    HW130425   0.219   1.210  16.623 -1.2466 -0.9874 -2.5748
 6321SOL    HW230426   0.358   1.260  16.629 -1.4203  1.6534 -0.4982
 6322SOL     OW30427   1.624   3.392   8.398 -0.3597  0.8706 -0.2683
 6322SOL    HW130428   1.711   3.384   8.359  0.2564 -1.5007  1.6275
 6322SOL    HW230429   1.565   3.391   8.323  0.9688  0.9979 -1.2993
 6323SOL     OW30430   2.595   4.363   7.085 -0.0121  0.0648  0.4519
 6323SOL    HW130431   2.541   4.435   7.116 -0.9034  0.3433 -1.7903
 6323SOL    HW230432   2.682   4.387   7.117  0.3166  0.1689 -0.5107
 6324SOL     OW30433   2.433   3.094   8.583  0.6974 -0.1627 -0.5161
 6324SOL    HW130434   2.349   3.069   8.621  0.4818 -1.6846 -1.9969
 6324SOL    HW230435   2.469   3.145   8.656 -2.3720 -2.7857  2.8492
 6325SOL     OW30436   2.023   0.248   9.338  0.0903 -0.3100 -0.0449
 6325SOL    HW130437   2.028   0.299   9.257 -0.0864 -0.2033  0.0110
 6325SOL    HW230438   2.113   0.247   9.370 -0.4785  0.0011  1.5466
 6326SOL     OW30439   2.444   2.953  10.963 -0.0713 -0.0168  0.3567
 6326SOL    HW130440   2.413   2.939  11.052  0.1684  0.7500  0.5560
 6326SOL    HW230441   2.388   2.901  10.905 -0.6607 -1.5256  2.2890
 6327SOL     OW30442   3.062   4.100   0.676  0.5277 -0.0795 -0.1785
 6327SOL    HW130443   3.023   4.043   0.610  2.2768  0.3227 -1.5405
 6327SOL    HW230444   3.137   4.048   0.705  1.5964  1.3233 -0.4388
 6328SOL     OW30445   2.232   0.052   7.088  0.0782 -0.1461 -0.1337
 6328SOL    HW130446   2.233   0.137   7.044  1.6035 -0.9879 -1.7316
 6328SOL    HW230447   2.311   0.012   7.052  0.6843  0.0838  0.9333
 6329SOL     OW30448   0.840   4.705  15.523  0.3194 -0.3358  0.2393
 6329SOL    HW130449   0.930   0.002  15.548  0.6479 -1.0865 -0.3498
 6329SOL    HW230450   0.847   4.681  15.431  1.5461  1.7322 -0.2066
 6330SOL     OW30451   1.333   1.717  10.727 -0.2162  0.0177  0.0960
 6330SOL    HW130452   1.398   1.688  10.791 -0.0416 -0.2011 -0.1818
 6330SOL    HW230453   1.368   1.671  10.651 -1.0497 -0.0411 -0.2494
 6331SOL     OW30454   1.152   0.826  14.466 -0.0510  0.1230  0.1243
 6331SOL    HW130455   1.140   0.832  14.371  0.4160  0.4883  0.0863
 6331SOL    HW230456   1.209   0.899  14.491  1.2133 -1.7627  2.7524
 6332SOL     OW30457   0.318   1.173   8.735  0.0814 -0.3386  0.1339
 6332SOL    HW130458   0.246   1.112   8.720 -0.0452 -0.0638 -0.3987
 6332SOL    HW230459   0.342   1.176   8.827 -1.3622  1.9604  0.4413
 6333SOL     OW30460   0.241   4.065   8.934 -1.0137 -0.4016 -0.0869
 6333SOL    HW130461   0.238   4.001   9.005 -0.1154 -1.6709 -1.1794
 6333SOL    HW230462   0.292   4.137   8.973 -0.5280 -0.0586 -1.3406
 6334SOL     OW30463   2.414   1.648   7.754  0.2961  0.5536  0.1187
 6334SOL    HW130464   2.434   1.598   7.833  0.5978 -1.6637 -1.3375
 6334SOL    HW230465   2.348   1.712   7.781 -1.0226 -0.9026  0.3765
 6335SOL     OW30466   0.690   2.867   1.667  0.4483 -0.7199  0.4957
 6335SOL    HW130467   0.736   2.946   1.640 -0.4652  0.1540  1.5039
 6335SOL    HW230468   0.603   2.891   1.634  1.3650  2.6020  0.5793
 6336SOL     OW30469   1.058   4.296   2.830  0.5427  0.1869  0.1539
 6336SOL    HW130470   1.020   4.382   2.846 -2.8453 -1.4724  1.0317
 6336SOL    HW230471   1.061   4.309   2.735  1.0583 -2.9020 -0.2586
 6337SOL     OW30472   1.597   4.621   4.717 -0.4042 -0.7091  0.2603
 6337SOL    HW130473   1.609   4.701   4.665  1.8075  0.0376  1.9007
 6337SOL    HW230474   1.635   4.556   4.657 -0.6008  1.5836 -2.3301
 6338SOL     OW30475   4.489   3.581  14.895 -0.1208  0.0861  0.5977
 6338SOL    HW130476   4.564   3.561  14.839 -0.5513 -1.8913  0.6953
 6338SOL    HW230477   4.520   3.549  14.980 -1.5979 -3.1614 -0.0856
 6339SOL     OW30478   2.655   3.605   5.272 -0.1383 -0.1118  0.2624
 6339SOL    HW130479   2.656   3.682   5.329 -0.4742  0.3159 -0.3121
 6339SOL    HW230480   2.679   3.650   5.191 -1.2710 -1.6861 -0.9238
 6340SOL     OW30481   2.777   3.690   7.953  0.3374 -0.0656 -0.5339
 6340SOL    HW130482   2.771   3.599   7.980 -3.0292 -0.3471 -2.1395
 6340SOL    HW230483   2.807   3.684   7.862  0.3862  0.4856 -0.5573
 6341SOL     OW30484   3.736   0.089   2.509  0.1591 -0.2995 -0.0115
 6341SOL    HW130485   3.748   0.019   2.445  3.5967  2.2541 -2.1800
 6341SOL    HW230486   3.700   0.047   2.587  0.7848 -2.4731 -0.8976
 6342SOL     OW30487   1.343   1.662   2.852  0.7046 -0.8208  0.7363
 6342SOL    HW130488   1.340   1.574   2.890 -1.3228  0.2318  3.0485
 6342SOL    HW230489   1.324   1.636   2.762 -2.9859 -0.9250  1.5514
 6343SOL     OW30490   1.393   3.784   8.344 -0.4205  0.4541 -0.0908
 6343SOL    HW130491   1.456   3.752   8.279 -1.6901 -0.3504 -0.9022
 6343SOL    HW230492   1.415   3.725   8.417 -0.4297 -0.4942 -0.8580
 6344SOL     OW30493   3.051   3.224   4.800  0.1502 -0.3786  0.4608
 6344SOL    HW130494   3.106   3.301   4.788 -0.5571  0.4181  2.2832
 6344SOL    HW230495   3.095   3.155   4.750  0.6632  0.4600 -0.2296
 6345SOL     OW30496   0.110   2.487   1.101  0.2371  0.7104 -0.1554
 6345SOL    HW130497   0.131   2.466   1.010 -0.8691  1.0234 -0.4796
 6345SOL    HW230498   0.016   2.469   1.094  0.5445 -1.0842  0.2387
 6346SOL     OW30499   2.403   2.049   5.732  0.3276  0.2256  0.0702
 6346SOL    HW130500   2.451   2.131   5.733 -1.7206  1.4037  0.1832
 6346SOL    HW230501   2.383   2.030   5.640  2.2292 -2.6326  0.2200
 6347SOL     OW30502   2.892   0.773   1.414  0.5647  0.2085 -0.1077
 6347SOL    HW130503   2.987   0.771   1.414  0.5830  0.9691  0.0547
 6347SOL    HW230504   2.877   0.789   1.321 -0.8865 -1.3943 -0.1472
 6348SOL     OW30505   4.109   1.815   3.039 -0.7225  0.2679  0.3925
 6348SOL    HW130506   4.180   1.839   3.098 -1.1412 -1.2677  1.5518
 6348SOL    HW230507   4.040   1.871   3.073  0.3266  1.9546 -0.2669
 6349SOL     OW30508   4.467   2.357   6.665  0.1117  0.0129 -0.2137
 6349SOL    HW130509   4.558   2.329   6.664 -0.1729 -1.0147  1.8985
 6349SOL    HW230510   4.440   2.329   6.753 -2.7216 -1.3370 -1.5092
 6350SOL     OW30511   2.943   2.300   2.073 -0.3397  0.2860 -0.4632
 6350SOL    HW130512   2.848   2.288   2.077 -0.3054 -0.3327 -1.4539
 6350SOL    HW230513   2.958   2.269   1.983 -1.4597 -1.3737 -0.0794
 6351SOL     OW30514   2.288   0.019   8.581  0.3924 -0.0774  0.0158
 6351SOL    HW130515   2.355   4.711   8.520  0.7190 -1.1085  0.9101
 6351SOL    HW230516   2.295   0.113   8.562 -1.5324  0.6708  2.9754
 6352SOL     OW30517   2.900   2.649   4.411 -0.5820  0.2614  0.4011
 6352SOL    HW130518   2.934   2.737   4.421 -0.3972 -0.0993  2.7280
 6352SOL    HW230519   2.829   2.661   4.347 -0.5913  0.4273  0.4444
 6353SOL     OW30520   1.009   3.252   4.715 -0.3711  0.1386 -0.4309
 6353SOL    HW130521   1.080   3.231   4.776 -2.2976 -0.6041  1.5617
 6353SOL    HW230522   0.943   3.194   4.753  0.6016 -0.6347  0.0758
 6354SOL     OW30523   2.212   1.222   6.330  0.5956  0.1948  0.9845
 6354SOL    HW130524   2.204   1.293   6.267 -3.3672 -0.7991  0.3338
 6354SOL    HW230525   2.135   1.246   6.382  0.6915  1.6948  0.4319
 6355SOL     OW30526   1.367   3.704   4.615 -0.2375  0.9379  0.0721
 6355SOL    HW130527   1.363   3.768   4.685 -0.3159  1.9164 -0.8228
 6355SOL    HW230528   1.332   3.625   4.655 -1.4197  0.7930 -1.2580
 6356SOL     OW30529   4.616   2.470   9.422  0.5428 -0.4555  0.3369
 6356SOL    HW130530   4.598   2.559   9.394 -1.8781 -0.8903  0.4866
 6356SOL    HW230531   4.528   2.435   9.405  0.7811 -0.1865 -1.4926
 6357SOL     OW30532   2.512   4.006   3.931 -0.0267 -0.1251  0.2301
 6357SOL    HW130533   2.582   4.066   3.958  0.3384 -1.0858  1.4692
 6357SOL    HW230534   2.570   3.934   3.904 -1.0554 -0.2939 -1.4612
 6358SOL     OW30535   3.087   1.908   4.388 -0.2848 -0.3107 -1.0909
 6358SOL    HW130536   3.055   1.951   4.467  2.6043  1.2725 -0.7792
 6358SOL    HW230537   3.009   1.869   4.348  0.3828 -1.2160 -1.5321
 6359SOL     OW30538   1.670   2.665   3.725 -0.1740  0.1743  0.6029
 6359SOL    HW130539   1.727   2.702   3.793  2.0547 -0.1649 -1.0811
 6359SOL    HW230540   1.687   2.726   3.653  0.4028  1.5396  1.9114
 6360SOL     OW30541   2.451   0.473   7.635  0.5473 -0.0926  0.2528
 6360SOL    HW130542   2.475   0.560   7.668  1.1268  0.0273 -0.4902
 6360SOL    HW230543   2.493   0.468   7.549  1.4444 -2.5669  0.8207
 6361SOL     OW30544   3.092   0.606   6.185  0.5592 -0.2886  0.0382
 6361SOL    HW130545   3.025   0.541   6.163 -0.9067  0.6539  1.7830
 6361SOL    HW230546   3.050   0.687   6.157  1.2154  1.3830  4.0157
 6362SOL     OW30547   3.758   1.873   8.933 -0.5645 -0.2890 -0.0414
 6362SOL    HW130548   3.788   1.842   8.847 -2.3079  0.2362 -0.8414
 6362SOL    HW230549   3.831   1.833   8.979 -1.8973 -1.4454  1.0868
 6363SOL     OW30550   2.833   2.441   2.430 -0.2572  0.9428 -0.0242
 6363SOL    HW130551   2.842   2.444   2.526 -0.5336 -1.3143  0.0702
 6363SOL    HW230552   2.919   2.466   2.397  0.5469  0.0522  1.3957
 6364SOL     OW30553   2.720   2.129  17.643 -0.3025  0.3328  0.0527
 6364SOL    HW130554   2.705   2.048  17.692  0.2795 -0.4064 -0.9767
 6364SOL    HW230555   2.814   2.146  17.640 -0.3026  0.4436  0.6747
 6365SOL     OW30556   2.875   0.281   7.075  0.0977  0.6476 -0.2148
 6365SOL    HW130557   2.952   0.333   7.099  0.8655 -0.1211 -0.9985
 6365SOL    HW230558   2.907   0.196   7.104  0.1305  0.5390 -0.5662
 6366SOL     OW30559   1.472   1.381   4.404 -0.0136 -0.2288 -0.0455
 6366SOL    HW130560   1.417   1.341   4.337 -0.0013  0.4559 -0.4623
 6366SOL    HW230561   1.546   1.320   4.412 -1.5031 -1.5916  3.3560
 6367SOL     OW30562   4.406   3.609   8.584  0.1338  0.2505  0.5105
 6367SOL    HW130563   4.420   3.516   8.564 -2.6083 -0.1588  0.4013
 6367SOL    HW230564   4.402   3.639   8.493  0.6791 -0.1501  0.3502
 6368SOL     OW30565   2.598   3.514   8.390 -0.2538 -0.1380  0.2241
 6368SOL    HW130566   2.690   3.527   8.366 -0.5203  1.2583 -0.0404
 6368SOL    HW230567   2.594   3.557   8.475  2.0852 -0.0639  0.2945
 6369SOL     OW30568   1.256   1.530   7.045 -0.1816  0.3550  0.0329
 6369SOL    HW130569   1.279   1.453   7.097  1.4166  1.2422  0.6502
 6369SOL    HW230570   1.318   1.536   6.972 -1.4779 -1.3141 -1.2163
 6370SOL     OW30571   0.179   2.292  12.741  0.8667  0.1296 -0.6972
 6370SOL    HW130572   0.110   2.311  12.676 -0.9323 -1.7562  0.6601
 6370SOL    HW230573   0.254   2.317  12.687  1.3274 -2.4996 -1.2563
 6371SOL     OW30574   3.498   4.109   3.013  0.5276 -0.3968  0.1098
 6371SOL    HW130575   3.416   4.098   2.963  0.9027  2.7050 -1.1816
 6371SOL    HW230576   3.496   4.047   3.086  2.4117  0.2711  0.7255
 6372SOL     OW30577   0.119   2.295   8.668 -0.3341 -1.0633 -0.0861
 6372SOL    HW130578   0.091   2.276   8.757 -0.4578  0.6081  0.2365
 6372SOL    HW230579   0.038   2.289   8.618 -1.1673  1.1679  1.0220
 6373SOL     OW30580   2.658   0.070  11.144 -0.2132 -0.6276 -0.2839
 6373SOL    HW130581   2.686   0.071  11.236  1.3235 -2.8905 -0.7507
 6373SOL    HW230582   2.739   0.089  11.097 -0.4839 -1.1499 -0.9439
 6374SOL     OW30583   2.682   4.635   8.087  0.5987  0.5446  0.4180
 6374SOL    HW130584   2.697   0.006   8.081  0.9166  0.4123 -0.7753
 6374SOL    HW230585   2.771   4.607   8.110  1.7150  2.4446 -1.6089
 6375SOL     OW30586   4.459   0.018   3.620  0.0680 -0.1732  0.3387
 6375SOL    HW130587   4.468   0.095   3.563  0.9110 -0.9168 -0.5455
 6375SOL    HW230588   4.549   4.716   3.642  1.3892  0.1388 -4.6348
 6376SOL     OW30589   1.693   3.323   7.564 -0.3081 -0.2016 -0.4015
 6376SOL    HW130590   1.665   3.357   7.649 -1.9279 -2.4910  0.0012
 6376SOL    HW230591   1.719   3.238   7.601 -1.2234 -0.1228  0.4085
 6377SOL     OW30592   1.470   2.928  12.969 -0.7297 -0.1637 -0.4322
 6377SOL    HW130593   1.493   2.849  13.016 -0.1998 -0.9016 -1.9389
 6377SOL    HW230594   1.535   2.922  12.899  1.8213 -1.2736  2.0978
 6378SOL     OW30595   3.593   0.161   9.729  0.1031 -0.1359 -0.3266
 6378SOL    HW130596   3.672   0.182   9.779 -0.2905  0.6782 -0.0599
 6378SOL    HW230597   3.533   0.156   9.803  1.5284  2.9445  1.0234
 6379SOL     OW30598   4.282   3.125   4.965 -0.3109 -0.1068  0.4366
 6379SOL    HW130599   4.325   3.149   5.047  3.1976 -0.5776 -1.2616
 6379SOL    HW230600   4.346   3.161   4.904 -1.2656  0.3140 -0.3217
 6380SOL     OW30601   0.496   2.146   4.273  0.4610 -0.4527  0.0213
 6380SOL    HW130602   0.467   2.055   4.265 -1.2821  0.2975 -1.9714
 6380SOL    HW230603   0.538   2.158   4.188  1.3343  0.2517  0.5435
 6381SOL     OW30604   2.375   0.397   5.336 -0.1743 -0.4215 -0.8429
 6381SOL    HW130605   2.306   0.418   5.273 -1.6517 -1.3777  0.4586
 6381SOL    HW230606   2.319   0.347   5.394 -0.3841  2.0272  1.0438
 6382SOL     OW30607   4.671   3.018   4.411  0.0560  0.0674  0.2383
 6382SOL    HW130608   0.041   3.037   4.404  0.1287 -0.5918 -0.5580
 6382SOL    HW230609   4.663   2.962   4.488  1.5198  0.3850  0.6248
 6383SOL     OW30610   1.150   0.822  14.157  0.0609 -0.2097  0.0980
 6383SOL    HW130611   1.123   0.910  14.184 -1.1253 -0.0599 -1.5565
 6383SOL    HW230612   1.150   0.828  14.062  0.6346 -1.6144  0.0167
 6384SOL     OW30613   3.443   1.916  11.237  0.6016 -0.1592  0.8531
 6384SOL    HW130614   3.357   1.958  11.238  1.2125  1.1024 -0.0592
 6384SOL    HW230615   3.458   1.883  11.326  2.7532  0.4628  0.7174
 6385SOL     OW30616   4.688   1.152   7.625  0.7744 -0.3724  0.6790
 6385SOL    HW130617   4.680   1.060   7.650 -1.0542 -0.0809  1.1210
 6385SOL    HW230618   0.055   1.180   7.638  0.5483 -0.8790  3.2947
 6386SOL     OW30619   4.574   0.742  12.798  0.6547  0.6889 -0.0544
 6386SOL    HW130620   4.596   0.673  12.860 -0.1044 -0.8823 -1.5464
 6386SOL    HW230621   4.525   0.692  12.733  1.9935  1.4951 -1.6962
 6387SOL     OW30622   4.081   4.154  13.342  0.3202  0.0206  0.0865
 6387SOL    HW130623   4.074   4.232  13.286  0.7186 -0.4453 -0.6108
 6387SOL    HW230624   4.064   4.178  13.433  0.9350  1.4133 -0.1631
 6388SOL     OW30625   0.000   4.166   7.696 -0.1304  0.5291 -0.3003
 6388SOL    HW130626   0.030   4.081   7.728 -1.2272 -0.2581 -1.3703
 6388SOL    HW230627   4.663   4.204   7.759  0.1464 -0.2530  0.4430
 6389SOL     OW30628   1.585   2.020  10.458 -0.8894 -0.0132  0.3214
 6389SOL    HW130629   1.530   1.942  10.461 -0.5057 -0.3709 -2.0864
 6389SOL    HW230630   1.646   2.006  10.385  0.1588  0.2140  1.1448
 6390SOL     OW30631   4.650   4.027   2.749  0.4298  0.6266  0.3742
 6390SOL    HW130632   4.567   4.024   2.797 -0.7873 -0.8539 -1.8410
 6390SOL    HW230633   4.624   4.053   2.660  0.3347 -1.2861 -0.1628
 6391SOL     OW30634   4.523   1.769   3.329  0.2500 -0.4022  0.1803
 6391SOL    HW130635   4.590   1.722   3.279 -0.0428 -0.5970 -0.0368
 6391SOL    HW230636   4.562   1.855   3.335 -0.9829  0.0964  1.0428
 6392SOL     OW30637   1.675   1.280  10.590  0.4211 -0.3219 -0.5170
 6392SOL    HW130638   1.581   1.268  10.598  0.7981 -1.8093  1.7006
 6392SOL    HW230639   1.713   1.192  10.596  1.0800 -0.0023 -0.0156
 6393SOL     OW30640   3.530   2.733   3.744  0.4197 -0.5919 -0.0349
 6393SOL    HW130641   3.537   2.639   3.757 -2.9469 -1.0749 -1.5567
 6393SOL    HW230642   3.616   2.752   3.706  0.2451  0.0515 -0.1197
 6394SOL     OW30643   0.962   1.400  17.137 -0.0593 -0.2114  0.7170
 6394SOL    HW130644   0.879   1.393  17.089  0.7912 -0.0338 -0.7994
 6394SOL    HW230645   1.025   1.390  17.066 -0.2073 -1.4260  0.7482
 6395SOL     OW30646   3.980   1.540   6.040  0.6820 -0.4059  0.1440
 6395SOL    HW130647   3.987   1.456   6.085  0.2610 -1.1360 -1.1386
 6395SOL    HW230648   4.038   1.519   5.967  2.8647 -0.8680  2.0348
 6396SOL     OW30649   4.627   3.827   1.482 -0.7708  0.2336 -0.4269
 6396SOL    HW130650   4.715   3.791   1.490 -0.3357  0.8671 -2.3966
 6396SOL    HW230651   4.634   3.910   1.529 -0.0604  0.4248 -0.8699
 6397SOL     OW30652   1.508   4.620   2.466  0.2338 -0.5501 -0.4874
 6397SOL    HW130653   1.461   4.642   2.385  0.3496  2.9498  0.4016
 6397SOL    HW230654   1.591   4.662   2.447  0.1901 -0.2307  0.0112
 6398SOL     OW30655   1.713   4.559  12.292 -0.4316 -0.0096 -0.1478
 6398SOL    HW130656   1.637   4.559  12.234  0.1825  0.0654 -0.9594
 6398SOL    HW230657   1.677   4.603  12.369  1.4325  0.7539  0.2871
 6399SOL     OW30658   0.476   1.252  17.678 -0.0937 -0.6385  0.4945
 6399SOL    HW130659   0.520   1.238   0.066 -0.3387 -0.9798  0.5653
 6399SOL    HW230660   0.423   1.173  17.674 -1.1693  0.0549  1.1596
 6400SOL     OW30661   3.210   0.573   6.714 -0.9982  0.4249 -0.5511
 6400SOL    HW130662   3.184   0.656   6.673  0.4860  0.4751 -1.4044
 6400SOL    HW230663   3.144   0.512   6.683 -0.2924 -0.4824 -0.2729
 6401SOL     OW30664   2.582   0.975   7.441 -0.7267  0.1328  0.6693
 6401SOL    HW130665   2.511   1.005   7.384  1.3686  2.0990 -0.9314
 6401SOL    HW230666   2.618   1.057   7.475 -0.9537  0.7608 -0.5951
 6402SOL     OW30667   1.901   0.710   3.235 -0.0584  0.5331 -0.4071
 6402SOL    HW130668   1.852   0.773   3.288 -0.5895  0.8377 -1.2677
 6402SOL    HW230669   1.905   0.752   3.149 -0.9566  0.6607 -0.3820
 6403SOL     OW30670   0.278   3.120   9.993  0.4291  0.1093  0.0099
 6403SOL    HW130671   0.303   3.198  10.043  0.6165  0.9638 -1.3938
 6403SOL    HW230672   0.284   3.054  10.062  1.0670  0.0391 -0.1102
 6404SOL     OW30673   0.998   2.814   2.667 -0.5368 -0.7743 -0.3007
 6404SOL    HW130674   0.950   2.897   2.672  0.4606 -0.1158 -1.5828
 6404SOL    HW230675   0.988   2.780   2.756  0.8495 -0.6871 -0.1088
 6405SOL     OW30676   1.462   1.514   5.926  0.5492 -0.5610  0.0764
 6405SOL    HW130677   1.513   1.435   5.904  0.0438 -0.3498 -1.8862
 6405SOL    HW230678   1.445   1.543   5.836  1.3765  0.3393  0.2118
 6406SOL     OW30679   3.424   3.815   3.594 -0.1184 -0.2436 -0.3302
 6406SOL    HW130680   3.434   3.861   3.677  0.9841  0.3235 -0.7797
 6406SOL    HW230681   3.406   3.729   3.634  0.6995 -1.2274 -2.0593
 6407SOL     OW30682   1.751   3.044  12.857 -0.5959 -0.1584  0.0422
 6407SOL    HW130683   1.842   3.028  12.835 -1.3019 -0.6630 -2.4161
 6407SOL    HW230684   1.742   3.139  12.845 -1.3987 -0.3827 -1.1673
 6408SOL     OW30685   0.287   1.128  11.013 -0.2070  0.4206 -0.1461
 6408SOL    HW130686   0.325   1.198  10.959 -0.6679  0.6361 -0.1955
 6408SOL    HW230687   0.302   1.050  10.960  1.2611 -0.7545  2.0438
 6409SOL     OW30688   2.969   3.720   8.754 -0.0036 -0.0142  0.7242
 6409SOL    HW130689   3.024   3.760   8.822  0.5607  0.7856 -0.2031
 6409SOL    HW230690   2.885   3.754   8.783  0.1067  1.6226 -0.9208
 6410SOL     OW30691   2.020   3.379   9.428 -0.9896 -0.1144  0.1253
 6410SOL    HW130692   1.976   3.403   9.346 -1.2640 -1.0968 -0.0056
 6410SOL    HW230693   1.958   3.402   9.497 -1.1099 -3.4420  1.0861
 6411SOL     OW30694   3.518   4.224   6.620 -0.0784  0.2326 -0.1175
 6411SOL    HW130695   3.518   4.159   6.691 -0.0617 -1.1839 -1.4050
 6411SOL    HW230696   3.497   4.308   6.660  1.2129 -0.4508  2.0123
 6412SOL     OW30697   4.013   0.091   2.983 -0.1824 -0.0657  0.5389
 6412SOL    HW130698   4.102   0.064   3.005 -0.4747 -1.4159  0.0486
 6412SOL    HW230699   4.013   0.130   2.896 -0.8558 -2.7494 -0.6860
 6413SOL     OW30700   1.522   4.462   1.927 -0.7570 -0.2297 -0.2213
 6413SOL    HW130701   1.512   4.486   1.835 -1.8914 -0.2226 -0.0906
 6413SOL    HW230702   1.459   4.390   1.932 -0.4240 -0.3792  1.8223
 6414SOL     OW30703   2.222   1.696   9.953  0.3224  0.6759  0.0088
 6414SOL    HW130704   2.188   1.773   9.999  2.1512  1.0324  0.7299
 6414SOL    HW230705   2.247   1.728   9.866  0.1231 -2.4307 -1.1726
 6415SOL     OW30706   2.718   0.974   0.131 -1.1096  0.0425  0.0621
 6415SOL    HW130707   2.651   1.024   0.085 -0.1918 -0.1663 -1.5089
 6415SOL    HW230708   2.777   0.941   0.063  1.2527  0.8902  1.6958
 6416SOL     OW30709   2.958   4.541   2.551  0.5360  0.2395  0.5640
 6416SOL    HW130710   2.954   4.614   2.489 -0.9975 -1.1809 -1.0432
 6416SOL    HW230711   2.885   4.561   2.610 -0.0290  0.6181 -0.2561
 6417SOL     OW30712   2.731   0.465   8.889  0.4568 -0.0581 -0.0826
 6417SOL    HW130713   2.693   0.458   8.976 -0.6237 -0.3947 -0.5812
 6417SOL    HW230714   2.717   0.374   8.866  0.3817 -0.3627  1.1636
 6418SOL     OW30715   1.489   0.547  14.807 -0.3097  0.1506 -0.7274
 6418SOL    HW130716   1.436   0.485  14.859 -0.1501  0.8970  0.3241
 6418SOL    HW230717   1.573   0.534  14.851 -1.7751  2.0498  2.5964
 6419SOL     OW30718   4.570   3.539  15.164  0.2880 -0.0548 -0.0737
 6419SOL    HW130719   4.661   3.560  15.183  0.4227  1.4596 -2.3749
 6419SOL    HW230720   4.535   3.545  15.253  2.6872  2.9990  0.6791
 6420SOL     OW30721   0.550   3.701   7.666  0.0773  0.0526  0.1172
 6420SOL    HW130722   0.510   3.760   7.730  1.9045 -0.2847  1.5848
 6420SOL    HW230723   0.584   3.766   7.604  0.4068  0.8130  1.0801
 6421SOL     OW30724   3.722   2.710  16.237 -0.2812 -0.2249 -0.8064
 6421SOL    HW130725   3.751   2.711  16.328  0.0144 -1.9504 -0.8843
 6421SOL    HW230726   3.652   2.775  16.234  0.8868  1.0728  0.4324
 6422SOL     OW30727   2.441   0.985  12.713  0.6538 -0.1701 -0.2789
 6422SOL    HW130728   2.417   0.893  12.698  1.0384  0.0067 -1.9313
 6422SOL    HW230729   2.434   1.018  12.624 -0.6698  1.3852  0.4062
 6423SOL     OW30730   0.969   2.756   1.783 -0.0286  0.1103  0.6791
 6423SOL    HW130731   0.887   2.767   1.735  0.7552 -1.4428 -1.0205
 6423SOL    HW230732   1.024   2.710   1.720  0.1923  0.7159  0.4262
 6424SOL     OW30733   0.666   2.822  15.874 -0.1974 -0.2745  0.4266
 6424SOL    HW130734   0.632   2.848  15.788  1.3697 -2.2012 -0.7707
 6424SOL    HW230735   0.748   2.779  15.850  0.2645  1.6844 -1.5957
 6425SOL     OW30736   3.255   1.751  15.900 -0.0469  0.0337  0.3542
 6425SOL    HW130737   3.235   1.700  15.978 -0.8497  2.7175  1.8971
 6425SOL    HW230738   3.181   1.721  15.848 -0.2301  1.8167 -0.4011
 6426SOL     OW30739   2.007   0.733   2.444 -0.0128 -0.3432 -0.0427
 6426SOL    HW130740   2.096   0.731   2.480 -0.0708 -0.1527  0.1092
 6426SOL    HW230741   1.962   0.683   2.513 -0.9857  1.2444  0.4628
 6427SOL     OW30742   1.802   0.951   5.789  0.3066  0.7047 -0.7681
 6427SOL    HW130743   1.860   0.902   5.848 -0.5988  1.0872  0.4416
 6427SOL    HW230744   1.789   1.034   5.835  2.1749  0.8548 -0.5055
 6428SOL     OW30745   4.489   3.326   5.114 -0.0656  0.5969  0.0356
 6428SOL    HW130746   4.516   3.240   5.146 -2.4418 -1.0658 -2.4280
 6428SOL    HW230747   4.545   3.344   5.038 -0.6455  0.9228 -0.3116
 6429SOL     OW30748   2.126   3.924   3.688 -0.2400  0.1209  0.5258
 6429SOL    HW130749   2.141   3.937   3.782  1.3526  0.2779  0.2345
 6429SOL    HW230750   2.099   4.014   3.671 -1.3405 -0.4315 -0.6445
 6430SOL     OW30751   1.350   3.211   5.470  0.4793  0.2102  0.1471
 6430SOL    HW130752   1.396   3.162   5.539 -2.0633 -1.6837  0.4927
 6430SOL    HW230753   1.409   3.286   5.477 -0.4731  1.0611 -1.0055
 6431SOL     OW30754   2.595   0.276   4.864 -0.3241 -0.3523  0.3746
 6431SOL    HW130755   2.617   0.211   4.931 -1.3691 -2.5452 -1.3876
 6431SOL    HW230756   2.666   0.336   4.885 -0.0581 -0.0765 -1.3085
 6432SOL     OW30757   2.899   2.632  16.627  0.4456 -0.3455  0.5290
 6432SOL    HW130758   2.922   2.543  16.654  0.3067  0.1460  2.3142
 6432SOL    HW230759   2.806   2.630  16.603  0.3175 -1.3779  1.0886
 6433SOL     OW30760   1.416   1.310  10.496  0.4279  0.3918 -0.2316
 6433SOL    HW130761   1.349   1.274  10.438  1.6569 -0.3774 -1.1459
 6433SOL    HW230762   1.358   1.333  10.569  0.4769 -1.4007  0.3757
 6434SOL     OW30763   0.596   2.606  10.900 -0.1308  0.2761  0.1595
 6434SOL    HW130764   0.588   2.661  10.978 -2.1136 -0.3973  0.4353
 6434SOL    HW230765   0.556   2.527  10.935 -0.9863  0.8303  0.4559
 6435SOL     OW30766   0.904   4.716   7.673 -0.3626 -0.0195 -0.5169
 6435SOL    HW130767   0.831   0.040   7.712 -1.7487 -2.1282 -0.5393
 6435SOL    HW230768   0.884   4.624   7.693  1.3017 -0.2801 -0.0697
 6436SOL     OW30769   3.492   3.795   0.192 -0.3918  0.0349  0.5903
 6436SOL    HW130770   3.422   3.737   0.220  0.2948 -0.7452  0.6989
 6436SOL    HW230771   3.519   3.754   0.110  0.9448  0.9567  0.5653
 6437SOL     OW30772   2.549   0.801   5.700  0.4064  0.0327 -0.0213
 6437SOL    HW130773   2.458   0.802   5.730  0.4362 -1.9640  0.1921
 6437SOL    HW230774   2.548   0.753   5.617 -1.6477 -0.2037  0.1556
 6438SOL     OW30775   2.027   2.270  10.916 -0.0968  0.2332 -0.2481
 6438SOL    HW130776   1.956   2.316  10.871 -0.9272 -0.4198  0.4074
 6438SOL    HW230777   1.992   2.181  10.917  1.1758 -0.2865 -1.2184
 6439SOL     OW30778   4.192   0.369   3.841 -0.3179 -0.1523  0.4245
 6439SOL    HW130779   4.193   0.461   3.815 -3.5223 -1.1304 -3.2111
 6439SOL    HW230780   4.282   0.342   3.822 -0.0120  0.5451  0.8850
 6440SOL     OW30781   2.702   1.996   3.320  0.2264 -0.1647 -0.0901
 6440SOL    HW130782   2.729   1.935   3.251 -0.5752  0.0351 -0.5823
 6440SOL    HW230783   2.789   2.019   3.352  0.1086 -0.1661  0.2291
 6441SOL     OW30784   4.174   4.588   2.824  0.4332 -0.4328 -0.0091
 6441SOL    HW130785   4.200   4.680   2.812  2.3513 -1.2207 -1.8961
 6441SOL    HW230786   4.255   4.538   2.823  1.5961  1.4468 -0.0129
 6442SOL     OW30787   2.707   3.552   3.083  0.0986  0.2515  0.2580
 6442SOL    HW130788   2.788   3.602   3.095 -1.0638  2.2831 -0.4021
 6442SOL    HW230789   2.667   3.572   3.168 -0.6774 -1.5530  0.3017
 6443SOL     OW30790   0.460   2.248   8.071  0.8599  0.0732  0.3539
 6443SOL    HW130791   0.430   2.268   8.160 -0.0639  1.4927 -0.2784
 6443SOL    HW230792   0.416   2.166   8.048  0.3927 -0.5922  3.5738
 6444SOL     OW30793   1.804   1.773   8.404  0.5300  0.3474  0.5727
 6444SOL    HW130794   1.874   1.758   8.340  0.3445  1.2732  0.1569
 6444SOL    HW230795   1.749   1.833   8.355 -0.8608 -1.3117  0.1039
 6445SOL     OW30796   0.249   0.675   6.170  0.0345  0.3528 -0.0113
 6445SOL    HW130797   0.207   0.647   6.251 -1.3769  1.2399 -0.4293
 6445SOL    HW230798   0.261   0.769   6.179 -0.1408  0.3099  0.6907
 6446SOL     OW30799   4.452   0.856  10.461 -0.2509  0.2120 -0.1156
 6446SOL    HW130800   4.447   0.916  10.535 -0.9204  0.0655 -0.0459
 6446SOL    HW230801   4.435   0.912  10.386  1.8726  1.0938  0.0630
 6447SOL     OW30802   3.948   3.242   4.231  0.3138 -0.0649  0.1488
 6447SOL    HW130803   3.958   3.337   4.233  0.6816 -0.1462  2.2826
 6447SOL    HW230804   3.985   3.221   4.317 -0.1596 -0.0408  0.3596
 6448SOL     OW30805   1.296   2.645   1.377  0.2927 -0.3299  0.0219
 6448SOL    HW130806   1.366   2.678   1.320 -0.8064  1.1688 -0.4572
 6448SOL    HW230807   1.327   2.555   1.388  0.4967 -0.3005 -0.3005
 6449SOL     OW30808   2.044   3.769   5.515  0.1478 -0.0801  0.0740
 6449SOL    HW130809   2.071   3.851   5.475 -1.1140 -0.7571 -2.1057
 6449SOL    HW230810   2.126   3.755   5.564 -0.3737 -0.7925  0.7502
 6450SOL     OW30811   3.774   4.013  16.408 -0.2396 -0.2631 -0.5720
 6450SOL    HW130812   3.725   3.955  16.466  2.9728 -1.8807  0.4707
 6450SOL    HW230813   3.863   4.015  16.443  0.0500  0.3393 -1.3359
 6451SOL     OW30814   3.117   2.348  15.241  0.8360 -0.1592 -0.4207
 6451SOL    HW130815   3.118   2.326  15.148  1.5753 -0.8466 -0.2536
 6451SOL    HW230816   3.177   2.423  15.240  0.6154  0.0308  0.9062
 6452SOL     OW30817   3.185   3.497  13.752 -0.1099 -0.3739 -0.2502
 6452SOL    HW130818   3.129   3.450  13.692 -1.7302 -0.6796  1.5048
 6452SOL    HW230819   3.194   3.436  13.825  0.4339  1.2064  1.0284
 6453SOL     OW30820   0.182   2.169   7.900  0.6079  0.2588  0.0767
 6453SOL    HW130821   0.250   2.107   7.925  0.2932  1.4702  3.9454
 6453SOL    HW230822   0.169   2.150   7.808  1.3675 -2.8968  0.6484
 6454SOL     OW30823   2.345   4.433   8.312 -0.1620  0.0909 -0.5481
 6454SOL    HW130824   2.346   4.500   8.244 -0.1344  0.0159 -0.6213
 6454SOL    HW230825   2.379   4.355   8.268  1.3211  1.3455 -1.5899
 6455SOL     OW30826   3.455   1.852   6.348  0.0559  0.1544 -0.3162
 6455SOL    HW130827   3.363   1.834   6.365 -0.7186  4.4515  0.0259
 6455SOL    HW230828   3.482   1.787   6.283  1.4547  0.3811  0.0377
 6456SOL     OW30829   1.243   4.451   4.742  0.7828 -0.0255 -0.5651
 6456SOL    HW130830   1.322   4.397   4.742  0.8004  0.0023  0.3306
 6456SOL    HW230831   1.165   4.405   4.772  0.9293  0.6823  0.9219
 6457SOL     OW30832   4.162   0.995  16.211  0.0136 -0.7219 -0.3171
 6457SOL    HW130833   4.081   1.042  16.230 -0.0982 -1.5605  1.3184
 6457SOL    HW230834   4.185   1.018  16.121  2.1588 -1.0079  0.1404
 6458SOL     OW30835   0.853   4.576   8.578  0.6097  0.1088  0.1598
 6458SOL    HW130836   0.906   4.628   8.517  0.9403 -1.6175 -1.0199
 6458SOL    HW230837   0.772   4.578   8.528  1.1303  1.9756 -0.6300
 6459SOL     OW30838   0.882   4.019   3.202 -0.2045  0.0772  0.2264
 6459SOL    HW130839   0.889   4.111   3.180  0.5193 -0.3253 -1.2187
 6459SOL    HW230840   0.940   3.967   3.146 -3.9635 -0.9834 -2.6662
 6460SOL     OW30841   0.295   1.696   3.093  0.1994  0.0030 -0.5300
 6460SOL    HW130842   0.258   1.777   3.126  2.0460  1.8181 -2.8854
 6460SOL    HW230843   0.233   1.679   3.022  0.2778  0.6580 -0.7563
 6461SOL     OW30844   2.064   2.729   0.911  0.2242  0.1257 -0.2192
 6461SOL    HW130845   2.152   2.763   0.898  1.2798 -1.7436  1.9464
 6461SOL    HW230846   2.061   2.710   1.005 -1.8244  0.3423 -0.2259
 6462SOL     OW30847   1.241   1.588  16.704 -0.4126  0.0033  0.0207
 6462SOL    HW130848   1.245   1.554  16.614  1.2724 -0.9628  0.4660
 6462SOL    HW230849   1.189   1.668  16.695  1.6731  1.2483 -1.1135
 6463SOL     OW30850   1.650   2.690   0.315  0.0362  0.2331 -0.1050
 6463SOL    HW130851   1.708   2.625   0.276 -1.9919 -2.3908  1.2618
 6463SOL    HW230852   1.638   2.641   0.396 -0.1032  0.4663  0.0136
 6464SOL     OW30853   2.992   4.322   8.227  0.4733  0.0042  0.7201
 6464SOL    HW130854   2.983   4.251   8.164  0.9911 -0.3967  1.0991
 6464SOL    HW230855   3.064   4.288   8.281  1.4544 -2.0417 -1.8916
 6465SOL     OW30856   3.111   1.705  11.148  0.5435 -0.0719 -0.5966
 6465SOL    HW130857   3.191   1.689  11.198 -0.8236  0.3563  1.7234
 6465SOL    HW230858   3.060   1.624  11.158  1.4906 -0.4792  0.9268
 6466SOL     OW30859   1.383   1.451  12.332 -0.4074  0.1841 -0.0642
 6466SOL    HW130860   1.459   1.483  12.381 -0.3626 -0.2191  0.1302
 6466SOL    HW230861   1.433   1.399  12.268  0.4896  0.7553  0.1636
 6467SOL     OW30862   0.906   2.697  10.641 -0.5970  0.5008 -0.1603
 6467SOL    HW130863   0.887   2.612  10.600  0.8621  0.7298 -1.3234
 6467SOL    HW230864   0.997   2.713  10.619 -0.0756 -1.6283  0.4560
 6468SOL     OW30865   2.694   0.651   3.998  0.3361 -0.2202  0.2053
 6468SOL    HW130866   2.638   0.606   3.934  1.4295 -1.0425 -0.1669
 6468SOL    HW230867   2.728   0.584   4.057  2.5631 -0.5940 -1.5146
 6469SOL     OW30868   3.602   3.959   0.665  0.5566 -0.1832 -0.4916
 6469SOL    HW130869   3.676   3.899   0.671 -0.9223 -1.8505  1.1506
 6469SOL    HW230870   3.540   3.895   0.631  0.7687 -0.4968 -0.2950
 6470SOL     OW30871   1.778   4.020  13.197 -0.4428  1.0129  0.2813
 6470SOL    HW130872   1.804   4.111  13.213  0.1669  0.7072  1.0399
 6470SOL    HW230873   1.845   4.000  13.131 -1.0562 -1.3833  0.4130
 6471SOL     OW30874   1.648   4.143   3.272  0.1729  0.3080  0.3631
 6471SOL    HW130875   1.620   4.166   3.360 -0.1076 -1.8898  0.8390
 6471SOL    HW230876   1.728   4.098   3.299  0.1023 -0.4450 -0.6739
 6472SOL     OW30877   3.745   1.065   8.311  0.0808 -0.0934  0.1507
 6472SOL    HW130878   3.682   1.055   8.382 -1.6551  0.1687 -1.3379
 6472SOL    HW230879   3.822   1.073   8.367 -1.5633  0.8788  2.2997
 6473SOL     OW30880   3.470   1.493   5.730 -0.1591 -0.1178 -0.3779
 6473SOL    HW130881   3.434   1.558   5.790  0.1629 -0.5446  0.2828
 6473SOL    HW230882   3.424   1.413   5.757 -0.7485  0.2921 -0.1699
 6474SOL     OW30883   2.229   2.038   2.572 -0.8223  0.5337  0.3280
 6474SOL    HW130884   2.169   2.113   2.565 -0.2515  0.8619 -1.2092
 6474SOL    HW230885   2.304   2.084   2.533 -0.4500 -2.3815 -2.4120
 6475SOL     OW30886   0.503   0.492   2.606 -0.6146  0.1790  0.3379
 6475SOL    HW130887   0.417   0.464   2.636  0.7545 -0.8199  3.3220
 6475SOL    HW230888   0.557   0.475   2.684 -2.9701 -0.6823  1.7708
 6476SOL     OW30889   2.371   0.133   4.793  0.0253 -0.4160 -0.1721
 6476SOL    HW130890   2.457   0.174   4.808 -0.3145 -0.1022  0.9150
 6476SOL    HW230891   2.376   0.118   4.699 -2.2383  0.7946 -0.4668
 6477SOL     OW30892   3.022   2.864  11.671  0.4394 -0.1635  0.3923
 6477SOL    HW130893   2.934   2.852  11.635  1.2280 -0.0918 -1.6002
 6477SOL    HW230894   3.050   2.774  11.685  0.7332 -0.0905  0.2755
 6478SOL     OW30895   4.178   3.339   7.202 -0.2480 -0.0596  0.1994
 6478SOL    HW130896   4.221   3.278   7.141  0.2239 -0.5720  1.0359
 6478SOL    HW230897   4.248   3.348   7.267 -1.0720  3.9909  0.5226
 6479SOL     OW30898   1.732   3.729   6.502 -0.1450 -0.0984 -0.3344
 6479SOL    HW130899   1.713   3.801   6.563  1.0406 -0.0918  0.0311
 6479SOL    HW230900   1.647   3.715   6.460  0.4560 -1.9239 -0.9239
 6480SOL     OW30901   2.908   0.126   6.060 -0.4416 -0.4302  0.4259
 6480SOL    HW130902   2.911   0.030   6.060 -1.9750 -0.4906 -1.4373
 6480SOL    HW230903   2.864   0.146   5.977  0.4047 -0.1221  0.0503
 6481SOL     OW30904   2.432   0.605   8.067  0.2686 -0.0603  0.5655
 6481SOL    HW130905   2.507   0.559   8.028 -0.8162  0.1071 -1.6947
 6481SOL    HW230906   2.462   0.694   8.083 -0.4813  0.3476 -0.3521
 6482SOL     OW30907   3.248   2.688   4.580 -0.1076 -0.2787  0.7667
 6482SOL    HW130908   3.178   2.663   4.641 -0.7337 -3.6486 -1.3375
 6482SOL    HW230909   3.321   2.689   4.643 -1.1648  0.5688  1.9818
 6483SOL     OW30910   0.991   0.977   2.741 -0.1032 -0.6116  0.1346
 6483SOL    HW130911   0.907   0.957   2.783  0.0226 -0.7782  0.3046
 6483SOL    HW230912   1.054   0.971   2.813 -0.7780  0.1950  0.7978
 6484SOL     OW30913   3.393   3.268   4.015 -0.3892 -0.0996 -0.2842
 6484SOL    HW130914   3.400   3.188   3.963 -1.7824 -0.8271  0.6434
 6484SOL    HW230915   3.304   3.299   4.001 -1.3089 -1.6455  2.0221
 6485SOL     OW30916   0.548   1.925   1.639 -0.4872  0.2982 -0.3416
 6485SOL    HW130917   0.540   1.847   1.694  0.1553 -0.5145 -1.4022
 6485SOL    HW230918   0.540   1.997   1.701 -1.7931  0.3693 -0.5874
 6486SOL     OW30919   3.693   4.348   8.924 -0.7443 -0.0286 -0.0616
 6486SOL    HW130920   3.693   4.406   8.999  1.7804 -1.5793  1.1488
 6486SOL    HW230921   3.768   4.387   8.880 -0.4393  1.2601  1.6193
 6487SOL     OW30922   0.439   2.329  12.592 -0.1325 -0.0925 -0.5146
 6487SOL    HW130923   0.429   2.236  12.569 -1.3057 -0.5390  1.8053
 6487SOL    HW230924   0.486   2.358  12.514 -0.8594 -1.2804 -1.4094
 6488SOL     OW30925   3.074   4.533   7.834 -0.4177  0.0155 -0.2427
 6488SOL    HW130926   3.159   4.570   7.811  0.3791  0.0989  2.9221
 6488SOL    HW230927   3.014   4.593   7.790 -1.7663 -2.6717 -2.1060
 6489SOL     OW30928   4.703   3.797  13.999  0.5351  0.1109 -0.2345
 6489SOL    HW130929   0.042   3.748  13.945 -1.4995 -2.3382 -0.3930
 6489SOL    HW230930   4.666   3.728  14.054  0.0273 -1.0128 -1.9791
 6490SOL     OW30931   2.562   4.214   7.768  0.0155 -0.1001 -0.1732
 6490SOL    HW130932   2.492   4.182   7.710  0.0937  0.1488 -0.4014
 6490SOL    HW230933   2.520   4.269   7.834  0.8883 -0.9166  1.0620
 6491SOL     OW30934   1.617   2.501  12.030  0.2356 -0.6622 -0.2837
 6491SOL    HW130935   1.707   2.522  12.053  0.5046 -3.0976  0.8652
 6491SOL    HW230936   1.570   2.529  12.109  0.7943 -1.4766  0.3406
 6492SOL     OW30937   1.891   3.236   6.301 -0.0122 -0.7014 -0.2385
 6492SOL    HW130938   1.851   3.282   6.374  0.9659  0.6025 -0.5107
 6492SOL    HW230939   1.904   3.153   6.346 -0.5714 -0.3135  0.6202
 6493SOL     OW30940   2.042   1.119   7.551  0.1907  0.3447 -0.1868
 6493SOL    HW130941   1.993   1.140   7.631 -0.4505 -2.5176  0.1677
 6493SOL    HW230942   2.134   1.125   7.578 -0.4347 -0.2260  2.1132
 6494SOL     OW30943   0.661   4.173   2.591 -0.3849  0.0091  0.5483
 6494SOL    HW130944   0.589   4.234   2.577 -0.8271 -0.1534  2.1473
 6494SOL    HW230945   0.639   4.153   2.682  1.4862  1.2502  1.2837
 6495SOL     OW30946   2.484   1.305   0.514  0.2357 -0.0349 -0.0025
 6495SOL    HW130947   2.544   1.296   0.588 -2.2186  2.1511  2.2400
 6495SOL    HW230948   2.397   1.316   0.553  0.0982 -0.0569 -0.3037
 6496SOL     OW30949   3.468   3.229  16.664 -0.2333 -0.5896 -0.4032
 6496SOL    HW130950   3.407   3.241  16.591  0.6645  1.7896 -0.7563
 6496SOL    HW230951   3.451   3.308  16.715  1.4147 -2.2436  2.6866
 6497SOL     OW30952   0.166   4.614   7.003 -0.1214  1.0744  0.5227
 6497SOL    HW130953   0.159   4.598   6.909  0.6971  0.4250  0.5739
 6497SOL    HW230954   0.086   4.663   7.019 -0.3809  0.7200  0.3020
 6498SOL     OW30955   4.674   4.067  13.970 -0.0738  0.5725  0.3038
 6498SOL    HW130956   4.724   4.098  14.046 -0.2937 -1.1117  1.1286
 6498SOL    HW230957   4.671   3.976  13.999 -0.0277  0.1614 -0.9741
 6499SOL     OW30958   0.200   2.476   0.569 -0.1549 -0.3212  0.2413
 6499SOL    HW130959   0.188   2.486   0.664  0.9653 -1.7349  0.5230
 6499SOL    HW230960   0.125   2.532   0.545 -0.6704 -1.4568 -0.7637
 6500SOL     OW30961   2.380   1.930  14.482 -0.0843 -0.4380  0.7219
 6500SOL    HW130962   2.448   1.986  14.444  0.0110 -1.1945 -0.2340
 6500SOL    HW230963   2.323   1.929  14.406 -0.0938 -1.4929  0.7421
 6501SOL     OW30964   1.879   4.554  15.415 -0.0763  0.0684  0.2557
 6501SOL    HW130965   1.912   4.618  15.352  0.7785 -1.8011 -1.1964
 6501SOL    HW230966   1.890   4.610  15.492  3.8998 -0.9032  0.3739
 6502SOL     OW30967   3.960   4.049   7.542  0.2992 -0.6544  0.1935
 6502SOL    HW130968   3.929   4.137   7.562  3.9353  0.6356  0.3116
 6502SOL    HW230969   3.983   4.026   7.633 -3.0551  0.8757  1.3981
 6503SOL     OW30970   0.279   0.334   7.231  0.0224 -0.0096 -0.3300
 6503SOL    HW130971   0.249   0.383   7.307  0.7414 -0.3404  0.1685
 6503SOL    HW230972   0.282   0.247   7.272  1.0741 -0.3516 -1.1346
 6504SOL     OW30973   4.236   0.085  12.100  0.3762  0.3365  0.3538
 6504SOL    HW130974   4.289   0.161  12.124 -1.4086  1.6379  0.1810
 6504SOL    HW230975   4.288   0.011  12.130  0.8991 -0.6891 -3.0334
 6505SOL     OW30976   1.341   0.581   8.337 -0.3641 -0.8886  0.0948
 6505SOL    HW130977   1.256   0.561   8.376 -0.5812 -0.9455 -0.4184
 6505SOL    HW230978   1.391   0.500   8.349 -0.7676 -0.8194  2.3288
 6506SOL     OW30979   1.791   4.302   7.160  0.3629  1.1423 -0.2435
 6506SOL    HW130980   1.802   4.276   7.251  0.4685  0.3120 -0.4856
 6506SOL    HW230981   1.798   4.219   7.113  0.9303  0.3876  1.1685
 6507SOL     OW30982   0.500   3.073  13.534 -0.1491  0.5584 -0.1699
 6507SOL    HW130983   0.491   3.165  13.561 -2.7525  0.3448 -0.2702
 6507SOL    HW230984   0.519   3.077  13.441  0.4294 -2.6343 -0.1821
 6508SOL     OW30985   2.299   2.477   7.672 -0.1176  0.6542 -0.1815
 6508SOL    HW130986   2.206   2.499   7.662 -0.0658  0.5809 -0.8106
 6508SOL    HW230987   2.310   2.412   7.603 -0.9109  0.4053 -0.0680
 6509SOL     OW30988   4.172   1.515   5.803  0.5099  0.5361  0.0309
 6509SOL    HW130989   4.225   1.594   5.789 -0.1506  1.1317  0.8448
 6509SOL    HW230990   4.246   1.454   5.809  1.5340  1.8087  0.5618
 6510SOL     OW30991   3.687   2.108   2.855 -0.1078 -0.1899 -0.0602
 6510SOL    HW130992   3.622   2.094   2.787  0.4096  1.1097 -0.8100
 6510SOL    HW230993   3.770   2.100   2.808 -0.3195 -1.9447 -0.1259
 6511SOL     OW30994   2.425   1.725  11.445  0.2337 -0.5205  0.2244
 6511SOL    HW130995   2.333   1.704  11.427  0.3675 -1.9446  1.2594
 6511SOL    HW230996   2.455   1.655  11.503  0.6268 -1.7711 -1.4656
 6512SOL     OW30997   2.840   4.452   9.708 -0.1947 -0.1660  0.0614
 6512SOL    HW130998   2.862   4.483   9.795 -2.1559 -0.7326  0.7592
 6512SOL    HW230999   2.853   4.357   9.714 -0.0968 -0.3798 -3.1560
 6513SOL     OW31000   0.070   3.403   3.293  0.1436  0.0701  0.0483
 6513SOL    HW131001   0.038   3.493   3.296  0.7436  0.2775  0.1722
 6513SOL    HW231002   0.095   3.390   3.385  1.4046 -0.1193 -0.3168
 6514SOL     OW31003   0.514   0.206   6.562  0.3038 -0.2867  0.1261
 6514SOL    HW131004   0.421   0.185   6.558 -0.2276  1.8989  1.0048
 6514SOL    HW231005   0.528   0.233   6.471  0.4693 -0.1986  0.1767
 6515SOL     OW31006   2.733   2.505   4.781  0.5580  0.1005  0.1527
 6515SOL    HW131007   2.702   2.463   4.701 -1.2252  0.1479  0.8039
 6515SOL    HW231008   2.727   2.599   4.760  0.8156  0.2175  0.5998
 6516SOL     OW31009   0.745   3.603  16.950  0.4510  0.2197 -0.7102
 6516SOL    HW131010   0.663   3.626  16.906  0.5286  0.7750 -0.5622
 6516SOL    HW231011   0.774   3.539  16.884  1.0559 -1.0182  0.7634
 6517SOL     OW31012   2.323   4.118   6.825 -0.3465 -0.0853  0.0257
 6517SOL    HW131013   2.287   4.202   6.854  0.4487 -0.2121  1.3584
 6517SOL    HW231014   2.404   4.107   6.876 -0.9799 -2.1050  0.5852
 6518SOL     OW31015   1.192   1.601   0.740  0.5055  0.0554  0.1475
 6518SOL    HW131016   1.139   1.660   0.792 -1.3482 -0.2063 -1.4429
 6518SOL    HW231017   1.261   1.567   0.797  0.1767  0.0685  0.5547
 6519SOL     OW31018   0.016   3.682  15.811 -0.7217  0.5834  0.0478
 6519SOL    HW131019   0.047   3.717  15.895  2.7833 -0.2707 -0.8938
 6519SOL    HW231020   0.066   3.600  15.810 -0.3680  0.8307 -1.5009
 6520SOL     OW31021   2.310   1.740   9.232  0.6457  0.2837  0.0371
 6520SOL    HW131022   2.348   1.786   9.156 -3.4581  2.6932 -0.5660
 6520SOL    HW231023   2.237   1.690   9.194  0.8961  1.0587 -1.4811
 6521SOL     OW31024   2.929   3.921  10.564 -0.6123  0.0680 -0.2350
 6521SOL    HW131025   2.874   3.969  10.502  0.6451 -0.0165 -1.4137
 6521SOL    HW231026   2.871   3.845  10.568 -2.1644  1.1800 -1.6414
 6522SOL     OW31027   3.575   4.667  10.803  0.7577  0.2899 -0.2058
 6522SOL    HW131028   3.658   4.690  10.844  0.1744  0.7960  0.6735
 6522SOL    HW231029   3.542   4.601  10.864 -2.1694 -0.2045 -2.3389
 6523SOL     OW31030   2.463   2.310   6.060  0.1054  0.1509  0.8247
 6523SOL    HW131031   2.439   2.221   6.036 -0.7889  0.8273 -0.7986
 6523SOL    HW231032   2.520   2.327   5.985  0.0725 -2.1736  0.2783
 6524SOL     OW31033   0.011   3.680  11.853 -0.3483  0.0709 -0.2793
 6524SOL    HW131034   0.059   3.613  11.805 -3.9070 -2.3839 -0.3461
 6524SOL    HW231035   4.655   3.690  11.801 -0.5961  2.0669  0.4675
 6525SOL     OW31036   2.784   2.403   4.493  0.1331  0.2469  0.0191
 6525SOL    HW131037   2.834   2.479   4.461  1.5843 -0.9901 -0.6439
 6525SOL    HW231038   2.852   2.358   4.544 -0.2754  0.2628  0.5813
 6526SOL     OW31039   3.340   2.763   5.735  0.0171  0.2898 -1.1506
 6526SOL    HW131040   3.270   2.734   5.794 -0.9580  1.4185 -1.7335
 6526SOL    HW231041   3.401   2.695   5.764  0.4970  0.0690 -2.7035
 6527SOL     OW31042   3.490   1.109   0.011 -0.0553  0.5208  0.2205
 6527SOL    HW131043   3.510   1.181  17.647  1.6131  0.4277  0.6822
 6527SOL    HW231044   3.426   1.151   0.068 -0.2759  0.4190  0.0496
 6528SOL     OW31045   4.723   3.417   8.977  0.6380 -0.0711  0.0599
 6528SOL    HW131046   0.008   3.392   9.069  1.4317  1.0072  0.2815
 6528SOL    HW231047   4.670   3.497   8.985  2.2961  0.8718  1.4219
 6529SOL     OW31048   0.440   2.633   9.904 -0.2762 -0.1359  0.9850
 6529SOL    HW131049   0.458   2.619   9.811  2.8216  0.4695  1.4605
 6529SOL    HW231050   0.442   2.540   9.926  0.3029 -0.3067  0.1879
 6530SOL     OW31051   3.829   2.724   7.497  0.1937 -0.1859  0.3461
 6530SOL    HW131052   3.823   2.819   7.507  0.0983 -0.1412 -0.1844
 6530SOL    HW231053   3.850   2.721   7.404  2.4052 -0.8584  0.8593
 6531SOL     OW31054   2.780   3.204  11.159 -0.0377  0.2107 -0.1661
 6531SOL    HW131055   2.801   3.250  11.240  4.0334 -0.1789 -1.0024
 6531SOL    HW231056   2.786   3.113  11.188 -1.2279 -0.1351 -0.9759
 6532SOL     OW31057   2.668   2.294   8.109 -0.2278 -0.1929  0.5726
 6532SOL    HW131058   2.600   2.243   8.063 -0.5048 -0.8912  1.7391
 6532SOL    HW231059   2.725   2.327   8.041 -0.2560 -2.3442 -0.5196
 6533SOL     OW31060   1.459   1.780   6.510 -0.5221  0.4500 -0.5351
 6533SOL    HW131061   1.412   1.860   6.533 -0.1952  0.4479  0.1368
 6533SOL    HW231062   1.550   1.795   6.535 -0.4396  1.1196 -1.2387
 6534SOL     OW31063   3.372   2.734   9.267  0.2353 -0.1414 -0.3480
 6534SOL    HW131064   3.364   2.780   9.184 -0.1985  3.5948  1.7380
 6534SOL    HW231065   3.324   2.796   9.323 -0.4221  1.0023 -2.1791
 6535SOL     OW31066   1.320   2.772   1.960  0.2083 -0.0083  0.4375
 6535SOL    HW131067   1.242   2.801   2.008  0.4301 -0.9340  1.3569
 6535SOL    HW231068   1.358   2.725   2.034 -2.2385 -0.4151  1.4145
 6536SOL     OW31069   3.766   3.325  17.385  0.0098  0.2881 -0.1731
 6536SOL    HW131070   3.848   3.276  17.389  0.5540  1.0830 -1.3117
 6536SOL    HW231071   3.707   3.251  17.396 -0.9751  1.0005 -0.6419
 6537SOL     OW31072   2.365   0.687   4.931 -0.1493  0.2912 -0.0052
 6537SOL    HW131073   2.374   0.591   4.928  1.4005  0.4275  0.0431
 6537SOL    HW231074   2.417   0.707   5.008 -2.5786  0.8539  1.4840
 6538SOL     OW31075   3.468   1.415   4.392 -0.4335 -0.2101  0.5481
 6538SOL    HW131076   3.480   1.326   4.425  1.6642  0.6027  2.0446
 6538SOL    HW231077   3.538   1.469   4.430 -1.2966  1.1374  0.2052
 6539SOL     OW31078   3.289   4.317   6.940  0.3528  0.5425  0.2272
 6539SOL    HW131079   3.367   4.345   6.891  0.9506  1.0506  1.4656
 6539SOL    HW231080   3.303   4.223   6.943 -0.6751  0.4608  1.9480
 6540SOL     OW31081   0.332   2.120   6.844  0.1392  0.0993 -0.2515
 6540SOL    HW131082   0.417   2.111   6.886 -0.2284 -1.0558  0.2520
 6540SOL    HW231083   0.314   2.035   6.804  1.2779 -1.0044  1.6199
 6541SOL     OW31084   3.946   0.377  12.629  0.1531  0.5939  0.0317
 6541SOL    HW131085   3.898   0.449  12.670 -1.9631 -0.1631 -1.1408
 6541SOL    HW231086   3.948   0.313  12.701  2.0545  1.1931  0.5297
 6542SOL     OW31087   3.588   4.555   4.829 -0.1003 -0.2381  0.1059
 6542SOL    HW131088   3.648   4.579   4.899  0.2323 -0.4691 -0.0965
 6542SOL    HW231089   3.572   4.461   4.841 -0.1988 -0.2617 -0.1871
 6543SOL     OW31090   2.155   2.655   8.530 -0.0632 -0.2304  0.5541
 6543SOL    HW131091   2.178   2.617   8.445  1.7058  0.2786  0.8117
 6543SOL    HW231092   2.235   2.705   8.544  1.0027 -2.0233  0.7084
 6544SOL     OW31093   2.340   4.346   8.810 -0.6813 -0.5457  0.5135
 6544SOL    HW131094   2.251   4.378   8.826 -0.1860  0.9785  0.2996
 6544SOL    HW231095   2.383   4.429   8.788 -1.6611  0.0939  0.9824
 6545SOL     OW31096   2.607   2.656   8.607  0.5944  0.0479  0.1695
 6545SOL    HW131097   2.665   2.660   8.683  0.6777 -1.5101  0.1893
 6545SOL    HW231098   2.657   2.608   8.541  0.6370 -0.6799  0.7380
 6546SOL     OW31099   2.364   4.585   2.232 -0.2996 -0.3290  0.1134
 6546SOL    HW131100   2.321   4.524   2.291 -1.8226  2.2558  1.6733
 6546SOL    HW231101   2.304   4.590   2.157  0.3007  2.7164 -0.1787
 6547SOL     OW31102   3.700   2.364  12.541 -0.2163 -0.0441 -0.2381
 6547SOL    HW131103   3.651   2.387  12.462 -1.8897 -1.7761  0.2890
 6547SOL    HW231104   3.793   2.364  12.518 -0.1127  0.5367  0.1714
 6548SOL     OW31105   4.530   0.222  13.298 -0.5071  0.0415  0.4181
 6548SOL    HW131106   4.455   0.182  13.341 -1.0972  1.7477  0.9426
 6548SOL    HW231107   4.529   0.313  13.326  2.2662  0.8894 -2.1708
 6549SOL     OW31108   1.010   4.419  11.910 -0.3943 -0.1831 -0.0580
 6549SOL    HW131109   0.930   4.463  11.880  0.4435  0.8875 -0.7132
 6549SOL    HW231110   1.077   4.487  11.903 -0.4223  0.1935  3.3807
 6550SOL     OW31111   4.087   1.498   9.476 -0.1401 -0.4168  0.2999
 6550SOL    HW131112   4.137   1.426   9.513  0.0222  0.1343  1.1506
 6550SOL    HW231113   4.070   1.470   9.386 -0.6205 -0.8904  0.5361
 6551SOL     OW31114   3.903   1.435   4.555 -0.3299 -0.1474  0.4129
 6551SOL    HW131115   3.986   1.388   4.562 -0.7272 -0.8865  0.1964
 6551SOL    HW231116   3.908   1.499   4.627  1.5318 -0.6554  0.7329
 6552SOL     OW31117   1.596   4.323   5.257 -0.0484 -0.1755  0.1259
 6552SOL    HW131118   1.517   4.282   5.221 -1.1775 -0.7271  3.2505
 6552SOL    HW231119   1.562   4.389   5.317 -0.8955 -3.2208  2.9901
 6553SOL     OW31120   2.039   1.311   3.566 -0.1722 -0.4645  0.5573
 6553SOL    HW131121   2.046   1.332   3.659  0.5680 -2.1910  0.8822
 6553SOL    HW231122   2.048   1.216   3.567  2.3091 -0.2381  0.2033
 6554SOL     OW31123   0.765   0.548   2.418 -0.8506  0.3221 -0.3613
 6554SOL    HW131124   0.842   0.596   2.449 -1.2892  0.1363  1.0238
 6554SOL    HW231125   0.809   0.477   2.371  1.8572  3.0149 -1.8978
 6555SOL     OW31126   4.720   0.475   3.923  0.4575 -0.1575  1.3566
 6555SOL    HW131127   0.089   0.488   3.939  1.0244 -0.5580 -1.4541
 6555SOL    HW231128   0.005   0.384   3.893 -1.5973  0.1195 -0.0759
 6556SOL     OW31129   4.639   3.024   5.828  0.1522  0.1018 -0.0869
 6556SOL    HW131130   4.611   3.062   5.912  1.2786 -1.6670  1.0827
 6556SOL    HW231131   0.004   2.992   5.846  1.0062  1.0322 -2.6414
 6557SOL     OW31132   1.576   2.700   5.359  0.2959 -0.8573 -0.6471
 6557SOL    HW131133   1.563   2.737   5.272  0.1290 -0.3894 -0.4219
 6557SOL    HW231134   1.544   2.762   5.425  1.8018 -1.1913  0.4064
 6558SOL     OW31135   2.908   2.072   7.259  1.1210 -0.8077 -0.5444
 6558SOL    HW131136   2.901   2.165   7.237  0.0614  0.0130  3.1940
 6558SOL    HW231137   2.888   2.083   7.352 -0.6559  2.4807 -1.3314
 6559SOL     OW31138   1.436   3.730   6.491 -0.1295  0.2330 -0.2606
 6559SOL    HW131139   1.413   3.732   6.584  0.0575  0.8252 -0.2299
 6559SOL    HW231140   1.375   3.800   6.468 -0.2253  0.0857 -0.4562
 6560SOL     OW31141   1.717   4.084   9.744 -0.0740  0.1008  0.6648
 6560SOL    HW131142   1.699   3.994   9.720 -1.8780  0.1512  1.8579
 6560SOL    HW231143   1.638   4.118   9.786 -1.7922 -3.0663 -0.0461
 6561SOL     OW31144   2.235   0.631   1.740  0.7054 -0.1584 -0.1155
 6561SOL    HW131145   2.181   0.609   1.665  0.7615  0.5190 -0.3527
 6561SOL    HW231146   2.317   0.623   1.692 -0.7494 -1.8788 -2.3112
 6562SOL     OW31147   3.501   2.613   1.695  0.1316 -0.1822 -0.2576
 6562SOL    HW131148   3.482   2.555   1.621  2.9456 -0.8279 -0.4767
 6562SOL    HW231149   3.414   2.638   1.726 -0.1757  0.8265 -1.9355
 6563SOL     OW31150   0.800   4.508   2.494 -0.8032 -0.3164  0.1870
 6563SOL    HW131151   0.846   4.571   2.439  1.6055 -1.8598  0.4163
 6563SOL    HW231152   0.722   4.505   2.437  0.2716 -1.8370 -1.2104
 6564SOL     OW31153   1.596   2.616   3.156 -0.1878 -0.1733  0.2430
 6564SOL    HW131154   1.536   2.663   3.098 -2.0922  0.3880  2.6409
 6564SOL    HW231155   1.568   2.652   3.240 -2.9043  0.5076 -0.9405
 6565SOL     OW31156   2.431   4.633   0.012 -0.5586 -0.1357  0.6205
 6565SOL    HW131157   2.456   4.564   0.074 -0.1788 -0.2847  0.3045
 6565SOL    HW231158   2.460   4.703   0.070  1.0131  0.5957 -1.0390
 6566SOL     OW31159   4.049   1.912  15.234 -0.7747  0.2944  0.0341
 6566SOL    HW131160   3.983   1.864  15.284  0.6620 -0.1176  1.5741
 6566SOL    HW231161   4.040   2.000  15.272 -0.5911  0.2798  0.1140
 6567SOL     OW31162   0.180   4.333   8.391  0.1587 -0.3639  0.1001
 6567SOL    HW131163   0.140   4.256   8.431  1.2759  0.0971  2.0595
 6567SOL    HW231164   0.176   4.394   8.465 -2.7690  1.3832 -1.5116
 6568SOL     OW31165   0.906   1.894   5.584  0.8015 -0.1759 -0.2349
 6568SOL    HW131166   0.830   1.861   5.631 -0.4860  2.7620 -0.2455
 6568SOL    HW231167   0.892   1.867   5.493  0.4967 -2.2403  0.4411
 6569SOL     OW31168   3.127   2.702   2.901 -1.0327 -0.1127  0.0148
 6569SOL    HW131169   3.163   2.625   2.946  0.7813 -0.6457 -2.3597
 6569SOL    HW231170   3.201   2.710   2.840 -1.4428 -0.4076 -0.5230
 6570SOL     OW31171   2.784   2.632   2.246  0.2035  0.2391  0.5815
 6570SOL    HW131172   2.829   2.673   2.320 -0.8983  1.5362  0.5316
 6570SOL    HW231173   2.737   2.562   2.293 -1.6243  1.8589  1.1564
 6571SOL     OW31174   0.387   4.474   7.576 -0.3559 -0.6161  0.6785
 6571SOL    HW131175   0.307   4.423   7.568 -1.1898  1.1461 -2.4437
 6571SOL    HW231176   0.422   4.464   7.665 -0.1854 -0.7384  0.5991
 6572SOL     OW31177   0.519   0.724   2.347 -0.2294  0.1811 -0.3403
 6572SOL    HW131178   0.579   0.761   2.412  0.6593  1.0684 -1.6932
 6572SOL    HW231179   0.529   0.797   2.287 -2.3738  0.2387 -0.6499
 6573SOL     OW31180   2.816   0.502   8.435  0.1312 -0.1338  0.0269
 6573SOL    HW131181   2.863   0.451   8.369 -2.5616 -0.8070 -1.4000
 6573SOL    HW231182   2.737   0.514   8.382  0.9084  0.9059 -0.8843
 6574SOL     OW31183   0.617   3.654   3.522  0.2923  0.3324 -0.1060
 6574SOL    HW131184   0.554   3.583   3.505 -1.3381  1.8632 -0.5009
 6574SOL    HW231185   0.555   3.727   3.521  0.4304  0.4445 -0.6889
 6575SOL     OW31186   1.336   1.750   1.440  0.1096  0.1861 -0.4704
 6575SOL    HW131187   1.315   1.829   1.389  1.4181 -0.0429 -1.3638
 6575SOL    HW231188   1.392   1.706   1.376 -2.5166 -2.1279 -1.1835
 6576SOL     OW31189   2.573   2.552  12.643 -0.4493  0.5658 -0.0122
 6576SOL    HW131190   2.576   2.545  12.548  2.9985  2.7659 -0.0560
 6576SOL    HW231191   2.480   2.562  12.661 -0.2642  0.6303  0.9280
 6577SOL     OW31192   2.158   0.162   2.728 -0.2170  0.2095 -0.3072
 6577SOL    HW131193   2.144   0.213   2.648 -0.4659  1.2248  0.3871
 6577SOL    HW231194   2.131   0.078   2.691 -1.9012  0.4884  0.3057
 6578SOL     OW31195   4.525   0.481   2.313  0.3819 -0.8914 -0.2746
 6578SOL    HW131196   4.568   0.413   2.364  1.0918  0.0230  0.3463
 6578SOL    HW231197   4.607   0.504   2.270 -0.5690  2.9761 -0.0341
 6579SOL     OW31198   3.606   3.367  11.392 -0.0104 -0.2496 -0.1934
 6579SOL    HW131199   3.668   3.295  11.385  0.6579  0.4559 -1.5683
 6579SOL    HW231200   3.645   3.417  11.463 -0.4795  0.5026 -0.4626
 6580SOL     OW31201   4.393   2.455   2.366 -0.2375  0.0157 -0.0524
 6580SOL    HW131202   4.346   2.376   2.339 -0.8372  0.1240  0.6787
 6580SOL    HW231203   4.485   2.427   2.367  0.3031  1.8193  0.9819
 6581SOL     OW31204   1.577   1.229  13.829  0.6801  0.4333  0.4052
 6581SOL    HW131205   1.506   1.290  13.849  1.2368  1.7506 -1.6181
 6581SOL    HW231206   1.578   1.240  13.734 -0.6156 -2.5193  0.0348
 6582SOL     OW31207   3.407   2.607   0.550  0.2345  0.0609  0.4903
 6582SOL    HW131208   3.488   2.601   0.499 -0.1321  0.4932 -0.1289
 6582SOL    HW231209   3.380   2.516   0.552 -1.5834  0.6044  1.0650
 6583SOL     OW31210   3.066   3.613  14.860  0.6162 -0.4031 -0.2320
 6583SOL    HW131211   3.087   3.641  14.949 -1.3641  0.5907 -0.0757
 6583SOL    HW231212   3.151   3.631  14.819  0.3267 -1.4333 -1.2896
 6584SOL     OW31213   3.486   4.047   8.249  0.1835 -0.1211 -0.1829
 6584SOL    HW131214   3.552   4.097   8.297  0.1582 -2.0766  1.9394
 6584SOL    HW231215   3.444   4.113   8.194  0.3508 -0.9419 -1.2967
 6585SOL     OW31216   1.846   1.947  12.840 -0.9703  0.0318 -0.2413
 6585SOL    HW131217   1.779   1.947  12.772 -0.1467 -0.0137 -1.0516
 6585SOL    HW231218   1.857   2.042  12.836  1.1352 -0.1550  1.1229
 6586SOL     OW31219   1.407   1.248   9.124  0.0136 -0.3454  0.1086
 6586SOL    HW131220   1.452   1.233   9.208  0.0173 -0.1898  0.1356
 6586SOL    HW231221   1.483   1.282   9.076  0.1894  0.4816  0.9559
 6587SOL     OW31222   0.342   3.113   7.955  0.1204 -0.7905 -0.2098
 6587SOL    HW131223   0.246   3.119   7.954  0.1053 -0.5642  1.7028
 6587SOL    HW231224   0.362   3.171   7.882 -0.8196  1.1799  1.0691
 6588SOL     OW31225   2.931   0.972   4.338  0.0750  0.7106  0.2756
 6588SOL    HW131226   2.919   1.065   4.318  1.7416  0.6917 -0.8516
 6588SOL    HW231227   2.860   0.942   4.394  2.5015 -3.8573  0.8766
 6589SOL     OW31228   1.330   2.108   9.110  0.4233 -0.0952  0.1706
 6589SOL    HW131229   1.320   2.193   9.066  2.4872  0.1920  0.2472
 6589SOL    HW231230   1.425   2.094   9.108  0.1916 -1.6121 -0.3439
 6590SOL     OW31231   2.977   1.802   2.990 -0.5890  0.0639 -0.5015
 6590SOL    HW131232   3.066   1.795   2.955 -0.2344 -0.6137  0.5465
 6590SOL    HW231233   3.002   1.803   3.082 -2.1241 -2.0203 -0.0648
 6591SOL     OW31234   4.251   1.061   5.557 -0.2255  0.3557  0.3717
 6591SOL    HW131235   4.292   1.015   5.483  1.0116  0.6336  0.8751
 6591SOL    HW231236   4.307   1.139   5.560 -1.1504  1.0697 -0.8324
 6592SOL     OW31237   4.296   2.070   4.481 -0.1859  0.1371  0.0197
 6592SOL    HW131238   4.373   2.075   4.424  0.0057 -0.4158  0.2352
 6592SOL    HW231239   4.243   2.137   4.438 -0.9129  0.2335  1.0718
 6593SOL     OW31240   3.325   3.704   5.497  0.3161 -0.2822  0.4863
 6593SOL    HW131241   3.324   3.792   5.535  0.1313  0.0617 -0.3187
 6593SOL    HW231242   3.236   3.670   5.501 -0.2638  0.9924 -1.8075
 6594SOL     OW31243   4.156   1.287  14.369  0.1525 -0.5316 -0.9835
 6594SOL    HW131244   4.115   1.373  14.364 -1.2502 -1.1897 -0.9089
 6594SOL    HW231245   4.167   1.266  14.462  0.4313 -0.0625 -0.9089
 6595SOL     OW31246   1.659   2.924   4.780 -0.0881  0.1904  0.3890
 6595SOL    HW131247   1.688   2.832   4.780 -0.5737  0.0228  2.3134
 6595SOL    HW231248   1.565   2.908   4.772  0.2774 -3.3495  3.0464
 6596SOL     OW31249   4.003   2.702   6.364  0.0460  0.0180 -0.5717
 6596SOL    HW131250   4.014   2.689   6.270  1.0458 -0.6408 -0.3568
 6596SOL    HW231251   4.080   2.664   6.407 -1.7276  0.6233  3.1774
 6597SOL     OW31252   0.476   1.371   3.600 -0.2694  0.3803 -0.0120
 6597SOL    HW131253   0.511   1.303   3.657  1.3272 -0.1169 -1.5742
 6597SOL    HW231254   0.471   1.441   3.665 -1.9249 -0.3621  0.6353
 6598SOL     OW31255   0.910   2.460   7.820  0.1391  0.5922  0.0178
 6598SOL    HW131256   0.841   2.526   7.822  0.0113  0.4782 -0.4950
 6598SOL    HW231257   0.880   2.403   7.749 -1.0791  1.2584 -0.0137
 6599SOL     OW31258   4.550   1.961   7.989  0.1547 -0.2801  0.6710
 6599SOL    HW131259   4.617   1.905   7.950 -0.7548 -0.9946  0.1586
 6599SOL    HW231260   4.593   2.047   7.987 -0.5985  0.0498 -1.7582
 6600SOL     OW31261   0.255   4.486   9.111  0.0127  0.2934 -0.5570
 6600SOL    HW131262   0.257   4.571   9.066 -1.9219  0.1362 -0.9166
 6600SOL    HW231263   0.235   4.508   9.202 -0.0801 -0.5433 -0.3758
 6601SOL     OW31264   1.800   2.729   1.142  0.2534  0.6092 -0.5130
 6601SOL    HW131265   1.758   2.690   1.219  0.5405  0.0660 -0.6383
 6601SOL    HW231266   1.885   2.747   1.183  0.2044  1.0311 -0.5901
 6602SOL     OW31267   0.945   2.185   7.047 -0.2196 -0.1264  0.5053
 6602SOL    HW131268   0.969   2.100   7.085 -0.6917 -0.4371  0.1096
 6602SOL    HW231269   0.974   2.233   7.125  0.1140 -0.4888  0.6072
 6603SOL     OW31270   4.345   4.572  12.211  0.2951  0.0955 -0.7400
 6603SOL    HW131271   4.260   4.528  12.205  0.5917 -0.2750 -2.4085
 6603SOL    HW231272   4.383   4.518  12.280 -1.2474 -0.9954 -0.7381
 6604SOL     OW31273   3.786   3.714   9.526 -0.9239  0.7082  0.2505
 6604SOL    HW131274   3.728   3.739   9.598 -1.6318  0.9977 -0.4136
 6604SOL    HW231275   3.846   3.787   9.543  0.0680 -0.5204  1.9852
 6605SOL     OW31276   1.582   0.848   3.572  0.5762  0.1984  0.1585
 6605SOL    HW131277   1.529   0.869   3.649  1.3519 -0.8248  0.9680
 6605SOL    HW231278   1.519   0.844   3.500 -1.0883  1.6032  1.5313
 6606SOL     OW31279   1.304   0.382   4.874  0.1424  0.0051 -0.4255
 6606SOL    HW131280   1.321   0.302   4.825  1.5242 -0.8208  1.4024
 6606SOL    HW231281   1.359   0.369   4.951 -1.5986 -1.2870  0.5992
 6607SOL     OW31282   1.701   3.295   1.559  0.0415  0.3091 -0.2784
 6607SOL    HW131283   1.777   3.318   1.612  1.5381 -0.3509 -2.1769
 6607SOL    HW231284   1.730   3.213   1.521 -4.1153 -0.4323 -1.7882
 6608SOL     OW31285   0.297   0.586   4.220  0.1883 -0.4305 -0.1988
 6608SOL    HW131286   0.237   0.513   4.201  0.8664 -1.1272  0.3395
 6608SOL    HW231287   0.353   0.579   4.143  2.9479  2.0554  1.5818
 6609SOL     OW31288   2.309   4.441  16.498 -0.1080 -0.3845  0.3189
 6609SOL    HW131289   2.234   4.399  16.540 -0.5422 -0.2521 -0.3220
 6609SOL    HW231290   2.363   4.449  16.577 -0.3794  0.3331  0.4335
 6610SOL     OW31291   3.581   2.040   5.481 -0.0494 -0.0142  0.5762
 6610SOL    HW131292   3.532   1.969   5.523 -0.4744  0.2145  0.4686
 6610SOL    HW231293   3.516   2.108   5.465  1.4170  1.7996  2.2733
 6611SOL     OW31294   4.462   4.666   8.822 -0.8145 -0.2572  0.5962
 6611SOL    HW131295   4.449   4.572   8.836 -2.0596 -0.1095  0.4657
 6611SOL    HW231296   4.394   4.690   8.759 -0.3843  0.5385  0.4322
 6612SOL     OW31297   4.161   3.097  12.568  0.0147 -0.2008 -0.2716
 6612SOL    HW131298   4.134   3.133  12.653  0.2958  1.9162 -1.0621
 6612SOL    HW231299   4.102   3.023  12.556  0.5172 -0.9481  1.8502
 6613SOL     OW31300   1.878   2.488  16.206  0.5776  0.0449  0.3536
 6613SOL    HW131301   1.883   2.500  16.300 -2.2792 -1.1317  0.6526
 6613SOL    HW231302   1.956   2.433  16.192 -0.6981 -1.2750 -1.6998
 6614SOL     OW31303   2.444   3.200  13.929  0.4777  0.1197 -0.0007
 6614SOL    HW131304   2.374   3.254  13.892 -0.8844 -1.8932 -0.3640
 6614SOL    HW231305   2.515   3.263  13.942  0.1322  0.1865  1.5907
 6615SOL     OW31306   4.407   4.372   9.765  0.2342 -0.1530 -0.4540
 6615SOL    HW131307   4.346   4.439   9.733  0.3397  0.9807  1.6793
 6615SOL    HW231308   4.414   4.411   9.852  0.0559 -0.2999 -0.3740
 6616SOL     OW31309   3.793   2.546  17.549  0.0922  0.0833  0.1201
 6616SOL    HW131310   3.804   2.454  17.527 -1.4499 -0.3055  0.9811
 6616SOL    HW231311   3.717   2.555  17.492 -0.7982  0.5345  1.3746
 6617SOL     OW31312   4.221   3.969   2.349  0.3427 -0.5162  0.6446
 6617SOL    HW131313   4.208   4.016   2.431 -0.5269 -1.0214  0.8036
 6617SOL    HW231314   4.251   3.886   2.386  0.5640 -1.2695 -1.2028
 6618SOL     OW31315   3.862   3.392   2.449 -0.4086  0.3454 -0.0723
 6618SOL    HW131316   3.930   3.337   2.410  0.1702 -0.0013  1.4454
 6618SOL    HW231317   3.871   3.370   2.542 -0.9683  0.2777 -0.0300
 6619SOL     OW31318   3.499   4.314   6.148  0.1338  0.4649 -0.1808
 6619SOL    HW131319   3.426   4.302   6.208  0.1676 -0.4645 -0.3240
 6619SOL    HW231320   3.538   4.227   6.150  0.2289  0.5628  1.7240
 6620SOL     OW31321   3.709   4.634   3.411 -0.3587 -0.7516 -0.3157
 6620SOL    HW131322   3.733   4.698   3.479 -1.7715  0.2942 -0.8098
 6620SOL    HW231323   3.766   4.665   3.340 -2.7138  0.7503 -1.5368
 6621SOL     OW31324   0.909   0.333  13.611  0.6833 -0.2449 -0.6900
 6621SOL    HW131325   0.854   0.379  13.548  1.0261  2.7102  1.1148
 6621SOL    HW231326   0.948   0.408  13.657  1.5381 -0.4588 -1.0532
 6622SOL     OW31327   2.048   1.644  12.342 -0.0120 -0.4003  0.1957
 6622SOL    HW131328   2.118   1.589  12.379 -1.4848 -1.5105  1.3393
 6622SOL    HW231329   2.091   1.670  12.260 -0.4754  0.5313  0.2514
 6623SOL     OW31330   0.966   4.261   5.547 -0.1313  0.0139 -0.1867
 6623SOL    HW131331   0.910   4.255   5.471 -0.3339  0.9858 -0.1129
 6623SOL    HW231332   1.051   4.291   5.514 -0.7396  1.0102 -0.8545
 6624SOL     OW31333   1.826   1.516  15.366 -0.1929  0.5563  0.0180
 6624SOL    HW131334   1.771   1.445  15.398 -2.4450  1.4656 -1.7983
 6624SOL    HW231335   1.916   1.495  15.390 -0.2275 -1.8596 -2.0276
 6625SOL     OW31336   1.240   0.618   4.290 -0.0383 -0.3482  0.0545
 6625SOL    HW131337   1.301   0.692   4.289 -1.0719  0.5065  0.1279
 6625SOL    HW231338   1.261   0.576   4.373 -0.6383  0.3027  0.5366
 6626SOL     OW31339   1.090   2.588   5.314  0.0594 -0.1530 -0.0774
 6626SOL    HW131340   1.065   2.530   5.386 -0.3201 -1.2677 -1.1062
 6626SOL    HW231341   1.029   2.555   5.248  0.0128 -1.3776  0.5828
 6627SOL     OW31342   1.108   1.303   6.392 -0.2123  0.1527 -0.3465
 6627SOL    HW131343   1.100   1.217   6.433 -2.4128  0.2353 -0.5719
 6627SOL    HW231344   1.167   1.348   6.452 -1.1963 -0.4477  1.0592
 6628SOL     OW31345   1.726   2.027  10.216 -0.3555  0.6758 -0.4434
 6628SOL    HW131346   1.788   1.955  10.212 -0.0352  0.9954 -1.4069
 6628SOL    HW231347   1.741   2.060  10.127 -0.1503  0.1760 -0.5937
 6629SOL     OW31348   1.227   2.917   3.825  0.2336 -0.0482 -0.2393
 6629SOL    HW131349   1.197   2.916   3.916  0.1628  1.9024 -0.2315
 6629SOL    HW231350   1.282   2.840   3.829  2.2563  1.4847  1.3927
 6630SOL     OW31351   3.811   2.961   0.627  0.1333  0.0037 -1.0551
 6630SOL    HW131352   3.741   2.902   0.655 -1.4949  0.9106 -3.1329
 6630SOL    HW231353   3.805   3.026   0.697 -2.2417  0.4214 -1.6433
 6631SOL     OW31354   3.253   1.373   8.796  0.4005 -0.3504 -0.1417
 6631SOL    HW131355   3.343   1.350   8.772 -0.0159 -0.5579 -1.4774
 6631SOL    HW231356   3.205   1.304   8.750 -0.0850  0.6069 -1.0792
 6632SOL     OW31357   4.142   1.665   5.152 -0.2031 -0.5411 -0.2518
 6632SOL    HW131358   4.069   1.612   5.185 -1.3243 -0.3542 -2.4895
 6632SOL    HW231359   4.155   1.727   5.224 -0.5804 -1.4676  0.6304
 6633SOL     OW31360   0.911   3.950   4.487  0.1377  0.3109  0.6713
 6633SOL    HW131361   0.947   4.039   4.482  0.0509  0.3016 -0.2076
 6633SOL    HW231362   0.833   3.946   4.432 -0.5045 -0.6466  1.6724
 6634SOL     OW31363   2.448   1.539   8.620 -0.0575 -0.3093  0.2821
 6634SOL    HW131364   2.464   1.571   8.532  0.9835 -1.7640 -0.0591
 6634SOL    HW231365   2.527   1.569   8.665  0.4584 -0.7717 -0.3064
 6635SOL     OW31366   1.766   4.419  14.084  0.1815  0.5572 -0.8060
 6635SOL    HW131367   1.845   4.452  14.042  1.0727  0.6710  0.9440
 6635SOL    HW231368   1.692   4.461  14.040 -0.7281  0.3856  0.5642
 6636SOL     OW31369   2.323   4.335  10.651 -0.6510  0.3114 -0.0785
 6636SOL    HW131370   2.333   4.385  10.570 -0.4357 -1.0950 -0.9141
 6636SOL    HW231371   2.343   4.407  10.712 -1.3111 -2.0541  2.9452
 6637SOL     OW31372   1.722   3.845   8.645  0.8412  0.0788  0.0220
 6637SOL    HW131373   1.644   3.856   8.699  1.3195 -0.3367  0.7937
 6637SOL    HW231374   1.720   3.922   8.588  1.3767  0.3957  0.4421
 6638SOL     OW31375   1.479   4.378   7.299  0.3760  0.1866 -0.5250
 6638SOL    HW131376   1.493   4.466   7.262  2.0493  1.0937  2.2629
 6638SOL    HW231377   1.498   4.402   7.390 -3.0946  4.3287 -0.8570
 6639SOL     OW31378   0.696   0.290   9.383  0.1537 -0.4402 -0.0642
 6639SOL    HW131379   0.778   0.267   9.341  0.7446 -0.5450  1.1471
 6639SOL    HW231380   0.703   0.384   9.394  1.4017 -0.7278  1.5481
 6640SOL     OW31381   0.036   3.946   5.452 -0.5056  0.2266  0.0434
 6640SOL    HW131382   0.108   4.008   5.438 -1.7649  1.9687  1.2255
 6640SOL    HW231383   4.684   3.988   5.412 -0.5113  0.0779 -0.0996
 6641SOL     OW31384   0.592   4.162   3.063 -0.2357  0.3047 -0.9293
 6641SOL    HW131385   0.646   4.084   3.052  0.7935  0.9318 -0.3600
 6641SOL    HW231386   0.654   4.229   3.092  0.7260 -1.7816  1.9449
 6642SOL     OW31387   3.434   3.733   2.048  0.1293  0.2749 -0.3624
 6642SOL    HW131388   3.530   3.730   2.051  0.1592  1.9526  0.6441
 6642SOL    HW231389   3.420   3.662   2.110  0.3420 -0.1582 -0.8119
 6643SOL     OW31390   2.004   4.494   5.529  0.4436 -0.1041  0.4942
 6643SOL    HW131391   1.919   4.518   5.492  0.5520 -1.1747 -0.4646
 6643SOL    HW231392   2.045   4.425   5.477 -0.8022  0.9249 -1.8320
 6644SOL     OW31393   4.446   3.743   9.745 -0.0006  0.1731  0.3366
 6644SOL    HW131394   4.488   3.684   9.682  2.0737  0.3825  1.5343
 6644SOL    HW231395   4.429   3.685   9.819  3.3027 -1.1339  0.1104
 6645SOL     OW31396   2.866   2.073  13.888 -0.2608  0.0115 -0.0282
 6645SOL    HW131397   2.934   2.049  13.824 -0.6611  0.1149 -0.4902
 6645SOL    HW231398   2.919   2.063  13.967 -0.6561  2.2325  0.5070
 6646SOL     OW31399   0.644   3.384   5.971 -0.0031  0.3596 -0.0994
 6646SOL    HW131400   0.736   3.403   5.952  0.4105 -1.7254 -0.2351
 6646SOL    HW231401   0.591   3.416   5.898 -0.1575  0.0350 -0.1326
 6647SOL     OW31402   4.524   4.350   3.901  0.0909  0.8958  0.2159
 6647SOL    HW131403   4.577   4.406   3.958 -0.2688  0.7754  0.6654
 6647SOL    HW231404   4.437   4.367   3.936 -0.3146 -0.4704 -0.1049
 6648SOL     OW31405   1.511   4.500   8.020  0.3544 -0.2257  0.1168
 6648SOL    HW131406   1.530   4.505   8.114  1.6454  2.9387 -0.2839
 6648SOL    HW231407   1.590   4.539   7.982  1.3939 -0.2979  2.1910
 6649SOL     OW31408   0.824   1.279  13.847 -0.0128  0.3627 -0.3458
 6649SOL    HW131409   0.753   1.238  13.895  0.8933  0.1804  0.8287
 6649SOL    HW231410   0.788   1.354  13.800  0.5854 -0.5652 -2.3006
 6650SOL     OW31411   2.502   1.464   8.221 -0.4207 -0.2220  0.2429
 6650SOL    HW131412   2.584   1.433   8.257 -0.5139 -0.2395  0.4408
 6650SOL    HW231413   2.478   1.530   8.286 -0.5277  0.0961 -0.1141
 6651SOL     OW31414   1.554   3.961   0.085 -0.1013 -0.0249 -0.0766
 6651SOL    HW131415   1.625   3.983   0.144  0.2964 -0.0008 -0.5606
 6651SOL    HW231416   1.478   4.011   0.114 -0.7989 -1.4522  0.5355
 6652SOL     OW31417   3.404   2.255   7.195 -0.5157  0.0229  0.0694
 6652SOL    HW131418   3.341   2.252   7.123 -3.6307 -0.3627  2.8133
 6652SOL    HW231419   3.374   2.184   7.251 -0.4372  1.1912  1.5897
 6653SOL     OW31420   0.529   4.712   4.702  0.2817  0.2484  0.2213
 6653SOL    HW131421   0.579   4.642   4.744 -1.2535 -0.4580  0.8610
 6653SOL    HW231422   0.564   4.720   4.613  1.4283  0.1625  0.6563
 6654SOL     OW31423   1.538   3.423   2.157 -0.1699  0.3686 -0.2507
 6654SOL    HW131424   1.564   3.344   2.203 -0.1545  0.9898  0.7977
 6654SOL    HW231425   1.583   3.401   2.076  1.4440 -0.1675  0.8041
 6655SOL     OW31426   3.385   4.484  11.573  0.1186 -0.6944 -0.1086
 6655SOL    HW131427   3.432   4.409  11.538  0.2764 -0.2738 -0.7791
 6655SOL    HW231428   3.351   4.441  11.652 -0.5835 -1.2877 -0.7366
 6656SOL     OW31429   4.133   1.736   8.323  0.8104 -0.1384  0.3801
 6656SOL    HW131430   4.046   1.714   8.356  0.3976  0.0767 -0.5549
 6656SOL    HW231431   4.187   1.661   8.347  1.2921  0.4987  1.2837
 6657SOL     OW31432   4.723   2.596   3.251 -0.1529 -0.3444 -0.1345
 6657SOL    HW131433   0.018   2.565   3.340 -1.6228 -0.7857  0.0087
 6657SOL    HW231434   0.037   2.683   3.239 -2.3195  0.3779 -1.6507
 6658SOL     OW31435   3.882   1.201  14.988 -0.0716 -0.2893 -0.0003
 6658SOL    HW131436   3.876   1.118  15.035 -0.2767 -1.2912 -1.7819
 6658SOL    HW231437   3.977   1.197  14.994 -0.0558  0.4578  0.2390
 6659SOL     OW31438   3.062   1.849   3.599  0.8393  0.3699 -0.3700
 6659SOL    HW131439   3.152   1.873   3.574  0.5120  1.2268 -0.7392
 6659SOL    HW231440   3.019   1.896   3.528 -1.9468 -0.4223  0.8083
 6660SOL     OW31441   1.117   2.860   6.128  0.4340 -0.0258 -0.2362
 6660SOL    HW131442   1.128   2.949   6.094  2.6927 -0.2423 -0.0590
 6660SOL    HW231443   1.159   2.875   6.213  0.4913  0.3361 -0.3288
 6661SOL     OW31444   1.901   3.350  14.704 -0.0066  0.0070  0.7161
 6661SOL    HW131445   1.864   3.361  14.617  3.0123 -0.0933 -0.6010
 6661SOL    HW231446   1.992   3.373  14.684 -0.2366  0.0293 -0.2875
 6662SOL     OW31447   2.470   0.036   8.388 -0.2117  0.4854  0.1975
 6662SOL    HW131448   2.455   4.698   8.317  1.3366  1.9224 -1.3711
 6662SOL    HW231449   2.558   0.010   8.414 -0.7980 -2.9443 -1.2284
 6663SOL     OW31450   4.176   4.025  16.996  0.3924 -0.4129  0.2114
 6663SOL    HW131451   4.198   3.934  17.016  0.6292  0.3934  3.7127
 6663SOL    HW231452   4.134   4.011  16.911  0.3751 -0.5263  0.2383
 6664SOL     OW31453   0.772   3.664   1.254  0.4061  0.6122  0.3532
 6664SOL    HW131454   0.854   3.618   1.272 -0.5700 -2.4591 -2.9117
 6664SOL    HW231455   0.736   3.684   1.340  1.2855 -1.5408  1.2316
 6665SOL     OW31456   4.407   3.454   3.218 -0.0124  0.0829  0.1321
 6665SOL    HW131457   4.403   3.493   3.305  0.7875  1.6742 -0.5381
 6665SOL    HW231458   4.317   3.431   3.196 -0.5402  0.6096  1.7204
 6666SOL     OW31459   3.582   3.043   8.028 -0.8462  0.3205 -0.0671
 6666SOL    HW131460   3.508   3.068   7.974  0.2744  2.3668 -0.6432
 6666SOL    HW231461   3.657   3.026   7.971 -0.2144  1.6589  0.3587
 6667SOL     OW31462   3.140   3.019   3.095  0.4491 -0.7175  0.2979
 6667SOL    HW131463   3.228   2.985   3.112  0.4466 -0.8376  0.0747
 6667SOL    HW231464   3.105   2.980   3.015  2.1630 -1.0793 -0.2785
 6668SOL     OW31465   0.476   2.376   5.870 -0.3136 -0.1829  0.0151
 6668SOL    HW131466   0.424   2.398   5.793  1.1074 -0.2526 -0.9392
 6668SOL    HW231467   0.564   2.408   5.851 -0.1012 -2.1242 -2.2576
 6669SOL     OW31468   3.025   0.201   0.284  0.1734  0.0653  0.7567
 6669SOL    HW131469   3.082   0.246   0.221 -0.9437  1.1430  0.5184
 6669SOL    HW231470   3.059   0.113   0.301 -2.0072 -0.8985  0.0118
 6670SOL     OW31471   0.870   4.169   2.442 -0.0160  0.0744  0.7293
 6670SOL    HW131472   0.787   4.172   2.491 -0.7368  0.2045 -0.4945
 6670SOL    HW231473   0.932   4.201   2.508 -0.6707  0.4860  1.1470
 6671SOL     OW31474   0.893   4.298   3.620  0.1063 -0.8586  0.0165
 6671SOL    HW131475   0.937   4.228   3.669  0.3751 -0.0846  0.8652
 6671SOL    HW231476   0.970   4.352   3.600 -0.6164 -0.2970 -1.2741
 6672SOL     OW31477   3.749   2.092  12.298 -0.2581  0.1040  0.5548
 6672SOL    HW131478   3.812   2.039  12.250 -3.5516 -2.3114 -1.1246
 6672SOL    HW231479   3.693   2.024  12.336  0.1517 -0.5884 -0.0773
 6673SOL     OW31480   0.583   1.753   7.713 -0.6466 -0.3278 -0.0057
 6673SOL    HW131481   0.552   1.666   7.689 -1.3289 -0.5543  1.6910
 6673SOL    HW231482   0.631   1.767   7.631  1.4664 -0.7226  1.1422
 6674SOL     OW31483   1.781   4.453   7.797  0.0276 -0.0743  0.4358
 6674SOL    HW131484   1.793   4.537   7.842  0.1443  0.2556 -0.2230
 6674SOL    HW231485   1.780   4.403   7.879  0.7175 -1.1131 -0.1987
 6675SOL     OW31486   3.761   2.308   6.456 -0.6925  0.3290  0.3974
 6675SOL    HW131487   3.787   2.302   6.547 -1.1662 -1.1351  0.4302
 6675SOL    HW231488   3.698   2.236   6.451 -1.4300  1.0118 -0.1729
 6676SOL     OW31489   0.822   0.691  12.969 -0.0285  0.2353 -0.0406
 6676SOL    HW131490   0.911   0.662  12.948 -0.3287 -0.9788  0.3801
 6676SOL    HW231491   0.821   0.765  12.908  1.3442 -0.7240 -1.2251
 6677SOL     OW31492   0.363   2.127   8.558 -0.2052  0.2989 -0.3228
 6677SOL    HW131493   0.436   2.140   8.617 -1.6869  0.2167  1.5306
 6677SOL    HW231494   0.364   2.031   8.559  1.3980  0.3080 -0.9717
 6678SOL     OW31495   0.462   4.153   7.048  0.0243 -0.3688  0.3924
 6678SOL    HW131496   0.497   4.233   7.008 -2.5818  0.0465 -1.0635
 6678SOL    HW231497   0.371   4.164   7.021 -0.4007 -0.6493  1.6849
 6679SOL     OW31498   1.672   1.819  16.503 -0.3544 -0.3168  0.3096
 6679SOL    HW131499   1.759   1.796  16.536  0.5048  3.9726  1.0637
 6679SOL    HW231500   1.693   1.856  16.418 -1.5647  1.1596  0.6563
 6680SOL     OW31501   3.754   4.156   8.149 -0.2506 -0.6163  0.4624
 6680SOL    HW131502   3.705   4.136   8.069 -0.8836 -0.7103  0.8723
 6680SOL    HW231503   3.714   4.242   8.162 -0.6209 -0.7888  0.4617
 6681SOL     OW31504   2.400   1.275   8.545  0.0362 -0.8399 -0.0146
 6681SOL    HW131505   2.427   1.359   8.583 -0.5825  0.6717 -2.9211
 6681SOL    HW231506   2.306   1.289   8.545  0.2552  0.6867 -1.8572
 6682SOL     OW31507   1.907   2.845  13.329  0.1353 -0.3913 -0.2386
 6682SOL    HW131508   1.855   2.887  13.260 -0.5656  0.3252  0.7210
 6682SOL    HW231509   1.949   2.773  13.282  1.4228  0.3713 -0.2753
 6683SOL     OW31510   4.294   0.012   8.639  0.3333 -0.1423 -0.4778
 6683SOL    HW131511   4.307   0.019   8.545 -1.4873  0.0230 -0.7268
 6683SOL    HW231512   4.209   4.692   8.632  0.2441 -0.1674  0.8418
 6684SOL     OW31513   2.797   4.574   8.611  0.2812  0.1233 -0.1257
 6684SOL    HW131514   2.725   4.531   8.563  1.7455 -1.5327 -0.8535
 6684SOL    HW231515   2.795   4.655   8.561 -2.4699 -0.3736 -0.8177
 6685SOL     OW31516   4.244   3.610   2.167  0.8316 -0.2113  1.0824
 6685SOL    HW131517   4.332   3.629   2.134  0.9866 -2.0378  0.4330
 6685SOL    HW231518   4.229   3.515   2.161  1.0907 -0.2129  0.4580
 6686SOL     OW31519   0.516   3.826   9.117  0.1051 -0.0526 -0.7890
 6686SOL    HW131520   0.593   3.779   9.149 -0.6445 -0.7366 -0.0060
 6686SOL    HW231521   0.552   3.885   9.050  1.1670  0.0885 -0.0876
 6687SOL     OW31522   1.194   3.217   3.303  0.0558  0.3819  0.3196
 6687SOL    HW131523   1.285   3.216   3.332 -0.1556  0.6067  0.9805
 6687SOL    HW231524   1.193   3.290   3.241 -0.4458 -0.2617 -0.4315
 6688SOL     OW31525   0.082   1.283   5.605 -0.6888  0.7542 -0.2136
 6688SOL    HW131526   0.068   1.375   5.582 -0.5926  0.9150  0.3706
 6688SOL    HW231527   0.018   1.231   5.555  2.4885 -1.6605 -1.7604
 6689SOL     OW31528   0.990   1.139  10.654 -0.8268  0.4257  0.3330
 6689SOL    HW131529   1.019   1.139  10.745  4.3610 -0.0009 -1.3252
 6689SOL    HW231530   0.951   1.226  10.640 -1.0441  0.5101  1.5386
 6690SOL     OW31531   1.387   0.979   2.862 -0.5606 -0.1834  0.1437
 6690SOL    HW131532   1.370   1.044   2.794 -1.2826  1.4453  1.8841
 6690SOL    HW231533   1.297   0.960   2.890 -0.7758 -0.6966 -0.8962
 6691SOL     OW31534   1.026   4.212  13.714 -0.2343  0.4354 -0.2265
 6691SOL    HW131535   1.040   4.285  13.653  0.0962 -0.2819 -1.0005
 6691SOL    HW231536   0.946   4.232  13.762  0.1826  1.6069 -0.0101
 6692SOL     OW31537   4.414   1.890   0.632  0.1906 -0.4988 -0.4032
 6692SOL    HW131538   4.499   1.850   0.654  0.8658  1.5490  0.7826
 6692SOL    HW231539   4.360   1.831   0.581 -0.9461  1.0912 -1.0373
 6693SOL     OW31540   3.126   1.992   3.177  0.2565  0.6431  0.4732
 6693SOL    HW131541   3.075   2.039   3.111  0.1720 -2.0865 -1.3997
 6693SOL    HW231542   3.217   2.019   3.161  1.0939 -1.4818  1.6659
 6694SOL     OW31543   2.670   1.969  14.040 -0.2924 -0.3623  0.2221
 6694SOL    HW131544   2.726   2.008  13.973 -0.3539 -3.0692 -1.4225
 6694SOL    HW231545   2.706   1.881  14.052  0.1702 -0.4307 -1.6350
 6695SOL     OW31546   1.155   2.183  14.460 -0.0827 -0.1533 -0.0630
 6695SOL    HW131547   1.205   2.260  14.488  0.5144 -0.5768  0.0419
 6695SOL    HW231548   1.112   2.211  14.380 -2.4267 -1.7267  0.6529
 6696SOL     OW31549   3.749   4.272   5.031  0.1850  0.3826 -0.4875
 6696SOL    HW131550   3.778   4.343   5.088  0.9924  1.8293 -2.6978
 6696SOL    HW231551   3.797   4.201   5.073  0.9238  1.7783  1.0114
 6697SOL     OW31552   1.120   1.076  14.263  0.8780 -0.8300  0.0291
 6697SOL    HW131553   1.117   1.086  14.358 -0.7422  0.3332 -0.1444
 6697SOL    HW231554   1.197   1.129  14.245  1.2316 -1.0855  0.8319
 6698SOL     OW31555   2.082   0.748   6.503 -0.0916  0.0141  0.4121
 6698SOL    HW131556   2.138   0.825   6.492  0.0205 -0.2597 -0.9872
 6698SOL    HW231557   2.004   0.789   6.541  1.0281  1.5349  1.0977
 6699SOL     OW31558   3.155   2.290  10.132 -0.3526  0.0171 -0.0923
 6699SOL    HW131559   3.192   2.327  10.212 -0.6216 -0.1024  0.0882
 6699SOL    HW231560   3.173   2.197  10.144  1.1470  0.3785  0.4502
 6700SOL     OW31561   2.346   1.739   6.459 -0.2913 -0.3627  0.0179
 6700SOL    HW131562   2.378   1.800   6.392 -0.4614  1.1964  1.3386
 6700SOL    HW231563   2.275   1.696   6.412  0.7306 -1.2920 -0.6727
 6701SOL     OW31564   3.953   1.130   7.896 -0.5253 -0.1386  0.2510
 6701SOL    HW131565   3.891   1.203   7.895  0.4138  0.6359 -1.1322
 6701SOL    HW231566   3.939   1.089   7.982  1.5157 -0.2364  0.5426
 6702SOL     OW31567   2.210   3.133  11.045  0.5620 -0.1713  0.1724
 6702SOL    HW131568   2.292   3.112  11.088  1.6992 -0.9903 -2.3640
 6702SOL    HW231569   2.171   3.048  11.024  0.1503 -0.0962  0.6446
 6703SOL     OW31570   3.966   2.360   3.937  0.6629 -0.2416  0.5888
 6703SOL    HW131571   3.877   2.328   3.949  0.1850  1.4797  1.6778
 6703SOL    HW231572   3.966   2.366   3.842  1.0938  0.0736  0.6099
 6704SOL     OW31573   1.363   3.838   2.254 -0.1040  0.5942  0.1601
 6704SOL    HW131574   1.405   3.909   2.302  0.5453 -0.5326  1.2567
 6704SOL    HW231575   1.314   3.900   2.200 -1.2278 -0.0454  0.4396
 6705SOL     OW31576   2.260   4.406  16.935 -0.3040 -0.2008 -0.3888
 6705SOL    HW131577   2.197   4.476  16.917 -2.2098 -1.1616  2.6703
 6705SOL    HW231578   2.247   4.403  17.030 -1.9694  1.2074 -0.5872
 6706SOL     OW31579   1.005   4.113  17.042  0.2896  0.2608 -0.1045
 6706SOL    HW131580   0.999   4.195  17.091  0.7406 -0.4270  1.1169
 6706SOL    HW231581   1.093   4.087  17.069 -0.6499 -2.3626  0.4803
 6707SOL     OW31582   0.983   2.324   5.417  0.1016 -0.3631  0.2780
 6707SOL    HW131583   1.015   2.234   5.413  3.1717  0.7316  0.2741
 6707SOL    HW231584   0.895   2.310   5.382  1.3340 -1.4712 -2.3592
 6708SOL     OW31585   3.972   0.812  15.752  0.0887 -0.3659  1.0047
 6708SOL    HW131586   3.950   0.729  15.709 -1.9948 -0.6057  2.5222
 6708SOL    HW231587   3.922   0.874  15.700 -1.1240 -2.5548 -0.4694
 6709SOL     OW31588   2.250   0.363   8.837 -0.0413  0.2033  0.0880
 6709SOL    HW131589   2.288   0.311   8.908  1.0209  0.0650 -0.5808
 6709SOL    HW231590   2.162   0.327   8.824 -1.0804  2.8712 -0.2175
 6710SOL     OW31591   4.558   4.478   8.476 -0.2782 -0.0893 -0.4225
 6710SOL    HW131592   4.603   4.425   8.542  0.5393  0.2458 -0.7106
 6710SOL    HW231593   4.468   4.476   8.508 -0.6773  2.4266 -1.3400
 6711SOL     OW31594   2.888   0.167   9.248  0.2263 -0.1210  0.0667
 6711SOL    HW131595   2.857   0.082   9.215 -0.7418  0.8013 -1.4076
 6711SOL    HW231596   2.962   0.149   9.307 -0.1908 -2.1034 -0.0047
 6712SOL     OW31597   3.406   3.269   6.404  0.0922 -0.1786 -0.1457
 6712SOL    HW131598   3.445   3.186   6.433  0.0333  0.1673  0.9175
 6712SOL    HW231599   3.485   3.323   6.399 -0.9296  1.3928  0.5699
 6713SOL     OW31600   3.360   1.184   1.386 -0.3544 -0.7288  0.2344
 6713SOL    HW131601   3.355   1.214   1.477 -0.4105 -0.0789  0.0187
 6713SOL    HW231602   3.388   1.094   1.401  1.1379 -0.2510  0.3387
 6714SOL     OW31603   1.147   4.315   6.247 -0.5305 -0.2701  0.1650
 6714SOL    HW131604   1.117   4.225   6.256  0.7754 -0.9325 -1.9148
 6714SOL    HW231605   1.065   4.360   6.226 -0.0695  0.0073 -1.0648
 6715SOL     OW31606   2.273   0.748   5.742  0.4011  0.1978 -0.7398
 6715SOL    HW131607   2.299   0.705   5.823 -0.3441 -1.0564 -1.1668
 6715SOL    HW231608   2.236   0.832   5.770 -1.5103 -0.4210 -1.4179
 6716SOL     OW31609   3.985   1.288   8.947 -0.4461 -0.1744 -0.1595
 6716SOL    HW131610   4.066   1.238   8.937 -0.1595  0.4627 -1.0263
 6716SOL    HW231611   3.914   1.231   8.916  0.4812 -0.4069 -1.8145
 6717SOL     OW31612   0.648   2.106   0.169 -0.4577  0.1113 -0.3517
 6717SOL    HW131613   0.673   2.147   0.086 -1.1419  0.8327 -0.1976
 6717SOL    HW231614   0.586   2.039   0.139 -0.6721  0.5946 -1.0008
 6718SOL     OW31615   3.865   1.101  11.030  1.0292  0.1517  0.2471
 6718SOL    HW131616   3.807   1.176  11.014  0.0053 -0.2624  2.1101
 6718SOL    HW231617   3.816   1.052  11.095  0.6219  1.0488  0.6190
 6719SOL     OW31618   2.086   2.809  12.319  0.2379  0.1664  0.2202
 6719SOL    HW131619   2.170   2.853  12.309 -0.2717  0.6698 -1.8009
 6719SOL    HW231620   2.037   2.891  12.312  0.6233  0.1647 -2.2048
 6720SOL     OW31621   0.254   1.365   9.762  0.3316  0.1609 -0.5276
 6720SOL    HW131622   0.164   1.399   9.768  1.2721  2.3770  0.8695
 6720SOL    HW231623   0.282   1.375   9.671 -0.9379 -0.9569 -1.0430
 6721SOL     OW31624   2.919   2.905   4.604 -0.6377  0.4250  0.2579
 6721SOL    HW131625   3.009   2.903   4.637  0.0269  0.9635 -1.5422
 6721SOL    HW231626   2.926   2.995   4.573 -2.1980  0.1775 -0.8327
 6722SOL     OW31627   0.793   3.183   3.587  0.0554  0.3130 -0.0564
 6722SOL    HW131628   0.845   3.216   3.514  1.0142 -0.7993  0.1223
 6722SOL    HW231629   0.771   3.265   3.630 -1.4889  0.9635 -2.1014
 6723SOL     OW31630   0.773   2.936  13.541 -0.3508 -0.1996  0.0495
 6723SOL    HW131631   0.783   3.019  13.588  2.1606  0.5842 -1.8340
 6723SOL    HW231632   0.692   2.954  13.493  0.1030  3.8998  0.8083
 6724SOL     OW31633   4.228   2.642   4.200 -0.1869 -0.0654  0.0880
 6724SOL    HW131634   4.281   2.563   4.183 -0.9186  0.4477 -4.5070
 6724SOL    HW231635   4.218   2.682   4.114  0.1631 -1.7647 -0.7585
 6725SOL     OW31636   0.564   3.208   5.584 -0.4015 -0.0124 -0.0927
 6725SOL    HW131637   0.635   3.152   5.616  0.7230  0.7562 -1.2293
 6725SOL    HW231638   0.490   3.149   5.568 -1.2315  0.9463  0.2623
 6726SOL     OW31639   4.176   1.785   2.091  0.6747  0.5659 -0.3618
 6726SOL    HW131640   4.160   1.763   2.183 -1.9189  0.7362 -0.7740
 6726SOL    HW231641   4.164   1.699   2.051  0.0787  0.0217  0.9513
 6727SOL     OW31642   2.764   0.414   9.291 -0.1676 -0.0930 -0.0538
 6727SOL    HW131643   2.819   0.336   9.292 -1.8101 -1.2243  1.7574
 6727SOL    HW231644   2.699   0.403   9.222 -1.0501 -0.9964  0.9113
 6728SOL     OW31645   3.855   1.124   6.936  0.2142 -0.1851  0.2309
 6728SOL    HW131646   3.897   1.167   6.861 -0.4973 -2.2979 -1.3566
 6728SOL    HW231647   3.931   1.090   6.982  0.6156 -0.5430 -0.6915
 6729SOL     OW31648   3.296   3.282   5.946 -0.3506 -0.2560  0.0854
 6729SOL    HW131649   3.310   3.335   5.867 -2.1585  0.4213  0.2325
 6729SOL    HW231650   3.223   3.326   5.990 -1.0717  0.5174 -1.8950
 6730SOL     OW31651   2.613   2.326   3.471 -0.2558  0.1968  0.1724
 6730SOL    HW131652   2.613   2.422   3.466 -1.3684  0.2513  1.1828
 6730SOL    HW231653   2.696   2.296   3.435 -0.1915  1.0225 -0.3491
 6731SOL     OW31654   3.120   2.342  14.449 -0.0233 -0.2485  0.6317
 6731SOL    HW131655   3.025   2.347  14.435 -0.1679  0.0643  1.7047
 6731SOL    HW231656   3.122   2.325  14.543  1.4720 -0.0335  0.6396
 6732SOL     OW31657   0.811   1.907   4.829  0.5800  0.7437 -0.1856
 6732SOL    HW131658   0.758   1.925   4.906  0.8331 -0.4218  0.2583
 6732SOL    HW231659   0.881   1.963   4.861  0.6346  1.6752 -1.9029
 6733SOL     OW31660   4.663   2.815   4.616 -0.1182  0.4188 -0.1891
 6733SOL    HW131661   0.018   2.766   4.592 -0.5048  0.1426 -0.8947
 6733SOL    HW231662   4.671   2.810   4.711 -0.8326  1.7949 -0.0620
 6734SOL     OW31663   4.612   4.028   6.243 -0.3768 -0.0589 -0.2713
 6734SOL    HW131664   4.641   4.120   6.240 -1.3842  0.2408 -0.9257
 6734SOL    HW231665   4.656   4.001   6.163 -0.4067 -2.0233  0.3932
 6735SOL     OW31666   4.187   1.470  11.692  0.3732 -0.2709 -0.7390
 6735SOL    HW131667   4.178   1.515  11.776  1.3982  1.1812 -1.4021
 6735SOL    HW231668   4.127   1.515  11.632 -0.1036  1.1341  0.8065
 6736SOL     OW31669   1.928   2.915  17.552 -0.2679  0.0174  0.1834
 6736SOL    HW131670   1.843   2.874  17.565 -1.9416  3.1258 -1.1271
 6736SOL    HW231671   1.901   3.004  17.530  0.8906 -0.0381 -1.4941
 6737SOL     OW31672   0.969   3.932   8.699 -0.1174  0.2515 -0.6848
 6737SOL    HW131673   0.885   3.945   8.655  0.1556 -2.0314 -1.8721
 6737SOL    HW231674   0.951   3.921   8.793  3.4550  3.4437  0.3671
 6738SOL     OW31675   3.298   2.430   3.792 -0.2006 -0.0747 -0.2090
 6738SOL    HW131676   3.381   2.432   3.745  0.4682  1.1292  1.0461
 6738SOL    HW231677   3.335   2.424   3.880 -2.6829  1.8912  0.9805
 6739SOL     OW31678   0.980   4.262  13.013 -0.2180  0.1625  0.2116
 6739SOL    HW131679   1.022   4.260  13.099 -0.6695 -0.1907  0.4242
 6739SOL    HW231680   1.018   4.344  12.981 -0.3787  0.1049 -0.1261
 6740SOL     OW31681   3.392   2.307   9.957  0.1636  0.1466 -0.2158
 6740SOL    HW131682   3.329   2.328  10.026 -2.1908 -1.6394 -1.7967
 6740SOL    HW231683   3.339   2.299   9.877  2.5343 -0.7187 -1.7052
 6741SOL     OW31684   2.276   1.154   5.664  0.2140 -0.2813 -0.2651
 6741SOL    HW131685   2.266   1.242   5.625  2.3394 -0.2452 -0.7522
 6741SOL    HW231686   2.339   1.119   5.601  0.7892  2.1582 -1.0754
 6742SOL     OW31687   0.582   4.118   3.536  1.4177 -0.0869  0.2666
 6742SOL    HW131688   0.657   4.072   3.500  1.2078  0.5686 -0.9787
 6742SOL    HW231689   0.599   4.205   3.502 -0.5856  0.1697 -0.0705
 6743SOL     OW31690   1.709   3.377   9.488  0.5531  0.3576 -0.8381
 6743SOL    HW131691   1.731   3.385   9.395  2.9408  0.6704 -0.2593
 6743SOL    HW231692   1.661   3.295   9.485 -1.3751  1.4389  0.8959
 6744SOL     OW31693   3.442   3.276   1.866  0.4930  0.6502 -0.0891
 6744SOL    HW131694   3.362   3.306   1.909  0.5860  1.0115 -0.1693
 6744SOL    HW231695   3.477   3.233   1.944  0.6039  4.3122  1.8632
 6745SOL     OW31696   1.197   0.226  12.600  0.6919 -0.1212 -0.3830
 6745SOL    HW131697   1.204   0.294  12.533 -2.3870  1.4242  0.8585
 6745SOL    HW231698   1.235   0.273  12.674  5.2625 -1.6117 -1.7600
 6746SOL     OW31699   4.398   1.148   7.696 -0.0474 -0.3429 -0.0678
 6746SOL    HW131700   4.484   1.188   7.685 -1.1256  2.4833  1.6694
 6746SOL    HW231701   4.397   1.075   7.634 -3.0396 -2.1863  2.1254
 6747SOL     OW31702   0.834   1.009   6.614 -0.5184  0.0651  0.2380
 6747SOL    HW131703   0.836   0.941   6.682  0.6317  1.2062  1.3513
 6747SOL    HW231704   0.800   0.964   6.537 -0.8055 -1.4688  1.2455
 6748SOL     OW31705   1.555   3.607   2.424  0.1804  0.0359  0.0993
 6748SOL    HW131706   1.641   3.648   2.439 -0.7865  2.1366 -0.1831
 6748SOL    HW231707   1.517   3.666   2.489  2.9011  0.8459  0.9792
 6749SOL     OW31708   3.603   1.563   5.496 -0.1039 -0.3500 -0.2455
 6749SOL    HW131709   3.553   1.526   5.423  0.8666 -1.7721 -0.2081
 6749SOL    HW231710   3.560   1.538   5.577  0.2362 -0.1022  0.0093
 6750SOL     OW31711   1.873   4.217   7.465 -0.3386  0.6367 -0.5180
 6750SOL    HW131712   1.857   4.140   7.519  0.6959 -0.0417 -1.1955
 6750SOL    HW231713   1.823   4.278   7.519 -2.3277 -0.7505 -0.7953
 6751SOL     OW31714   4.118   0.319   8.666  0.0532 -0.0121 -0.0203
 6751SOL    HW131715   4.199   0.280   8.699  2.0736  3.4477 -0.8482
 6751SOL    HW231716   4.161   0.361   8.591  2.3636  0.9909  1.8457
 6752SOL     OW31717   1.479   1.051   4.954  0.0818 -0.1365  0.1061
 6752SOL    HW131718   1.466   1.136   4.912  2.0967  0.9468  1.6811
 6752SOL    HW231719   1.400   1.004   4.929 -0.7708  0.7202  1.2268
 6753SOL     OW31720   3.399   4.470   5.299 -0.0089 -0.1620 -0.5674
 6753SOL    HW131721   3.404   4.405   5.368  1.4070  1.2400  0.6532
 6753SOL    HW231722   3.430   4.424   5.221  0.8704 -0.8047  0.1591
 6754SOL     OW31723   3.631   4.280   7.211  0.3904  0.0036 -0.0798
 6754SOL    HW131724   3.652   4.239   7.127 -1.3133  0.9819 -0.9912
 6754SOL    HW231725   3.601   4.203   7.259  1.3584  0.1497  0.7549
 6755SOL     OW31726   4.479   3.493   4.598  0.0509  0.3125 -0.2247
 6755SOL    HW131727   4.557   3.534   4.637 -0.1866  2.2710 -1.8281
 6755SOL    HW231728   4.507   3.402   4.596 -1.0900  0.0429 -3.0283
 6756SOL     OW31729   2.080   4.186   3.623  0.1159  0.5417  0.2854
 6756SOL    HW131730   2.059   4.207   3.714  2.1484 -1.2058  1.1777
 6756SOL    HW231731   2.003   4.226   3.584 -0.5153 -0.2960  0.6644
 6757SOL     OW31732   1.802   1.430   8.323  0.0725  0.3545  0.2643
 6757SOL    HW131733   1.724   1.376   8.310 -0.0170  0.7542 -0.8932
 6757SOL    HW231734   1.867   1.375   8.278  0.3631 -1.0474  2.4196
 6758SOL     OW31735   0.336   0.307   8.391  0.2528 -0.1226  0.7622
 6758SOL    HW131736   0.365   0.282   8.478  0.4824  0.0092  0.7231
 6758SOL    HW231737   0.355   0.401   8.392  1.5687 -0.4359  3.6689
 6759SOL     OW31738   3.403   3.214  10.240  0.0575  0.2139  0.7073
 6759SOL    HW131739   3.410   3.181  10.151 -3.4560 -0.7209  0.7806
 6759SOL    HW231740   3.308   3.228  10.250  0.0357  0.4155  0.2243
 6760SOL     OW31741   1.954   2.378   6.749  0.3651 -0.2028 -0.4679
 6760SOL    HW131742   1.987   2.420   6.828 -0.9749 -2.0626  1.0826
 6760SOL    HW231743   1.921   2.459   6.710  2.3920 -0.6013 -3.0275
 6761SOL     OW31744   2.486   2.473   4.639  0.6307  0.9822 -0.4388
 6761SOL    HW131745   2.519   2.387   4.666 -1.7853  0.3397  0.4231
 6761SOL    HW231746   2.392   2.463   4.647  0.6447 -0.6003 -2.3227
 6762SOL     OW31747   1.355   1.347   7.831  0.2477  0.0563 -0.0258
 6762SOL    HW131748   1.397   1.303   7.905  1.0625 -3.8608 -2.8093
 6762SOL    HW231749   1.391   1.433   7.849  0.6439  0.0716 -0.8807
 6763SOL     OW31750   3.723   3.782   7.126 -0.1527  0.6421 -0.2503
 6763SOL    HW131751   3.758   3.796   7.038  1.1805  2.9215  0.6449
 6763SOL    HW231752   3.759   3.854   7.177 -1.0851  0.3429  0.8126
 6764SOL     OW31753   0.460   4.469   0.526 -0.1197  0.7574  0.3393
 6764SOL    HW131754   0.482   4.503   0.613 -1.3572  1.0684  0.5187
 6764SOL    HW231755   0.378   4.421   0.536 -0.2948  1.2040  1.0109
 6765SOL     OW31756   1.327   3.836   4.059 -0.8133 -0.5812  0.0038
 6765SOL    HW131757   1.334   3.767   3.994 -1.0932  1.5931 -2.3471
 6765SOL    HW231758   1.418   3.833   4.089 -0.8584 -0.3873  0.1597
 6766SOL     OW31759   0.010   1.773  12.514  0.3445 -0.0831 -0.0726
 6766SOL    HW131760   0.021   1.694  12.566 -1.6046  0.4750  1.1940
 6766SOL    HW231761   0.026   1.839  12.581 -0.7147 -0.0669  0.1757
 6767SOL     OW31762   0.079   0.742   9.525  0.2972  0.7430  0.3434
 6767SOL    HW131763   0.007   0.687   9.554  0.8043 -1.4821 -2.5904
 6767SOL    HW231764   0.150   0.679   9.516  2.6719  3.5687 -0.9784
 6768SOL     OW31765   2.187   4.388   4.358 -0.1496  0.2232 -0.0373
 6768SOL    HW131766   2.214   4.374   4.449  1.4390  1.7312 -0.2857
 6768SOL    HW231767   2.142   4.305   4.344  1.0398 -0.3270 -0.5614
 6769SOL     OW31768   2.335   3.739   3.570  0.7417 -0.5350  0.2492
 6769SOL    HW131769   2.260   3.792   3.598  1.4531 -0.2512  1.6486
 6769SOL    HW231770   2.403   3.805   3.553  0.9865 -1.4581 -2.2280
 6770SOL     OW31771   0.212   4.062  17.293  0.8935  0.1619 -1.1455
 6770SOL    HW131772   0.231   4.022  17.208 -0.1891 -2.0140 -0.3778
 6770SOL    HW231773   0.293   4.111  17.307  0.5045  0.5119 -0.0688
 6771SOL     OW31774   0.136   4.129   2.210 -0.1679 -0.4849  0.0806
 6771SOL    HW131775   0.215   4.093   2.250 -0.0906  0.2922  0.6094
 6771SOL    HW231776   0.091   4.143   2.293 -1.6044 -1.5013 -0.5211
 6772SOL     OW31777   1.571   0.864   8.445 -0.7135 -1.1521  0.0515
 6772SOL    HW131778   1.626   0.914   8.504 -1.6021 -0.0001 -0.0970
 6772SOL    HW231779   1.497   0.836   8.500 -0.5836 -0.3479  0.6270
 6773SOL     OW31780   3.759   3.292  15.856 -0.3257 -0.2782 -0.2645
 6773SOL    HW131781   3.807   3.277  15.775  0.3596 -0.0706  0.1064
 6773SOL    HW231782   3.829   3.315  15.917  1.4266 -0.7551 -2.0663
 6774SOL     OW31783   2.502   0.426   4.290  0.0290  0.1667  0.1710
 6774SOL    HW131784   2.457   0.342   4.296  0.6731 -0.2988 -1.7234
 6774SOL    HW231785   2.560   0.405   4.364  1.5188  2.9944 -0.1612
 6775SOL     OW31786   0.146   2.619   1.412  0.0494 -0.4374 -0.2131
 6775SOL    HW131787   0.141   2.672   1.492 -0.0813 -1.2088  0.2941
 6775SOL    HW231788   0.065   2.570   1.426 -0.7691  1.4565  1.8167
 6776SOL     OW31789   4.270   2.530   2.871  0.3020  0.5819 -0.3604
 6776SOL    HW131790   4.200   2.566   2.816 -0.6705 -0.3525  0.2770
 6776SOL    HW231791   4.316   2.480   2.804  0.4143 -0.7262  0.6937
 6777SOL     OW31792   0.669   3.246  13.066  0.1364 -0.0914  0.0626
 6777SOL    HW131793   0.764   3.241  13.057  0.2617  0.5408  1.1534
 6777SOL    HW231794   0.647   3.224  12.975  1.8677 -1.5505  0.0022
 6778SOL     OW31795   4.204   2.965   8.828  0.3934 -0.4209 -0.1638
 6778SOL    HW131796   4.294   2.938   8.811  1.1860  3.0599 -1.6074
 6778SOL    HW231797   4.168   2.943   8.743  2.9346  2.5274 -2.0320
 6779SOL     OW31798   3.347   0.424  16.340 -0.2934  0.4355 -0.6443
 6779SOL    HW131799   3.432   0.467  16.327 -0.8763  1.6992 -0.2672
 6779SOL    HW231800   3.370   0.347  16.393 -0.8801  0.7183  0.0235
 6780SOL     OW31801   0.367   3.696  15.365 -0.6574  0.0432  0.5815
 6780SOL    HW131802   0.340   3.788  15.364  0.6166  0.4181  1.7194
 6780SOL    HW231803   0.450   3.705  15.412  1.7143 -0.4723 -3.5023
 6781SOL     OW31804   1.551   2.510   0.995 -0.0195  0.3406  0.0347
 6781SOL    HW131805   1.529   2.521   0.903  2.0329  2.5178 -0.1749
 6781SOL    HW231806   1.613   2.436   0.995 -0.2520  0.1456  0.0269
 6782SOL     OW31807   2.615   0.853   0.703 -0.4488 -0.2468 -0.1740
 6782SOL    HW131808   2.637   0.913   0.632 -0.3481  0.2757  0.3039
 6782SOL    HW231809   2.523   0.877   0.697 -0.3868  0.2471  0.9173
 6783SOL     OW31810   0.854   2.255  15.205 -0.3738  0.0503  0.3766
 6783SOL    HW131811   0.782   2.193  15.218 -2.1119  2.0487  0.2990
 6783SOL    HW231812   0.913   2.211  15.265  2.1124 -0.2386 -2.2785
 6784SOL     OW31813   3.865   3.057   1.304  0.0574  0.6873 -0.1199
 6784SOL    HW131814   3.794   3.031   1.362  0.7684  0.7144  0.7567
 6784SOL    HW231815   3.846   3.145   1.273 -1.7717  0.9483  1.7294
 6785SOL     OW31816   1.388   4.133   3.028 -0.5460  0.4218  0.0103
 6785SOL    HW131817   1.392   4.164   2.937 -0.9239  0.1707 -0.0882
 6785SOL    HW231818   1.470   4.083   3.025 -1.5461 -1.2511  1.1251
 6786SOL     OW31819   3.679   1.999   1.243 -0.4006  0.2815 -0.0034
 6786SOL    HW131820   3.590   2.035   1.244  0.0717  1.4316  0.1510
 6786SOL    HW231821   3.706   2.035   1.328  0.4665  2.2760 -1.1314
 6787SOL     OW31822   2.637   1.699   9.127  0.5435  1.0941  0.1549
 6787SOL    HW131823   2.635   1.652   9.044 -0.7361  1.5881 -0.0985
 6787SOL    HW231824   2.584   1.775   9.103  1.5187  1.2953 -1.3428
 6788SOL     OW31825   3.815   1.638  10.336  0.3698 -0.2347  0.8408
 6788SOL    HW131826   3.881   1.705  10.325 -0.4827  0.4530 -0.0775
 6788SOL    HW231827   3.798   1.642  10.430  0.0430  0.0533  0.7694
 6789SOL     OW31828   2.380   2.962   3.269  0.4324 -0.4011  0.3163
 6789SOL    HW131829   2.443   2.910   3.317  2.1143 -1.7230 -3.3512
 6789SOL    HW231830   2.439   2.992   3.200 -0.6191 -0.2310 -0.5189
 6790SOL     OW31831   0.276   4.363  14.741  0.1591  0.1100 -0.1986
 6790SOL    HW131832   0.309   4.371  14.831  1.5096  0.9117 -0.7657
 6790SOL    HW231833   0.258   4.453  14.712 -1.0194  0.1645  0.6879
 6791SOL     OW31834   0.478   2.039   2.853  0.0612  0.2505 -0.2440
 6791SOL    HW131835   0.447   2.098   2.922  0.2522 -0.2700  0.2871
 6791SOL    HW231836   0.461   2.095   2.778 -2.1239  0.0757  0.1293
 6792SOL     OW31837   2.604   3.301   7.841  0.1046 -0.1532 -0.1737
 6792SOL    HW131838   2.660   3.331   7.913  1.7308 -1.1026 -1.0399
 6792SOL    HW231839   2.525   3.282   7.892 -0.9520  0.3784 -1.6349
 6793SOL     OW31840   1.785   0.341  12.752  0.2321  0.3455 -0.3010
 6793SOL    HW131841   1.791   0.275  12.821 -0.5751  0.7033  0.1120
 6793SOL    HW231842   1.789   0.287  12.672  2.6180 -1.4681  1.0484
 6794SOL     OW31843   2.959   0.737  16.975 -0.7809  0.6806 -0.7407
 6794SOL    HW131844   2.897   0.770  16.910  0.0109  0.4973 -1.5915
 6794SOL    HW231845   3.031   0.713  16.917 -1.6274  2.4152 -2.5379
 6795SOL     OW31846   3.653   1.171   6.707 -0.4157  0.5018 -0.4842
 6795SOL    HW131847   3.603   1.170   6.789  1.8357  0.8992  0.8785
 6795SOL    HW231848   3.693   1.257   6.719 -2.3027  1.2299  0.6180
 6796SOL     OW31849   1.948   2.437   8.646  0.2123 -0.0592  0.3133
 6796SOL    HW131850   2.021   2.453   8.586  0.8521 -0.3158  1.0278
 6796SOL    HW231851   1.899   2.518   8.633  3.1130  1.3577 -1.7172
 6797SOL     OW31852   3.307   3.179   7.601  0.4108  0.0326  0.4150
 6797SOL    HW131853   3.366   3.104   7.589  0.5551  0.2632 -0.3082
 6797SOL    HW231854   3.371   3.249   7.589  0.4525 -0.3135 -1.4625
 6798SOL     OW31855   2.689   0.656   5.936  0.0657 -0.7653 -0.9167
 6798SOL    HW131856   2.708   0.663   6.030  1.6424  2.6383 -1.4780
 6798SOL    HW231857   2.594   0.663   5.938  0.2285  1.1410  0.7080
 6799SOL     OW31858   0.562   1.681   2.624  0.0482 -0.1944 -0.5317
 6799SOL    HW131859   0.489   1.655   2.569  0.3803 -0.6622 -0.7562
 6799SOL    HW231860   0.554   1.600   2.675 -1.0507 -0.8301 -1.7381
 6800SOL     OW31861   2.075   0.518  10.967 -0.3620 -0.7199 -0.2612
 6800SOL    HW131862   2.008   0.521  11.035  0.7282 -0.8519  0.8101
 6800SOL    HW231863   2.091   0.424  10.969  1.1231 -0.3862  2.1307
 6801SOL     OW31864   1.118   1.402  16.895 -0.3407  0.0025  0.0538
 6801SOL    HW131865   1.161   1.479  16.857  2.3125 -1.3046  0.3894
 6801SOL    HW231866   1.187   1.338  16.914 -0.0534  0.2986  0.0162
 6802SOL     OW31867   0.996   3.922  10.040  0.4182 -0.2985  0.1382
 6802SOL    HW131868   1.020   3.850  10.098  0.4001 -0.7883 -0.4581
 6802SOL    HW231869   1.038   3.986  10.097  1.3760  1.4741 -2.5557
 6803SOL     OW31870   4.206   4.294   0.124 -0.3771  0.1380  0.0964
 6803SOL    HW131871   4.193   4.199   0.113 -2.5828  0.6395 -1.7319
 6803SOL    HW231872   4.297   4.305   0.098  0.1613  0.7696  2.2787
 6804SOL     OW31873   3.244   2.112   4.148 -0.5565 -0.8629  0.6050
 6804SOL    HW131874   3.202   2.166   4.214 -2.8708 -0.7316 -0.9840
 6804SOL    HW231875   3.201   2.032   4.176 -0.7708 -0.7477  0.6009
 6805SOL     OW31876   3.512   3.430   4.214  0.0837  0.6121 -0.4456
 6805SOL    HW131877   3.538   3.500   4.154  1.1616  0.1215 -0.5512
 6805SOL    HW231878   3.483   3.361   4.154  0.4236  1.9615 -2.1613
 6806SOL     OW31879   4.456   3.454   0.636 -0.3113 -0.4611  0.1885
 6806SOL    HW131880   4.449   3.374   0.688 -0.9110  0.2532  1.2225
 6806SOL    HW231881   4.462   3.421   0.546  2.4600  0.7988 -0.1118
 6807SOL     OW31882   0.069   3.544   7.997 -0.0535 -0.3074 -0.2509
 6807SOL    HW131883   0.160   3.569   8.016  1.0809 -3.4162 -1.4247
 6807SOL    HW231884   0.016   3.577   8.069  1.4153  4.3078 -1.3047
 6808SOL     OW31885   3.951   1.440  12.810 -0.1726  0.0207  0.0076
 6808SOL    HW131886   4.046   1.443  12.821 -0.4242 -0.0824  2.1938
 6808SOL    HW231887   3.944   1.442  12.715 -3.3544  0.3311  0.2376
 6809SOL     OW31888   2.857   4.172   4.970  0.4045  0.1996 -0.2047
 6809SOL    HW131889   2.915   4.217   4.909  2.3826  0.6854  2.0322
 6809SOL    HW231890   2.795   4.134   4.907 -0.5292 -0.1422  0.9221
 6810SOL     OW31891   4.612   4.102   8.161 -0.1399  0.2478  0.5058
 6810SOL    HW131892   4.550   4.134   8.226  0.3291  0.8877  0.6398
 6810SOL    HW231893   4.684   4.067   8.214 -0.7953 -1.9024 -0.0228
 6811SOL     OW31894   0.461   3.078   3.723 -0.4794 -0.3547  0.3804
 6811SOL    HW131895   0.485   3.169   3.741 -1.0425  0.0858 -1.0847
 6811SOL    HW231896   0.409   3.060   3.801 -0.5633 -0.7415  0.2359
 6812SOL     OW31897   0.273   4.543   0.256 -0.0758 -0.1921 -0.2710
 6812SOL    HW131898   0.261   4.475   0.323  2.3479  0.5303  0.8974
 6812SOL    HW231899   0.314   4.501   0.180  0.3506  1.6314 -1.0362
 6813SOL     OW31900   3.144   1.671  14.229  0.5149  0.1391  0.3869
 6813SOL    HW131901   3.099   1.627  14.302  1.4087 -1.1947  0.1345
 6813SOL    HW231902   3.104   1.757  14.228  1.4374  0.5627  0.0568
 6814SOL     OW31903   0.278   0.216  16.406  0.4696  0.1406 -0.2381
 6814SOL    HW131904   0.244   0.138  16.449  2.7238 -0.1602  1.0056
 6814SOL    HW231905   0.312   0.180  16.324  1.0709  0.2800 -0.0465
 6815SOL     OW31906   1.154   0.165   5.724  0.4479  0.4947  0.7457
 6815SOL    HW131907   1.212   0.165   5.648  0.0944 -1.8302  0.4863
 6815SOL    HW231908   1.075   0.212   5.696 -0.8171 -0.8503  2.0534
 6816SOL     OW31909   4.385   1.873   9.206 -0.3812  0.2903 -0.3382
 6816SOL    HW131910   4.348   1.790   9.176  0.2258 -0.1404  0.0886
 6816SOL    HW231911   4.342   1.903   9.285 -0.6349 -0.3499 -0.2357
 6817SOL     OW31912   0.935   3.036   4.872 -0.5128  0.3551  0.0387
 6817SOL    HW131913   0.945   3.046   4.967  0.9079  0.0167 -0.0620
 6817SOL    HW231914   0.867   2.970   4.880 -0.8259  0.5578 -0.9327
 6818SOL     OW31915   2.860   4.608   9.233 -0.1689  1.0666 -0.2604
 6818SOL    HW131916   2.914   4.532   9.212  1.4715  2.4339 -0.9658
 6818SOL    HW231917   2.848   4.603   9.328 -1.7349 -0.5278 -0.5352
 6819SOL     OW31918   2.363   2.882  12.009 -0.3301  0.4695 -0.7241
 6819SOL    HW131919   2.419   2.852  12.081 -1.6432 -1.4761 -0.5065
 6819SOL    HW231920   2.375   2.975  12.030  0.1960  0.3435 -0.4608
 6820SOL     OW31921   3.870   1.323   0.213  0.6337  0.4781 -0.4165
 6820SOL    HW131922   3.810   1.286   0.148  1.9803 -3.6150  0.7068
 6820SOL    HW231923   3.860   1.417   0.200 -2.0475  0.1779 -0.5167
 6821SOL     OW31924   0.820   1.202   0.803 -0.1101  0.3205 -0.3188
 6821SOL    HW131925   0.732   1.209   0.764  0.1478  1.9359 -0.6116
 6821SOL    HW231926   0.860   1.136   0.746 -1.2435  0.1446 -0.9227
 6822SOL     OW31927   1.300   0.327   7.443  0.2958 -0.3697 -0.5038
 6822SOL    HW131928   1.373   0.357   7.497  1.0190 -0.2910 -1.5394
 6822SOL    HW231929   1.259   0.256   7.493  2.3717 -1.1175  0.1337
 6823SOL     OW31930   0.624   2.315   3.373  0.8841  0.2607  0.1593
 6823SOL    HW131931   0.715   2.339   3.353  1.2660 -0.5462  0.8989
 6823SOL    HW231932   0.566   2.385   3.343 -1.0053 -1.2451  0.3142
 6824SOL     OW31933   3.695   0.787  15.542  0.6719 -0.1329  0.0342
 6824SOL    HW131934   3.634   0.852  15.576  0.7436 -0.6118  1.0935
 6824SOL    HW231935   3.671   0.806  15.451 -0.0269 -1.5669 -0.0809
 6825SOL     OW31936   0.296   4.381   3.365  0.5618  0.0408 -0.0205
 6825SOL    HW131937   0.282   4.331   3.285  1.3258 -0.3091  0.0586
 6825SOL    HW231938   0.343   4.461   3.341  0.8817  0.0742  0.6971
 6826SOL     OW31939   4.170   0.904  17.351  0.3402  0.4305  0.2786
 6826SOL    HW131940   4.207   0.817  17.334 -1.6223 -0.7896  2.2710
 6826SOL    HW231941   4.124   0.915  17.268  1.0869  0.3794 -0.1414
 6827SOL     OW31942   2.192   3.024   8.141  0.0523  0.4056 -0.1307
 6827SOL    HW131943   2.174   3.108   8.099 -0.4708  1.0401  1.3936
 6827SOL    HW231944   2.243   3.054   8.216 -0.3752  1.3232 -0.2089
 6828SOL     OW31945   3.782   0.027   2.780 -0.3966 -0.4583 -0.3990
 6828SOL    HW131946   3.862   0.078   2.771 -2.4789  2.2500 -3.7220
 6828SOL    HW231947   3.804   4.663   2.812  1.8941 -0.4290 -1.9067
 6829SOL     OW31948   1.662   0.512   2.515  0.2553  0.1019  0.1596
 6829SOL    HW131949   1.743   0.551   2.548  0.0186 -1.3377  2.4855
 6829SOL    HW231950   1.667   0.545   2.425 -2.0082  0.4231  0.1403
 6830SOL     OW31951   0.640   2.647   2.617  0.2330  0.1008  0.1161
 6830SOL    HW131952   0.673   2.561   2.642 -0.0463  0.5127  1.8757
 6830SOL    HW231953   0.626   2.647   2.522  1.3361  0.1359 -0.0481
 6831SOL     OW31954   3.711   3.708   1.199  0.5497 -0.3492  0.0903
 6831SOL    HW131955   3.666   3.630   1.232  0.1324  0.1967  0.7906
 6831SOL    HW231956   3.777   3.684   1.134 -1.1543 -2.1301 -0.9614
 6832SOL     OW31957   3.995   2.642   4.338  0.3037 -0.1786  0.0955
 6832SOL    HW131958   4.078   2.646   4.292 -0.6790 -0.1100 -1.6419
 6832SOL    HW231959   3.958   2.565   4.295 -0.3616  1.0823 -1.5873
 6833SOL     OW31960   4.593   4.165   7.151  0.4521  0.0570  0.6965
 6833SOL    HW131961   4.599   4.156   7.246  0.5834 -1.6628  0.5187
 6833SOL    HW231962   4.537   4.242   7.136  0.6118 -0.0057 -0.2342
 6834SOL     OW31963   3.277   1.228  17.228 -0.0935  0.8836  0.1350
 6834SOL    HW131964   3.300   1.241  17.136 -0.5610  0.0347 -0.1002
 6834SOL    HW231965   3.325   1.150  17.257 -1.0424  0.0746 -0.4863
 6835SOL     OW31966   1.283   4.024   7.442 -0.6401  0.8252  0.1288
 6835SOL    HW131967   1.367   4.039   7.397 -0.8232  2.3407  0.2924
 6835SOL    HW231968   1.296   3.930   7.454 -1.4039  0.8765  1.3339
 6836SOL     OW31969   2.994   3.278   9.252  0.5279  0.1313  0.1445
 6836SOL    HW131970   3.078   3.319   9.233 -0.2072  2.1852  1.3235
 6836SOL    HW231971   2.987   3.214   9.181  0.5352  0.0243  0.2415
 6837SOL     OW31972   2.975   0.921   2.294  0.7244  0.4502  0.5377
 6837SOL    HW131973   3.065   0.951   2.304  0.8645  1.6231 -4.3339
 6837SOL    HW231974   2.934   0.952   2.374  0.1624  0.1475  0.3685
 6838SOL     OW31975   0.022   1.736   2.303 -0.7147  0.3207 -0.2689
 6838SOL    HW131976   4.682   1.807   2.300 -0.5335  0.5142  0.3178
 6838SOL    HW231977   0.085   1.773   2.366 -1.0609  3.7374 -1.9452
 6839SOL     OW31978   4.580   1.320   4.052 -0.2605  0.1773  0.1683
 6839SOL    HW131979   4.614   1.314   3.962  0.6938  1.6608  0.4287
 6839SOL    HW231980   4.497   1.362   4.032 -0.3548 -0.9753 -1.9302
 6840SOL     OW31981   4.500   4.608  11.965  0.3845 -0.0643 -0.7149
 6840SOL    HW131982   4.584   4.607  12.011 -0.4923 -0.7592  0.8700
 6840SOL    HW231983   4.437   4.584  12.034  0.7026 -0.2232 -0.4818
 6841SOL     OW31984   4.455   2.096  13.183  0.1749  0.1755 -0.3392
 6841SOL    HW131985   4.407   2.151  13.122 -0.0094  2.7334  2.1217
 6841SOL    HW231986   4.387   2.036  13.214 -0.5075  0.6102 -1.0233
 6842SOL     OW31987   2.784   2.150   7.509  0.2446  0.0260  0.0175
 6842SOL    HW131988   2.710   2.195   7.470 -1.6727 -2.4026  0.8185
 6842SOL    HW231989   2.741   2.088   7.568 -1.4859  0.7250 -0.5238
 6843SOL     OW31990   1.119   4.022   3.008  1.2476  0.2280 -0.4112
 6843SOL    HW131991   1.052   3.977   2.956  0.1403 -1.0799  2.1673
 6843SOL    HW231992   1.137   4.105   2.963  1.8844  0.3827  0.1360
 6844SOL     OW31993   2.769   4.442   3.424 -0.3089  0.2905  0.3445
 6844SOL    HW131994   2.808   4.515   3.375  2.4139  0.0453  2.1740
 6844SOL    HW231995   2.840   4.439   3.487  0.4297  0.5838 -0.4703
 6845SOL     OW31996   4.609   1.978   1.052  0.3214 -0.0246 -0.2979
 6845SOL    HW131997   4.527   1.942   1.086  0.2142 -0.2759 -0.8128
 6845SOL    HW231998   4.585   2.008   0.964 -2.0722  0.1494  0.4152
 6846SOL     OW31999   0.065   1.183  12.875  0.3223  0.2951 -0.1211
 6846SOL    HW132000   0.030   1.236  12.802  1.7181  1.1988 -0.1362
 6846SOL    HW232001   4.712   1.127  12.886  0.4720 -0.1418 -1.3071
 6847SOL     OW32002   4.296   1.257   5.254  0.5159 -0.2412 -0.2932
 6847SOL    HW132003   4.309   1.317   5.180 -0.6177  0.2780 -0.0673
 6847SOL    HW232004   4.240   1.310   5.311  0.7493 -1.1784  0.8025
 6848SOL     OW32005   2.629   3.302   6.973 -0.5447 -0.0722 -0.0898
 6848SOL    HW132006   2.596   3.295   7.063 -1.5337  2.3328 -0.2757
 6848SOL    HW232007   2.724   3.296   6.978 -0.5792 -0.8791 -0.2952
 6849SOL     OW32008   4.073   3.318   6.549  0.2788 -0.2136 -0.2137
 6849SOL    HW132009   4.005   3.377   6.582  0.0204 -0.2563 -0.6788
 6849SOL    HW232010   4.149   3.343   6.603 -0.6198  2.1408 -0.0525
 6850SOL     OW32011   4.576   0.090   4.490  0.2407 -0.5019  0.1606
 6850SOL    HW132012   4.630   0.131   4.558  0.1748  3.3809 -2.0624
 6850SOL    HW232013   4.507   0.051   4.543 -0.2603  0.2860  0.0812
 6851SOL     OW32014   4.258   3.209  10.974 -0.3898 -0.1556  0.3802
 6851SOL    HW132015   4.230   3.296  10.945  0.7092  0.1872  0.3280
 6851SOL    HW232016   4.267   3.157  10.894 -0.0279  0.4471  0.0191
 6852SOL     OW32017   4.216   2.421   3.214 -0.3143 -0.0834  0.0435
 6852SOL    HW132018   4.247   2.385   3.131  0.5566  0.1795  0.2558
 6852SOL    HW232019   4.162   2.490   3.176 -0.9683 -1.4365 -1.5224
 6853SOL     OW32020   1.099   1.712  14.923  0.3713 -0.7778  0.0100
 6853SOL    HW132021   1.033   1.778  14.943  0.6038  0.2333 -2.5774
 6853SOL    HW232022   1.100   1.663  15.005 -1.5703 -1.6982 -0.5301
 6854SOL     OW32023   3.838   4.696   3.164 -0.4369 -0.1113 -0.0650
 6854SOL    HW132024   3.911   4.634   3.168 -0.5532 -0.1821  0.9873
 6854SOL    HW232025   3.893   0.029   3.111  0.6246 -1.8028 -0.7720
 6855SOL     OW32026   3.798   1.766   5.434 -0.2610  0.0962  0.1999
 6855SOL    HW132027   3.739   1.692   5.423  0.0056  0.0626 -0.9453
 6855SOL    HW232028   3.801   1.800   5.345 -0.3027  0.8744  0.4872
 6856SOL     OW32029   0.117   1.504  14.270 -0.3369 -0.4455 -0.0929
 6856SOL    HW132030   0.067   1.518  14.190  0.1376  0.8877 -0.1576
 6856SOL    HW232031   0.200   1.473  14.233  0.0767 -0.4351  0.8230
 6857SOL     OW32032   2.327   0.991  11.759 -0.1460 -0.0645  0.5207
 6857SOL    HW132033   2.321   1.002  11.664 -3.6348  2.3574  1.0422
 6857SOL    HW232034   2.264   1.058  11.784 -0.4843  0.1563 -0.8831
 6858SOL     OW32035   3.482   4.460   2.776  0.1897  0.6381 -0.1002
 6858SOL    HW132036   3.464   4.368   2.759 -1.4293  1.1791 -1.3384
 6858SOL    HW232037   3.560   4.455   2.831  0.3110 -0.2262 -0.3607
 6859SOL     OW32038   1.975   3.708   3.409 -0.4022 -0.4173  0.0633
 6859SOL    HW132039   2.054   3.662   3.438  0.9043  1.0848 -1.1247
 6859SOL    HW232040   1.908   3.668   3.465 -1.0023 -1.3911 -1.3457
 6860SOL     OW32041   4.077   3.611   3.928 -0.3713  0.1342 -0.1272
 6860SOL    HW132042   4.119   3.691   3.959 -1.2041  0.6105 -0.2078
 6860SOL    HW232043   4.043   3.635   3.842  0.2696  0.1784 -0.3656
 6861SOL     OW32044   1.536   3.649   6.261 -0.5114  0.3432 -0.2163
 6861SOL    HW132045   1.496   3.665   6.346 -1.2492  1.0989 -0.7023
 6861SOL    HW232046   1.464   3.634   6.199  0.3163 -1.5382 -0.7361
 6862SOL     OW32047   2.231   4.119   4.135 -0.4899  0.2778 -0.1067
 6862SOL    HW132048   2.208   4.117   4.042 -1.1800  0.9529  0.0463
 6862SOL    HW232049   2.319   4.155   4.130 -0.7897  1.1788  1.4440
 6863SOL     OW32050   2.597   2.594   7.894  0.3652 -0.3591 -0.5195
 6863SOL    HW132051   2.576   2.613   7.986 -1.4737  0.1501 -1.0563
 6863SOL    HW232052   2.642   2.510   7.907 -0.2926 -0.6289  0.0424
 6864SOL     OW32053   3.774   4.136  16.698 -0.1046 -0.1549  0.2532
 6864SOL    HW132054   3.866   4.152  16.675 -0.0943 -1.5501 -0.6527
 6864SOL    HW232055   3.778   4.148  16.793 -0.4347  0.0430  0.2439
 6865SOL     OW32056   0.462   1.265   4.011  0.4278 -0.0632  0.4203
 6865SOL    HW132057   0.468   1.198   4.079  0.4163 -1.0682 -0.5562
 6865SOL    HW232058   0.543   1.315   4.019  0.3427  0.2905 -0.9524
 6866SOL     OW32059   0.329   4.563   4.822 -0.2444 -0.3489 -0.2679
 6866SOL    HW132060   0.400   4.613   4.781  0.4328 -1.2191 -0.1543
 6866SOL    HW232061   0.367   4.478   4.845 -1.6965 -1.0469 -0.4833
 6867SOL     OW32062   0.467   4.403   7.825 -0.7167  0.2449 -0.3867
 6867SOL    HW132063   0.428   4.389   7.912 -0.5820 -0.4278 -0.4300
 6867SOL    HW232064   0.500   4.316   7.802 -0.2163 -0.6037  3.5137
 6868SOL     OW32065   2.960   3.058   8.026 -0.2132  0.1861 -0.0862
 6868SOL    HW132066   2.915   3.096   8.101  0.6331  0.7076  0.1612
 6868SOL    HW232067   2.986   3.130   7.969  1.4988  0.8261  1.5126
 6869SOL     OW32068   2.943   3.825  11.573 -0.4365 -0.0714  0.0394
 6869SOL    HW132069   2.993   3.787  11.501  2.3159  0.1994  1.7610
 6869SOL    HW232070   2.867   3.851  11.522  0.0385  0.1708 -0.5453
 6870SOL     OW32071   0.165   3.394   2.841  0.1946  0.0024 -0.1738
 6870SOL    HW132072   0.116   3.314   2.858 -1.1514  1.2597  2.0177
 6870SOL    HW232073   0.183   3.391   2.747 -2.8647 -1.0855 -0.7257
 6871SOL     OW32074   0.360   0.847   4.309  0.1149  0.4433  0.0894
 6871SOL    HW132075   0.386   0.770   4.257 -0.2453  0.5033 -0.1843
 6871SOL    HW232076   0.272   0.859   4.275  0.6301  1.4588 -0.9130
 6872SOL     OW32077   3.979   3.977   2.162  0.1728  0.3007 -0.2353
 6872SOL    HW132078   3.990   3.887   2.192 -0.0294 -0.0777 -1.3177
 6872SOL    HW232079   3.895   4.005   2.200  0.0111  0.4295 -0.6838
 6873SOL     OW32080   3.670   2.719   8.703 -0.3249 -0.0769  0.1005
 6873SOL    HW132081   3.628   2.802   8.725 -0.0794 -0.6959  2.8855
 6873SOL    HW232082   3.600   2.655   8.713 -1.6145  1.3657  0.3356
 6874SOL     OW32083   4.479   2.352  11.450 -0.4711  0.0958 -0.7023
 6874SOL    HW132084   4.564   2.310  11.464 -0.6650 -0.1272 -0.2190
 6874SOL    HW232085   4.419   2.278  11.454  0.7008 -0.7340  1.2322
 6875SOL     OW32086   1.051   2.482  13.732  0.0143  0.3328  0.6391
 6875SOL    HW132087   1.078   2.508  13.644 -3.1840  1.1641 -0.1148
 6875SOL    HW232088   0.977   2.537  13.759  1.4698  1.2595  2.8015
 6876SOL     OW32089   1.157   4.191   9.498  0.5986 -0.9518 -0.0395
 6876SOL    HW132090   1.199   4.161   9.417 -2.1332 -0.2126 -1.7171
 6876SOL    HW232091   1.124   4.112   9.540  1.8632 -0.7435  1.3578
 6877SOL     OW32092   3.846   2.908   6.017  0.7656  0.1014  0.0977
 6877SOL    HW132093   3.818   2.943   6.101  0.9762 -1.1371  0.6700
 6877SOL    HW232094   3.766   2.906   5.964  0.6556  1.9234  0.1872
 6878SOL     OW32095   2.103   1.824  11.023 -0.1969 -0.2722  0.6821
 6878SOL    HW132096   2.069   1.735  11.015  1.1524 -0.7906  0.6940
 6878SOL    HW232097   2.182   1.813  10.971 -0.6058 -1.1430  0.2486
 6879SOL     OW32098   2.786   0.655   1.766  0.2547  0.0068  0.0259
 6879SOL    HW132099   2.700   0.642   1.805 -1.3479  3.0145 -2.5250
 6879SOL    HW232100   2.774   0.627   1.675 -1.0088  2.5184 -0.5852
 6880SOL     OW32101   4.411   1.371   5.841 -0.3144  0.0676 -0.2396
 6880SOL    HW132102   4.454   1.355   5.757 -0.6001 -0.7985 -0.2163
 6880SOL    HW232103   4.471   1.433   5.885 -0.3889  0.4031 -0.6125
 6881SOL     OW32104   0.579   2.893   1.414  0.2827 -0.3741 -0.2577
 6881SOL    HW132105   0.660   2.842   1.418  1.5288  1.6222 -0.1294
 6881SOL    HW232106   0.611   2.963   1.356  1.6747 -0.5496  0.3036
 6882SOL     OW32107   2.974   2.496   0.556  0.2472  0.0530 -0.5061
 6882SOL    HW132108   3.019   2.577   0.533  2.1665 -1.0465 -0.6449
 6882SOL    HW232109   2.889   2.509   0.515 -0.7214 -4.4569  0.1048
 6883SOL     OW32110   3.115   1.120  12.046 -0.6103 -0.5588  0.5440
 6883SOL    HW132111   3.050   1.059  12.083  0.0423  1.0410  4.3120
 6883SOL    HW232112   3.188   1.064  12.021  1.0578  1.8221  0.0920
 6884SOL     OW32113   0.247   4.208   9.780 -0.0679 -0.2047  0.6689
 6884SOL    HW132114   0.336   4.243   9.777 -0.1981  0.0294 -0.2448
 6884SOL    HW232115   0.235   4.245   9.868  2.6586  2.2049  0.0038
 6885SOL     OW32116   1.853   3.147  10.080 -0.0817  0.1376  0.1925
 6885SOL    HW132117   1.889   3.181   9.998  3.2653 -1.4614  0.9631
 6885SOL    HW232118   1.884   3.205  10.149  0.3861 -0.7975  0.7675
 6886SOL     OW32119   1.331   3.093   7.235  0.0459  0.0989  0.0458
 6886SOL    HW132120   1.365   3.133   7.315 -2.0481  1.4671  0.2664
 6886SOL    HW232121   1.239   3.071   7.246  0.6046 -1.6334  1.1021
 6887SOL     OW32122   2.941   2.439   4.940  0.1533  0.6346 -0.0683
 6887SOL    HW132123   2.976   2.507   4.883  1.6027  0.2640  0.3844
 6887SOL    HW232124   2.854   2.439   4.900  0.0317  0.9379  0.1974
 6888SOL     OW32125   1.561   1.548  13.829 -0.1649  0.1587 -0.1310
 6888SOL    HW132126   1.580   1.527  13.921 -0.6850  1.0279  0.1696
 6888SOL    HW232127   1.637   1.514  13.782 -0.2005 -0.7735  0.4646
 6889SOL     OW32128   4.497   1.534  17.269 -0.1436 -0.2716 -0.1655
 6889SOL    HW132129   4.504   1.623  17.234 -1.0068  0.0061  0.3546
 6889SOL    HW232130   4.586   1.499  17.262  0.9448  2.1880  1.1640
 6890SOL     OW32131   0.969   3.784   1.523 -0.8009 -0.1451 -0.2508
 6890SOL    HW132132   0.906   3.775   1.595  0.9313 -0.2039  1.2439
 6890SOL    HW232133   0.927   3.842   1.460  2.0869  1.5397 -0.5881
 6891SOL     OW32134   0.754   1.887  16.209 -0.1787  0.6007  0.1870
 6891SOL    HW132135   0.671   1.879  16.256  1.7423  0.4847  3.5907
 6891SOL    HW232136   0.794   1.799  16.214 -0.9536  0.1847 -0.9657
 6892SOL     OW32137   0.550   2.102   7.525 -0.1318  0.3171  0.6028
 6892SOL    HW132138   0.568   2.055   7.444 -0.0978  0.0020  0.7910
 6892SOL    HW232139   0.546   2.190   7.488  0.7012  1.1889  2.5313
 6893SOL     OW32140   1.994   1.297   5.643 -0.0609 -0.2598  0.0345
 6893SOL    HW132141   1.915   1.269   5.688 -0.1663  0.9562  0.6078
 6893SOL    HW232142   1.981   1.255   5.558  0.3067  0.8480 -0.5804
 6894SOL     OW32143   3.868   4.344   4.798  0.4645  0.2765 -0.4199
 6894SOL    HW132144   3.804   4.321   4.866  0.1539  2.0356 -0.1250
 6894SOL    HW232145   3.855   4.438   4.804  2.7794  0.4829  1.3012
 6895SOL     OW32146   2.267   3.396  15.473 -0.2930 -0.2494  0.1562
 6895SOL    HW132147   2.345   3.345  15.450 -0.0215 -0.0479  0.6294
 6895SOL    HW232148   2.302   3.484  15.460  1.6718 -0.7610  2.0029
 6896SOL     OW32149   0.813   0.893   9.469 -0.5487 -0.8580 -0.7923
 6896SOL    HW132150   0.781   0.862   9.554  0.9553  0.1365  0.1279
 6896SOL    HW232151   0.904   0.865   9.478 -1.5308 -3.8560 -0.1978
 6897SOL     OW32152   0.302   3.263   5.802  0.2600  0.5537  0.0480
 6897SOL    HW132153   0.298   3.277   5.897  1.3349 -1.1447  0.3455
 6897SOL    HW232154   0.364   3.331   5.774 -1.1362  1.6206 -0.4594
 6898SOL     OW32155   3.807   4.223  12.525  0.2786 -0.2621  0.1395
 6898SOL    HW132156   3.854   4.244  12.444 -0.6671  0.2364 -0.2795
 6898SOL    HW232157   3.751   4.301  12.529  1.2007  0.2717  2.4062
 6899SOL     OW32158   0.206   4.631  13.885  0.5749 -0.1485  0.5114
 6899SOL    HW132159   0.130   4.653  13.939  1.6995  1.5885  1.3611
 6899SOL    HW232160   0.204   4.539  13.911 -0.4403 -0.5450 -0.9262
 6900SOL     OW32161   1.519   3.602   9.900  0.0559 -0.4981 -0.0451
 6900SOL    HW132162   1.474   3.686   9.885  0.0035 -0.3766  0.8085
 6900SOL    HW232163   1.581   3.603   9.828 -0.7023  1.2101 -0.6851
 6901SOL     OW32164   1.977   2.818   4.581  0.3693  0.5748  0.6215
 6901SOL    HW132165   1.932   2.770   4.511  0.8760  0.1203  0.6146
 6901SOL    HW232166   1.905   2.830   4.643 -0.3699 -1.8395  0.2391
 6902SOL     OW32167   1.808   2.741   3.059 -0.1970  0.0394  0.3576
 6902SOL    HW132168   1.747   2.681   3.102 -1.7378  0.8609 -0.6920
 6902SOL    HW232169   1.776   2.746   2.969  0.5757 -1.7999 -0.0378
 6903SOL     OW32170   0.569   2.593  10.402  0.6657 -0.1365  0.6338
 6903SOL    HW132171   0.510   2.559  10.470 -0.9626  0.9146 -0.2445
 6903SOL    HW232172   0.649   2.570  10.449 -0.1967  0.1203  2.2660
 6904SOL     OW32173   2.188   1.521   6.994 -0.1533 -0.1722  0.0435
 6904SOL    HW132174   2.148   1.518   7.081 -0.2472 -1.7533 -0.0651
 6904SOL    HW232175   2.279   1.542   7.015 -0.6609  0.3694  1.6839
 6905SOL     OW32176   2.537   2.288  10.699  0.0757  0.4538  0.4207
 6905SOL    HW132177   2.572   2.322  10.781  1.3998  1.1832 -0.4538
 6905SOL    HW232178   2.446   2.283  10.727 -0.5898 -1.5067 -2.1114
 6906SOL     OW32179   2.983   1.308   7.849 -0.3221 -0.1277  0.4482
 6906SOL    HW132180   3.011   1.381   7.904 -3.9345  0.6245  1.3117
 6906SOL    HW232181   2.998   1.229   7.900  1.7204 -1.1694 -1.7780
 6907SOL     OW32182   1.646   1.630   3.754 -0.6630  0.1466 -0.0062
 6907SOL    HW132183   1.727   1.680   3.766 -1.0682  0.4176  1.6005
 6907SOL    HW232184   1.676   1.562   3.693 -0.2127 -0.0012  0.3775
 6908SOL     OW32185   1.514   3.080  14.973  0.2691 -0.0426 -0.4808
 6908SOL    HW132186   1.499   3.174  14.989  0.2656  0.1373 -1.4963
 6908SOL    HW232187   1.423   3.051  14.976  0.5309 -0.6822  0.9969
 6909SOL     OW32188   0.572   3.532   2.614  0.3154  0.1482 -0.1562
 6909SOL    HW132189   0.529   3.566   2.536  0.0544 -1.5837 -0.7696
 6909SOL    HW232190   0.557   3.609   2.669  0.0206  0.8547 -1.2212
 6910SOL     OW32191   2.342   1.575  14.472  0.2433  0.3566 -0.6644
 6910SOL    HW132192   2.431   1.595  14.442  1.5983 -2.7594  1.2334
 6910SOL    HW232193   2.342   1.628  14.551  0.2750  1.0927 -1.1559
 6911SOL     OW32194   4.423   1.291   5.536 -0.4766 -0.2616 -0.1520
 6911SOL    HW132195   4.416   1.331   5.449  1.9530  0.1987 -0.1624
 6911SOL    HW232196   4.503   1.239   5.530 -0.4856 -0.3638  0.6548
 6912SOL     OW32197   0.642   3.243   6.440  0.2103 -0.1281  0.5217
 6912SOL    HW132198   0.715   3.218   6.383 -1.0939  0.7438 -1.5404
 6912SOL    HW232199   0.659   3.327   6.482 -1.1409  0.0901  0.6076
 6913SOL     OW32200   1.579   4.365   8.552  0.7478  0.7621  0.2566
 6913SOL    HW132201   1.562   4.388   8.460  3.2490 -1.2394 -0.7221
 6913SOL    HW232202   1.666   4.325   8.547 -0.3500 -2.0108  2.9456
 6914SOL     OW32203   0.214   4.075   2.831  0.1550  0.5459  0.4726
 6914SOL    HW132204   0.125   4.109   2.827 -1.0066 -2.4546  0.3724
 6914SOL    HW232205   0.193   3.983   2.850 -0.0336  0.3093 -0.8996
 6915SOL     OW32206   1.707   1.199   4.445 -0.0106 -0.8857  0.0367
 6915SOL    HW132207   1.682   1.123   4.393 -0.1644 -0.8633  0.0777
 6915SOL    HW232208   1.734   1.155   4.526  2.1578  1.0129  0.3623
 6916SOL     OW32209   2.982   3.127  13.940 -0.1004 -0.1092  0.2634
 6916SOL    HW132210   2.936   3.066  13.882 -3.9787  0.2888  2.9063
 6916SOL    HW232211   2.918   3.141  14.010 -1.2875  0.3822 -0.9013
 6917SOL     OW32212   1.270   0.681  13.652  0.3531 -0.1985 -0.0143
 6917SOL    HW132213   1.359   0.659  13.625 -1.5553 -4.2920 -3.0699
 6917SOL    HW232214   1.285   0.764  13.698  1.2853  0.4190 -1.4507
 6918SOL     OW32215   3.036   1.823  13.206 -0.1775 -0.6349  0.2389
 6918SOL    HW132216   2.960   1.880  13.194  0.0546 -0.2237  0.7041
 6918SOL    HW232217   3.086   1.875  13.270  0.7157 -0.2577 -0.7680
 6919SOL     OW32218   2.222   3.749   6.475  0.3154 -0.6227  0.2085
 6919SOL    HW132219   2.269   3.794   6.544 -0.0808  0.9218 -0.5273
 6919SOL    HW232220   2.269   3.667   6.488  1.3152 -0.3582 -1.8179
 6920SOL     OW32221   1.432   0.573   9.602  0.2750 -0.2154 -0.0394
 6920SOL    HW132222   1.452   0.484   9.574  0.1102  0.4384 -2.2887
 6920SOL    HW232223   1.368   0.600   9.536  1.7300 -0.2834 -1.4779
 6921SOL     OW32224   3.617   1.381  15.642 -0.4460 -0.3020 -0.1478
 6921SOL    HW132225   3.688   1.382  15.706  0.8511  0.6680 -1.6157
 6921SOL    HW232226   3.547   1.417  15.697 -0.1421  1.4717 -0.9256
 6922SOL     OW32227   0.689   4.273   8.447 -0.0771  0.3022  0.6769
 6922SOL    HW132228   0.617   4.323   8.409 -0.2672 -1.0269 -0.7612
 6922SOL    HW232229   0.738   4.245   8.369  0.9058  0.1138  1.3578
 6923SOL     OW32230   1.692   3.393   8.735  0.0024  0.0337 -0.8960
 6923SOL    HW132231   1.781   3.362   8.716  0.2747 -0.7417  1.6374
 6923SOL    HW232232   1.637   3.324   8.698 -0.5288 -1.2241  2.2318
 6924SOL     OW32233   3.821   0.725   9.119  0.3732  0.2049 -0.4491
 6924SOL    HW132234   3.858   0.645   9.081 -1.3162 -0.9827  0.4378
 6924SOL    HW232235   3.846   0.706   9.209  0.1341  0.4544 -0.3310
 6925SOL     OW32236   3.608   4.597   7.866 -0.3520  0.3092  0.5930
 6925SOL    HW132237   3.693   4.558   7.888  0.7763  0.4683 -3.5604
 6925SOL    HW232238   3.607   4.670   7.927 -0.9119 -0.7392  1.8353
 6926SOL     OW32239   0.821   0.027   5.816  0.1940  0.0464 -0.1855
 6926SOL    HW132240   0.798   0.049   5.726  1.8038 -0.1424 -0.6376
 6926SOL    HW232241   0.794   0.103   5.868 -0.2321  0.7941 -1.4848
 6927SOL     OW32242   0.855   4.185   8.198  0.5841 -0.3539 -0.3709
 6927SOL    HW132243   0.920   4.149   8.138 -0.0344 -0.7185 -0.8328
 6927SOL    HW232244   0.894   4.155   8.279 -0.3412 -0.6904 -0.0450
 6928SOL     OW32245   3.399   1.810   7.760 -0.1751  0.2723 -0.3706
 6928SOL    HW132246   3.352   1.731   7.785 -0.7688  1.3536  1.9581
 6928SOL    HW232247   3.490   1.790   7.783 -0.4460  0.8111  1.2203
 6929SOL     OW32248   3.861   3.381   5.625 -0.0167  0.2094 -0.2842
 6929SOL    HW132249   3.854   3.313   5.692  1.1171  1.1964  0.8184
 6929SOL    HW232250   3.942   3.421   5.657  0.2976 -0.6613  0.0237
 6930SOL     OW32251   1.540   3.956   9.445  0.0052 -0.1491 -0.2586
 6930SOL    HW132252   1.602   3.918   9.508  1.4152  1.3743 -0.7156
 6930SOL    HW232253   1.597   3.973   9.370  2.5044  0.8353  1.8349
 6931SOL     OW32254   3.045   3.265  15.423  0.2277  0.4752 -0.5618
 6931SOL    HW132255   3.013   3.296  15.339  0.9428  0.4123 -0.8515
 6931SOL    HW232256   3.043   3.169  15.416  0.3878  0.5046 -0.9891
 6932SOL     OW32257   2.167   3.094   8.676  0.0294 -0.1645  0.1157
 6932SOL    HW132258   2.089   3.043   8.700  0.2893 -0.3978  0.4504
 6932SOL    HW232259   2.160   3.176   8.725 -0.2749 -0.1123 -0.0151
 6933SOL     OW32260   0.624   1.825   0.354 -0.2943  0.1379  0.1143
 6933SOL    HW132261   0.626   1.819   0.259  0.5101  0.7068  0.1014
 6933SOL    HW232262   0.594   1.914   0.374  0.3621  0.6210 -1.0788
 6934SOL     OW32263   3.084   2.949   2.064 -0.4535 -0.2781  0.2363
 6934SOL    HW132264   3.128   2.977   1.984  0.2725  2.0320  1.4418
 6934SOL    HW232265   3.002   2.994   2.046  0.5366  1.3369 -0.2325
 6935SOL     OW32266   3.525   3.951  15.234 -0.1016  0.3789 -0.3533
 6935SOL    HW132267   3.516   3.893  15.158  1.4168 -0.1361 -0.1269
 6935SOL    HW232268   3.493   4.035  15.200 -1.7638 -0.3980 -0.7368
 6936SOL     OW32269   3.480   3.039   6.560  0.6187  0.1328  0.4647
 6936SOL    HW132270   3.452   2.981   6.631  0.1740 -1.0739 -0.6978
 6936SOL    HW232271   3.512   2.983   6.489 -1.5002 -1.0003  0.3943
 6937SOL     OW32272   4.443   0.986   3.405  0.2239 -0.4698  0.8102
 6937SOL    HW132273   4.385   0.928   3.354  0.8845 -0.0604 -0.4214
 6937SOL    HW232274   4.383   1.055   3.434  0.7177 -0.6624  2.2744
 6938SOL     OW32275   1.289   3.439   4.754 -0.2165 -0.1529 -0.0867
 6938SOL    HW132276   1.345   3.377   4.708  2.2626  1.0602  1.3186
 6938SOL    HW232277   1.268   3.394   4.835  1.8488  0.9881  1.0842
 6939SOL     OW32278   4.459   0.670   3.415  0.0580  0.1642  0.2746
 6939SOL    HW132279   4.382   0.725   3.406  1.8406  2.3776 -1.5072
 6939SOL    HW232280   4.478   0.659   3.322  1.4446 -0.8353  0.6711
 6940SOL     OW32281   0.988   2.623   7.420  0.1571 -0.3103 -0.2488
 6940SOL    HW132282   1.046   2.556   7.456  1.0498 -0.0098 -1.1347
 6940SOL    HW232283   0.982   2.691   7.488  0.2521  0.9782 -1.5178
 6941SOL     OW32284   2.447   1.990   8.382  0.0220 -0.0696 -0.2681
 6941SOL    HW132285   2.354   1.974   8.368 -0.3913  0.4750  1.8843
 6941SOL    HW232286   2.439   2.019   8.473 -1.1899  1.2528 -0.8146
 6942SOL     OW32287   3.530   1.842  15.952 -0.4870 -0.1262 -0.6444
 6942SOL    HW132288   3.489   1.901  15.889  1.6992  1.0516 -0.9783
 6942SOL    HW232289   3.457   1.792  15.989  0.8480 -3.6957 -2.9075
 6943SOL     OW32290   1.640   2.252   9.322  0.5423 -0.2334  0.5172
 6943SOL    HW132291   1.655   2.194   9.247 -0.0400  0.0355  0.1869
 6943SOL    HW232292   1.724   2.290   9.348  0.6147  0.2456 -0.3820
 6944SOL     OW32293   3.567   2.095   4.160  0.1797  0.0182  0.4605
 6944SOL    HW132294   3.475   2.122   4.160  0.1856  0.0083 -1.7274
 6944SOL    HW232295   3.591   2.103   4.252 -0.1221  0.7718  0.4773
 6945SOL     OW32296   1.392   3.292   6.077 -0.1524 -0.3094 -0.1759
 6945SOL    HW132297   1.477   3.292   6.033 -0.0338  1.5050  0.0569
 6945SOL    HW232298   1.422   3.269   6.164  3.4092 -1.1673 -1.6329
 6946SOL     OW32299   3.458   3.477   8.421 -0.3049  0.2317 -0.2350
 6946SOL    HW132300   3.451   3.572   8.431  2.4856  0.4612 -0.3806
 6946SOL    HW232301   3.373   3.447   8.451 -0.4470  0.6596 -0.2099
 6947SOL     OW32302   4.618   2.825   5.080  1.1078 -0.0998  0.1140
 6947SOL    HW132303   4.560   2.787   5.015 -0.0082 -0.8485  1.5581
 6947SOL    HW232304   4.700   2.818   5.030  1.5999 -0.4160  0.9551
 6948SOL     OW32305   0.127   2.435   9.219  0.6347  0.3372 -0.5337
 6948SOL    HW132306   0.197   2.379   9.253 -1.0847 -0.8845  1.0100
 6948SOL    HW232307   0.057   2.400   9.274  1.2601 -1.7395 -1.0588
 6949SOL     OW32308   4.039   2.471  14.675 -0.1363  0.2455  0.1264
 6949SOL    HW132309   4.055   2.529  14.749 -0.6827  1.0110 -0.3518
 6949SOL    HW232310   3.949   2.444  14.695 -0.2652  1.2581  0.9248
 6950SOL     OW32311   0.149   3.178   8.285  0.0043 -0.4527  0.1372
 6950SOL    HW132312   0.204   3.256   8.298  1.8945 -1.6949 -0.4344
 6950SOL    HW232313   0.147   3.161   8.191 -1.8720 -3.6256  0.7476
 6951SOL     OW32314   4.528   2.368   1.861 -0.2098 -0.1261  0.1994
 6951SOL    HW132315   4.468   2.404   1.926  0.4800 -0.0156  0.7716
 6951SOL    HW232316   4.602   2.335   1.912  1.1866 -0.8093 -2.3078
 6952SOL     OW32317   4.509   4.388   4.479  0.0924 -0.0281  0.5407
 6952SOL    HW132318   4.556   4.394   4.563  0.0070 -2.2876  0.7379
 6952SOL    HW232319   4.530   4.474   4.441  1.5575 -0.9330 -0.6853
 6953SOL     OW32320   4.465   0.429   3.780 -0.3653 -0.1132 -0.1936
 6953SOL    HW132321   4.552   0.428   3.819 -0.4889  0.1829  0.0902
 6953SOL    HW232322   4.445   0.518   3.810 -1.5642 -0.9330  1.4423
 6954SOL     OW32323   2.867   3.342  13.358 -0.1600 -0.1964 -0.3128
 6954SOL    HW132324   2.821   3.281  13.300 -0.2839 -2.9305  2.6537
 6954SOL    HW232325   2.933   3.375  13.296  1.1162  0.9294  1.6526
 6955SOL     OW32326   1.327   0.423   4.052  0.3727 -0.5134 -0.0312
 6955SOL    HW132327   1.361   0.512   4.049 -0.9009  0.0193  0.9555
 6955SOL    HW232328   1.289   0.411   3.965  2.9541 -1.6342 -1.0110
 6956SOL     OW32329   1.850   2.698   4.386  1.0780 -0.1725 -0.8922
 6956SOL    HW132330   1.933   2.680   4.341  1.2115  1.0258 -1.1104
 6956SOL    HW232331   1.790   2.665   4.319 -0.2013 -1.3605  0.8473
 6957SOL     OW32332   0.280   3.963   6.123  0.2803  0.3168 -0.3202
 6957SOL    HW132333   0.264   3.954   6.217 -1.5220 -2.6664 -0.9110
 6957SOL    HW232334   0.309   3.873   6.107 -0.8242  0.0858 -0.9986
 6958SOL     OW32335   4.560   0.011   6.781 -0.0498  0.0756  0.2329
 6958SOL    HW132336   4.642   0.044   6.743  1.3860 -2.3723  1.2514
 6958SOL    HW232337   4.501   0.016   6.705 -1.0027  3.4294  1.2067
 6959SOL     OW32338   2.626   1.570   3.497 -0.5734  0.6145 -0.0463
 6959SOL    HW132339   2.712   1.611   3.492 -0.9837  1.5950  0.9917
 6959SOL    HW232340   2.640   1.477   3.513  0.8634  1.2840  2.6349
 6960SOL     OW32341   2.589   1.654   8.879  0.8544  0.4072 -0.0296
 6960SOL    HW132342   2.503   1.621   8.906  1.4959 -2.4225 -1.3855
 6960SOL    HW232343   2.570   1.746   8.865  1.5997  0.8521  1.8427
 6961SOL     OW32344   2.622   0.950   6.127  0.1509  0.1653 -0.4627
 6961SOL    HW132345   2.682   0.886   6.165 -1.2446 -0.7652  0.1524
 6961SOL    HW232346   2.569   0.959   6.206  0.9646  1.4841 -0.0775
 6962SOL     OW32347   0.354   3.069   3.955 -0.2762 -0.3137  0.2402
 6962SOL    HW132348   0.426   3.082   4.016  1.1650 -1.6037 -1.1963
 6962SOL    HW232349   0.282   3.114   3.999 -3.4528 -0.7716 -4.5034
 6963SOL     OW32350   0.152   1.507   4.746  0.2303 -0.8006 -0.0325
 6963SOL    HW132351   0.229   1.474   4.701  0.2439  0.7781 -1.1576
 6963SOL    HW232352   0.080   1.511   4.682  0.3599 -0.7492 -0.1745
 6964SOL     OW32353   0.294   3.438   3.758  0.1716  0.1172  0.0536
 6964SOL    HW132354   0.230   3.407   3.822 -0.6312  1.7429  0.0437
 6964SOL    HW232355   0.374   3.397   3.789  1.2039 -0.1529 -3.0154
 6965SOL     OW32356   2.822   1.481   5.122  0.2899 -0.8469  0.7822
 6965SOL    HW132357   2.860   1.407   5.170  0.8546 -0.7188  0.5272
 6965SOL    HW232358   2.901   1.510   5.077 -0.7044  1.4876  0.5450
 6966SOL     OW32359   1.491   2.861   1.601  0.2135  0.1859 -0.4413
 6966SOL    HW132360   1.582   2.879   1.621  0.1790 -0.4836  0.3470
 6966SOL    HW232361   1.464   2.929   1.539  1.2790  1.8814  0.9659
 6967SOL     OW32362   4.324   2.226   7.738  0.4542  0.2678 -0.1770
 6967SOL    HW132363   4.391   2.287   7.769 -0.4736  0.7318  0.9085
 6967SOL    HW232364   4.327   2.248   7.645 -1.1099  0.5550 -0.1676
 6968SOL     OW32365   3.239   0.356   5.568  0.7748  0.4999  0.0548
 6968SOL    HW132366   3.158   0.314   5.597  0.1579  0.8170 -1.2671
 6968SOL    HW232367   3.265   0.407   5.645  0.0744  1.3470 -0.2832
 6969SOL     OW32368   1.817   1.414   3.909  0.0402 -0.1280 -0.0032
 6969SOL    HW132369   1.885   1.347   3.903 -0.9644 -1.0162 -1.5870
 6969SOL    HW232370   1.766   1.404   3.829 -0.3083  0.4987  0.1436
 6970SOL     OW32371   3.187   4.531  14.015 -0.5314  0.3147  0.5926
 6970SOL    HW132372   3.209   4.611  13.967  0.2237 -0.0236  0.3790
 6970SOL    HW232373   3.092   4.538  14.008 -0.6243 -1.1232  0.3159
 6971SOL     OW32374   3.361   3.245   4.629  0.3013  0.2188 -0.2586
 6971SOL    HW132375   3.356   3.302   4.553 -1.0495 -0.6334 -0.8104
 6971SOL    HW232376   3.305   3.294   4.690 -0.9104 -1.2822 -0.1480
 6972SOL     OW32377   3.464   4.495   1.778 -0.6609  0.2827  0.1763
 6972SOL    HW132378   3.457   4.419   1.720  3.8678  1.7298 -2.3729
 6972SOL    HW232379   3.468   4.568   1.715  0.6518  0.7529  0.8046
 6973SOL     OW32380   4.185   0.771   6.580  0.3290 -0.1701  0.2017
 6973SOL    HW132381   4.168   0.707   6.511 -1.5290 -0.3061  0.7882
 6973SOL    HW232382   4.241   0.838   6.543  0.3660 -1.2933 -1.7482
 6974SOL     OW32383   1.646   2.802  11.942 -0.1599 -0.0059  0.6953
 6974SOL    HW132384   1.582   2.783  12.010 -0.3732 -0.7328  0.2846
 6974SOL    HW232385   1.602   2.870  11.892  0.1426 -0.9179 -0.8162
 6975SOL     OW32386   4.185   4.408   0.438 -0.4099 -0.0702  0.0315
 6975SOL    HW132387   4.242   4.338   0.469 -0.1614  0.7694  1.4368
 6975SOL    HW232388   4.241   4.483   0.460 -1.2351  0.9218 -1.2058
 6976SOL     OW32389   3.544   1.296   3.391  0.2065  0.0642 -0.2632
 6976SOL    HW132390   3.609   1.244   3.345 -1.1165  0.5136 -2.6664
 6976SOL    HW232391   3.550   1.251   3.475 -1.1307  1.4180  0.5657
 6977SOL     OW32392   1.495   1.344   2.276 -0.7395  0.4069  0.3129
 6977SOL    HW132393   1.485   1.436   2.251  0.6017  0.8155  1.2129
 6977SOL    HW232394   1.408   1.308   2.261  0.2359 -1.8010 -0.1639
 6978SOL     OW32395   1.963   1.612   4.164  1.0555 -0.2022  0.1872
 6978SOL    HW132396   1.876   1.624   4.125  0.2602 -0.5096  1.8906
 6978SOL    HW232397   2.009   1.686   4.125  1.4222 -0.8591 -0.6527
 6979SOL     OW32398   1.092   2.299   8.467 -0.2734  0.0178  0.0297
 6979SOL    HW132399   1.133   2.270   8.549  0.8907  1.6257  0.0160
 6979SOL    HW232400   1.152   2.258   8.405 -1.7948 -0.4248 -1.1499
 6980SOL     OW32401   4.672   3.180   5.383 -0.3050 -0.4511 -0.2253
 6980SOL    HW132402   4.618   3.201   5.459 -1.0906 -1.6085 -0.4714
 6980SOL    HW232403   0.017   3.128   5.424 -1.7799 -0.8876  1.6696
 6981SOL     OW32404   3.756   0.405   9.253 -0.4539 -0.0077 -0.0327
 6981SOL    HW132405   3.667   0.391   9.222 -1.4587  0.6853  2.4867
 6981SOL    HW232406   3.796   0.429   9.169  0.1800  1.5456  0.7058
 6982SOL     OW32407   2.296   0.602   7.063  0.1007  0.0049 -0.4173
 6982SOL    HW132408   2.256   0.656   6.995 -0.3876 -1.1160 -1.0257
 6982SOL    HW232409   2.327   0.669   7.124 -0.2681 -0.4888  0.3234
 6983SOL     OW32410   2.926   0.935  17.347  0.0063  0.4928 -0.3021
 6983SOL    HW132411   2.969   1.020  17.339  0.8293  0.0577 -0.4195
 6983SOL    HW232412   2.848   0.957  17.295 -1.3318 -0.8203  1.1147
 6984SOL     OW32413   4.114   4.437   7.141  0.5616 -0.3293 -0.0049
 6984SOL    HW132414   4.185   4.477   7.090  1.0586 -2.0630 -0.6809
 6984SOL    HW232415   4.164   4.394   7.210 -1.6627 -0.5941  1.4381
 6985SOL     OW32416   1.378   1.093  15.929  0.0171 -0.1705  0.3568
 6985SOL    HW132417   1.335   1.075  16.013  0.7380 -0.3055  0.7056
 6985SOL    HW232418   1.399   1.004  15.899  1.2325  0.7977 -1.6413
 6986SOL     OW32419   2.050   4.339   7.297 -0.3327  0.0729  0.2791
 6986SOL    HW132420   1.982   4.323   7.362  0.3111 -2.4771  0.3501
 6986SOL    HW232421   2.032   4.269   7.234 -0.9517 -0.9552  1.5806
 6987SOL     OW32422   1.033   0.032  11.659 -0.1237 -0.0522  0.0353
 6987SOL    HW132423   1.089   0.025  11.582  0.1560  1.4609  0.1116
 6987SOL    HW232424   0.946   0.022  11.622  0.0436 -0.7599 -0.1681
 6988SOL     OW32425   2.902   2.654   3.518 -0.0693  0.0226 -0.2879
 6988SOL    HW132426   2.920   2.742   3.552 -0.5367 -0.3792  0.9871
 6988SOL    HW232427   2.912   2.620   3.607 -3.0526 -0.1839 -0.0449
 6989SOL     OW32428   2.210   1.346  11.075  0.0612 -0.0061 -0.2493
 6989SOL    HW132429   2.177   1.329  11.163  3.0419  2.1395  1.2340
 6989SOL    HW232430   2.299   1.314  11.085  0.4404  0.7980 -1.1375
 6990SOL     OW32431   1.933   3.188  15.098 -0.2685 -0.1097  0.4877
 6990SOL    HW132432   2.009   3.180  15.156 -0.3066 -0.0931  0.5398
 6990SOL    HW232433   1.886   3.109  15.125  1.3411 -1.4823 -0.7196
 6991SOL     OW32434   4.564   1.308   2.494 -0.3226  0.1287  0.1073
 6991SOL    HW132435   4.650   1.303   2.537 -0.6630 -1.2124  0.6311
 6991SOL    HW232436   4.573   1.238   2.429  3.2416 -0.0675  0.8273
 6992SOL     OW32437   2.250   4.422  11.755 -0.1045  0.0534  0.2315
 6992SOL    HW132438   2.225   4.331  11.773 -1.1026  0.2914  0.0788
 6992SOL    HW232439   2.342   4.415  11.732 -0.5627  1.3341 -1.9934
 6993SOL     OW32440   3.039   3.789   9.422  0.3117 -0.0904 -0.4867
 6993SOL    HW132441   3.096   3.863   9.444 -0.0932 -0.0786  0.5095
 6993SOL    HW232442   3.069   3.758   9.336  1.6833 -0.0744 -0.0066
 6994SOL     OW32443   0.163   2.327   7.256  0.0215 -0.0012  0.4533
 6994SOL    HW132444   0.155   2.234   7.277 -0.7960  0.0889  0.5345
 6994SOL    HW232445   0.121   2.382   7.322  1.3603  0.2009  1.1379
 6995SOL     OW32446   4.366   0.750   0.591  0.1460 -0.1364 -0.1667
 6995SOL    HW132447   4.276   0.719   0.603  0.5340 -1.1719 -0.0223
 6995SOL    HW232448   4.386   0.747   0.685  0.4695  1.0619 -0.2000
 6996SOL     OW32449   1.742   0.650   7.591  0.1126  0.7238  0.1866
 6996SOL    HW132450   1.713   0.683   7.505 -0.4037  2.0181  0.8460
 6996SOL    HW232451   1.790   0.574   7.559 -1.5431  0.2382 -1.1154
 6997SOL     OW32452   2.751   3.225   2.835  0.6880  0.0306 -0.2679
 6997SOL    HW132453   2.698   3.269   2.768  1.8123  0.6330 -0.7458
 6997SOL    HW232454   2.730   3.133   2.821 -1.5689  0.6597 -1.0019
 6998SOL     OW32455   2.768   1.896   5.091  0.6243 -0.0868  0.2324
 6998SOL    HW132456   2.712   1.965   5.055  1.4495 -0.1025 -1.0794
 6998SOL    HW232457   2.792   1.840   5.017  2.4576  1.4693 -0.3535
 6999SOL     OW32458   2.429   2.721   2.799 -0.2473  0.1246 -0.1592
 6999SOL    HW132459   2.380   2.677   2.729  0.7517 -0.3156 -0.5887
 6999SOL    HW232460   2.382   2.800   2.826  0.3850  0.7337 -0.8430
 7000SOL     OW32461   0.775   1.557  12.703  0.3349  0.7878  0.3722
 7000SOL    HW132462   0.775   1.486  12.640  2.5871  1.1138  0.0056
 7000SOL    HW232463   0.867   1.583  12.705  0.9658 -1.3343 -1.0869
 7001SOL     OW32464   0.231   2.732  16.345  0.0246 -0.4772 -0.0584
 7001SOL    HW132465   0.306   2.748  16.402 -0.2905  0.8050 -0.0035
 7001SOL    HW232466   0.213   2.817  16.306 -2.1328 -1.2814 -0.8721
 7002SOL     OW32467   0.366   0.945   7.805 -0.0691 -0.3100 -0.2507
 7002SOL    HW132468   0.336   0.992   7.882  0.8774  1.7035 -1.1137
 7002SOL    HW232469   0.429   0.885   7.845 -1.4939 -1.6956 -0.0909
 7003SOL     OW32470   3.363   4.268   5.461  0.0952 -0.4817 -0.6590
 7003SOL    HW132471   3.311   4.210   5.516 -0.0412  1.4518  1.2326
 7003SOL    HW232472   3.450   4.248   5.495 -0.0920 -2.6084 -1.4488
 7004SOL     OW32473   1.580   3.055   8.355 -0.2372  0.0130  0.2473
 7004SOL    HW132474   1.599   2.970   8.316  1.1967 -0.3690  1.7887
 7004SOL    HW232475   1.560   3.109   8.279 -1.9662 -0.8544  0.0998
 7005SOL     OW32476   1.970   1.944   7.768  0.1436  0.3500 -0.8301
 7005SOL    HW132477   1.955   2.019   7.711  2.8914 -0.7300 -3.0396
 7005SOL    HW232478   2.029   1.983   7.832  0.3863  1.0564 -1.4838
 7006SOL     OW32479   1.851   4.287  13.225  0.3582 -0.0735  0.1696
 7006SOL    HW132480   1.938   4.322  13.243  0.6739 -1.2995  1.0202
 7006SOL    HW232481   1.818   4.314  13.139 -0.3937 -0.7005  0.2542
 7007SOL     OW32482   1.874   2.100  13.827  0.1489 -0.3852  0.4651
 7007SOL    HW132483   1.949   2.148  13.862  0.5133  0.2295 -1.1529
 7007SOL    HW232484   1.798   2.146  13.863  1.1076  1.6124 -0.0617
 7008SOL     OW32485   2.756   0.762   2.319  0.9576 -0.3434  0.1142
 7008SOL    HW132486   2.778   0.678   2.359 -0.5310 -0.8662 -0.1607
 7008SOL    HW232487   2.837   0.812   2.304 -0.8647  1.9778 -1.9327
 7009SOL     OW32488   1.029   3.656   8.410 -0.1795  0.9158 -0.5008
 7009SOL    HW132489   1.022   3.569   8.450 -1.7980  0.4730 -1.7574
 7009SOL    HW232490   0.943   3.691   8.433 -0.0958  0.6513  0.2111
 7010SOL     OW32491   1.656   4.514   3.968 -0.3668 -0.4502  0.1099
 7010SOL    HW132492   1.736   4.556   3.937  0.2598 -2.5390 -1.1181
 7010SOL    HW232493   1.694   4.427   3.984  2.9588  1.0437  0.2019
 7011SOL     OW32494   2.135   4.663   8.798 -0.0643  0.4732  0.2899
 7011SOL    HW132495   2.191   4.662   8.720 -1.6861 -1.5227 -0.8496
 7011SOL    HW232496   2.095   4.576   8.790  0.2320  0.2232  1.4911
 7012SOL     OW32497   3.383   2.811  10.851 -0.1892 -0.1421  0.2839
 7012SOL    HW132498   3.306   2.830  10.904 -0.5340 -0.3391 -0.1460
 7012SOL    HW232499   3.372   2.716  10.843  0.8382 -0.3511  1.3696
 7013SOL     OW32500   0.352   2.651   6.088 -0.0002  0.0325  0.4381
 7013SOL    HW132501   0.394   2.733   6.065 -3.6598  1.6808 -0.4201
 7013SOL    HW232502   0.284   2.686   6.146 -0.5049 -0.9234  0.4358
 7014SOL     OW32503   3.408   4.258   8.974  0.5858  0.1608  0.4215
 7014SOL    HW132504   3.492   4.305   8.979  0.2104  0.8047  0.6090
 7014SOL    HW232505   3.425   4.167   8.953 -0.2395 -0.1126  0.9273
 7015SOL     OW32506   3.679   2.165   3.862  0.0428  0.3045 -0.7200
 7015SOL    HW132507   3.758   2.132   3.818  1.4861  2.8671 -0.0630
 7015SOL    HW232508   3.696   2.137   3.952 -1.3283 -1.5255 -1.0288
 7016SOL     OW32509   0.471   3.560   9.994  0.0743 -0.3247  0.1528
 7016SOL    HW132510   0.503   3.564   9.904 -0.8742  0.7672 -0.1441
 7016SOL    HW232511   0.487   3.649  10.024 -1.2545  0.3270 -1.0806
 7017SOL     OW32512   0.043   0.203   3.804 -0.0642 -0.9347 -0.0533
 7017SOL    HW132513   0.030   0.232   3.714 -1.3563  0.1467  0.4726
 7017SOL    HW232514   4.708   0.130   3.823 -1.8835 -0.3939 -3.6613
 7018SOL     OW32515   3.887   2.472   7.516  0.4360  0.0041 -0.1775
 7018SOL    HW132516   3.975   2.483   7.554  1.2581 -1.1504 -1.7526
 7018SOL    HW232517   3.867   2.565   7.514 -0.2665 -0.1956 -2.2267
 7019SOL     OW32518   0.699   0.505   8.645  0.2367  0.1593  0.3980
 7019SOL    HW132519   0.623   0.528   8.699 -0.9826  0.6500 -1.5115
 7019SOL    HW232520   0.753   0.457   8.708  1.1761 -1.3515 -1.5913
 7020SOL     OW32521   2.159   2.703   1.422 -0.0438 -0.3353 -0.7428
 7020SOL    HW132522   2.202   2.642   1.481  0.4439  0.1396 -0.6013
 7020SOL    HW232523   2.226   2.772   1.425 -1.4746  0.9823  0.9226
 7021SOL     OW32524   2.525   0.634   2.907 -0.3225 -0.1597  0.2097
 7021SOL    HW132525   2.542   0.615   2.815  0.6838 -0.2700  0.4257
 7021SOL    HW232526   2.450   0.578   2.928 -0.0228 -0.4313  0.5443
 7022SOL     OW32527   0.632   3.888   2.917 -0.4745  0.2670  0.2664
 7022SOL    HW132528   0.549   3.864   2.959 -1.8575  1.0037 -1.9903
 7022SOL    HW232529   0.594   3.892   2.829  0.4432 -0.8204 -0.1768
 7023SOL     OW32530   0.733   3.515  13.138  0.6292 -0.6022  0.5066
 7023SOL    HW132531   0.700   3.430  13.109 -0.7196  0.9103 -2.3911
 7023SOL    HW232532   0.808   3.532  13.082 -0.2155  1.3077 -0.0333
 7024SOL     OW32533   0.823   4.467   5.013 -0.0848  0.4537 -0.4248
 7024SOL    HW132534   0.808   4.393   5.072  0.2785  1.0430  0.4111
 7024SOL    HW232535   0.779   4.539   5.058 -0.4833  0.8427 -1.4202
 7025SOL     OW32536   2.202   1.809   8.290  0.1769  0.1164  0.4857
 7025SOL    HW132537   2.171   1.856   8.367 -1.9274 -1.6744  0.7243
 7025SOL    HW232538   2.153   1.861   8.226 -1.5081 -0.6560  1.1648
 7026SOL     OW32539   0.591   2.479   3.002  0.5761  0.6912  0.2598
 7026SOL    HW132540   0.611   2.463   3.094 -1.5586  1.1512  0.8081
 7026SOL    HW232541   0.669   2.439   2.964  0.4533  1.3544 -0.7081
 7027SOL     OW32542   1.678   3.397   9.983  0.5410  0.3290  0.7559
 7027SOL    HW132543   1.683   3.421  10.075 -0.3695  2.9533  0.1235
 7027SOL    HW232544   1.629   3.467   9.939  0.2772 -0.2053  0.1945
 7028SOL     OW32545   2.864   0.352   1.868  0.4250  0.0988 -0.3638
 7028SOL    HW132546   2.855   0.401   1.949 -1.2420  0.2039 -0.6134
 7028SOL    HW232547   2.844   0.425   1.810 -0.0757 -1.2723 -1.9357
 7029SOL     OW32548   1.681   3.555   5.406 -0.1149  0.8750  0.8271
 7029SOL    HW132549   1.740   3.480   5.403 -0.5764  0.4636  1.9300
 7029SOL    HW232550   1.734   3.611   5.462  0.6832  0.0933  0.8453
 7030SOL     OW32551   1.682   2.209   7.084  0.0680 -0.1774 -0.2769
 7030SOL    HW132552   1.664   2.203   6.990 -0.5099 -0.3990 -0.1524
 7030SOL    HW232553   1.740   2.285   7.090  0.7030 -0.5156 -2.1910
 7031SOL     OW32554   1.266   2.207   0.699 -0.8562  0.4346 -0.4137
 7031SOL    HW132555   1.270   2.116   0.730  0.4893  0.2095 -1.2311
 7031SOL    HW232556   1.337   2.202   0.635  0.5607  2.6587  0.9847
 7032SOL     OW32557   1.457   1.516   1.752 -0.1052  0.2313  0.5982
 7032SOL    HW132558   1.382   1.576   1.748  0.6339  1.0044 -1.7939
 7032SOL    HW232559   1.529   1.557   1.703 -0.1445 -0.2727  0.1141
 7033SOL     OW32560   0.102   1.533  17.297  0.0884 -0.0836  0.5108
 7033SOL    HW132561   0.180   1.549  17.245 -0.2232  3.5697  1.1635
 7033SOL    HW232562   0.112   1.438  17.288  3.1412  0.3375 -0.5253
 7034SOL     OW32563   0.228   2.542   8.323  0.0583  0.1871 -0.0583
 7034SOL    HW132564   0.238   2.495   8.405  0.4003  1.2182  0.5023
 7034SOL    HW232565   0.323   2.546   8.307  0.4830 -1.9438  1.9786
 7035SOL     OW32566   3.651   2.323   6.831 -0.3595 -0.4876 -0.1326
 7035SOL    HW132567   3.619   2.412   6.816  0.2566 -0.2099  0.1916
 7035SOL    HW232568   3.738   2.345   6.865  1.1219 -0.6549 -3.8240
 7036SOL     OW32569   0.947   3.550   8.141 -0.4569 -0.0255  0.8589
 7036SOL    HW132570   0.952   3.602   8.220  3.7599  1.2680 -0.2128
 7036SOL    HW232571   0.962   3.459   8.168  0.1894 -0.7399 -1.8201
 7037SOL     OW32572   3.048   0.352   6.643  0.0963  0.3826 -0.0590
 7037SOL    HW132573   3.043   0.273   6.697  0.2905 -1.0527 -2.1288
 7037SOL    HW232574   3.082   0.315   6.561 -0.2597  2.4049 -1.1003
 7038SOL     OW32575   2.612   1.903   8.798 -0.1250 -0.9023  0.1721
 7038SOL    HW132576   2.676   1.975   8.793 -0.9087 -0.1986  0.2975
 7038SOL    HW232577   2.526   1.944   8.807  0.8892  1.1754  0.3610
 7039SOL     OW32578   1.907   0.736   5.414  0.1612 -0.2061 -0.0952
 7039SOL    HW132579   1.991   0.721   5.456 -0.7337 -0.8532  1.4553
 7039SOL    HW232580   1.848   0.672   5.454 -0.8699  0.8111  0.0229
 7040SOL     OW32581   4.669   1.981  13.478 -0.4392 -1.2218  0.4336
 7040SOL    HW132582   4.598   1.948  13.534 -1.3959 -1.4357 -0.9021
 7040SOL    HW232583   0.018   1.923  13.501 -0.5316 -1.6374 -0.3302
 7041SOL     OW32584   4.611   3.301   3.120  0.1852  0.4263  0.2002
 7041SOL    HW132585   4.531   3.346   3.146 -0.7018  1.0948 -3.6052
 7041SOL    HW232586   4.673   3.328   3.188 -0.7602 -0.4680  1.4151
 7042SOL     OW32587   3.732   3.459   8.114  0.4653 -0.4426  0.0881
 7042SOL    HW132588   3.683   3.532   8.077  1.3766 -0.1307 -0.4972
 7042SOL    HW232589   3.788   3.511   8.172 -0.5983  0.4901  0.2789
 7043SOL     OW32590   3.995   3.696   2.096 -0.1639 -0.5440  0.3054
 7043SOL    HW132591   4.020   3.656   2.013 -1.1695  0.3671 -0.4426
 7043SOL    HW232592   4.066   3.656   2.145  0.7541 -0.0569 -0.6373
 7044SOL     OW32593   2.879   1.589   2.847  0.1968  0.5935 -0.0509
 7044SOL    HW132594   2.914   1.658   2.904  1.9216 -1.0240  0.8708
 7044SOL    HW232595   2.941   1.517   2.861  0.8952  1.1209 -0.4633
 7045SOL     OW32596   3.751   2.688  16.527 -0.1802 -0.1363  0.4049
 7045SOL    HW132597   3.795   2.655  16.605 -0.8108  0.5677  1.0631
 7045SOL    HW232598   3.688   2.745  16.571 -0.9897  0.0178 -0.9583
 7046SOL     OW32599   2.885   3.054   3.276 -0.0021 -0.2120  0.4847
 7046SOL    HW132600   2.938   3.002   3.216 -1.7857 -1.0679 -0.3426
 7046SOL    HW232601   2.831   3.092   3.208 -1.3536  0.0395  1.7135
 7047SOL     OW32602   0.844   2.428   4.350 -0.1573 -0.2615  0.5190
 7047SOL    HW132603   0.931   2.413   4.312 -0.5340 -0.4396 -0.2598
 7047SOL    HW232604   0.832   2.341   4.388  0.3776 -0.7775 -0.4996
 7048SOL     OW32605   1.327   3.450   8.641  0.5580  0.9567 -0.5836
 7048SOL    HW132606   1.294   3.420   8.726  0.0519 -1.5877 -1.6928
 7048SOL    HW232607   1.399   3.388   8.624  0.9387  0.7211  1.9140
 7049SOL     OW32608   1.673   0.048   9.777  0.2951  0.1350 -0.1339
 7049SOL    HW132609   1.767   0.037   9.760  0.5369  1.0015  0.6448
 7049SOL    HW232610   1.678   0.115   9.845  1.4340  1.0783 -1.1267
 7050SOL     OW32611   3.554   4.050   6.115  1.2422  0.1545  0.1591
 7050SOL    HW132612   3.587   4.055   6.205 -1.7704  1.6406  1.2023
 7050SOL    HW232613   3.489   3.980   6.117  0.1263  1.1105 -2.5475
 7051SOL     OW32614   1.362   4.575   8.656 -0.0980  0.0043  0.1032
 7051SOL    HW132615   1.383   4.486   8.627  1.3146  1.2234 -2.6681
 7051SOL    HW232616   1.297   4.593   8.588  1.3643 -1.4694 -1.6872
 7052SOL     OW32617   2.516   4.265  16.930  0.0466  0.4905  0.2315
 7052SOL    HW132618   2.442   4.326  16.925 -0.5050  0.1719  3.9014
 7052SOL    HW232619   2.531   4.265  17.025  1.6922  0.4523 -0.0271
 7053SOL     OW32620   4.310   0.220  10.056 -0.2531  0.1739 -0.0805
 7053SOL    HW132621   4.348   0.261  10.133  0.4107 -0.2443 -0.1948
 7053SOL    HW232622   4.382   0.244   9.998  1.3555 -2.7179  0.7318
 7054SOL     OW32623   3.099   3.285   3.094  0.5509 -0.2801 -0.4231
 7054SOL    HW132624   3.042   3.311   3.167 -0.3932 -3.1725 -0.1427
 7054SOL    HW232625   3.123   3.195   3.114 -1.4282 -0.7182  0.0069
 7055SOL     OW32626   1.399   4.040   1.233 -0.0538  0.0418  0.1204
 7055SOL    HW132627   1.345   4.076   1.303 -1.2467 -1.1144 -0.2095
 7055SOL    HW232628   1.340   4.019   1.160 -0.4823 -1.8660  1.0325
 7056SOL     OW32629   3.861   3.638   8.308 -0.0706  0.2379  0.2604
 7056SOL    HW132630   3.842   3.627   8.402 -1.9316 -2.3326 -0.4185
 7056SOL    HW232631   3.780   3.684   8.288  0.5677  0.7828 -1.0465
 7057SOL     OW32632   2.123   1.274   6.909 -0.1479  0.1324  0.5603
 7057SOL    HW132633   2.114   1.286   7.004 -0.2491 -1.2324  0.7224
 7057SOL    HW232634   2.162   1.360   6.895  1.5998 -0.2773  2.8860
 7058SOL     OW32635   3.373   3.054   9.400  0.0949  0.1189 -0.4388
 7058SOL    HW132636   3.358   3.089   9.488  0.6470  0.4150 -0.4636
 7058SOL    HW232637   3.454   3.098   9.375  0.5501 -1.6269 -2.0177
 7059SOL     OW32638   0.170   2.754   9.913 -0.2968  0.6685  0.2295
 7059SOL    HW132639   0.263   2.731   9.911 -1.3528 -3.6528  2.2200
 7059SOL    HW232640   0.143   2.693   9.981  0.2032  0.1247 -0.0573
 7060SOL     OW32641   0.537   4.176   0.266 -0.1439  0.1968 -0.1185
 7060SOL    HW132642   0.571   4.262   0.239 -1.6863  0.6172 -0.6770
 7060SOL    HW232643   0.616   4.148   0.314 -1.0839 -1.0160  0.7000
 7061SOL     OW32644   1.100   2.849   2.135  0.4167  0.4205 -0.0812
 7061SOL    HW132645   1.098   2.827   2.228 -0.1755 -1.2974 -0.5031
 7061SOL    HW232646   1.062   2.937   2.130  0.6188  0.6542  2.6014
 7062SOL     OW32647   1.015   4.716   5.489  0.4638 -0.4254  0.3493
 7062SOL    HW132648   1.041   4.718   5.581  2.6075 -1.7909 -0.2322
 7062SOL    HW232649   0.924   0.020   5.498  0.7556 -0.1142  2.3046
 7063SOL     OW32650   2.292   2.974  12.311  0.5874  0.1853 -1.0419
 7063SOL    HW132651   2.350   2.970  12.388 -2.8899 -0.0894  1.5767
 7063SOL    HW232652   2.338   3.051  12.279  0.1967  1.4281  1.4144
 7064SOL     OW32653   0.583   3.540   9.724 -0.1955  0.2706 -0.4901
 7064SOL    HW132654   0.543   3.455   9.706  0.8388  0.2386 -2.6478
 7064SOL    HW232655   0.667   3.522   9.683 -0.0406 -0.1367  0.0159
 7065SOL     OW32656   3.084   1.950  12.894 -0.3553 -0.0329 -0.1366
 7065SOL    HW132657   3.139   2.022  12.864 -0.3394  0.4429  1.0678
 7065SOL    HW232658   3.017   1.947  12.826 -1.1865  2.1868  0.6127
 7066SOL     OW32659   4.111   3.898   8.771 -0.3705  0.1537 -0.4671
 7066SOL    HW132660   4.089   3.850   8.691 -1.7698  1.5610 -0.9196
 7066SOL    HW232661   4.029   3.899   8.820 -0.4786 -0.4480 -0.6375
 7067SOL     OW32662   2.074   3.144   5.618 -0.7515 -0.0376  0.0875
 7067SOL    HW132663   2.021   3.223   5.602 -0.9449 -0.4720 -1.4163
 7067SOL    HW232664   2.129   3.144   5.539 -0.3403  0.2093  0.3714
 7068SOL     OW32665   3.050   1.948   5.088 -0.7117  0.2394  0.0867
 7068SOL    HW132666   2.959   1.945   5.116 -0.9689 -1.4456 -0.9898
 7068SOL    HW232667   3.096   1.961   5.172 -0.2385 -0.1624 -0.1109
 7069SOL     OW32668   2.673   4.504  11.280  0.3122  0.5504 -0.3251
 7069SOL    HW132669   2.653   4.479  11.370  0.6987  3.9000  0.6928
 7069SOL    HW232670   2.767   4.495  11.267  0.5016  0.3040  1.2644
 7070SOL     OW32671   4.587   1.896   3.753  0.0625 -0.5956  0.0551
 7070SOL    HW132672   4.575   1.846   3.834  1.4678  0.8772  1.1761
 7070SOL    HW232673   4.529   1.851   3.692 -0.1561 -1.6497  1.0247
 7071SOL     OW32674   3.922   4.081   5.191  0.1603 -0.4630 -0.1837
 7071SOL    HW132675   4.005   4.104   5.149 -0.6440  1.1024 -0.9360
 7071SOL    HW232676   3.896   4.001   5.146  2.0031 -0.8176 -0.5885
 7072SOL     OW32677   2.118   4.250  13.676  0.2375 -0.0525 -0.0764
 7072SOL    HW132678   2.212   4.245  13.694  0.4815  2.5265 -0.6467
 7072SOL    HW232679   2.100   4.157  13.659 -0.8266 -0.1194  1.4635
 7073SOL     OW32680   3.436   4.702   5.542  0.0762  0.3393  0.4676
 7073SOL    HW132681   3.517   0.013   5.506  0.6694 -0.7034  0.8016
 7073SOL    HW232682   3.465   4.621   5.585  3.1613  0.4634 -1.3891
 7074SOL     OW32683   4.628   1.208   3.774  0.1046 -0.1748 -0.1000
 7074SOL    HW132684   4.634   1.207   3.679  0.8097 -0.4188 -0.0566
 7074SOL    HW232685   4.702   1.266   3.796  0.5967 -0.6953 -0.3929
 7075SOL     OW32686   2.307   1.236  16.331  0.3245 -0.3851  0.8085
 7075SOL    HW132687   2.392   1.234  16.376  0.4535 -2.0711  0.4864
 7075SOL    HW232688   2.287   1.330  16.326 -0.1286 -0.4287  1.7411
 7076SOL     OW32689   2.689   3.811   5.072  0.6387  0.3614  0.1052
 7076SOL    HW132690   2.782   3.837   5.074  0.4275  0.9833  1.7302
 7076SOL    HW232691   2.663   3.832   4.982 -1.3078  1.7698  1.0018
 7077SOL     OW32692   1.749   0.676  13.401  0.0508  0.1037 -0.8175
 7077SOL    HW132693   1.827   0.620  13.403 -0.5541 -0.7376 -0.6687
 7077SOL    HW232694   1.773   0.766  13.422 -0.4678 -0.3651  1.7609
 7078SOL     OW32695   4.405   0.427   4.126 -0.0202  0.1226  0.3281
 7078SOL    HW132696   4.335   0.361   4.122 -0.4277  0.6743 -1.3290
 7078SOL    HW232697   4.463   0.377   4.184  1.3296 -0.2529 -1.3385
 7079SOL     OW32698   3.205   0.122   9.260  0.3368 -0.5894 -0.4808
 7079SOL    HW132699   3.183   0.181   9.332  0.5469  1.4413 -2.0783
 7079SOL    HW232700   3.260   0.179   9.206 -2.3792  1.0753 -1.5120
 7080SOL     OW32701   4.002   2.872  16.723 -0.4660  0.2938 -0.0331
 7080SOL    HW132702   4.088   2.910  16.709 -1.7478  2.8825 -0.8709
 7080SOL    HW232703   4.007   2.792  16.671 -1.0075 -1.5743  2.7700
 7081SOL     OW32704   2.390   3.746   9.227 -0.1333 -0.4050 -0.0757
 7081SOL    HW132705   2.421   3.783   9.310 -1.7973 -1.5995  1.0716
 7081SOL    HW232706   2.432   3.660   9.231  0.0424 -0.3462 -0.6042
 7082SOL     OW32707   2.006   4.309   5.722 -0.2274  1.0763  0.2853
 7082SOL    HW132708   1.969   4.302   5.810 -0.8385 -1.7996 -0.1830
 7082SOL    HW232709   1.975   4.391   5.686  1.4530  1.1178 -1.0625
 7083SOL     OW32710   4.164   3.806   1.054 -0.2540  0.3580 -0.3801
 7083SOL    HW132711   4.248   3.800   1.008  0.1210 -0.3435  0.4049
 7083SOL    HW232712   4.101   3.817   0.983 -1.0450  1.3728  0.4788
 7084SOL     OW32713   3.916   1.520   2.887 -0.7773  0.3700  0.2494
 7084SOL    HW132714   3.861   1.552   2.958  0.3872 -0.8443  1.6946
 7084SOL    HW232715   3.852   1.472   2.834  2.1988 -1.7203 -1.4591
 7085SOL     OW32716   0.450   0.500   5.931  0.0339 -0.1634  0.4068
 7085SOL    HW132717   0.461   0.568   5.864  2.0236 -0.3462  0.5387
 7085SOL    HW232718   0.528   0.446   5.919  0.1955  0.3582 -0.9050
 7086SOL     OW32719   3.953   2.813   2.623  0.0460  0.5297 -0.0022
 7086SOL    HW132720   3.862   2.797   2.647  0.3114  1.4385  1.6347
 7086SOL    HW232721   3.934   2.850   2.537 -1.8085  0.8794  0.5648
 7087SOL     OW32722   1.433   2.126   4.119 -0.3547  0.0738  0.0822
 7087SOL    HW132723   1.355   2.088   4.077 -0.3202 -0.1289  0.1992
 7087SOL    HW232724   1.492   2.129   4.044 -0.8634  0.7361 -0.2858
 7088SOL     OW32725   1.336   3.064   3.629  0.6817  0.3315  0.0381
 7088SOL    HW132726   1.316   2.993   3.692  1.5353 -0.5157 -0.6510
 7088SOL    HW232727   1.286   3.140   3.658 -0.3216 -0.3183  0.0123
 7089SOL     OW32728   3.420   3.997   8.930  0.2614  0.0212  0.6532
 7089SOL    HW132729   3.392   3.952   9.009 -0.7120 -1.9855 -0.8487
 7089SOL    HW232730   3.512   3.971   8.934  0.2815  0.2156  1.3923
 7090SOL     OW32731   2.303   1.455   5.076  0.2857 -0.4914  0.1799
 7090SOL    HW132732   2.382   1.489   5.033 -0.0742 -1.2985 -1.1354
 7090SOL    HW232733   2.284   1.530   5.133 -0.5937  0.0078 -0.7598
 7091SOL     OW32734   4.289   1.148   8.215 -0.1498  0.4362 -0.8197
 7091SOL    HW132735   4.364   1.097   8.185 -0.7577 -1.0807  0.2344
 7091SOL    HW232736   4.259   1.190   8.134 -0.4857  1.0945 -0.3539
 7092SOL     OW32737   3.591   2.361   2.343 -0.6930  0.0597 -0.0739
 7092SOL    HW132738   3.522   2.398   2.288 -1.3207 -0.1002  0.6008
 7092SOL    HW232739   3.633   2.443   2.369  0.2347 -0.7464  0.9544
 7093SOL     OW32740   4.160   1.234   4.555  0.1705 -0.1213 -0.0686
 7093SOL    HW132741   4.136   1.174   4.626 -0.1117 -0.9994 -0.9092
 7093SOL    HW232742   4.180   1.172   4.485  0.6242  0.2750 -0.2859
 7094SOL     OW32743   4.584   0.708   4.238  0.3820  0.3028 -0.1273
 7094SOL    HW132744   4.611   0.746   4.155  0.1822 -0.0070 -0.3338
 7094SOL    HW232745   4.619   0.619   4.224 -1.6733 -0.4207 -0.6455
 7095SOL     OW32746   2.916   4.179   6.925  0.0985  0.4135  0.4620
 7095SOL    HW132747   2.942   4.246   6.988  1.0214  1.9525 -1.5309
 7095SOL    HW232748   2.839   4.225   6.891  0.9507  3.4682  2.6941
 7096SOL     OW32749   1.098   4.034   7.185  0.6216 -0.3040 -0.4081
 7096SOL    HW132750   1.147   4.115   7.199 -1.3289  0.9270 -0.7630
 7096SOL    HW232751   1.153   3.965   7.223  0.1541 -0.8737 -0.7685
 7097SOL     OW32752   1.729   2.405   4.163 -0.5294 -0.2534 -0.2099
 7097SOL    HW132753   1.643   2.433   4.130  0.0469  1.4948 -0.2408
 7097SOL    HW232754   1.730   2.452   4.247 -1.0024 -2.5276  1.0648
 7098SOL     OW32755   2.611   2.201  12.321  0.0693  0.0413 -0.1347
 7098SOL    HW132756   2.637   2.286  12.356  1.2370 -0.8347  1.1090
 7098SOL    HW232757   2.692   2.162  12.288 -0.0671  0.2210 -0.6724
 7099SOL     OW32758   2.948   2.154  11.649  0.0668  0.0694 -0.1371
 7099SOL    HW132759   2.969   2.127  11.738 -1.1270  0.2139  0.1795
 7099SOL    HW232760   2.853   2.144  11.651  0.2326 -1.2389  1.7240
 7100SOL     OW32761   2.967   2.701   8.052  0.3467  0.0788 -0.3499
 7100SOL    HW132762   3.044   2.758   8.057 -0.2390  0.9243 -0.8176
 7100SOL    HW232763   2.964   2.657   8.137  1.5732 -0.1431 -0.4263
 7101SOL     OW32764   1.873   2.631   0.150 -0.2952 -0.1121  0.2054
 7101SOL    HW132765   1.828   2.581   0.081 -3.6888 -0.9050  2.9624
 7101SOL    HW232766   1.961   2.593   0.149 -0.9386 -1.5944 -0.4232
 7102SOL     OW32767   3.372   1.219   5.812  0.1890  0.1284  0.2419
 7102SOL    HW132768   3.286   1.250   5.840 -0.3976 -1.3868  0.0903
 7102SOL    HW232769   3.350   1.127   5.799 -1.6754  1.3077 -5.2119
 7103SOL     OW32770   3.971   3.789   9.136 -1.0016  0.2746  0.3355
 7103SOL    HW132771   3.917   3.723   9.179  1.8033 -1.5984  0.9617
 7103SOL    HW232772   3.953   3.868   9.187 -0.7995  1.6119 -1.6550
 7104SOL     OW32773   3.825   1.427  11.162 -0.1474 -0.3576  0.8305
 7104SOL    HW132774   3.779   1.352  11.200  1.2324 -1.8452 -0.4331
 7104SOL    HW232775   3.912   1.388  11.162 -0.3554 -0.8252  0.4560
 7105SOL     OW32776   1.044   1.945   4.467 -0.0004 -0.0766 -0.1665
 7105SOL    HW132777   1.087   1.909   4.544 -0.5171 -1.1680 -0.3861
 7105SOL    HW232778   0.949   1.938   4.481  0.1913 -2.5364 -0.1008
 7106SOL     OW32779   3.858   3.275   7.378  0.3808  0.1112  0.0682
 7106SOL    HW132780   3.935   3.332   7.376  1.4773 -1.3676  0.1019
 7106SOL    HW232781   3.885   3.211   7.444  4.2049  1.7258  0.0852
 7107SOL     OW32782   2.901   1.513  17.094 -0.8103 -0.0049  0.0083
 7107SOL    HW132783   2.953   1.577  17.046 -1.7927  0.6400 -0.2077
 7107SOL    HW232784   2.958   1.486  17.166  1.7932  1.5998 -1.4342
 7108SOL     OW32785   2.136   0.655   5.524 -0.5271  0.4762  0.5365
 7108SOL    HW132786   2.107   0.565   5.542  1.0600 -0.1648 -0.0641
 7108SOL    HW232787   2.182   0.672   5.606  0.0720  1.0828  0.0747
 7109SOL     OW32788   0.051   2.738  17.039 -0.5402  0.5341  0.2253
 7109SOL    HW132789   0.146   2.730  17.042 -0.5051  1.9497  2.2237
 7109SOL    HW232790   0.029   2.755  16.947  1.7518  3.0502  0.1566
 7110SOL     OW32791   0.490   1.918   5.526  0.6272 -0.2980 -0.6171
 7110SOL    HW132792   0.538   1.952   5.450  0.7157 -0.7107 -0.7417
 7110SOL    HW232793   0.558   1.952   5.585  1.4188  0.0691 -1.7501
 7111SOL     OW32794   4.244   3.243   6.350 -0.2960  0.2691 -0.5346
 7111SOL    HW132795   4.181   3.276   6.414 -1.1245 -0.7913 -0.8071
 7111SOL    HW232796   4.209   3.154   6.359 -0.5446  0.5192  0.9100
 7112SOL     OW32797   3.985   1.069   9.550  0.8311  0.3322 -0.0038
 7112SOL    HW132798   3.898   1.037   9.527  0.2716  1.5705  0.4053
 7112SOL    HW232799   4.034   0.989   9.529  1.5904  0.5219  1.0754
 7113SOL     OW32800   1.049   1.722   2.798 -0.8558  0.1139 -0.5173
 7113SOL    HW132801   1.067   1.815   2.782  2.0321 -0.4089 -0.3337
 7113SOL    HW232802   0.967   1.718   2.848 -0.2561 -0.7710  0.3915
 7114SOL     OW32803   3.441   3.938   7.254  0.5100  0.5117 -0.0953
 7114SOL    HW132804   3.360   3.893   7.230  0.6883 -0.0169  0.3129
 7114SOL    HW232805   3.493   3.859   7.268 -0.5208  0.0598  1.2117
 7115SOL     OW32806   1.572   3.196   5.664 -0.1377  0.3261  0.2465
 7115SOL    HW132807   1.581   3.141   5.742 -0.1797 -0.5250 -0.3530
 7115SOL    HW232808   1.607   3.272   5.711  0.1349  1.3007 -1.5179
 7116SOL     OW32809   1.141   4.048  12.959  0.4218  0.1945  0.2004
 7116SOL    HW132810   1.086   4.126  12.954  0.9340  0.6093  0.8894
 7116SOL    HW232811   1.176   4.065  13.047  0.7413 -1.1202  0.3212
 7117SOL     OW32812   2.696   4.046   4.734 -0.2543  0.2731  0.7349
 7117SOL    HW132813   2.608   4.084   4.740  0.2547  1.7676 -1.1737
 7117SOL    HW232814   2.720   4.059   4.642 -1.9006 -1.1629  0.0940
 7118SOL     OW32815   1.310   1.474   8.188 -0.0007  0.6425  0.1606
 7118SOL    HW132816   1.387   1.531   8.191 -1.1093  2.1850 -1.0748
 7118SOL    HW232817   1.344   1.401   8.241  0.1584  1.0412  0.6116
 7119SOL     OW32818   3.797   4.315   6.416  0.1140  0.1215 -0.4908
 7119SOL    HW132819   3.750   4.398   6.424 -0.3813 -0.1288 -0.8038
 7119SOL    HW232820   3.727   4.250   6.405  2.4276 -1.6794 -4.3812
 7120SOL     OW32821   3.472   1.902   5.186  0.3398 -0.6573  0.2530
 7120SOL    HW132822   3.556   1.885   5.227 -0.2525 -1.6538  1.0549
 7120SOL    HW232823   3.519   1.960   5.126 -0.2174 -0.9375 -0.4570
 7121SOL     OW32824   2.332   0.576  10.896 -0.5358 -0.3785  0.1987
 7121SOL    HW132825   2.240   0.567  10.872 -0.3271 -0.2861 -0.6245
 7121SOL    HW232826   2.367   0.553  10.810 -0.0818  0.7966  0.0561
 7122SOL     OW32827   3.703   3.767   6.387 -0.6825 -0.0569  0.6904
 7122SOL    HW132828   3.798   3.759   6.394 -0.8437 -0.6626  2.3411
 7122SOL    HW232829   3.704   3.808   6.301  0.1120  0.0276  0.7411
 7123SOL     OW32830   4.313   1.322  11.070  0.0888 -0.0890  0.0503
 7123SOL    HW132831   4.373   1.395  11.087  0.0930 -0.2796  0.8416
 7123SOL    HW232832   4.290   1.294  11.159 -2.6039  1.5898 -0.1342
 7124SOL     OW32833   1.416   1.941  16.279  0.0627  0.6661  0.1465
 7124SOL    HW132834   1.507   1.913  16.286  0.5295  1.6140 -2.1073
 7124SOL    HW232835   1.385   1.956  16.368  0.1252  1.4518  0.0395
 7125SOL     OW32836   2.428   1.779   8.080 -0.6592 -0.0550  0.6974
 7125SOL    HW132837   2.454   1.864   8.045 -1.2252  0.1029  0.6625
 7125SOL    HW232838   2.496   1.773   8.147 -1.0884  0.6484  1.1931
 7126SOL     OW32839   0.026   2.073   5.153  0.0203 -0.0560 -0.2279
 7126SOL    HW132840   4.668   2.121   5.140 -0.1145 -0.3356 -0.4108
 7126SOL    HW232841   0.050   2.054   5.062  0.7097  1.6568 -0.3892
 7127SOL     OW32842   1.630   4.165   1.897  0.3069  0.3428  0.1421
 7127SOL    HW132843   1.671   4.239   1.853  1.1159  0.6040  1.3386
 7127SOL    HW232844   1.634   4.196   1.987  1.8148 -0.4016  0.3277
 7128SOL     OW32845   2.209   1.766   5.677 -0.2152  0.1290 -0.8807
 7128SOL    HW132846   2.169   1.825   5.613 -1.9207  1.0307  0.9822
 7128SOL    HW232847   2.187   1.686   5.631  2.0790 -1.3916  0.6348
 7129SOL     OW32848   0.537   3.018   4.837  0.4104  0.5181 -0.3068
 7129SOL    HW132849   0.515   2.949   4.900 -0.6311  1.7299  0.6757
 7129SOL    HW232850   0.584   2.962   4.776  0.3616 -0.3552  0.4653
 7130SOL     OW32851   0.215   1.991   5.576 -0.3375  0.6690 -0.2109
 7130SOL    HW132852   0.186   2.021   5.490  0.0317  0.1724 -0.5097
 7130SOL    HW232853   0.301   1.954   5.554 -1.1910 -1.9692  0.9209
 7131SOL     OW32854   2.885   1.671   3.453 -0.0017 -0.4104 -0.0186
 7131SOL    HW132855   2.966   1.699   3.412 -0.7147 -0.7303 -1.6356
 7131SOL    HW232856   2.923   1.649   3.538 -1.1715 -0.8681  0.3967
 7132SOL     OW32857   4.008   3.901   6.710  0.1016  0.3552  0.2934
 7132SOL    HW132858   3.957   3.970   6.669  2.0578  0.0889 -2.5671
 7132SOL    HW232859   4.089   3.951   6.710  0.2329  0.1443  0.0629
 7133SOL     OW32860   3.174   0.347   3.387  0.8502  0.1393 -0.4781
 7133SOL    HW132861   3.152   0.362   3.479  2.6219  2.1743 -0.3869
 7133SOL    HW232862   3.138   0.428   3.350  2.0168  0.2457 -1.3557
 7134SOL     OW32863   0.032   3.408  11.688  0.2881 -0.2034 -0.4720
 7134SOL    HW132864   4.716   3.340  11.633  0.4786  1.2993 -2.4817
 7134SOL    HW232865   0.090   3.358  11.745 -0.3839 -2.4303 -1.7625
 7135SOL     OW32866   0.295   3.658   7.327  0.0790 -0.4374  0.1694
 7135SOL    HW132867   0.364   3.615   7.377  0.1817  0.0048  0.4097
 7135SOL    HW232868   0.300   3.752   7.349  0.0735  0.0852 -2.0375
 7136SOL     OW32869   0.706   3.397   0.151  0.1132  0.0228  0.5872
 7136SOL    HW132870   0.634   3.459   0.165 -0.5205 -0.6541  0.3272
 7136SOL    HW232871   0.701   3.360   0.239 -1.5199  0.0662  0.5238
 7137SOL     OW32872   3.951   2.864  15.581 -0.2024 -0.3833 -0.0162
 7137SOL    HW132873   4.042   2.888  15.597 -0.4079  1.4940 -1.6141
 7137SOL    HW232874   3.933   2.882  15.489 -0.8152  1.1429  0.4044
 7138SOL     OW32875   3.496   2.777   8.245 -0.5940 -0.1115  0.1215
 7138SOL    HW132876   3.519   2.708   8.182  1.4212 -0.5693  1.3769
 7138SOL    HW232877   3.533   2.855   8.204 -0.3135  0.2511  1.0679
 7139SOL     OW32878   3.878   0.962  16.248 -0.4222  0.2413 -0.7113
 7139SOL    HW132879   3.898   0.984  16.158  2.2021  0.3293 -0.0897
 7139SOL    HW232880   3.853   0.870  16.238 -1.5507  0.6058 -1.2312
 7140SOL     OW32881   0.904   2.023   3.534 -0.2584 -0.0032  0.1617
 7140SOL    HW132882   0.830   2.067   3.576  0.2473  2.2559 -1.2939
 7140SOL    HW232883   0.860   1.961   3.475 -0.3527 -1.5444  1.8542
 7141SOL     OW32884   2.181   3.665  12.466  0.3145  0.4961  0.3663
 7141SOL    HW132885   2.210   3.577  12.444 -1.4368 -0.2018  0.8831
 7141SOL    HW232886   2.086   3.652  12.458  0.1578  0.7567  1.7980
 7142SOL     OW32887   0.974   2.178   6.016  0.7065  0.0005  0.4678
 7142SOL    HW132888   0.928   2.247   6.064 -1.2544 -2.0862  1.5289
 7142SOL    HW232889   1.017   2.140   6.092  0.5132 -1.9417 -0.3912
 7143SOL     OW32890   3.597   0.677   0.412 -0.4940  0.4265  0.2505
 7143SOL    HW132891   3.558   0.632   0.486  0.0212 -2.4219 -1.2400
 7143SOL    HW232892   3.613   0.611   0.345  0.6243  1.8861 -0.9395
 7144SOL     OW32893   0.250   3.427  15.116  0.0956  0.2064  0.4367
 7144SOL    HW132894   0.240   3.491  15.187  1.4152  1.7667 -0.7659
 7144SOL    HW232895   0.243   3.495  15.049 -1.1069  0.1480  0.4940
 7145SOL     OW32896   4.042   4.151   5.755 -0.3290  0.3136 -0.0634
 7145SOL    HW132897   4.054   4.077   5.695  1.0787  1.8354 -1.6467
 7145SOL    HW232898   4.003   4.112   5.834 -0.1406 -1.1396 -0.6815
 7146SOL     OW32899   1.951   4.241  10.425  0.1257 -0.0938 -0.0432
 7146SOL    HW132900   1.975   4.332  10.442  2.2401 -0.8742  1.2083
 7146SOL    HW232901   1.865   4.247  10.382  0.7039  0.4668 -1.1313
 7147SOL     OW32902   2.184   2.425   5.028 -0.0119 -0.4378 -0.1261
 7147SOL    HW132903   2.154   2.371   4.955 -0.3505  0.0164 -0.3274
 7147SOL    HW232904   2.112   2.419   5.091 -0.6814  0.7219 -0.7705
 7148SOL     OW32905   2.119   4.324   1.133  0.2320  0.0239 -0.1570
 7148SOL    HW132906   2.098   4.383   1.060  1.3388 -0.8459 -1.1830
 7148SOL    HW232907   2.064   4.248   1.118  0.4913 -0.1687 -0.1229
 7149SOL     OW32908   0.522   2.421  12.329 -0.3239 -0.2942  0.1348
 7149SOL    HW132909   0.447   2.386  12.282 -0.5972  0.8159 -0.2581
 7149SOL    HW232910   0.556   2.484  12.265 -0.9364 -2.2846 -2.1133
 7150SOL     OW32911   2.019   1.673   1.840  0.0931 -0.4657 -0.3476
 7150SOL    HW132912   2.082   1.674   1.913  1.0699 -1.9533 -1.1634
 7150SOL    HW232913   1.935   1.692   1.881 -1.9704 -0.6889 -4.4992
 7151SOL     OW32914   1.570   2.309  10.974  0.9283  0.1094 -0.2262
 7151SOL    HW132915   1.477   2.312  10.950  0.9674 -0.9498 -0.5251
 7151SOL    HW232916   1.600   2.232  10.925 -0.8525 -2.4286  2.7111
 7152SOL     OW32917   3.240   3.499   3.478 -0.3979 -0.0835 -0.0901
 7152SOL    HW132918   3.301   3.551   3.427  1.5173  0.1378  2.4486
 7152SOL    HW232919   3.284   3.414   3.475 -1.2296 -0.5745  1.2612
 7153SOL     OW32920   2.913   4.603   8.851 -0.6017  0.4459 -0.1939
 7153SOL    HW132921   2.839   4.557   8.892  1.0155 -2.0656 -0.0804
 7153SOL    HW232922   2.878   4.619   8.764  2.2881 -1.1232 -1.6507
 7154SOL     OW32923   4.419   1.879  13.583 -0.8159 -0.2998 -0.2268
 7154SOL    HW132924   4.434   1.800  13.634  1.4719  0.3527  0.1397
 7154SOL    HW232925   4.326   1.895  13.598 -0.9827 -1.7365  0.1761
 7155SOL     OW32926   4.296   4.357   8.502  0.7246 -0.3970 -0.2290
 7155SOL    HW132927   4.217   4.389   8.459  0.3180 -0.9201  0.1262
 7155SOL    HW232928   4.262   4.299   8.569  1.4126  0.4498  0.8505
 7156SOL     OW32929   3.710   2.109   1.522 -0.4102  0.4862  0.2271
 7156SOL    HW132930   3.711   2.061   1.605  1.7066 -0.0716 -0.1110
 7156SOL    HW232931   3.787   2.165   1.534 -0.5121  0.8567 -0.8035
 7157SOL     OW32932   1.662   3.570  11.430  0.1659 -0.1317 -0.5417
 7157SOL    HW132933   1.690   3.603  11.344  0.2717  1.3312  0.0487
 7157SOL    HW232934   1.661   3.645  11.490 -0.2875 -0.8122  0.2938
 7158SOL     OW32935   3.630   0.734  17.181 -0.2346 -0.0351 -0.4647
 7158SOL    HW132936   3.724   0.728  17.167 -0.2501 -2.5645  0.6381
 7158SOL    HW232937   3.599   0.658  17.230 -1.6841  1.5565  1.0607
 7159SOL     OW32938   4.588   2.444   4.296 -0.7301 -0.3813  0.4419
 7159SOL    HW132939   4.653   2.374   4.301  0.2167  0.2415 -3.0127
 7159SOL    HW232940   4.626   2.509   4.236 -2.1739 -0.2854 -0.3564
 7160SOL     OW32941   2.008   4.694   0.775  0.4488  0.1910 -0.1434
 7160SOL    HW132942   1.999   4.621   0.836  1.4472  0.9952  0.9800
 7160SOL    HW232943   1.918   0.003   0.780  0.1974 -0.8200  1.8928
 7161SOL     OW32944   1.945   1.635  15.612  0.2612  0.2672  0.3540
 7161SOL    HW132945   1.994   1.574  15.557  1.6923  2.1614 -0.4705
 7161SOL    HW232946   2.029   1.665  15.647  1.4775 -0.4636 -1.9252
 7162SOL     OW32947   3.028   4.144   6.643 -0.0986  0.1250  0.0643
 7162SOL    HW132948   2.970   4.147   6.719  1.1924 -2.8500  1.1476
 7162SOL    HW232949   3.075   4.227   6.652  0.1701  0.2103 -2.0256
 7163SOL     OW32950   1.193   4.102   1.393 -0.2111  0.9013 -0.4198
 7163SOL    HW132951   1.119   4.134   1.443  1.0625  1.6823  0.9389
 7163SOL    HW232952   1.147   4.051   1.326  0.0664 -1.3091  1.0703
 7164SOL     OW32953   1.993   2.940   5.778 -0.3153  0.1127  0.5797
 7164SOL    HW132954   1.937   2.987   5.840 -0.8081 -1.7539  1.5453
 7164SOL    HW232955   2.006   3.002   5.707 -0.2380  0.7475  1.1517
 7165SOL     OW32956   2.296   3.515   9.660 -0.3022  0.1687  0.5365
 7165SOL    HW132957   2.298   3.502   9.755  0.1990  1.7186  0.7375
 7165SOL    HW232958   2.387   3.492   9.640  0.3023  0.5283  2.8171
 7166SOL     OW32959   0.604   2.668   7.092 -0.1866  0.0467  0.0918
 7166SOL    HW132960   0.648   2.740   7.047 -0.9632 -0.9224 -2.2119
 7166SOL    HW232961   0.560   2.717   7.162  0.0200 -2.4081  1.9283
 7167SOL     OW32962   0.086   4.164   7.322 -0.1400  0.1821  0.4650
 7167SOL    HW132963   0.072   4.203   7.235 -0.1350 -3.6809 -1.2566
 7167SOL    HW232964   0.139   4.087   7.302 -0.3198 -0.1053  1.1113
 7168SOL     OW32965   2.045   3.600   8.767 -0.3435 -0.1631  0.0864
 7168SOL    HW132966   2.049   3.696   8.762 -0.3271 -0.0618  1.8609
 7168SOL    HW232967   2.087   3.571   8.687  0.5892 -0.0933  0.5521
 7169SOL     OW32968   2.580   3.224   5.718 -0.5100  0.1429 -0.0235
 7169SOL    HW132969   2.526   3.296   5.750  0.7578  1.8866 -1.8061
 7169SOL    HW232970   2.531   3.147   5.749 -0.9145  2.1243  4.2659
 7170SOL     OW32971   1.535   2.600   6.829  0.5054  0.5481  0.0040
 7170SOL    HW132972   1.573   2.676   6.872  0.9591 -0.6546  1.7532
 7170SOL    HW232973   1.468   2.580   6.895 -0.9626 -1.4592 -2.1098
 7171SOL     OW32974   1.576   3.998  11.080  0.4302 -0.4137 -0.7379
 7171SOL    HW132975   1.494   4.033  11.114  1.9857  1.6894  0.7986
 7171SOL    HW232976   1.561   3.904  11.094  2.7110 -0.3694  1.9099
 7172SOL     OW32977   1.127   0.046   7.821  0.5973 -0.0387 -0.3535
 7172SOL    HW132978   1.129   4.700   7.887 -3.2202 -0.3921 -0.6127
 7172SOL    HW232979   1.040   0.028   7.784 -0.0015  1.7414  0.2216
 7173SOL     OW32980   2.405   1.253   7.096 -0.3802 -0.2485 -0.1699
 7173SOL    HW132981   2.422   1.205   7.015  3.8537  1.2115 -0.1628
 7173SOL    HW232982   2.477   1.315   7.108 -1.2015  0.5834  0.4892
 7174SOL     OW32983   2.048   1.484   3.344  0.1010 -0.3053  0.3780
 7174SOL    HW132984   2.061   1.442   3.429  0.9736 -0.3116  0.2332
 7174SOL    HW232985   2.122   1.544   3.349 -0.6860  0.7593 -0.8246
 7175SOL     OW32986   2.105   3.560   2.720 -0.4625 -0.7494  0.4692
 7175SOL    HW132987   2.175   3.494   2.715  1.4563  1.3580 -0.3007
 7175SOL    HW232988   2.138   3.635   2.671 -0.0151  1.0294  3.5685
 7176SOL     OW32989   3.068   2.459   7.974  0.2987 -0.7052  0.2464
 7176SOL    HW132990   3.152   2.470   7.931 -0.0758 -0.2111 -0.3731
 7176SOL    HW232991   3.030   2.548   7.976  0.7458 -0.4828 -1.1949
 7177SOL     OW32992   0.419   0.007   7.151  0.2782  0.6977  0.3829
 7177SOL    HW132993   0.346   4.674   7.176  0.9410  0.8167  2.5443
 7177SOL    HW232994   0.400   0.038   7.062  1.7105  2.8293  0.8282
 7178SOL     OW32995   2.377   4.546  10.822  0.3136 -0.4429  0.0596
 7178SOL    HW132996   2.299   4.581  10.864  2.7823  2.2306  2.4170
 7178SOL    HW232997   2.445   4.562  10.888  2.3215  1.8219 -2.5874
 7179SOL     OW32998   0.350   2.646   4.860  0.3651 -0.4212  0.0454
 7179SOL    HW132999   0.365   2.648   4.765 -0.5500 -2.0718 -0.1398
 7179SOL    HW233000   0.372   2.554   4.875 -0.6254 -1.0303 -2.1833
 7180SOL     OW33001   3.208   1.659   0.205 -0.1059  0.2923  0.4770
 7180SOL    HW133002   3.236   1.573   0.175 -0.8991  0.2240 -0.0630
 7180SOL    HW233003   3.227   1.712   0.127  0.8386 -3.6391 -1.9605
 7181SOL     OW33004   2.070   1.198  14.857  0.1706 -0.0364  0.1965
 7181SOL    HW133005   2.091   1.238  14.941 -0.3816  3.2040 -1.2216
 7181SOL    HW233006   2.130   1.123  14.863 -0.6730 -0.6667  0.6257
 7182SOL     OW33007   4.688   3.234   4.916 -0.3553 -0.0594 -0.2659
 7182SOL    HW133008   4.720   3.197   4.998 -1.2193  0.9044  0.5133
 7182SOL    HW233009   0.003   3.176   4.851 -2.4271 -1.5382 -0.1664
 7183SOL     OW33010   1.144   2.373   4.727 -0.3229  0.4639 -0.1683
 7183SOL    HW133011   1.234   2.346   4.748 -1.0395 -0.8350  1.2639
 7183SOL    HW233012   1.133   2.453   4.778  1.8473  1.2986 -1.0117
 7184SOL     OW33013   1.836   4.019   8.041  0.1420  0.7365 -0.2380
 7184SOL    HW133014   1.920   4.059   8.063 -0.3411  2.2303 -1.0809
 7184SOL    HW233015   1.841   3.933   8.081 -0.0829  1.1978  0.7887
 7185SOL     OW33016   2.842   3.969   0.933 -0.2063 -0.1354  0.1782
 7185SOL    HW133017   2.858   3.875   0.945  0.9191 -0.0332 -0.4774
 7185SOL    HW233018   2.931   3.999   0.949 -0.0507 -0.9639  0.8440
 7186SOL     OW33019   0.737   4.070   2.025  0.0511 -0.3283 -0.1443
 7186SOL    HW133020   0.642   4.060   2.036  0.1562 -0.1819  0.9418
 7186SOL    HW233021   0.760   4.135   2.091 -0.7614 -0.9170  0.7374
 7187SOL     OW33022   4.699   3.639   0.693 -0.3465 -0.0942  0.8116
 7187SOL    HW133023   0.045   3.603   0.747  0.8361 -0.4276 -0.9184
 7187SOL    HW233024   0.013   3.635   0.605  2.0678 -0.4961  1.8654
 7188SOL     OW33025   2.809   3.195   6.313  0.1488 -0.2488  0.1998
 7188SOL    HW133026   2.763   3.202   6.397  1.4075  2.5655  0.6703
 7188SOL    HW233027   2.799   3.100   6.305 -2.8114 -0.0868  2.0261
 7189SOL     OW33028   3.542   0.989  17.070 -0.3806 -0.1401 -0.2195
 7189SOL    HW133029   3.561   0.905  17.112 -3.6791 -0.4442  0.6606
 7189SOL    HW233030   3.448   0.971  17.065 -1.0234  2.9842  0.8624
 7190SOL     OW33031   2.220   1.629   5.432 -0.4592 -0.7698 -0.4058
 7190SOL    HW133032   2.181   1.689   5.369 -0.5311 -0.8681 -0.4550
 7190SOL    HW233033   2.307   1.614   5.395  0.3803  0.8472  0.9240
 7191SOL     OW33034   3.526   0.858   6.672  0.4553 -0.2259 -0.1678
 7191SOL    HW133035   3.558   0.808   6.747  0.5833  2.7243  1.7468
 7191SOL    HW233036   3.432   0.840   6.675  0.2010  1.1621 -0.1783
 7192SOL     OW33037   4.044   4.042  16.523  0.0253  0.2411 -0.2796
 7192SOL    HW133038   4.076   4.096  16.595  0.7462  0.9204 -1.1004
 7192SOL    HW233039   4.109   4.062  16.455 -0.6731 -0.9407 -1.3014
 7193SOL     OW33040   3.917   0.140   4.087  0.2064 -0.3639 -0.9737
 7193SOL    HW133041   3.897   0.110   4.175  1.7122 -0.3557 -0.6333
 7193SOL    HW233042   3.921   0.055   4.043  0.4867  0.1364 -1.9138
 7194SOL     OW33043   3.692   4.360  14.850  0.3978 -1.1850  0.3546
 7194SOL    HW133044   3.607   4.386  14.885 -0.1335 -0.6662 -1.2995
 7194SOL    HW233045   3.678   4.274  14.810  0.1738 -0.6389 -0.7543
 7195SOL     OW33046   3.641   2.650   6.096  0.0953  0.0936 -0.5549
 7195SOL    HW133047   3.613   2.648   6.005 -0.0387 -1.6814 -0.4809
 7195SOL    HW233048   3.719   2.704   6.084  1.3435 -1.2036  1.7637
 7196SOL     OW33049   3.632   2.246   9.870  0.0273 -0.0580  0.6642
 7196SOL    HW133050   3.545   2.252   9.907 -0.3523  2.0057 -0.5271
 7196SOL    HW233051   3.619   2.262   9.776 -0.2431  2.3917  1.1138
 7197SOL     OW33052   4.653   1.055   2.733 -0.3441 -0.6519  0.2186
 7197SOL    HW133053   4.614   1.004   2.804  1.1873  0.1282  1.6339
 7197SOL    HW233054   4.600   1.018   2.663 -1.2121 -2.3280  1.7674
 7198SOL     OW33055   1.487   0.147   1.965 -0.1107 -0.5323 -0.4021
 7198SOL    HW133056   1.540   0.226   1.963  2.6901 -2.4752 -2.3673
 7198SOL    HW233057   1.561   0.087   1.962  0.2913 -0.0267 -0.7528
 7199SOL     OW33058   1.534   0.957  14.620  0.0803 -0.3379  0.2668
 7199SOL    HW133059   1.624   0.963  14.589 -0.3570 -2.0782 -1.3724
 7199SOL    HW233060   1.508   0.866  14.602 -1.3200  0.4699 -1.7532
 7200SOL     OW33061   4.152   4.133   3.769 -0.3242 -0.3907 -0.1456
 7200SOL    HW133062   4.126   4.054   3.721  1.2189 -1.0920  0.1881
 7200SOL    HW233063   4.179   4.193   3.699 -0.5070  0.1693  0.2674
 7201SOL     OW33064   1.656   3.334   4.335  0.2740 -0.0060  0.1779
 7201SOL    HW133065   1.741   3.318   4.376  0.3026  2.4003  1.0545
 7201SOL    HW233066   1.619   3.246   4.341  1.5112 -0.5787 -0.6690
 7202SOL     OW33067   2.807   3.944   9.148 -0.0942  0.7120 -0.1366
 7202SOL    HW133068   2.729   3.999   9.160 -0.0091  0.8535 -0.2312
 7202SOL    HW233069   2.880   3.997   9.179  1.4609 -1.3443 -0.3459
 7203SOL     OW33070   0.477   1.293  15.799  0.2671 -0.0650  0.0382
 7203SOL    HW133071   0.501   1.357  15.732  0.1309 -0.4779 -0.4065
 7203SOL    HW233072   0.448   1.226  15.737  1.3084 -0.4000 -0.0963
 7204SOL     OW33073   2.345   0.912   6.836 -0.4696 -0.1550 -0.6591
 7204SOL    HW133074   2.427   0.862   6.841  0.0560  0.8489  0.9072
 7204SOL    HW233075   2.381   1.001   6.835 -0.1349 -0.2873 -0.6097
 7205SOL     OW33076   0.255   3.129  11.548 -0.4591 -0.5197  0.4457
 7205SOL    HW133077   0.265   3.172  11.633  1.4667 -0.9435  0.4508
 7205SOL    HW233078   0.341   3.157  11.516 -0.3144 -1.6583 -0.1458
 7206SOL     OW33079   4.108   2.453   5.694 -0.1969 -0.5065 -0.4580
 7206SOL    HW133080   4.091   2.372   5.646 -0.9659 -1.8021  1.9881
 7206SOL    HW233081   4.195   2.438   5.731 -1.1979 -1.6679  1.4352
 7207SOL     OW33082   2.158   0.658  16.186 -0.1733 -0.0145 -0.5334
 7207SOL    HW133083   2.111   0.578  16.207  0.0664 -0.4358 -1.6097
 7207SOL    HW233084   2.108   0.686  16.110 -0.4805  0.1547 -0.2671
 7208SOL     OW33085   2.477   4.248   2.563 -0.3195 -0.0323  0.1475
 7208SOL    HW133086   2.398   4.261   2.616 -0.8211 -0.8141 -0.3954
 7208SOL    HW233087   2.504   4.163   2.597 -3.5549 -1.1707 -0.1161
 7209SOL     OW33088   4.567   4.009  16.122 -0.4124 -0.4059  0.4066
 7209SOL    HW133089   4.527   4.088  16.159 -0.1447  0.9973 -2.2475
 7209SOL    HW233090   4.534   4.006  16.032  0.0528  0.7950  0.1884
 7210SOL     OW33091   1.922   2.823   5.436 -0.4193 -0.4217 -0.3890
 7210SOL    HW133092   1.876   2.777   5.366  0.3019  1.0280 -1.8050
 7210SOL    HW233093   1.949   2.900   5.386  1.4326 -0.7536  0.1101
 7211SOL     OW33094   0.069   3.075   8.532 -0.2763  0.3951  0.3401
 7211SOL    HW133095   0.104   3.120   8.455  1.6925  0.7401  1.4444
 7211SOL    HW233096   0.150   3.042   8.569 -0.4100 -0.2027  0.0965
 7212SOL     OW33097   3.452   3.048  17.545  0.0590 -0.8881  0.2818
 7212SOL    HW133098   3.547   3.038  17.548  0.1718 -0.4472 -1.7567
 7212SOL    HW233099   3.436   3.052  17.450  1.7881  0.7823  0.0603
 7213SOL     OW33100   2.440   2.795   6.897 -0.4531  0.5988 -0.2192
 7213SOL    HW133101   2.424   2.715   6.947  1.1243  0.4540  0.0532
 7213SOL    HW233102   2.390   2.774   6.818 -0.3922  1.5894 -0.5196
 7214SOL     OW33103   3.781   3.648   3.964 -0.3593  0.4451 -0.1417
 7214SOL    HW133104   3.815   3.736   3.946  1.0661 -0.4986 -2.1457
 7214SOL    HW233105   3.842   3.588   3.921 -1.8238 -1.0589 -0.0719
 7215SOL     OW33106   0.265   0.690   3.310 -0.5897  0.1897  0.1786
 7215SOL    HW133107   0.332   0.742   3.267 -1.9472  1.1785 -0.7434
 7215SOL    HW233108   0.201   0.661   3.244  0.1288  0.5099 -0.6501
 7216SOL     OW33109   1.809   4.544  12.752  0.1046  0.7494  0.0806
 7216SOL    HW133110   1.739   4.584  12.700  0.4649  0.8392 -0.3315
 7216SOL    HW233111   1.782   4.560  12.842  0.7799 -0.4614  0.4998
 7217SOL     OW33112   0.728   0.578   7.838 -0.0954  0.4534  0.4577
 7217SOL    HW133113   0.689   0.601   7.754 -0.2797  0.6249  0.5900
 7217SOL    HW233114   0.821   0.589   7.822 -0.3738  2.6421  0.3517
 7218SOL     OW33115   4.479   1.220  11.402 -0.2936  0.3083  0.0875
 7218SOL    HW133116   4.465   1.291  11.465  1.3627  2.3226 -1.7791
 7218SOL    HW233117   4.399   1.228  11.350  0.0103 -3.2362 -0.8944
 7219SOL     OW33118   0.347   4.598  12.030 -0.8798 -0.2086 -0.7145
 7219SOL    HW133119   0.377   4.517  12.070 -0.1926  0.4725  0.1207
 7219SOL    HW233120   0.308   4.562  11.950 -1.7483  0.5932 -0.6501
 7220SOL     OW33121   3.962   0.848   3.015  0.3849  0.2350 -0.1728
 7220SOL    HW133122   3.898   0.803   3.070 -0.8322  1.3147 -0.7118
 7220SOL    HW233123   3.925   0.856   2.927  0.6763 -1.2733 -0.4275
 7221SOL     OW33124   3.921   2.231   8.326  0.1968  0.3370  0.3097
 7221SOL    HW133125   3.973   2.158   8.360  1.1085  0.4787 -0.8146
 7221SOL    HW233126   3.846   2.243   8.385  0.7338  0.4117  0.9801
 7222SOL     OW33127   3.264   3.547   3.151 -0.8362  0.1139  0.5639
 7222SOL    HW133128   3.295   3.599   3.225  0.6421  0.9152 -0.6262
 7222SOL    HW233129   3.219   3.469   3.183 -0.1290 -0.2757  0.5919
 7223SOL     OW33130   3.606   0.871  14.457  0.4361 -0.7617 -0.1981
 7223SOL    HW133131   3.522   0.828  14.438  0.4728 -1.1755  0.5687
 7223SOL    HW233132   3.664   0.803  14.424  0.8641 -1.4601  2.0037
 7224SOL     OW33133   0.337   2.128  13.464 -0.4066  0.1945  0.2545
 7224SOL    HW133134   0.363   2.155  13.553  2.2392 -1.0382 -0.1359
 7224SOL    HW233135   0.342   2.206  13.410 -1.0708 -0.6895 -1.0678
 7225SOL     OW33136   1.975   0.297   4.329 -0.2537 -0.1600 -0.1392
 7225SOL    HW133137   2.015   0.338   4.252 -2.1602  1.2225 -0.3983
 7225SOL    HW233138   1.881   0.312   4.320 -0.4297 -0.9015  0.4783
 7226SOL     OW33139   4.598   3.578   3.958  0.2649  0.7201  0.0181
 7226SOL    HW133140   4.669   3.641   3.968 -0.4985  0.9244  4.3606
 7226SOL    HW233141   4.529   3.625   3.913 -1.5854 -1.5178  0.5122
 7227SOL     OW33142   0.124   2.723   7.918  0.0630 -0.0625 -0.1356
 7227SOL    HW133143   0.214   2.756   7.925 -0.6870  2.5028 -2.6641
 7227SOL    HW233144   0.148   2.636   7.887  2.7004  0.3123  0.8250
 7228SOL     OW33145   0.925   3.009   5.140  0.2316 -0.5455 -0.2290
 7228SOL    HW133146   0.985   2.978   5.208  0.1557 -0.6292 -0.1994
 7228SOL    HW233147   0.846   2.963   5.169  1.9858 -3.4807 -0.0866
 7229SOL     OW33148   1.484   4.714   9.345  0.1130  0.0531  0.2837
 7229SOL    HW133149   1.496   0.019   9.436  1.0330  1.6271 -0.3406
 7229SOL    HW233150   1.495   4.619   9.345  1.2178  0.1711  0.7917
 7230SOL     OW33151   4.682   2.640   8.306  0.0591  0.3716 -1.0427
 7230SOL    HW133152   4.654   2.550   8.293  0.1385  0.0916  0.6815
 7230SOL    HW233153   0.054   2.631   8.308 -0.0972 -1.3278 -0.9702
 7231SOL     OW33154   2.510   3.228   9.440 -0.0894 -0.1088  0.1800
 7231SOL    HW133155   2.557   3.149   9.413 -0.7103 -0.0390 -1.0624
 7231SOL    HW233156   2.419   3.200   9.450  0.2436 -0.5993  1.8730
 7232SOL     OW33157   1.484   3.702  13.936 -0.1001  0.4149 -0.1443
 7232SOL    HW133158   1.509   3.744  14.019  1.1508  0.7859 -0.7089
 7232SOL    HW233159   1.418   3.761  13.901 -1.3948  0.6024  2.6361
 7233SOL     OW33160   1.908   0.915   4.109 -0.0284  0.9621 -0.6113
 7233SOL    HW133161   1.857   0.988   4.074  1.0383  0.7082 -2.6601
 7233SOL    HW233162   1.981   0.960   4.151  0.7776 -0.5761 -0.3496
 7234SOL     OW33163   3.222   4.037  10.953  0.3326 -0.3070 -0.0779
 7234SOL    HW133164   3.203   3.995  10.869  0.0196  0.6624 -0.4841
 7234SOL    HW233165   3.192   3.973  11.018  0.0089 -0.0751 -0.0014
 7235SOL     OW33166   0.327   0.519   9.060 -0.5424 -0.1254 -0.4590
 7235SOL    HW133167   0.253   0.573   9.032 -2.5765 -1.6021  2.0132
 7235SOL    HW233168   0.287   0.433   9.067  0.4835 -0.5000  0.8913
 7236SOL     OW33169   2.236   0.206   5.498  0.0590 -0.2208  0.0516
 7236SOL    HW133170   2.250   0.157   5.417 -2.8210  0.0055 -0.5876
 7236SOL    HW233171   2.245   0.133   5.560 -2.6355 -0.0642  0.6655
 7237SOL     OW33172   2.277   3.437   8.467 -0.1485 -0.4933 -0.2559
 7237SOL    HW133173   2.183   3.447   8.480  0.2575  0.4900  1.9478
 7237SOL    HW233174   2.303   3.448   8.558  0.7355 -0.6944 -0.4848
 7238SOL     OW33175   2.764   1.335   8.198 -0.5879  0.3142 -0.0503
 7238SOL    HW133176   2.808   1.416   8.173 -0.1898  0.3548  0.7682
 7238SOL    HW233177   2.824   1.308   8.267 -0.9136  0.8571  0.4477
 7239SOL     OW33178   1.907   0.544   8.692  0.1439 -0.0723 -0.2251
 7239SOL    HW133179   1.910   0.498   8.608  0.9309  1.2653 -0.9157
 7239SOL    HW233180   1.956   0.624   8.675  0.7957  0.0015  1.9105
 7240SOL     OW33181   1.612   0.537   7.212 -0.8525 -0.3646  0.1963
 7240SOL    HW133182   1.657   0.610   7.254 -2.2940 -0.8185  2.5666
 7240SOL    HW233183   1.680   0.471   7.226  0.5908  0.4001 -3.1048
 7241SOL     OW33184   0.037   0.611  13.471  0.2220 -0.5379 -0.6233
 7241SOL    HW133185   0.125   0.632  13.504 -0.8301 -0.5399  2.1813
 7241SOL    HW233186   0.056   0.573  13.385  4.0028  1.1804 -0.5335
 7242SOL     OW33187   0.170   3.272   1.857 -0.3185 -0.1648  0.0379
 7242SOL    HW133188   0.185   3.338   1.925  0.8871 -0.7367  0.3201
 7242SOL    HW233189   0.107   3.315   1.799  0.3422  0.5233 -0.1686
 7243SOL     OW33190   1.370   4.247  15.229 -0.5709  0.1633 -0.0141
 7243SOL    HW133191   1.333   4.324  15.185  0.8402 -0.0176 -1.5384
 7243SOL    HW233192   1.328   4.175  15.181 -1.0917 -0.5399  1.5111
 7244SOL     OW33193   1.441   2.728   2.972  0.1170 -0.1109  0.0498
 7244SOL    HW133194   1.394   2.808   2.997 -0.4415 -1.0365  2.0020
 7244SOL    HW233195   1.390   2.683   2.905 -1.0347  0.5206  0.4946
 7245SOL     OW33196   4.238   3.007   8.199 -0.7306 -0.5816 -0.3787
 7245SOL    HW133197   4.183   2.936   8.233 -1.2766 -0.3621 -0.8194
 7245SOL    HW233198   4.186   3.054   8.135  0.8168 -2.1127 -2.7734
 7246SOL     OW33199   3.852   1.216   3.952  0.0658  0.1572  0.1334
 7246SOL    HW133200   3.809   1.130   3.954  0.0127  0.2276  2.2654
 7246SOL    HW233201   3.782   1.278   3.933 -0.2333 -0.0151  0.6584
 7247SOL     OW33202   4.545   4.440   7.122 -0.4765  0.2526 -0.6311
 7247SOL    HW133203   4.491   4.518   7.111 -0.1982  0.2787 -1.8141
 7247SOL    HW233204   4.589   4.436   7.037 -0.3438 -3.3906 -0.3556
 7248SOL     OW33205   2.664   0.175  15.693  0.0365  0.0912  0.3952
 7248SOL    HW133206   2.645   0.133  15.778 -0.7320 -0.1311  0.1134
 7248SOL    HW233207   2.696   0.097  15.647 -2.2915 -0.4564 -0.2688
 7249SOL     OW33208   0.451   0.868  16.576 -0.4459  0.3516  0.0577
 7249SOL    HW133209   0.536   0.895  16.613  0.2446 -0.9369 -0.6129
 7249SOL    HW233210   0.433   0.796  16.636 -0.7959 -0.4192 -0.9712
 7250SOL     OW33211   3.454   4.640   1.262  0.3076  0.1203 -0.2504
 7250SOL    HW133212   3.394   4.577   1.301  0.0485  1.0060  0.7656
 7250SOL    HW233213   3.528   4.580   1.251  1.3162  0.8019  2.6573
 7251SOL     OW33214   3.168   4.543   9.096  0.2755  0.0288 -0.5584
 7251SOL    HW133215   3.151   4.584   9.180  0.4467 -3.1300  0.9926
 7251SOL    HW233216   3.134   4.620   9.050  0.5261  0.7232  0.4322
 7252SOL     OW33217   1.609   3.263   0.979 -0.2968  0.1487  1.0206
 7252SOL    HW133218   1.622   3.211   0.900 -0.6305  2.3053 -0.4497
 7252SOL    HW233219   1.541   3.324   0.952  0.4714 -0.2098 -1.7422
 7253SOL     OW33220   3.231   3.909   5.877  0.0960  0.2469  0.1340
 7253SOL    HW133221   3.295   3.979   5.872  0.8149 -0.6182 -2.4567
 7253SOL    HW233222   3.176   3.957   5.940  2.0846  2.6400  0.0229
 7254SOL     OW33223   1.000   0.508   6.700  0.2287 -0.5847 -0.2903
 7254SOL    HW133224   0.955   0.442   6.648  0.8798  0.9974 -2.8440
 7254SOL    HW233225   1.081   0.469   6.734  2.1135  1.5477 -2.3731
 7255SOL     OW33226   1.138   4.026   5.303  0.4743  0.1696 -0.4043
 7255SOL    HW133227   1.163   3.936   5.282 -0.1618 -0.2540  0.6964
 7255SOL    HW233228   1.112   4.016   5.394  0.2296  1.5787 -0.3309
 7256SOL     OW33229   4.020   1.373  10.874 -0.6987 -0.7180  0.7068
 7256SOL    HW133230   4.028   1.467  10.860  0.4080 -1.3548 -2.9641
 7256SOL    HW233231   4.000   1.333  10.790 -1.6583  0.2181  0.4827
 7257SOL     OW33232   1.725   4.341   4.617 -0.3136  0.3896 -0.6396
 7257SOL    HW133233   1.812   4.334   4.657 -2.3815 -0.2340  3.8446
 7257SOL    HW233234   1.730   4.273   4.550 -0.3670  0.8102 -1.0695
 7258SOL     OW33235   1.469   3.774   9.220  0.1513 -0.1845  0.2536
 7258SOL    HW133236   1.557   3.758   9.187 -0.7735 -0.8935 -1.8799
 7258SOL    HW233237   1.413   3.717   9.168 -0.2476  0.7768 -0.3855
 7259SOL     OW33238   2.590   3.487  13.844 -0.2537 -0.2748 -0.4357
 7259SOL    HW133239   2.663   3.439  13.804 -0.5849 -0.2069 -1.1256
 7259SOL    HW233240   2.509   3.444  13.818 -0.3062 -0.1185 -0.5347
 7260SOL     OW33241   2.577   0.147   6.231  1.0224  1.0398 -0.1788
 7260SOL    HW133242   2.552   0.152   6.139 -0.0111  2.1631  0.1697
 7260SOL    HW233243   2.517   0.209   6.272  0.1009 -0.0527  0.1273
 7261SOL     OW33244   3.892   4.549   8.891 -0.4702 -0.5196  0.4655
 7261SOL    HW133245   3.913   4.631   8.936 -2.5152  0.1082  0.2571
 7261SOL    HW233246   3.838   4.581   8.819 -1.7158  0.3313  1.7710
 7262SOL     OW33247   0.831   2.655   3.952 -0.1688  1.0054 -0.2876
 7262SOL    HW133248   0.897   2.705   3.904  2.0767  1.9893  3.8184
 7262SOL    HW233249   0.887   2.585   3.986 -0.4041  0.9207 -0.0778
 7263SOL     OW33250   1.456   3.785   5.834 -0.1825 -0.5351 -0.1835
 7263SOL    HW133251   1.518   3.847   5.796 -1.7859  0.8804 -0.4554
 7263SOL    HW233252   1.401   3.752   5.763 -0.1988  0.9594 -0.8657
 7264SOL     OW33253   2.271   0.259   4.029 -0.0168  0.3654  0.1653
 7264SOL    HW133254   2.197   0.198   4.029  0.7851 -0.6001 -0.3738
 7264SOL    HW233255   2.339   0.207   3.987 -1.3982 -0.4400 -1.1008
 7265SOL     OW33256   3.407   4.199   2.102 -0.1077  0.8414  0.0451
 7265SOL    HW133257   3.348   4.124   2.096  1.2596 -0.2387  0.1582
 7265SOL    HW233258   3.371   4.259   2.036 -0.7383  0.3433 -0.0677
 7266SOL     OW33259   2.734   3.742   8.971  0.3220 -0.1301  0.0111
 7266SOL    HW133260   2.750   3.789   9.053 -0.2893 -0.5492  0.3640
 7266SOL    HW233261   2.693   3.818   8.929 -0.5777 -0.8402 -0.3774
 7267SOL     OW33262   2.317   2.567  16.169 -0.2625  0.3806  0.0290
 7267SOL    HW133263   2.271   2.509  16.108  1.7158 -1.5228  0.3519
 7267SOL    HW233264   2.375   2.500  16.205  1.1696  1.3803 -0.3868
 7268SOL     OW33265   0.942   3.468  11.445  0.2699 -0.1080 -0.2311
 7268SOL    HW133266   0.920   3.561  11.439  1.0314  0.0440 -0.6883
 7268SOL    HW233267   1.034   3.471  11.472 -0.3956  2.1445  1.8004
 7269SOL     OW33268   4.494   0.383   8.299  0.0926 -0.0004  0.0070
 7269SOL    HW133269   4.458   0.301   8.334 -0.4800  1.0046  1.7639
 7269SOL    HW233270   4.563   0.357   8.239  1.2611  1.0191  0.9099
 7270SOL     OW33271   2.166   0.124   2.016 -0.0553 -0.1572  0.1162
 7270SOL    HW133272   2.258   0.149   2.026  0.0563  0.5224 -2.6378
 7270SOL    HW233273   2.160   0.161   1.929  0.8648  2.5543  1.2061
 7271SOL     OW33274   3.041   3.013  16.070 -0.2555  0.1193  0.1973
 7271SOL    HW133275   2.948   3.007  16.049 -0.4367  2.7774  0.1815
 7271SOL    HW233276   3.047   3.057  16.155  1.6015  0.1966  0.0288
 7272SOL     OW33277   4.525   2.963   6.304 -0.6895  0.2525 -0.4456
 7272SOL    HW133278   4.540   2.990   6.213 -0.6436  0.0772 -0.4910
 7272SOL    HW233279   4.449   2.906   6.289 -0.2132 -0.7199  0.8371
 7273SOL     OW33280   2.398   2.422   2.144 -0.5003 -0.2358 -0.2545
 7273SOL    HW133281   2.468   2.365   2.176  0.6732  1.7323  0.6626
 7273SOL    HW233282   2.368   2.475   2.218  1.5797 -0.1726  0.5581
 7274SOL     OW33283   0.651   3.791   5.282  0.6627 -0.5361 -0.3827
 7274SOL    HW133284   0.654   3.722   5.348  0.8524 -1.4585 -1.3575
 7274SOL    HW233285   0.581   3.846   5.317  0.4853 -2.0701  1.6875
 7275SOL     OW33286   3.642   2.294   2.615 -0.0386  0.0619 -0.3057
 7275SOL    HW133287   3.732   2.326   2.622 -0.3953  0.7924  0.8863
 7275SOL    HW233288   3.640   2.305   2.520 -0.7028 -1.1988 -0.4462
 7276SOL     OW33289   4.437   1.655   8.406 -0.6366 -0.8720 -0.3110
 7276SOL    HW133290   4.455   1.742   8.370  0.3615  0.1129  2.5621
 7276SOL    HW233291   4.472   1.650   8.495 -0.1239  0.1725 -0.4617
 7277SOL     OW33292   2.032   1.309   4.604 -0.3771 -0.0573  0.3761
 7277SOL    HW133293   1.959   1.269   4.557 -1.5234  2.4497  0.0293
 7277SOL    HW233294   2.021   1.277   4.694  0.8441 -1.5125  0.0071
 7278SOL     OW33295   3.133   3.724  11.366  0.4075 -0.4168 -0.7765
 7278SOL    HW133296   3.151   3.718  11.273  1.1906  1.0486 -0.7183
 7278SOL    HW233297   3.202   3.669  11.405  0.9688  1.9195  1.5333
 7279SOL     OW33298   4.613   1.727   3.059 -0.2188  0.5294 -0.3088
 7279SOL    HW133299   4.606   1.817   3.027 -0.2638  0.4167 -0.6207
 7279SOL    HW233300   4.615   1.680   2.976 -1.3210 -0.6237  0.3345
 7280SOL     OW33301   0.251   3.566   7.725 -0.5715 -0.2198 -0.2944
 7280SOL    HW133302   0.234   3.645   7.674  1.5819 -1.8848 -3.5487
 7280SOL    HW233303   0.170   3.561   7.777  1.1908  1.8183  2.6040
 7281SOL     OW33304   3.689   1.009   6.493  0.5992  0.0736 -0.0634
 7281SOL    HW133305   3.690   1.077   6.559 -1.0744  0.9375 -0.9344
 7281SOL    HW233306   3.630   0.954   6.544  1.5715 -2.1369 -1.3162
 7282SOL     OW33307   3.652   1.214   0.377  0.1047 -0.1120 -0.5370
 7282SOL    HW133308   3.743   1.246   0.380  0.5453 -1.3892 -0.3717
 7282SOL    HW233309   3.670   1.121   0.387 -0.6028 -0.1996 -0.0915
 7283SOL     OW33310   4.357   0.238   8.779 -0.3864 -0.1334 -0.3633
 7283SOL    HW133311   4.333   0.148   8.757  0.9041 -0.2234 -1.3520
 7283SOL    HW233312   4.386   0.230   8.870 -0.3724 -1.9072 -0.5109
 7284SOL     OW33313   4.357   1.529  14.514  0.2285 -0.4350  0.1299
 7284SOL    HW133314   4.412   1.450  14.519  0.5660 -0.1562  0.7652
 7284SOL    HW233315   4.286   1.498  14.569 -0.4955  2.7499  0.9843
 7285SOL     OW33316   1.740   1.824   8.672 -0.7775  0.2107 -0.5140
 7285SOL    HW133317   1.818   1.773   8.691  0.3769  3.2801  2.9258
 7285SOL    HW233318   1.750   1.793   8.582  2.0574  0.0883 -0.1498
 7286SOL     OW33319   0.480   2.630   8.262  0.2918  0.2940  0.0448
 7286SOL    HW133320   0.526   2.714   8.270  1.1125 -0.2534  1.1851
 7286SOL    HW233321   0.550   2.565   8.268  0.4946  0.5090  0.0238
 7287SOL     OW33322   1.477   1.846  13.636 -0.2486  0.6459 -0.0063
 7287SOL    HW133323   1.507   1.934  13.611 -0.2408  1.0092  1.3115
 7287SOL    HW233324   1.498   1.801  13.554 -1.3643  0.7932 -0.3628
 7288SOL     OW33325   3.572   0.354   2.575 -0.6508 -0.3532 -0.2526
 7288SOL    HW133326   3.590   0.422   2.510  0.7871 -1.1530 -0.6795
 7288SOL    HW233327   3.626   0.286   2.536 -0.9056  0.5728 -2.2152
 7289SOL     OW33328   1.539   1.922   8.814  0.4158  0.2681 -0.0159
 7289SOL    HW133329   1.585   1.878   8.742 -0.0160 -2.0436  1.0973
 7289SOL    HW233330   1.456   1.875   8.816  1.4728 -1.4829  3.7505
 7290SOL     OW33331   0.670   2.133   1.148  0.5391  0.3900  0.4353
 7290SOL    HW133332   0.672   2.075   1.071 -1.8959  2.4085 -1.1417
 7290SOL    HW233333   0.584   2.100   1.173  0.4840  0.0431 -0.1990
 7291SOL     OW33334   4.675   0.104  13.079  0.0438 -0.2255 -0.5852
 7291SOL    HW133335   0.013   0.035  13.106 -0.5760 -0.3821  0.4490
 7291SOL    HW233336   4.638   0.110  13.167  2.6033  0.5287  0.4415
 7292SOL     OW33337   2.970   4.136   0.060  0.3650 -0.0602 -0.4562
 7292SOL    HW133338   2.991   4.198   0.130  0.0770 -0.3637 -0.0971
 7292SOL    HW233339   3.030   4.065   0.084  0.5095 -0.1400 -1.0558
 7293SOL     OW33340   0.077   2.260   4.260  0.2762  0.2364 -0.4163
 7293SOL    HW133341   0.090   2.255   4.165  1.6349  1.6053 -0.3155
 7293SOL    HW233342   0.085   2.169   4.285  0.8193 -0.0817 -1.7319
 7294SOL     OW33343   3.980   1.417   2.466  0.4544  0.1697  0.1195
 7294SOL    HW133344   3.906   1.410   2.406  0.6889  3.4197 -0.5747
 7294SOL    HW233345   4.035   1.353   2.422  0.8495  0.4184  0.2586
 7295SOL     OW33346   4.528   3.546   6.760  0.1545  0.3443 -0.0706
 7295SOL    HW133347   4.545   3.636   6.788 -1.0594  0.7977 -0.7894
 7295SOL    HW233348   4.447   3.525   6.807 -1.6600  3.5126 -1.7735
 7296SOL     OW33349   0.893   4.681   7.059  0.3555 -0.0414  0.5197
 7296SOL    HW133350   0.959   4.656   7.124  2.0689  0.6845 -0.9159
 7296SOL    HW233351   0.832   0.016   7.104  1.3101 -0.3278  2.2006
 7297SOL     OW33352   0.042   2.878   2.007 -0.2117 -0.4475 -0.1211
 7297SOL    HW133353   0.032   2.787   1.981 -0.0652  0.1880 -2.3535
 7297SOL    HW233354   0.090   2.867   2.089 -1.3314 -0.9130  0.4736
 7298SOL     OW33355   0.566   4.066   6.162 -0.2074  0.6933  0.0539
 7298SOL    HW133356   0.471   4.073   6.155 -0.2272  0.4743  0.1090
 7298SOL    HW233357   0.605   4.111   6.087 -0.2690  1.9668  0.7697
 7299SOL     OW33358   3.191   1.174   8.567 -0.0949 -0.2578 -0.0650
 7299SOL    HW133359   3.099   1.151   8.553 -0.4892  1.8485 -0.9411
 7299SOL    HW233360   3.238   1.137   8.492  2.6651  1.5223  0.7708
 7300SOL     OW33361   0.256   2.341  10.215  0.1781  0.2094 -0.0641
 7300SOL    HW133362   0.241   2.327  10.309  0.7370  0.2582  0.0323
 7300SOL    HW233363   0.341   2.386  10.211  0.4565 -0.4646 -1.6960
 7301SOL     OW33364   2.875   3.156   4.375 -0.0159 -0.0413  0.2765
 7301SOL    HW133365   2.919   3.106   4.305  1.1964  3.3834 -1.3942
 7301SOL    HW233366   2.918   3.240   4.359  0.0569  0.1823  1.6966
 7302SOL     OW33367   2.451   0.596  13.166 -0.3528  0.2836  0.0716
 7302SOL    HW133368   2.501   0.597  13.084 -0.2888 -3.0442  0.0438
 7302SOL    HW233369   2.519   0.643  13.214  0.7183 -0.5229 -0.6310
 7303SOL     OW33370   0.999   1.499   9.615 -0.1351  0.0526 -0.2993
 7303SOL    HW133371   0.917   1.530   9.576 -1.4745 -1.0448  1.6078
 7303SOL    HW233372   1.060   1.566   9.585 -1.0685  0.6143 -0.9436
 7304SOL     OW33373   1.216   1.125   1.231 -0.4996  0.0398  0.2347
 7304SOL    HW133374   1.132   1.170   1.221 -1.2831 -1.2994  0.8524
 7304SOL    HW233375   1.273   1.201   1.243 -0.0002 -0.2682 -0.1393
 7305SOL     OW33376   1.889   2.648  11.813 -0.1184 -0.0097  0.0597
 7305SOL    HW133377   1.916   2.684  11.729 -0.7641 -2.3225 -1.1658
 7305SOL    HW233378   1.800   2.683  11.809 -0.5485 -0.8158  2.6036
 7306SOL     OW33379   1.454   2.905   9.831  0.1379 -0.0610  0.0184
 7306SOL    HW133380   1.503   2.985   9.811 -0.7145  0.7167  1.0327
 7306SOL    HW233381   1.516   2.867   9.893 -1.5628 -0.5735  1.3914
 7307SOL     OW33382   1.747   4.189   8.849 -0.0480 -0.3487 -0.1046
 7307SOL    HW133383   1.687   4.121   8.879 -0.7475  0.5138  0.4700
 7307SOL    HW233384   1.813   4.182   8.918  0.3041  0.8764 -0.3044
 7308SOL     OW33385   0.192   3.934  15.377 -0.3068  0.0059 -0.1066
 7308SOL    HW133386   0.111   3.983  15.372 -1.4810 -1.8659  0.4364
 7308SOL    HW233387   0.190   3.905  15.469 -0.9876  0.1722 -0.0732
 7309SOL     OW33388   2.069   3.083  16.310  0.9191 -0.3398 -0.5676
 7309SOL    HW133389   1.990   3.099  16.259  0.1214 -0.7752  0.5280
 7309SOL    HW233390   2.052   3.157  16.368  0.6223 -0.4908 -0.4666
 7310SOL     OW33391   3.012   1.548   4.783 -0.6057  0.1455  0.1115
 7310SOL    HW133392   3.070   1.472   4.777 -0.4450  0.2787 -0.0178
 7310SOL    HW233393   3.043   1.599   4.858 -1.5536  0.7993  0.0709
 7311SOL     OW33394   1.792   0.386   4.025 -0.5287  0.4922 -0.4581
 7311SOL    HW133395   1.762   0.357   4.112  0.3341  0.3602 -0.2089
 7311SOL    HW233396   1.798   0.477   4.055 -2.0621 -0.4121  2.6123
 7312SOL     OW33397   2.937   0.401   4.680 -0.2171 -0.7271 -0.0053
 7312SOL    HW133398   2.871   0.427   4.744 -0.8202  1.1685 -1.3864
 7312SOL    HW233399   2.996   0.476   4.666  0.2551 -0.6498  2.4892
 7313SOL     OW33400   4.322   4.354   2.494  0.5752 -0.6137 -0.0320
 7313SOL    HW133401   4.399   4.403   2.524 -1.2753  1.4121  1.3618
 7313SOL    HW233402   4.264   4.368   2.568  0.7832 -2.0328  0.3931
 7314SOL     OW33403   4.259   3.742   1.290 -0.3029  0.1731  0.5668
 7314SOL    HW133404   4.230   3.782   1.208 -0.8017 -1.2204  0.0496
 7314SOL    HW233405   4.331   3.690   1.254  1.1925  0.0488  3.7089
 7315SOL     OW33406   3.792   1.007  14.610  0.0773  0.2876  0.0117
 7315SOL    HW133407   3.730   0.946  14.570 -1.4843  1.0911  1.2055
 7315SOL    HW233408   3.869   0.951  14.612  0.6787  1.0807 -0.9197
 7316SOL     OW33409   2.838   1.799   7.474  0.0933  0.1490  0.7153
 7316SOL    HW133410   2.861   1.840   7.558  1.4426  2.9139 -1.0228
 7316SOL    HW233411   2.753   1.844   7.471 -0.1720 -0.3813  0.3674
 7317SOL     OW33412   3.533   0.899   7.501 -0.0805  0.5509  0.4988
 7317SOL    HW133413   3.555   0.984   7.465  0.6700  0.1002 -0.1131
 7317SOL    HW233414   3.616   0.854   7.488 -0.0534  0.8049 -0.1960
 7318SOL     OW33415   0.196   2.308   3.367 -0.5622  0.1346  0.1661
 7318SOL    HW133416   0.208   2.261   3.449 -0.6957 -1.4700 -0.7411
 7318SOL    HW233417   0.151   2.385   3.403 -0.6729 -0.0749  0.4769
 7319SOL     OW33418   1.507   1.949   7.132  0.5974  0.3711  0.0829
 7319SOL    HW133419   1.503   2.044   7.133 -0.0969  0.3215  1.8608
 7319SOL    HW233420   1.480   1.928   7.221 -1.2567  0.1303 -0.5425
 7320SOL     OW33421   0.451   2.784   6.489  0.5059 -0.2453  0.5903
 7320SOL    HW133422   0.365   2.813   6.458  0.5257 -0.7860  0.0108
 7320SOL    HW233423   0.499   2.859   6.454  0.0021 -0.0730  0.2746
 7321SOL     OW33424   2.083   3.676   6.196  0.1573  0.1317  0.0834
 7321SOL    HW133425   2.056   3.585   6.188  0.8428 -0.1260  0.7381
 7321SOL    HW233426   2.132   3.671   6.278 -1.7494 -0.7063  1.1727
 7322SOL     OW33427   0.154   3.516   5.605  0.2218  0.3600  0.6285
 7322SOL    HW133428   0.115   3.429   5.598  1.5645 -0.1662 -0.1921
 7322SOL    HW233429   0.085   3.569   5.645  0.2950  0.3197  0.8099
 7323SOL     OW33430   1.964   3.862   9.857  0.3173 -0.1971  0.1230
 7323SOL    HW133431   1.983   3.900   9.772  1.9053  0.5783  0.8186
 7323SOL    HW233432   1.972   3.768   9.844 -1.4500 -0.0955 -1.6442
 7324SOL     OW33433   0.467   4.624   9.456 -0.0310  0.6252  0.7161
 7324SOL    HW133434   0.496   4.691   9.519  2.0734  0.8909 -0.5433
 7324SOL    HW233435   0.538   4.561   9.463 -0.1788  0.4819  0.9250
 7325SOL     OW33436   1.988   0.923   5.243 -0.0498  0.5630  0.3575
 7325SOL    HW133437   2.078   0.890   5.245  0.1395  1.0255 -0.6585
 7325SOL    HW233438   1.956   0.872   5.318 -0.9226  1.3029  0.4755
 7326SOL     OW33439   3.078   2.097  11.910 -0.0607 -0.1404 -0.5947
 7326SOL    HW133440   3.043   2.141  11.987 -1.0702  1.2258 -1.8448
 7326SOL    HW233441   3.147   2.045  11.951  0.4958  0.5602 -0.6489
 7327SOL     OW33442   3.341   4.541   6.521 -0.0327  0.7823 -0.2192
 7327SOL    HW133443   3.317   4.622   6.567 -1.5417  0.7392 -0.9454
 7327SOL    HW233444   3.395   4.575   6.450 -0.5374  0.2496 -0.8440
 7328SOL     OW33445   0.059   4.363  15.695 -0.0243  0.4758 -0.1489
 7328SOL    HW133446   0.037   4.455  15.707 -1.4705  0.2742 -1.2712
 7328SOL    HW233447   4.711   4.346  15.633  1.4185  1.7066 -2.1314
 7329SOL     OW33448   0.274   1.630   3.857  0.6961  0.0557 -0.2748
 7329SOL    HW133449   0.331   1.553   3.858  0.3385 -0.1833  1.2054
 7329SOL    HW233450   0.275   1.662   3.766  2.0392 -1.3338 -0.7485
 7330SOL     OW33451   0.732   3.666   2.356  0.7929 -0.0106 -0.2601
 7330SOL    HW133452   0.724   3.571   2.365  0.6195 -0.1444 -1.9818
 7330SOL    HW233453   0.658   3.690   2.302 -0.1804  0.5353  1.2990
 7331SOL     OW33454   4.576   3.720   2.766 -0.1374  0.3207  0.1377
 7331SOL    HW133455   4.497   3.733   2.818 -0.7409  0.8847 -0.9357
 7331SOL    HW233456   4.626   3.663   2.824  0.7273  0.2253 -0.7031
 7332SOL     OW33457   4.582   2.389   0.296  0.3301  1.2095 -0.4624
 7332SOL    HW133458   4.611   2.327   0.229 -3.2250 -1.6691  0.6578
 7332SOL    HW233459   4.492   2.412   0.274 -1.1675 -2.5277  1.8642
 7333SOL     OW33460   2.904   1.681  11.354 -0.1366  0.4820  0.0697
 7333SOL    HW133461   2.819   1.701  11.315 -0.2271 -0.0214  0.0107
 7333SOL    HW233462   2.872   1.637  11.433  1.9305  0.2443  0.7613
 7334SOL     OW33463   3.904   2.590   2.039  0.3440  0.0781  0.2355
 7334SOL    HW133464   3.826   2.576   1.985 -0.6630  0.0310  1.6839
 7334SOL    HW233465   3.941   2.656   1.981 -1.8279  1.5360  0.5153
 7335SOL     OW33466   3.728   2.560   1.346  0.3973  0.3918 -0.3961
 7335SOL    HW133467   3.697   2.489   1.291  2.4766  0.4145 -1.6199
 7335SOL    HW233468   3.748   2.504   1.421 -0.2075 -0.9920 -1.2854
 7336SOL     OW33469   4.132   0.443   0.829 -0.6932  0.6078  0.4664
 7336SOL    HW133470   4.180   0.396   0.897  0.5461  0.7360 -0.3307
 7336SOL    HW233471   4.128   0.527   0.874  2.1331  0.3548  1.1862
 7337SOL     OW33472   4.373   0.529   7.914  0.1586  0.2949  0.0358
 7337SOL    HW133473   4.417   0.444   7.914 -0.8972 -0.2608 -1.0113
 7337SOL    HW233474   4.290   0.501   7.875 -0.4815  1.7243  0.3573
 7338SOL     OW33475   4.479   3.114   2.715 -0.6222 -0.6589  0.9208
 7338SOL    HW133476   4.420   3.189   2.723 -0.7800 -0.7356  0.4988
 7338SOL    HW233477   4.427   3.060   2.655 -0.0845  2.2912 -2.2325
 7339SOL     OW33478   2.982   3.502   2.559 -0.4807 -0.2831 -0.1453
 7339SOL    HW133479   2.992   3.558   2.636  0.9693 -0.8997  0.1287
 7339SOL    HW233480   2.901   3.527   2.515 -0.8040 -0.3142  0.4397
 7340SOL     OW33481   2.042   3.093   2.170  0.2900 -0.2430 -0.0611
 7340SOL    HW133482   2.079   3.089   2.258 -0.7045  1.0036  0.4251
 7340SOL    HW233483   2.091   3.168   2.135 -1.3107  0.6753 -0.3507
 7341SOL     OW33484   2.105   0.306   0.661  0.2358  0.4459  0.4911
 7341SOL    HW133485   2.046   0.380   0.678  0.8175  1.6820 -2.8911
 7341SOL    HW233486   2.054   0.231   0.692  0.8750 -0.3010 -0.2590
 7342SOL     OW33487   2.005   0.766  16.011 -0.4166  0.1075 -1.0515
 7342SOL    HW133488   1.978   0.851  16.045 -1.9978 -0.1934 -1.5727
 7342SOL    HW233489   1.946   0.765  15.935  0.3398 -0.7937 -1.6325
 7343SOL     OW33490   3.296   0.946   2.481  0.2391  0.1374 -0.4022
 7343SOL    HW133491   3.277   1.040   2.474  2.2596  0.7249  2.0841
 7343SOL    HW233492   3.301   0.934   2.575 -0.2149 -3.7086 -0.8648
 7344SOL     OW33493   3.458   2.003   7.057 -0.0109 -0.0094  0.5051
 7344SOL    HW133494   3.462   2.096   7.079 -1.1137 -0.1939  1.5132
 7344SOL    HW233495   3.552   1.990   7.044 -0.2977 -3.4825  1.9161
 7345SOL     OW33496   0.685   4.433   6.178 -0.0923 -0.1920  0.6135
 7345SOL    HW133497   0.756   4.497   6.187  0.8252 -1.1258  0.0163
 7345SOL    HW233498   0.735   4.365   6.132  0.0136  1.1862 -1.3415
 7346SOL     OW33499   1.562   3.009   7.893 -0.2347 -0.5343 -0.3426
 7346SOL    HW133500   1.493   2.947   7.915  0.3716 -0.8356  0.6959
 7346SOL    HW233501   1.616   3.006   7.972  1.3525  0.6655 -1.3779
 7347SOL     OW33502   3.030   4.605   0.282 -0.5604 -0.3275 -0.1042
 7347SOL    HW133503   3.066   4.575   0.365 -0.7598  0.8717  0.4061
 7347SOL    HW233504   2.937   4.580   0.277 -0.3389 -0.9538 -1.2228
 7348SOL     OW33505   0.432   1.093   2.385 -0.1325 -0.4696 -0.1172
 7348SOL    HW133506   0.477   1.131   2.460  1.2223  0.0079 -1.1634
 7348SOL    HW233507   0.463   1.153   2.317 -2.6031 -0.2586 -1.0609
 7349SOL     OW33508   2.819   1.692   1.887  0.3803 -0.2597 -0.5637
 7349SOL    HW133509   2.845   1.781   1.865 -1.4674 -0.1490 -2.2854
 7349SOL    HW233510   2.841   1.651   1.804  1.6847 -0.4013 -0.1587
 7350SOL     OW33511   0.345   0.542   7.909 -0.2450  0.6716  0.4777
 7350SOL    HW133512   0.423   0.592   7.890 -0.8291  1.8185  1.1065
 7350SOL    HW233513   0.315   0.593   7.985  1.0377  3.3026 -0.8009
 7351SOL     OW33514   3.030   4.259   0.289 -0.6744 -0.0901  0.0899
 7351SOL    HW133515   3.019   4.283   0.381  0.6109  1.6197 -0.2027
 7351SOL    HW233516   3.124   4.242   0.280 -0.7265 -0.2291 -0.2058
 7352SOL     OW33517   0.814   1.961   3.267 -0.6400 -0.2878  0.0742
 7352SOL    HW133518   0.877   2.020   3.225  0.1058 -2.0653 -1.3124
 7352SOL    HW233519   0.784   1.919   3.187  1.4441  0.8941 -1.3325
 7353SOL     OW33520   2.258   1.058   8.395  0.1449  0.2929  0.2680
 7353SOL    HW133521   2.268   1.102   8.311  3.4511 -0.1772  0.4071
 7353SOL    HW233522   2.294   1.115   8.463 -1.0220  1.2992  0.0378
 7354SOL     OW33523   2.707   1.895   7.874 -0.3632  0.4364 -0.4762
 7354SOL    HW133524   2.756   1.906   7.955 -2.3144 -1.2546  0.9290
 7354SOL    HW233525   2.766   1.937   7.811  1.9496  1.6258  2.5070
 7355SOL     OW33526   3.311   0.106   5.326 -0.4110  0.8163  0.0396
 7355SOL    HW133527   3.222   0.072   5.334  0.4830 -1.6675 -0.6035
 7355SOL    HW233528   3.349   0.082   5.411 -2.1398 -2.3041 -0.0815
 7356SOL     OW33529   4.588   0.626   9.086 -0.4394 -0.2299  0.0080
 7356SOL    HW133530   4.590   0.703   9.143 -0.3476 -1.1540  1.2308
 7356SOL    HW233531   4.520   0.579   9.133 -0.3261 -0.6726 -0.2773
 7357SOL     OW33532   1.449   4.661   8.366  0.5699 -0.0942 -0.4368
 7357SOL    HW133533   1.503   4.643   8.443 -2.1162 -0.0447  1.4540
 7357SOL    HW233534   1.428   4.576   8.328  0.2013 -1.3674  2.6060
 7358SOL     OW33535   2.823   0.447   4.133 -0.6978 -0.3674 -0.0854
 7358SOL    HW133536   2.907   0.402   4.131 -0.9976 -0.9653  0.7113
 7358SOL    HW233537   2.786   0.426   4.219  1.0229 -2.7903  0.0527
 7359SOL     OW33538   0.344   0.781   9.218  0.0539  0.4128 -0.2330
 7359SOL    HW133539   0.324   0.865   9.177  1.2388  0.9426  0.2909
 7359SOL    HW233540   0.334   0.728   9.139 -1.5540 -1.6406  1.3465
 7360SOL     OW33541   4.474   2.304   4.859 -0.0548  0.5498  0.7715
 7360SOL    HW133542   4.444   2.370   4.795  3.5514  0.5307 -0.9476
 7360SOL    HW233543   4.462   2.228   4.802  0.3196  1.2849 -0.3059
 7361SOL     OW33544   0.963   3.238  11.284  0.0352 -0.2638 -0.1682
 7361SOL    HW133545   1.026   3.267  11.218  1.7901 -1.6940  0.8924
 7361SOL    HW233546   0.946   3.324  11.324 -2.8323 -0.4198 -1.0363
 7362SOL     OW33547   0.368   3.624   5.522  0.3693 -0.1492 -0.4132
 7362SOL    HW133548   0.289   3.585   5.558  0.2618  0.7920  0.3926
 7362SOL    HW233549   0.346   3.716   5.537  0.0579 -0.8513  3.4143
 7363SOL     OW33550   1.224   0.507   5.706  0.0336  0.2808  0.0526
 7363SOL    HW133551   1.253   0.585   5.660  1.2817 -0.4385 -0.3724
 7363SOL    HW233552   1.143   0.478   5.664  1.4479 -1.0203 -1.7646
 7364SOL     OW33553   0.740   0.976  10.570  0.2581  0.3784 -0.1431
 7364SOL    HW133554   0.821   1.027  10.561 -0.2795  1.4332  0.8632
 7364SOL    HW233555   0.717   0.971  10.477  0.0143 -0.1164 -0.0584
 7365SOL     OW33556   0.790   2.990   3.773  0.1487  0.2796  0.0538
 7365SOL    HW133557   0.781   3.080   3.742 -0.9779 -0.0796 -0.6341
 7365SOL    HW233558   0.746   2.937   3.708  0.1881 -0.3550  0.5425
 7366SOL     OW33559   3.202   4.605   6.275  0.1596 -1.0463 -0.4183
 7366SOL    HW133560   3.218   4.547   6.349  1.8490  1.5912  1.2800
 7366SOL    HW233561   3.285   4.604   6.228 -0.3261  0.1327 -1.2993
 7367SOL     OW33562   2.056   1.540   3.774  0.4551 -0.1120 -0.2381
 7367SOL    HW133563   2.007   1.503   3.848  0.3422 -0.7467 -0.6410
 7367SOL    HW233564   2.014   1.626   3.765 -1.3542 -0.7202  2.2137
 7368SOL     OW33565   1.798   4.251   6.211  0.1470  0.5190 -0.1815
 7368SOL    HW133566   1.772   4.176   6.264  1.0100  1.7954  2.0835
 7368SOL    HW233567   1.828   4.311   6.280  1.5063 -0.4009  0.0400
 7369SOL     OW33568   4.270   4.619  17.258  0.3715  0.2751 -0.0503
 7369SOL    HW133569   4.331   4.640  17.187  0.9843  0.2859  0.4743
 7369SOL    HW233570   4.226   4.694  17.297  1.5781 -0.8861  3.6238
 7370SOL     OW33571   0.341   3.749   3.607  0.1614  0.0720 -0.6301
 7370SOL    HW133572   0.282   3.819   3.632  0.4186 -0.4205  1.3431
 7370SOL    HW233573   0.296   3.677   3.651 -0.4346 -1.1184 -3.1729
 7371SOL     OW33574   0.434   1.894  10.246  0.3337 -0.0158  0.6070
 7371SOL    HW133575   0.361   1.833  10.248  1.5369 -1.4632  0.3175
 7371SOL    HW233576   0.417   1.930  10.159  0.2555 -1.6184 -0.0404
 7372SOL     OW33577   3.465   0.353  16.615  0.0613  0.4829 -0.1863
 7372SOL    HW133578   3.559   0.343  16.631  0.1870  1.9668  0.0327
 7372SOL    HW233579   3.446   0.272  16.568  1.3714 -0.6916  1.3238
 7373SOL     OW33580   0.743   0.880   3.866  0.1444  0.0015 -0.0531
 7373SOL    HW133581   0.723   0.790   3.840  1.7148 -0.0125 -1.1883
 7373SOL    HW233582   0.655   0.918   3.869  1.3013  2.8697 -1.9422
 7374SOL     OW33583   1.744   1.195  10.223 -0.1573  0.7009  0.0595
 7374SOL    HW133584   1.743   1.250  10.301  2.4162  0.0841  0.5427
 7374SOL    HW233585   1.740   1.264  10.158  1.6650 -0.2954 -1.1032
 7375SOL     OW33586   1.480   1.553   6.895 -0.5539  0.3250 -0.0256
 7375SOL    HW133587   1.566   1.524   6.925 -1.3175 -4.5490 -2.5119
 7375SOL    HW233588   1.503   1.646   6.891  0.6630  0.0458  0.6625
 7376SOL     OW33589   2.233   3.484   0.528 -0.4148  0.3364  0.0686
 7376SOL    HW133590   2.266   3.415   0.470 -1.4741  0.0503 -0.2049
 7376SOL    HW233591   2.139   3.483   0.506  0.6414 -0.9691 -4.2798
 7377SOL     OW33592   0.361   1.998  10.485  0.7231  0.0197  0.6533
 7377SOL    HW133593   0.343   1.912  10.521 -2.9949  1.2120  1.6413
 7377SOL    HW233594   0.373   1.970  10.395  0.1005 -0.8711  0.8523
 7378SOL     OW33595   3.367   0.790  11.614  0.0470  0.4410 -0.2547
 7378SOL    HW133596   3.460   0.811  11.610  0.5308 -1.2581  2.0078
 7378SOL    HW233597   3.364   0.710  11.561  2.9645 -1.3146  2.2484
 7379SOL     OW33598   1.029   3.230   7.423  0.4946  0.1468 -0.0122
 7379SOL    HW133599   0.946   3.190   7.447 -1.3479  1.7872 -3.6462
 7379SOL    HW233600   1.083   3.152   7.435  1.9532  1.0095 -0.9146
 7380SOL     OW33601   1.541   1.627   4.679  0.2084  0.5655  0.1585
 7380SOL    HW133602   1.570   1.718   4.667  1.7431  0.3862  2.3824
 7380SOL    HW233603   1.447   1.643   4.669 -0.0924  0.1873  2.3823
 7381SOL     OW33604   1.438   3.848   9.921 -0.1151 -0.1296  0.1993
 7381SOL    HW133605   1.380   3.901   9.867  0.1727 -1.6402 -1.5765
 7381SOL    HW233606   1.428   3.881  10.010 -1.7593 -1.9034  0.6778
 7382SOL     OW33607   4.515   3.965  15.811 -0.0814 -0.0947 -0.0945
 7382SOL    HW133608   4.435   3.927  15.845  0.0947  1.9408  2.6431
 7382SOL    HW233609   4.529   3.922  15.727  0.9448 -2.6421  1.3653
 7383SOL     OW33610   0.554   1.457  15.603  0.3298 -0.8712 -0.2528
 7383SOL    HW133611   0.561   1.433  15.510 -0.6222  0.6304 -0.7037
 7383SOL    HW233612   0.583   1.546  15.586  1.1399 -1.2934 -1.1623
 7384SOL     OW33613   1.003   2.989   4.269  0.4260 -0.0324  0.2065
 7384SOL    HW133614   1.071   2.944   4.219  0.4612 -0.1472  0.3584
 7384SOL    HW233615   0.932   2.952   4.216 -0.2152 -0.0157  1.0511
 7385SOL     OW33616   1.740   0.686  14.380  0.2131  0.0954  0.3922
 7385SOL    HW133617   1.805   0.678  14.450  0.1542 -0.1193  0.4224
 7385SOL    HW233618   1.707   0.775  14.371  1.6478  0.7743  1.9229
 7386SOL     OW33619   0.187   4.704   8.932  0.3154  0.0129  0.2757
 7386SOL    HW133620   0.099   4.667   8.921 -0.4512  2.0393 -0.4886
 7386SOL    HW233621   0.218   4.701   8.841  0.2643  0.2105  0.2506
 7387SOL     OW33622   4.148   3.477   8.487 -0.0176 -0.1791  0.1318
 7387SOL    HW133623   4.097   3.412   8.438  1.3880 -0.7424 -0.5895
 7387SOL    HW233624   4.196   3.428   8.554 -1.2608  0.3398  1.4182
 7388SOL     OW33625   0.791   1.853   2.578  0.4781 -0.1702 -0.0554
 7388SOL    HW133626   0.712   1.799   2.586 -0.5011  1.5875  2.2266
 7388SOL    HW233627   0.826   1.836   2.665 -2.2250  1.3249  1.3366
 7389SOL     OW33628   3.833   0.447   8.355  0.8084 -0.2784  0.6159
 7389SOL    HW133629   3.802   0.526   8.399 -0.8717 -1.4934  1.6363
 7389SOL    HW233630   3.776   0.454   8.279 -1.3121 -1.3079  2.0908
 7390SOL     OW33631   0.767   3.703   4.352  0.1547  0.7234 -0.1504
 7390SOL    HW133632   0.821   3.669   4.281  0.9955  0.9961  0.3580
 7390SOL    HW233633   0.749   3.788   4.313 -0.1937  1.8822  2.5150
 7391SOL     OW33634   3.598   3.356   5.548  0.5460 -0.3786 -0.4151
 7391SOL    HW133635   3.694   3.365   5.546  0.6094 -0.8717  0.5689
 7391SOL    HW233636   3.590   3.263   5.567 -1.5542 -0.0144  0.5009
 7392SOL     OW33637   0.276   2.408   6.450  0.0999 -0.3102 -0.1774
 7392SOL    HW133638   0.336   2.404   6.524 -1.8390 -1.6755  1.3150
 7392SOL    HW233639   0.217   2.477   6.479 -0.8879 -0.2373 -2.2941
 7393SOL     OW33640   3.464   0.348  10.627  1.1116  0.1336  0.1183
 7393SOL    HW133641   3.540   0.372  10.574  2.1645 -1.7932  0.7417
 7393SOL    HW233642   3.503   0.334  10.713  0.5335 -0.0529  0.3481
 7394SOL     OW33643   2.752   1.603  10.568  0.0174  0.0227 -0.0615
 7394SOL    HW133644   2.780   1.557  10.648  1.1355 -0.0085 -0.4729
 7394SOL    HW233645   2.753   1.690  10.607  3.0178 -0.1806  0.3459
 7395SOL     OW33646   0.479   0.216   3.871  0.2653  0.1481  0.0130
 7395SOL    HW133647   0.417   0.156   3.913  0.3968  0.1976  0.2733
 7395SOL    HW233648   0.451   0.204   3.780  0.5873  1.5809 -0.2711
 7396SOL     OW33649   1.650   2.159   1.984  0.7131  0.5216 -0.4239
 7396SOL    HW133650   1.663   2.253   1.973 -1.3605  0.5615 -2.5660
 7396SOL    HW233651   1.660   2.143   1.890  1.5523  0.7392 -0.3672
 7397SOL     OW33652   3.216   1.492   5.351  0.0548  0.4488  0.5054
 7397SOL    HW133653   3.279   1.422   5.369 -0.1406  0.0200 -0.4906
 7397SOL    HW233654   3.144   1.439   5.316  1.4316 -1.5233  0.6930
 7398SOL     OW33655   1.646   2.252   6.254  0.1400 -0.1343  0.1497
 7398SOL    HW133656   1.735   2.234   6.223  0.0985 -1.0920  0.5804
 7398SOL    HW233657   1.620   2.315   6.188 -0.9503 -0.7444  0.0042
 7399SOL     OW33658   4.264   0.799  16.382 -0.1061  0.1542  0.4723
 7399SOL    HW133659   4.195   0.815  16.446 -1.3851  0.2888 -0.9230
 7399SOL    HW233660   4.228   0.844  16.305 -3.2506 -0.3660  1.6445
 7400SOL     OW33661   3.156   3.441   8.152 -0.3972  0.4829  0.0634
 7400SOL    HW133662   3.247   3.416   8.133  0.4275  1.4736  2.6761
 7400SOL    HW233663   3.127   3.475   8.067 -2.5935 -0.0087  0.6360
 7401SOL     OW33664   1.141   3.512  17.542  0.0193 -0.6916 -0.5480
 7401SOL    HW133665   1.133   3.508  17.637 -0.4926  0.6263 -0.5395
 7401SOL    HW233666   1.100   3.435  17.502 -0.7299  0.1820 -1.4649
 7402SOL     OW33667   1.196   2.926   1.511 -0.3072 -0.1995  0.0077
 7402SOL    HW133668   1.148   2.897   1.433 -0.8146  0.9590 -0.1118
 7402SOL    HW233669   1.239   2.847   1.544 -0.2175  1.0845  2.9486
 7403SOL     OW33670   4.140   3.589   5.185  0.3004 -0.6986 -0.2217
 7403SOL    HW133671   4.091   3.511   5.211  2.6464 -2.1198 -0.0617
 7403SOL    HW233672   4.113   3.602   5.094  2.0901 -1.4018 -0.8673
 7404SOL     OW33673   3.239   0.495  13.037 -0.1536 -0.0755 -0.1674
 7404SOL    HW133674   3.194   0.503  12.953 -1.2582  3.2602  0.7483
 7404SOL    HW233675   3.292   0.574  13.034  0.4446 -0.4183  1.1495
 7405SOL     OW33676   2.040   2.081   7.167 -0.0923  0.2127  0.8300
 7405SOL    HW133677   2.024   2.175   7.160 -1.9061  0.0092  2.1649
 7405SOL    HW233678   1.963   2.053   7.118 -0.2522  0.3129  1.0239
 7406SOL     OW33679   1.672   4.570   2.962 -0.5788  0.6222 -0.1542
 7406SOL    HW133680   1.659   4.484   2.921 -1.2223  0.8538 -0.4263
 7406SOL    HW233681   1.615   4.630   2.913  1.5679  2.9033  0.1583
 7407SOL     OW33682   1.126   1.950   9.054  0.0740 -0.7304  0.5770
 7407SOL    HW133683   1.207   1.992   9.082  1.2873 -2.0572 -0.9552
 7407SOL    HW233684   1.101   2.004   8.978  1.1198 -1.3217 -0.1873
 7408SOL     OW33685   0.245   1.236   7.605 -0.0964 -0.2193  0.2943
 7408SOL    HW133686   0.289   1.278   7.679  1.6254  2.1014 -2.0414
 7408SOL    HW233687   0.286   1.150   7.597  2.6284  0.8190  3.1111
 7409SOL     OW33688   1.303   3.428   1.386 -0.5181  0.0321  0.7583
 7409SOL    HW133689   1.227   3.394   1.338  0.8101  2.1483 -2.8216
 7409SOL    HW233690   1.256   3.488   1.444 -0.0234  2.7169 -1.5910
 7410SOL     OW33691   4.040   3.686   3.656 -0.2245 -0.1940 -0.3070
 7410SOL    HW133692   4.111   3.654   3.602 -0.1417  0.7664 -0.7744
 7410SOL    HW233693   3.964   3.676   3.598 -0.3969  0.5248 -0.2055
 7411SOL     OW33694   2.534   4.469   8.522  0.8559 -0.1507  0.5881
 7411SOL    HW133695   2.445   4.454   8.488  1.3066 -0.2115 -0.5691
 7411SOL    HW233696   2.582   4.398   8.479  0.2334 -0.3483  0.2080
 7412SOL     OW33697   1.003   3.139   9.987  0.3404 -0.0777  0.3925
 7412SOL    HW133698   0.944   3.137  10.063  0.5328  1.2222  0.5890
 7412SOL    HW233699   1.027   3.047   9.987 -2.9594 -0.9327 -1.1702
 7413SOL     OW33700   4.135   4.195  16.727  0.0423 -0.6396  0.3285
 7413SOL    HW133701   4.217   4.243  16.713 -1.4372  1.2230 -1.9838
 7413SOL    HW233702   4.136   4.207  16.822 -1.8107 -3.4185  0.7038
 7414SOL     OW33703   3.626   2.900  17.197 -0.0459  0.2180 -0.0572
 7414SOL    HW133704   3.594   2.865  17.280  0.3385  1.9026  0.7966
 7414SOL    HW233705   3.635   2.822  17.142  0.3648 -1.0361  1.8033
 7415SOL     OW33706   0.432   0.227   9.365 -0.2111 -0.2961 -0.0806
 7415SOL    HW133707   0.520   0.256   9.391 -0.4104  0.3335 -0.1277
 7415SOL    HW233708   0.451   0.234   9.272 -1.2473 -0.0295 -0.2725
 7416SOL     OW33709   0.520   1.392  11.469 -0.2356 -0.1888  0.2332
 7416SOL    HW133710   0.523   1.479  11.508  3.1603 -0.3009  0.2215
 7416SOL    HW233711   0.564   1.336  11.532 -0.6615 -0.7962 -0.0125
 7417SOL     OW33712   3.117   1.622  10.779  0.1460  0.2507  0.2316
 7417SOL    HW133713   3.061   1.679  10.831 -1.5691 -1.0265 -0.2429
 7417SOL    HW233714   3.182   1.690  10.761  1.5820 -1.0360  0.5475
 7418SOL     OW33715   0.827   2.433  10.147 -0.3896  0.0565 -0.1776
 7418SOL    HW133716   0.838   2.340  10.168  0.3575  0.0432 -0.6047
 7418SOL    HW233717   0.898   2.454  10.085 -1.2549  1.8423 -0.5662
 7419SOL     OW33718   2.245   1.119   3.844 -0.2781 -0.2728 -1.2073
 7419SOL    HW133719   2.265   1.032   3.880  0.0871  1.4696  2.7828
 7419SOL    HW233720   2.335   1.152   3.838  0.3124 -1.8191 -0.8531
 7420SOL     OW33721   2.152   2.583   4.582 -0.2547 -0.0512  0.4672
 7420SOL    HW133722   2.074   2.601   4.529  1.6196  0.3790 -2.1367
 7420SOL    HW233723   2.150   2.651   4.650 -3.4470  0.9473 -0.6293
 7421SOL     OW33724   3.465   4.549   3.448  0.2457  0.3486 -0.4888
 7421SOL    HW133725   3.551   4.586   3.427 -0.2254  1.9439  0.3701
 7421SOL    HW233726   3.470   4.465   3.404 -2.3878 -0.9684  1.7358
 7422SOL     OW33727   0.565   2.438  16.381 -0.6635 -0.3841 -0.3832
 7422SOL    HW133728   0.481   2.407  16.414 -1.5803  0.0473 -2.3233
 7422SOL    HW233729   0.625   2.367  16.405 -0.2808  0.5693  1.4953
 7423SOL     OW33730   2.335   4.018   7.695 -0.6707 -0.3915  0.5311
 7423SOL    HW133731   2.273   4.016   7.622  0.0413  0.3671 -0.0917
 7423SOL    HW233732   2.288   4.082   7.749 -1.5410 -0.6203  0.0612
 7424SOL     OW33733   1.051   2.196   7.682 -0.0015  0.3840 -0.5979
 7424SOL    HW133734   1.058   2.181   7.776  1.8187 -0.8060 -0.9102
 7424SOL    HW233735   0.960   2.216   7.660  0.4542 -0.8448 -3.6361
 7425SOL     OW33736   0.852   1.613   7.668 -0.2527 -0.0215 -0.1599
 7425SOL    HW133737   0.818   1.674   7.602  0.1043  0.3266 -0.0217
 7425SOL    HW233738   0.876   1.673   7.739 -3.0374  1.9169 -0.8576
 7426SOL     OW33739   4.372   0.916   7.535  0.1113  0.5102 -0.2976
 7426SOL    HW133740   4.375   0.868   7.452 -2.0182 -1.2557  0.6600
 7426SOL    HW233741   4.433   0.868   7.592  0.4322  1.2269 -0.0348
 7427SOL     OW33742   2.897   0.295  17.469 -0.5466  0.7153 -0.5288
 7427SOL    HW133743   2.808   0.288  17.434 -1.2645 -0.6917  1.5530
 7427SOL    HW233744   2.887   0.378  17.516  0.6449 -0.7494  2.2933
 7428SOL     OW33745   2.503   1.383   3.835 -0.2051 -0.3272  0.2517
 7428SOL    HW133746   2.549   1.322   3.777  0.8635  1.8610 -1.1918
 7428SOL    HW233747   2.530   1.352   3.921 -0.2188 -0.7597  0.1031
 7429SOL     OW33748   1.695   1.529   7.080 -0.0087  0.9106 -0.0760
 7429SOL    HW133749   1.739   1.613   7.087 -1.9935  1.7747  1.9934
 7429SOL    HW233750   1.770   1.491   7.033 -0.0289  1.2108 -0.3511
 7430SOL     OW33751   2.130   0.895   8.977  0.1532  0.0382  0.1880
 7430SOL    HW133752   2.145   0.943   8.896  0.2399 -1.5591 -0.7610
 7430SOL    HW233753   2.196   0.825   8.973  0.9914  0.8252  0.1262
 7431SOL     OW33754   4.025   3.780   5.589  0.0353  0.0345  0.3977
 7431SOL    HW133755   4.086   3.707   5.576 -0.5896 -0.2432 -0.9465
 7431SOL    HW233756   3.961   3.751   5.654  1.2250  1.0794  2.0595
 7432SOL     OW33757   1.681   1.479  16.103 -0.2221 -0.3931  0.2455
 7432SOL    HW133758   1.594   1.439  16.104 -1.0840  1.3952 -1.5772
 7432SOL    HW233759   1.716   1.450  16.019 -1.7847 -1.3884 -0.0564
 7433SOL     OW33760   4.164   4.088   2.596 -1.2266  0.0319 -0.0191
 7433SOL    HW133761   4.194   4.132   2.676 -1.8627  0.8167 -0.2106
 7433SOL    HW233762   4.070   4.107   2.592 -1.5868 -1.5106  0.9847
 7434SOL     OW33763   2.770   4.144  16.049  0.0305 -0.6414  0.4633
 7434SOL    HW133764   2.726   4.229  16.042 -0.2935 -0.8823 -0.4059
 7434SOL    HW233765   2.703   4.086  16.084 -1.5501  0.7946 -0.1373
 7435SOL     OW33766   3.917   2.390   2.606  0.3953 -0.4242  0.7885
 7435SOL    HW133767   3.957   2.307   2.630  0.0233 -1.0628 -0.8140
 7435SOL    HW233768   3.962   2.418   2.527 -1.5920  1.0268  0.1542
 7436SOL     OW33769   3.832   4.603   5.923  0.2247 -0.0243  0.3472
 7436SOL    HW133770   3.824   4.671   5.856 -0.2316 -1.4743 -1.0546
 7436SOL    HW233771   3.871   4.653   5.995 -1.1237  0.5750  0.6779
 7437SOL     OW33772   1.844   3.283   8.276  0.7067  0.3888  0.4709
 7437SOL    HW133773   1.894   3.217   8.323  2.3422  1.5046  0.3010
 7437SOL    HW233774   1.823   3.245   8.191 -0.7342 -0.6039  1.2691
 7438SOL     OW33775   0.767   1.622   0.849 -0.7023 -0.2835  0.1581
 7438SOL    HW133776   0.701   1.676   0.806 -0.3913 -1.6085 -1.9988
 7438SOL    HW233777   0.720   1.595   0.928  0.7837 -1.1268  0.7580
 7439SOL     OW33778   3.028   3.824   5.447 -0.7096 -0.1454  0.4028
 7439SOL    HW133779   2.954   3.841   5.505 -1.0385 -0.5406  0.0944
 7439SOL    HW233780   3.100   3.876   5.481  0.4934 -0.6015 -1.4175
 7440SOL     OW33781   1.515   1.837   6.880 -0.0205 -0.4917  0.1713
 7440SOL    HW133782   1.477   1.916   6.842  0.2869 -0.5145 -0.1795
 7440SOL    HW233783   1.550   1.866   6.964 -4.3426  0.4022  1.6549
 7441SOL     OW33784   1.101   1.684   3.693  0.3054 -0.0896 -0.1757
 7441SOL    HW133785   1.102   1.599   3.737 -0.9043 -0.5483 -1.0486
 7441SOL    HW233786   1.041   1.667   3.621 -1.2936 -1.8555  1.5551
 7442SOL     OW33787   2.987   3.797   3.908  0.2897 -0.1811 -0.0971
 7442SOL    HW133788   2.961   3.816   3.998 -2.9230 -1.2217 -0.8229
 7442SOL    HW233789   2.998   3.702   3.903 -0.3526 -0.3492  1.9136
 7443SOL     OW33790   0.672   4.518   4.793  0.1369  0.1732 -0.8498
 7443SOL    HW133791   0.615   4.446   4.819  0.6906  0.0451  0.0093
 7443SOL    HW233792   0.739   4.516   4.862  0.3773 -1.1763 -1.1353
 7444SOL     OW33793   2.310   1.353   4.575  0.0662  0.1258  0.0301
 7444SOL    HW133794   2.214   1.352   4.570 -0.0822  0.0927  3.1589
 7444SOL    HW233795   2.314   1.329   4.668 -0.6247  1.5422  0.4195
 7445SOL     OW33796   1.911   0.974   9.826  0.0305  0.2566 -0.5532
 7445SOL    HW133797   1.883   1.030   9.897  2.1961  0.0319  0.4723
 7445SOL    HW233798   2.006   0.982   9.818 -0.0430  0.3640 -1.3627
 7446SOL     OW33799   0.773   0.798   3.157  0.3756  0.0667 -0.4695
 7446SOL    HW133800   0.851   0.763   3.200  1.3964  1.7524 -0.9570
 7446SOL    HW233801   0.808   0.799   3.068  0.8767  1.1812 -0.2658
 7447SOL     OW33802   0.323   3.943   6.828  0.2098  0.4385  0.1213
 7447SOL    HW133803   0.282   4.019   6.789  0.0566  0.1114 -0.3466
 7447SOL    HW233804   0.276   3.947   6.911  1.9517 -1.1756  1.1989
 7448SOL     OW33805   3.768   4.582   6.252  0.0408  0.0426 -0.1841
 7448SOL    HW133806   3.798   4.652   6.310  0.1524  0.7129 -1.0584
 7448SOL    HW233807   3.843   4.523   6.256 -0.6186 -0.7392  0.5268
 7449SOL     OW33808   0.476   4.158   2.805  0.2252 -0.4074 -0.0891
 7449SOL    HW133809   0.518   4.156   2.892  0.5966 -0.7888 -0.2794
 7449SOL    HW233810   0.387   4.130   2.826 -0.4765  1.5366 -0.4477
 7450SOL     OW33811   1.630   3.128  10.622 -0.3190 -0.0316  0.0937
 7450SOL    HW133812   1.709   3.081  10.650  0.9238  1.9129 -0.1251
 7450SOL    HW233813   1.578   3.104  10.698  1.6783 -0.9331  1.1947
 7451SOL     OW33814   4.013   0.005   9.481  0.3240  0.9445  0.1767
 7451SOL    HW133815   3.960   4.678   9.419  0.4477 -0.8230  1.5356
 7451SOL    HW233816   3.957   0.002   9.559  0.2878  1.2432  0.1612
 7452SOL     OW33817   0.943   0.588   3.814 -0.1241  0.0262  0.2706
 7452SOL    HW133818   1.015   0.546   3.767  1.2490  2.0166  0.6109
 7452SOL    HW233819   0.996   0.645   3.869 -2.2032  1.2199  1.0218
 7453SOL     OW33820   2.369   3.550   3.001 -0.3427  0.0821 -0.2073
 7453SOL    HW133821   2.362   3.521   2.909  0.6942  0.2909 -0.3446
 7453SOL    HW233822   2.393   3.462   3.030  1.1059  0.7455  0.5909
 7454SOL     OW33823   1.252   0.332   8.803 -0.0099 -0.3336 -0.5749
 7454SOL    HW133824   1.337   0.296   8.775 -0.5538 -0.9726 -1.4345
 7454SOL    HW233825   1.279   0.356   8.891 -1.2889  2.4288 -0.9589
 7455SOL     OW33826   0.418   2.222  12.961 -0.2437  0.0028 -0.2672
 7455SOL    HW133827   0.373   2.285  13.018  0.7127 -0.3611  0.8877
 7455SOL    HW233828   0.362   2.223  12.883 -1.6639 -3.2805  0.7124
 7456SOL     OW33829   3.018   3.791   4.922 -0.0015 -0.3623  0.6956
 7456SOL    HW133830   2.994   3.803   5.014  0.9422 -1.5563  1.0953
 7456SOL    HW233831   3.024   3.696   4.929 -0.6099 -0.4251  0.3164
 7457SOL     OW33832   4.266   4.636   2.235  0.3487  0.3797 -0.2966
 7457SOL    HW133833   4.315   4.718   2.243 -0.6810  1.2325 -2.7822
 7457SOL    HW233834   4.325   4.568   2.268 -0.6992  0.2511  1.3059
 7458SOL     OW33835   4.693   3.419   7.779  0.4860 -0.5035  0.3557
 7458SOL    HW133836   4.717   3.442   7.869  1.0908 -0.3092  0.1452
 7458SOL    HW233837   4.640   3.340   7.794  3.2933 -2.3936  0.1876
 7459SOL     OW33838   2.394   0.088   7.431 -0.3756  0.1324 -0.3512
 7459SOL    HW133839   2.457   0.121   7.496  0.8533  1.4240 -2.1875
 7459SOL    HW233840   2.359   0.169   7.394  1.0162  1.0360  0.3218
 7460SOL     OW33841   1.435   1.256   4.784  0.4455 -0.0560  0.1932
 7460SOL    HW133842   1.342   1.272   4.801 -0.0003 -0.8228 -1.5068
 7460SOL    HW233843   1.432   1.231   4.692  3.4283 -1.3062  0.4428
 7461SOL     OW33844   2.425   3.446   4.335 -0.1733  0.1860  0.2642
 7461SOL    HW133845   2.376   3.481   4.409 -1.1102 -2.5940  0.9753
 7461SOL    HW233846   2.422   3.518   4.272  0.8051  1.1900  1.3604
 7462SOL     OW33847   4.541   2.008   4.174  0.3506 -0.0500 -0.1232
 7462SOL    HW133848   4.554   2.091   4.127 -0.8505  1.1943  1.7893
 7462SOL    HW233849   4.556   1.950   4.098  1.4935 -0.2967  0.2937
 7463SOL     OW33850   2.534   3.840   8.340 -0.3495 -0.0167  0.0572
 7463SOL    HW133851   2.442   3.858   8.322 -0.2785 -0.1092 -0.3949
 7463SOL    HW233852   2.567   3.856   8.252 -0.7869  0.3229 -0.0483
 7464SOL     OW33853   3.464   4.418   0.805 -0.3653 -0.1497  0.4407
 7464SOL    HW133854   3.511   4.499   0.823 -2.1669  0.8585  0.5994
 7464SOL    HW233855   3.473   4.380   0.892  0.6723 -0.7978  0.0373
 7465SOL     OW33856   1.484   1.391  10.052 -0.0374  0.6205  0.5731
 7465SOL    HW133857   1.580   1.392  10.058 -0.0210  1.5781  0.2632
 7465SOL    HW233858   1.465   1.367   9.962  2.9980  0.6594 -0.0698
 7466SOL     OW33859   0.242   2.901  14.153  0.2818  0.3744  0.6822
 7466SOL    HW133860   0.244   2.987  14.195  1.2179  0.8778 -0.3927
 7466SOL    HW233861   0.149   2.881  14.165 -0.0501  1.2262 -0.5024
 7467SOL     OW33862   4.226   0.463   8.422  0.3525  0.5595 -0.4862
 7467SOL    HW133863   4.233   0.473   8.328 -1.9555  0.6060 -0.6589
 7467SOL    HW233864   4.320   0.450   8.434  0.2586  0.4934  0.2374
 7468SOL     OW33865   2.528   1.971   2.225  0.0837  0.0864 -0.2235
 7468SOL    HW133866   2.600   1.992   2.284 -0.3858  1.0500  0.0090
 7468SOL    HW233867   2.561   2.011   2.144 -1.6515  0.2124 -0.8728
 7469SOL     OW33868   1.544   3.974   6.723 -0.2697  0.8201 -0.1860
 7469SOL    HW133869   1.473   3.974   6.786  0.6663 -1.2682  0.8549
 7469SOL    HW233870   1.562   4.066   6.703  0.4346  0.6381 -0.3797
 7470SOL     OW33871   2.902   4.549   6.055  0.0189 -0.0153  0.3445
 7470SOL    HW133872   2.899   4.520   5.964 -0.6581 -2.9274  1.3008
 7470SOL    HW233873   2.830   4.491   6.081  0.1072 -0.3149 -0.0827
 7471SOL     OW33874   1.514   0.860   6.446 -0.4495 -0.4749  0.0214
 7471SOL    HW133875   1.593   0.843   6.396 -0.6405  1.9827 -1.1150
 7471SOL    HW233876   1.537   0.846   6.538 -2.6169  1.1426  0.8348
 7472SOL     OW33877   2.606   4.685   5.386  0.3622  0.2320  0.3204
 7472SOL    HW133878   2.620   0.056   5.375  1.7291  0.0924  0.8332
 7472SOL    HW233879   2.534   4.662   5.327  2.7740 -2.1979 -1.6959
 7473SOL     OW33880   1.833   4.509   3.361  0.2043 -0.0184  0.2095
 7473SOL    HW133881   1.763   4.574   3.353  0.8081  0.8479  1.8705
 7473SOL    HW233882   1.910   4.562   3.343  0.3966  0.0895  1.3138
 7474SOL     OW33883   2.567   1.518   3.176  0.1780 -0.2145 -0.2707
 7474SOL    HW133884   2.510   1.447   3.146 -0.0843  0.7827 -2.1406
 7474SOL    HW233885   2.517   1.565   3.242 -1.5743 -0.6009 -1.3273
 7475SOL     OW33886   0.129   1.209   9.320  0.1082  0.5358 -0.1808
 7475SOL    HW133887   0.213   1.162   9.317 -0.9178 -1.3144 -0.3991
 7475SOL    HW233888   0.149   1.293   9.360 -1.5059  1.0702 -0.4975
 7476SOL     OW33889   0.987   1.048  16.931  0.4795 -0.9451  0.1694
 7476SOL    HW133890   1.032   1.084  16.855  0.5169  0.6294  0.9382
 7476SOL    HW233891   1.049   0.990  16.977  1.1292  0.3282  0.9086
 7477SOL     OW33892   0.804   3.456   3.695  0.3562  0.0259  0.2475
 7477SOL    HW133893   0.860   3.508   3.752  0.6768 -0.5121  0.4207
 7477SOL    HW233894   0.828   3.515   3.624  0.0686  1.0500  1.0035
 7478SOL     OW33895   0.109   4.105  16.209 -0.6537  0.4728 -0.5755
 7478SOL    HW133896   0.047   4.058  16.153  0.3271 -0.7123 -0.6734
 7478SOL    HW233897   0.118   4.190  16.166  0.3579 -0.4460 -2.2296
 7479SOL     OW33898   4.116   0.701   8.530  0.0977  0.3437 -0.1064
 7479SOL    HW133899   4.144   0.610   8.520  1.0215  0.7020 -0.7148
 7479SOL    HW233900   4.099   0.700   8.625  0.0574 -1.0585 -0.1257
 7480SOL     OW33901   2.670   3.847   6.460  0.1425 -0.2659 -0.4138
 7480SOL    HW133902   2.660   3.763   6.504 -3.7986 -0.1686 -1.1851
 7480SOL    HW233903   2.665   3.829   6.366  2.0603 -3.3418  0.0705
 7481SOL     OW33904   2.558   4.463   5.870 -0.3450 -0.0570 -0.7294
 7481SOL    HW133905   2.518   4.391   5.820  3.0605 -1.9293 -0.7556
 7481SOL    HW233906   2.521   4.548   5.848  1.5870  0.5966 -1.4412
 7482SOL     OW33907   0.677   0.638   3.381 -0.2315  0.4004  0.2742
 7482SOL    HW133908   0.603   0.694   3.403 -0.0285  0.2686  1.3210
 7482SOL    HW233909   0.727   0.702   3.330  1.9827 -2.3004 -0.9175
 7483SOL     OW33910   2.566   3.185   6.505  0.0472  1.0006  0.0375
 7483SOL    HW133911   2.567   3.196   6.600  0.5189 -1.5317  0.3347
 7483SOL    HW233912   2.540   3.093   6.502  2.5564  0.3066 -0.8713
 7484SOL     OW33913   0.549   4.659   7.375  0.1353  0.4363 -0.5197
 7484SOL    HW133914   0.489   4.666   7.301  0.1985 -0.4911 -0.6609
 7484SOL    HW233915   0.494   4.624   7.445  1.5488 -0.3717  0.1954
 7485SOL     OW33916   1.357   3.831  13.120 -0.0348 -0.7228 -0.6258
 7485SOL    HW133917   1.352   3.760  13.056 -1.0606 -0.2224 -1.1088
 7485SOL    HW233918   1.435   3.882  13.097  0.0125 -0.3657  0.3309
 7486SOL     OW33919   3.136   3.804   2.268 -0.5257 -0.0732 -0.4801
 7486SOL    HW133920   3.068   3.764   2.322 -1.4769  2.0361 -0.1315
 7486SOL    HW233921   3.094   3.803   2.182  0.8981 -0.6013 -1.1846
 7487SOL     OW33922   1.124   2.531   1.681  0.5630 -0.2904 -0.0011
 7487SOL    HW133923   1.206   2.580   1.684  0.0009  0.6642 -0.1697
 7487SOL    HW233924   1.118   2.500   1.590  0.6029  0.1166 -0.1431
 7488SOL     OW33925   1.705   0.401   5.689  0.7863  0.0402 -0.0666
 7488SOL    HW133926   1.756   0.457   5.746 -1.5227  1.4678  0.5602
 7488SOL    HW233927   1.618   0.401   5.727  0.8329 -1.4006  0.0495
 7489SOL     OW33928   3.959   3.980   5.962 -0.0955 -0.0325  0.8327
 7489SOL    HW133929   4.046   3.940   5.954 -0.3757 -0.6313  0.7348
 7489SOL    HW233930   3.915   3.919   6.021 -0.1901 -1.6725 -0.9194
 7490SOL     OW33931   1.724   3.100   0.780 -1.1583 -0.5400 -0.5472
 7490SOL    HW133932   1.764   3.021   0.816  0.3100 -0.2459 -1.5358
 7490SOL    HW233933   1.689   3.060   0.700  0.5940  1.0587 -2.1178
 7491SOL     OW33934   3.922   2.827  13.780 -0.1349  0.5305 -0.2329
 7491SOL    HW133935   3.915   2.903  13.838  2.3160  0.5443  0.0136
 7491SOL    HW233936   4.015   2.840  13.761 -0.2375  0.4872 -0.7685
 7492SOL     OW33937   0.654   4.483  11.179  0.5646 -0.1808 -0.3060
 7492SOL    HW133938   0.631   4.469  11.087 -0.3869  0.5775 -0.1816
 7492SOL    HW233939   0.571   4.443  11.205  0.4685  1.7618  2.3049
 7493SOL     OW33940   3.650   3.055   5.626 -0.2756  0.3528  0.3477
 7493SOL    HW133941   3.669   3.024   5.715  0.0160 -0.0512  0.1488
 7493SOL    HW233942   3.574   3.000   5.607  0.2542  0.8562 -3.1397
 7494SOL     OW33943   2.291   4.197  16.701 -0.0211 -0.7397 -0.1600
 7494SOL    HW133944   2.364   4.189  16.763 -0.8306 -0.7837  0.7897
 7494SOL    HW233945   2.217   4.214  16.759 -1.0600  3.5381 -2.7352
 7495SOL     OW33946   3.821   3.391   7.066 -0.5325 -0.4231 -0.3375
 7495SOL    HW133947   3.803   3.441   6.986  0.7722  0.5614 -0.0139
 7495SOL    HW233948   3.775   3.434   7.137  2.0722  1.7306  0.0379
 7496SOL     OW33949   2.277   1.305   8.232  0.2080 -0.4195 -0.2592
 7496SOL    HW133950   2.363   1.343   8.213  0.1643 -0.5158 -0.6481
 7496SOL    HW233951   2.223   1.384   8.228 -0.7283 -1.1698 -2.6516
 7497SOL     OW33952   1.145   1.189  10.904  0.5255  0.1487 -0.7814
 7497SOL    HW133953   1.102   1.108  10.931  3.8838 -1.3668  0.0972
 7497SOL    HW233954   1.095   1.259  10.943  1.2954 -0.7095  1.7479
 7498SOL     OW33955   3.865   0.384   3.735  0.5526 -0.4841 -0.6009
 7498SOL    HW133956   3.859   0.318   3.666  0.0760 -1.2889  0.2215
 7498SOL    HW233957   3.942   0.433   3.705 -0.2230  1.4199  0.5176
 7499SOL     OW33958   0.359   2.862  13.658  0.3680 -0.9164 -0.8126
 7499SOL    HW133959   0.276   2.879  13.615 -0.4189 -1.5285  0.4785
 7499SOL    HW233960   0.416   2.930  13.621 -0.9359  0.6876  0.1400
 7500SOL     OW33961   1.768   2.606   6.239 -0.2273 -0.2056  0.1958
 7500SOL    HW133962   1.829   2.660   6.189 -3.0358  3.7333  1.0057
 7500SOL    HW233963   1.690   2.657   6.219  0.5160  1.4804  1.5907
 7501SOL     OW33964   2.899   2.879   3.663 -0.1779 -0.0371  0.0755
 7501SOL    HW133965   2.946   2.958   3.636  1.1645 -1.3452 -1.4170
 7501SOL    HW233966   2.810   2.911   3.648  0.3423  0.8650 -1.1106
 7502SOL     OW33967   4.235   1.543  14.916 -0.4719 -0.3274  0.0721
 7502SOL    HW133968   4.308   1.482  14.905 -1.4900 -1.4511 -0.4678
 7502SOL    HW233969   4.223   1.559  15.009 -1.1537  0.0743 -0.0813
 7503SOL     OW33970   4.445   0.571   6.489 -0.3907  0.0209  0.7130
 7503SOL    HW133971   4.440   0.666   6.484 -1.9872 -0.0873  0.3751
 7503SOL    HW233972   4.441   0.542   6.398 -2.0550  1.6512  0.2732
 7504SOL     OW33973   0.403   0.123   8.198  0.1404  0.1179 -0.1893
 7504SOL    HW133974   0.495   0.134   8.171 -0.4410  0.0399 -2.2540
 7504SOL    HW233975   0.386   0.199   8.253 -2.7479 -1.1726  0.7105
 7505SOL     OW33976   1.543   0.810   4.657 -0.4237 -0.2065 -0.0033
 7505SOL    HW133977   1.630   0.830   4.623 -0.5580  1.7003  0.7395
 7505SOL    HW233978   1.564   0.777   4.744  0.2464 -0.0342 -0.1018
 7506SOL     OW33979   1.163   3.704   9.708  0.6706 -0.0173  0.0839
 7506SOL    HW133980   1.105   3.641   9.666  0.0621  0.9719 -0.5665
 7506SOL    HW233981   1.246   3.688   9.663  1.1340 -1.2298  1.3959
 7507SOL     OW33982   3.274   4.163   4.978 -0.0288 -0.0955 -0.6367
 7507SOL    HW133983   3.288   4.082   4.929 -0.8736 -0.0186 -1.0066
 7507SOL    HW233984   3.224   4.130   5.053  0.6399  0.9978  0.2815
 7508SOL     OW33985   1.073   1.761   8.751  0.0695  0.4089  0.4193
 7508SOL    HW133986   1.061   1.730   8.661 -0.7105 -0.4420  0.8183
 7508SOL    HW233987   1.073   1.856   8.742 -1.1135  0.4002  0.2134
 7509SOL     OW33988   0.898   3.754   7.668  0.5692  0.0060  0.2326
 7509SOL    HW133989   0.834   3.683   7.679 -0.7076  1.5156  2.6520
 7509SOL    HW233990   0.942   3.747   7.752  0.1768  2.3036  0.6201
 7510SOL     OW33991   4.244   0.399   2.755 -0.5490 -0.0915  0.0825
 7510SOL    HW133992   4.151   0.401   2.779 -1.7356 -1.4574 -4.4845
 7510SOL    HW233993   4.259   0.307   2.776 -0.6852 -0.4658 -1.4774
 7511SOL     OW33994   4.329   4.104   0.621  0.3117  0.0144  0.1792
 7511SOL    HW133995   4.243   4.067   0.642  0.9099 -1.7777 -0.5589
 7511SOL    HW233996   4.318   4.080   0.529 -1.7165 -1.8780  0.8909
 7512SOL     OW33997   1.383   0.775   8.166 -0.0843  0.1989  0.4406
 7512SOL    HW133998   1.331   0.848   8.198 -1.8462 -0.6656 -0.4501
 7512SOL    HW233999   1.354   0.705   8.226  0.3308 -0.3645 -0.0133
 7513SOL     OW34000   3.353   1.793   3.940  0.2470 -0.0504  0.4918
 7513SOL    HW134001   3.317   1.794   4.029  2.2264  2.5774  1.2459
 7513SOL    HW234002   3.377   1.885   3.931 -1.6624  0.2666 -1.4778
 7514SOL     OW34003   3.968   2.517   5.071  0.3496 -0.1236 -0.2353
 7514SOL    HW134004   3.879   2.525   5.107 -0.2840 -0.1721 -1.7588
 7514SOL    HW234005   3.942   2.471   4.991  0.1663 -1.4277  0.5685
 7515SOL     OW34006   0.742   3.936   6.313 -0.3988  0.3545 -0.5458
 7515SOL    HW134007   0.682   3.990   6.262  2.5147  1.2163 -3.0681
 7515SOL    HW234008   0.818   3.946   6.256  0.3390 -1.3283  0.1345
 7516SOL     OW34009   2.229   4.459  10.384  0.8130  0.0943 -0.2841
 7516SOL    HW134010   2.227   4.373  10.342 -0.1999 -0.2277  0.4469
 7516SOL    HW234011   2.137   4.485  10.395  0.8954 -1.0053  2.7924
 7517SOL     OW34012   2.931   2.682   6.119 -0.1754  0.1494  0.7420
 7517SOL    HW134013   2.981   2.609   6.082  0.0264  1.6244 -1.8897
 7517SOL    HW234014   2.841   2.656   6.100  0.2611 -1.5309  1.0027
 7518SOL     OW34015   3.864   0.975   3.715  0.0373  0.3351  0.4994
 7518SOL    HW134016   3.813   0.894   3.718 -1.4977  1.2176 -1.4610
 7518SOL    HW234017   3.941   0.941   3.760 -0.2281  1.1317  1.5537
 7519SOL     OW34018   2.741   4.224  12.349  0.0725  0.1375 -0.1296
 7519SOL    HW134019   2.774   4.135  12.361  1.4537  0.9097  1.8079
 7519SOL    HW234020   2.721   4.216  12.256  0.6236 -1.1623 -0.1445
 7520SOL     OW34021   4.541   0.157   2.602  0.2533  0.0428 -0.0935
 7520SOL    HW134022   4.608   0.217   2.636 -0.4062  0.4903  0.4355
 7520SOL    HW234023   4.511   0.203   2.524  0.1167 -0.1089 -0.1304
 7521SOL     OW34024   4.697   1.305   2.865 -0.6027  0.1058 -0.5605
 7521SOL    HW134025   0.045   1.318   2.803 -0.2172  1.3904  0.1585
 7521SOL    HW234026   4.670   1.223   2.823 -0.0498  0.5196 -1.7088
 7522SOL     OW34027   1.644   2.006  12.107 -0.2511  0.6097 -0.3017
 7522SOL    HW134028   1.620   1.993  12.015  0.2507  1.8427 -0.6064
 7522SOL    HW234029   1.704   2.080  12.107  1.0658 -0.4410 -1.8938
 7523SOL     OW34030   2.617   0.880   7.085  0.4541 -0.1956  0.6147
 7523SOL    HW134031   2.673   0.835   7.149  0.6300 -0.8102  0.0234
 7523SOL    HW234032   2.537   0.894   7.136 -0.6536 -2.0464 -0.6120
 7524SOL     OW34033   1.109   4.664   4.648 -0.1264 -0.0355 -0.0913
 7524SOL    HW134034   1.077   4.648   4.559  0.5079  1.9611 -0.6760
 7524SOL    HW234035   1.152   4.581   4.669  1.0415  0.4400 -0.6121
 7525SOL     OW34036   1.601   2.580   1.572  0.3358  0.1610  0.0680
 7525SOL    HW134037   1.514   2.613   1.595  0.1295  1.6933 -2.9217
 7525SOL    HW234038   1.601   2.508   1.635 -0.3414  0.4763  0.4234
 7526SOL     OW34039   3.518   1.718   7.135 -0.1899  0.3339 -0.0398
 7526SOL    HW134040   3.572   1.775   7.081  0.2916  0.2206  0.3162
 7526SOL    HW234041   3.579   1.645   7.149 -0.5880  0.1831  0.9024
 7527SOL     OW34042   2.720   1.296  17.384  0.3981 -0.1594  0.8466
 7527SOL    HW134043   2.701   1.372  17.439  0.5361 -0.3182  1.1106
 7527SOL    HW234044   2.806   1.268  17.416  0.0638 -3.2172 -0.9305
 7528SOL     OW34045   1.241   1.006   8.491  0.2521  0.0989  0.4095
 7528SOL    HW134046   1.175   0.938   8.507  1.1208 -1.0585 -0.9164
 7528SOL    HW234047   1.271   1.013   8.581 -0.3694 -1.5856  0.7527
 7529SOL     OW34048   3.355   2.830  16.997  0.3831 -0.6953  0.1104
 7529SOL    HW134049   3.380   2.913  16.954 -0.5679  0.3846  1.6407
 7529SOL    HW234050   3.381   2.765  16.932  0.4932 -0.2733 -0.2767
 7530SOL     OW34051   0.311   0.592   4.515 -0.5251  0.3941 -0.0654
 7530SOL    HW134052   0.309   0.604   4.421  0.1056  0.0948 -0.1207
 7530SOL    HW234053   0.396   0.548   4.520 -0.3295  0.7171 -0.5688
 7531SOL     OW34054   2.219   3.097   3.997  0.2963  0.0568  0.0083
 7531SOL    HW134055   2.298   3.127   4.042  1.5598 -2.9726 -0.2040
 7531SOL    HW234056   2.165   3.176   4.007 -2.7492 -2.2060  1.2330
 7532SOL     OW34057   3.776   3.501   4.843 -0.2357 -0.1991 -0.2785
 7532SOL    HW134058   3.724   3.445   4.785  3.1603 -2.1065 -1.4706
 7532SOL    HW234059   3.718   3.496   4.920  2.6554  1.3665  1.9842
 7533SOL     OW34060   0.476   4.619   6.470 -0.2625 -0.2521  0.1684
 7533SOL    HW134061   0.529   4.684   6.423 -1.2618  0.1486 -0.4045
 7533SOL    HW234062   0.540   4.575   6.526  1.5183 -0.8307 -2.3540
 7534SOL     OW34063   0.521   1.738   9.878  0.3968  0.4254  0.2875
 7534SOL    HW134064   0.523   1.718   9.972  1.0188  0.0457  0.1901
 7534SOL    HW234065   0.593   1.801   9.874  1.2157 -0.5789 -0.7607
 7535SOL     OW34066   0.114   2.327  12.441 -0.2020 -0.1240 -0.2752
 7535SOL    HW134067   0.189   2.318  12.382 -0.3475  0.3219 -0.5284
 7535SOL    HW234068   0.111   2.422  12.447  0.8385 -0.1368  0.6274
 7536SOL     OW34069   0.990   4.712  13.975  0.2359  0.4531 -0.4301
 7536SOL    HW134070   0.930   0.053  13.939 -0.0325  2.7571  4.1009
 7536SOL    HW234071   1.066   0.047  13.976 -1.1767  2.2927 -1.0021
 7537SOL     OW34072   2.305   0.311   8.570  0.0133 -0.2250  0.4521
 7537SOL    HW134073   2.299   0.354   8.655 -1.3004  0.1920  0.1550
 7537SOL    HW234074   2.311   0.393   8.520  2.3657 -1.1842 -0.8280
 7538SOL     OW34075   1.465   4.553   9.589  0.5819 -0.1667 -0.3572
 7538SOL    HW134076   1.412   4.531   9.666 -1.3338 -0.8245 -1.8775
 7538SOL    HW234077   1.453   4.648   9.592 -0.6419 -0.3103 -0.7167
 7539SOL     OW34078   4.428   3.015  11.308 -0.6117  0.0325 -0.7225
 7539SOL    HW134079   4.369   3.077  11.266 -1.2049  0.5946  0.9233
 7539SOL    HW234080   4.448   3.078  11.377 -2.4949  1.4185 -1.4626
 7540SOL     OW34081   2.844   3.297  16.201 -0.1881  0.3331 -0.2188
 7540SOL    HW134082   2.883   3.371  16.247  1.2301  0.2762 -1.3095
 7540SOL    HW234083   2.776   3.269  16.262  0.1687  0.3140  0.1679
 7541SOL     OW34084   1.877   0.289   3.190  0.1525  0.5010  0.3106
 7541SOL    HW134085   1.923   0.303   3.108 -0.3561  0.8372  0.0865
 7541SOL    HW234086   1.921   0.351   3.249  2.9339 -2.7915  1.7181
 7542SOL     OW34087   4.617   0.803   9.311 -0.1297 -0.3323  0.4579
 7542SOL    HW134088   4.678   0.789   9.383 -2.0201  1.8089  2.4384
 7542SOL    HW234089   4.615   0.898   9.316 -2.8207 -0.4448  1.2684
 7543SOL     OW34090   1.826   3.205   7.999  0.0792 -0.0427  0.2872
 7543SOL    HW134091   1.857   3.245   7.918  1.5637 -1.9317 -0.0782
 7543SOL    HW234092   1.810   3.114   7.975  3.3010 -1.0974  2.1070
 7544SOL     OW34093   1.298   3.713   6.726  0.3177 -0.1161  0.0945
 7544SOL    HW134094   1.320   3.767   6.801  0.6254 -0.2056  0.0677
 7544SOL    HW234095   1.267   3.633   6.767 -2.0844  0.6503 -0.2054
 7545SOL     OW34096   0.929   4.363   0.049 -0.1445  0.3132 -0.5206
 7545SOL    HW134097   1.003   4.422   0.053 -0.4012  0.6891 -1.3193
 7545SOL    HW234098   0.855   4.424   0.048 -1.2779 -1.0402  2.3899
 7546SOL     OW34099   4.398   4.238   5.524 -0.6368 -0.0352 -0.1612
 7546SOL    HW134100   4.318   4.291   5.522 -0.4748  0.2649  1.6618
 7546SOL    HW234101   4.375   4.190   5.604  0.6881 -0.2150  0.1040
 7547SOL     OW34102   0.873   4.438   1.281  0.1272 -0.1643  0.4089
 7547SOL    HW134103   0.957   4.431   1.327  0.3919 -0.3500 -0.1067
 7547SOL    HW234104   0.814   4.459   1.353  1.1210  0.6220  0.9976
 7548SOL     OW34105   4.709   4.341   2.158  0.4135  0.0222 -0.0818
 7548SOL    HW134106   0.046   4.378   2.094 -1.2739 -0.6280 -2.0663
 7548SOL    HW234107   0.052   4.277   2.184 -0.4479 -0.4491  0.9564
 7549SOL     OW34108   0.018   2.517  12.103  0.2953  1.1131 -0.0984
 7549SOL    HW134109   0.012   2.554  12.191  0.4099  1.8410 -0.4019
 7549SOL    HW234110   4.684   2.572  12.051  0.5041  0.9843 -0.4634
 7550SOL     OW34111   4.134   0.639   4.969 -0.5589  0.2826 -0.5021
 7550SOL    HW134112   4.128   0.657   4.875  2.6831  2.3431 -0.3324
 7550SOL    HW234113   4.168   0.550   4.964 -1.3337 -0.0706  0.6194
 7551SOL     OW34114   2.379   0.808   9.630  0.2713 -0.0154  0.3900
 7551SOL    HW134115   2.442   0.738   9.647 -0.8927 -0.9324  0.9605
 7551SOL    HW234116   2.404   0.813   9.537  3.1595 -1.6326  1.0846
 7552SOL     OW34117   2.730   0.840  11.794  0.6323  0.2429 -0.6993
 7552SOL    HW134118   2.784   0.774  11.838 -1.3181 -2.0041 -1.6692
 7552SOL    HW234119   2.713   0.902  11.865  0.7992  1.6642 -1.8860
 7553SOL     OW34120   4.189   3.719   3.399 -0.5088  0.2085 -0.1103
 7553SOL    HW134121   4.149   3.705   3.313 -1.3310 -0.0345  0.3135
 7553SOL    HW234122   4.220   3.809   3.390 -2.6417  1.0702  1.1247
 7554SOL     OW34123   1.789   2.594   2.481 -0.2016  0.3673 -0.4967
 7554SOL    HW134124   1.824   2.562   2.563 -0.8694 -0.3323 -0.4801
 7554SOL    HW234125   1.757   2.513   2.440 -1.7240  0.5738  0.2932
 7555SOL     OW34126   2.121   1.971  11.483  0.1880  0.1799  0.1528
 7555SOL    HW134127   2.122   1.943  11.574  2.0330  0.9283  0.3616
 7555SOL    HW234128   2.152   2.061  11.491  1.3877 -0.3169  1.0899
 7556SOL     OW34129   4.388   3.753   3.926  0.4951  0.5520 -0.1631
 7556SOL    HW134130   4.381   3.789   4.015 -0.2594 -0.1243  0.0604
 7556SOL    HW234131   4.396   3.832   3.873  0.3552  1.4614  1.1748
 7557SOL     OW34132   0.301   1.589  17.129 -0.4294 -0.3608 -0.6673
 7557SOL    HW134133   0.378   1.533  17.118  0.2876  0.7017 -0.9647
 7557SOL    HW234134   0.338   1.668  17.091  1.5902 -1.4018 -0.8290
 7558SOL     OW34135   3.873   4.081   2.603  0.2714 -0.3499 -0.2682
 7558SOL    HW134136   3.848   4.080   2.695  1.1693 -0.8974 -0.0239
 7558SOL    HW234137   3.808   4.134   2.557 -1.0944 -1.5969  0.2561
 7559SOL     OW34138   1.653   1.217   5.992 -0.3584  0.3485 -0.1960
 7559SOL    HW134139   1.562   1.190   5.982  0.9458 -3.3675 -1.9921
 7559SOL    HW234140   1.666   1.206   6.086 -3.1123 -0.2103  0.1109
 7560SOL     OW34141   3.683   4.072   2.812  0.5199 -0.2094  0.1014
 7560SOL    HW134142   3.610   4.090   2.871 -1.2270 -1.4182 -1.6766
 7560SOL    HW234143   3.644   4.023   2.739 -0.5759 -1.3808  1.4504
 7561SOL     OW34144   2.624   4.456   2.575 -0.1086  0.5139  1.0439
 7561SOL    HW134145   2.619   4.466   2.670 -0.2433  1.2270  0.9634
 7561SOL    HW234146   2.558   4.388   2.566 -0.2788  0.4955  2.3120
 7562SOL     OW34147   4.277   1.927  10.436 -0.1978  0.3282  0.1304
 7562SOL    HW134148   4.314   2.015  10.440  0.5899  0.0475 -0.9306
 7562SOL    HW234149   4.321   1.885  10.363 -0.8158 -1.0791  0.5771
 7563SOL     OW34150   3.759   1.871   3.259 -0.0151  0.1807 -0.2903
 7563SOL    HW134151   3.774   1.945   3.201  1.1666  0.0625 -0.1466
 7563SOL    HW234152   3.736   1.912   3.342 -0.8965 -0.3896 -0.2501
 7564SOL     OW34153   0.426   3.483   3.454  0.0166  0.5453  0.7155
 7564SOL    HW134154   0.427   3.387   3.450  1.3838  0.6115 -0.7029
 7564SOL    HW234155   0.377   3.500   3.534 -1.7631 -1.0667 -0.0324
 7565SOL     OW34156   3.384   3.625   2.558  0.6535 -0.0763  0.7069
 7565SOL    HW134157   3.361   3.558   2.622  2.3636 -0.2057  1.2056
 7565SOL    HW234158   3.335   3.606   2.479 -0.8693 -2.6998  2.2709
 7566SOL     OW34159   4.058   1.635   7.879  0.4859  0.0129  0.2355
 7566SOL    HW134160   4.098   1.549   7.865 -1.6854 -1.1704  1.2793
 7566SOL    HW234161   4.126   1.678   7.930 -1.1101  0.9042  1.5921
 7567SOL     OW34162   3.842   1.487   8.769 -0.1530  0.2401 -0.2598
 7567SOL    HW134163   3.914   1.457   8.824 -0.1644  0.4602 -0.1260
 7567SOL    HW234164   3.768   1.439   8.806  0.9712 -0.6500  0.8412
 7568SOL     OW34165   0.787   0.833  14.631  0.3981  0.0943  0.3403
 7568SOL    HW134166   0.710   0.854  14.683  0.3472  1.4223 -0.2684
 7568SOL    HW234167   0.857   0.827  14.696  0.8378  2.3576  0.0510
 7569SOL     OW34168   0.946   4.006   5.656  0.2481  0.3055  0.3964
 7569SOL    HW134169   1.024   4.000   5.711  0.5746  1.4546  0.0451
 7569SOL    HW234170   0.936   4.097   5.631 -1.4132 -0.4583 -1.7064
 7570SOL     OW34171   1.187   3.135   6.006  0.0169  0.7395 -0.2121
 7570SOL    HW134172   1.267   3.176   6.040 -0.3692 -0.2464  1.8902
 7570SOL    HW234173   1.140   3.214   5.979  0.2138  0.2543 -1.9146
 7571SOL     OW34174   2.804   3.568   6.716  0.5449  0.4066 -0.0806
 7571SOL    HW134175   2.712   3.591   6.729  1.0439  1.0781  2.2499
 7571SOL    HW234176   2.792   3.498   6.652 -0.8786 -0.2759  0.9147
 7572SOL     OW34177   0.832   2.803   0.598 -0.1894 -0.4374  0.1261
 7572SOL    HW134178   0.759   2.780   0.541 -1.2675  0.4528  1.1518
 7572SOL    HW234179   0.907   2.780   0.542 -1.2467  0.8523 -1.8116
 7573SOL     OW34180   4.046   4.268  14.662 -0.0962  0.0076 -0.3130
 7573SOL    HW134181   4.099   4.190  14.651  0.3337  0.6541 -2.8369
 7573SOL    HW234182   4.103   4.343  14.681 -1.7986  1.3604 -0.5742
 7574SOL     OW34183   2.394   0.174  10.203 -0.2009 -0.2822  0.5509
 7574SOL    HW134184   2.325   0.233  10.232 -0.3659 -0.0537 -0.2989
 7574SOL    HW234185   2.390   0.182  10.108  2.3963 -1.7153  0.3144
 7575SOL     OW34186   1.370   4.249   3.919 -0.1950 -0.2108  0.0003
 7575SOL    HW134187   1.406   4.245   4.008 -0.7383  1.9865  0.3097
 7575SOL    HW234188   1.302   4.316   3.929  1.3351  1.1536  1.2331
 7576SOL     OW34189   1.772   2.358   0.912  0.3324 -0.6428 -0.1061
 7576SOL    HW134190   1.825   2.411   0.852 -0.8444  1.9133  1.1370
 7576SOL    HW234191   1.799   2.272   0.880  1.1129  0.6712 -2.9366
 7577SOL     OW34192   4.293   1.574   2.654 -0.1627 -0.0562  0.1860
 7577SOL    HW134193   4.208   1.609   2.629 -0.2574  0.7879  1.7041
 7577SOL    HW234194   4.340   1.567   2.571 -0.3205  1.5799 -0.0231
 7578SOL     OW34195   4.189   4.119  12.575  0.1090  0.0509  0.1770
 7578SOL    HW134196   4.273   4.086  12.541  1.0056  1.3141  1.1690
 7578SOL    HW234197   4.205   4.211  12.592  1.3322 -0.4364  1.6449
 7579SOL     OW34198   2.105   2.030  10.766  0.3285  0.3899 -0.2703
 7579SOL    HW134199   2.014   2.041  10.740  0.6525 -1.0783 -1.9637
 7579SOL    HW234200   2.098   1.977  10.846  0.6942  1.6385  0.6025
 7580SOL     OW34201   3.485   4.614   6.237 -0.2130  0.5655 -0.1089
 7580SOL    HW134202   3.497   4.708   6.247 -1.8220  0.9452 -1.7342
 7580SOL    HW234203   3.571   4.579   6.260 -0.7460  1.0988  2.6814
 7581SOL     OW34204   2.652   4.384  16.110  0.3132 -0.4987  0.4906
 7581SOL    HW134205   2.624   4.440  16.182  0.0040 -1.3582  1.0385
 7581SOL    HW234206   2.603   4.304  16.129 -2.3986  0.7952 -1.0985
 7582SOL     OW34207   2.920   3.621  17.547  1.0080  0.3041  0.4739
 7582SOL    HW134208   2.841   3.675  17.558  1.1790  0.5881  0.3041
 7582SOL    HW234209   2.881   3.543  17.508  0.1213  0.9170  0.1009
 7583SOL     OW34210   3.011   3.353  13.619  0.3106 -0.1201  0.4365
 7583SOL    HW134211   2.974   3.343  13.531 -0.9087  0.1544  0.9119
 7583SOL    HW234212   2.986   3.274  13.666  3.0796 -0.8306  0.7260
 7584SOL     OW34213   3.617   3.260   6.637 -0.0478 -0.2360  0.2572
 7584SOL    HW134214   3.641   3.301   6.553 -3.5836  0.5863 -0.3597
 7584SOL    HW234215   3.589   3.171   6.617  1.2544 -0.6062  0.0744
 7585SOL     OW34216   0.314   1.024   0.018 -0.4847 -0.1811  0.1454
 7585SOL    HW134217   0.329   0.929   0.013  0.7417  0.0898 -1.3237
 7585SOL    HW234218   0.306   1.032   0.113 -0.8194  1.0720  0.0142
 7586SOL     OW34219   1.612   3.596   8.897  0.1459 -0.1468  0.2559
 7586SOL    HW134220   1.577   3.669   8.847 -0.8178 -0.4961  0.4298
 7586SOL    HW234221   1.652   3.547   8.825 -1.0581 -0.7640  0.0159
 7587SOL     OW34222   2.142   0.269  13.566 -0.4222 -0.7570  0.2159
 7587SOL    HW134223   2.229   0.269  13.606 -1.2115 -0.2814  1.9564
 7587SOL    HW234224   2.118   0.361  13.554 -0.9550 -0.7483  1.3317
 7588SOL     OW34225   3.436   2.009  16.286  0.1881  0.5973  0.2732
 7588SOL    HW134226   3.351   2.020  16.242  0.6610 -1.6322 -1.2217
 7588SOL    HW234227   3.481   2.079  16.238 -0.1729 -0.9463 -2.3443
 7589SOL     OW34228   3.797   1.451  15.117  0.2617  0.4177  0.1782
 7589SOL    HW134229   3.824   1.372  15.070 -0.8025  0.2351 -0.1259
 7589SOL    HW234230   3.703   1.438  15.119  0.5075 -1.4006 -0.3270
 7590SOL     OW34231   1.251   2.072   5.521 -0.5678  0.6784 -0.1603
 7590SOL    HW134232   1.175   2.047   5.574 -1.5033  1.8765 -0.9465
 7590SOL    HW234233   1.263   2.160   5.555 -0.9621 -0.6051  3.2495
 7591SOL     OW34234   1.569   4.571   5.447 -0.0880 -0.3379 -0.1310
 7591SOL    HW134235   1.523   4.598   5.367 -0.0208  0.2718  0.0390
 7591SOL    HW234236   1.635   4.639   5.436  1.5075 -2.1508 -1.7053
 7592SOL     OW34237   0.144   0.786   7.868  0.2795 -0.1790 -0.2758
 7592SOL    HW134238   0.160   0.692   7.867  1.5953  0.0509 -0.8511
 7592SOL    HW234239   0.219   0.816   7.817  1.0374 -0.1453  0.8623
 7593SOL     OW34240   4.217   1.612  12.379  0.0570  0.1503 -0.3456
 7593SOL    HW134241   4.221   1.524  12.415  1.6063 -0.2324 -1.4801
 7593SOL    HW234242   4.306   1.644  12.393  0.1718 -0.5123  0.4085
 7594SOL     OW34243   0.273   3.251  14.844 -0.2679  0.1145  0.0316
 7594SOL    HW134244   0.313   3.263  14.930 -1.0575  0.5352  0.3409
 7594SOL    HW234245   0.254   3.337  14.806  0.4819  0.6134  0.7948
 7595SOL     OW34246   2.454   3.679  10.122 -0.1999  0.1234 -0.0047
 7595SOL    HW134247   2.534   3.653  10.169  2.5479  5.7153 -1.6604
 7595SOL    HW234248   2.399   3.688  10.200  0.3952  0.3413  0.3914
 7596SOL     OW34249   3.476   4.338   5.059  0.3367 -0.4856  0.2717
 7596SOL    HW134250   3.422   4.260   5.047  2.0977 -1.5917 -0.4114
 7596SOL    HW234251   3.562   4.304   5.037  0.4040  0.0435 -0.2913
 7597SOL     OW34252   4.454   0.596  11.209 -0.4048  0.4108 -0.0042
 7597SOL    HW134253   4.497   0.532  11.265  1.7853  0.1022 -1.9938
 7597SOL    HW234254   4.424   0.538  11.139  3.6365 -0.6263 -0.8938
 7598SOL     OW34255   0.504   1.223  16.404  0.8455 -0.0912 -0.7204
 7598SOL    HW134256   0.437   1.202  16.468  0.5151  0.3673 -0.9128
 7598SOL    HW234257   0.489   1.150  16.344 -1.2579 -1.6832  1.7403
 7599SOL     OW34258   0.618   4.454   0.303 -0.1187  0.1707 -0.1707
 7599SOL    HW134259   0.550   4.460   0.371 -1.2132  0.8106 -1.3114
 7599SOL    HW234260   0.696   4.418   0.344  0.8733  3.7299  1.0203
 7600SOL     OW34261   3.672   0.085   5.763  0.0182 -0.2849 -0.1057
 7600SOL    HW134262   3.607   0.149   5.793  1.0698  0.5819  0.2886
 7600SOL    HW234263   3.659   0.098   5.669 -1.9671  2.2732  0.5047
 7601SOL     OW34264   2.691   0.003   6.416  0.4238  0.1718 -0.1985
 7601SOL    HW134265   2.660   0.055   6.342  0.1221 -1.7002 -1.3795
 7601SOL    HW234266   2.784   0.022   6.408  0.8819 -1.6026  1.0345
 7602SOL     OW34267   0.409   0.743   5.085 -0.3560  0.4229  0.7618
 7602SOL    HW134268   0.319   0.754   5.055 -0.5765  1.6723  1.8442
 7602SOL    HW234269   0.434   0.829   5.120 -1.3096  0.5971  1.0305
 7603SOL     OW34270   0.608   3.528  12.816  0.0640 -0.4980  1.0081
 7603SOL    HW134271   0.519   3.492  12.819 -0.4770  0.7358 -0.3533
 7603SOL    HW234272   0.655   3.445  12.811  2.4506  0.9022  0.3082
 7604SOL     OW34273   3.017   1.240   1.019 -0.0137  0.1226  0.2836
 7604SOL    HW134274   2.954   1.169   1.001  1.7578 -1.1051 -0.9951
 7604SOL    HW234275   2.970   1.284   1.091  0.4172 -1.4543  1.5356
 7605SOL     OW34276   1.538   4.305  13.295  0.2987  0.0416 -0.3146
 7605SOL    HW134277   1.580   4.308  13.209 -2.1300 -1.5710 -1.5501
 7605SOL    HW234278   1.473   4.235  13.293 -0.4284  0.7168 -0.3317
 7606SOL     OW34279   2.706   2.060   4.445  0.1484 -0.3971  0.2232
 7606SOL    HW134280   2.762   2.013   4.383 -0.8396 -0.3211 -0.7237
 7606SOL    HW234281   2.671   1.994   4.505  0.0091 -0.5687 -0.0465
 7607SOL     OW34282   2.797   0.426   4.924 -0.5233  0.2558 -0.5983
 7607SOL    HW134283   2.868   0.384   4.971  0.7961  2.0377 -0.9738
 7607SOL    HW234284   2.796   0.509   4.972  1.5543 -0.0817  0.0256
 7608SOL     OW34285   3.126   1.572   7.327  0.1543  0.3766 -0.3181
 7608SOL    HW134286   3.111   1.492   7.275  0.0448 -0.4862  1.0571
 7608SOL    HW234287   3.068   1.564   7.402  1.3610  0.8744  0.6645
 7609SOL     OW34288   1.938   2.428   6.341  0.5386 -0.4159  0.1632
 7609SOL    HW134289   1.994   2.489   6.389 -0.0725 -0.3208  0.7644
 7609SOL    HW234290   1.875   2.494   6.311  0.4239 -0.7203 -0.2624
 7610SOL     OW34291   1.059   3.091   2.794 -0.5036  0.0107 -0.0189
 7610SOL    HW134292   0.967   3.084   2.770  0.4903 -4.2751 -2.6295
 7610SOL    HW234293   1.045   3.164   2.853  0.8791  0.7512 -0.5883
 7611SOL     OW34294   3.136   2.832   7.025 -0.0015  0.4509  0.0897
 7611SOL    HW134295   3.050   2.821   7.067  0.0353  1.9579  0.5301
 7611SOL    HW234296   3.190   2.767   7.069 -0.1746  2.2670  2.9827
 7612SOL     OW34297   1.042   0.022   6.640  0.0093 -0.5377 -0.1647
 7612SOL    HW134298   0.964   4.690   6.637  1.0762 -1.9971 -0.2640
 7612SOL    HW234299   0.997   0.093   6.687 -0.8895 -1.6524  0.6758
 7613SOL     OW34300   2.807   0.485   0.608  0.1225  0.0704 -1.2372
 7613SOL    HW134301   2.816   0.405   0.557  1.1538 -0.9836  0.6066
 7613SOL    HW234302   2.885   0.531   0.578  0.3504 -0.8844 -2.0911
 7614SOL     OW34303   0.449   3.117   0.782  0.0533  0.7229  0.2815
 7614SOL    HW134304   0.507   3.192   0.770  0.0504  0.4868 -1.2385
 7614SOL    HW234305   0.418   3.101   0.693 -0.6098 -0.1088  0.6548
 7615SOL     OW34306   1.381   2.096   2.569  0.0698 -0.5024 -0.5702
 7615SOL    HW134307   1.350   2.070   2.655 -2.0326  0.6147 -0.9721
 7615SOL    HW234308   1.422   2.016   2.538  0.6250 -0.2344 -0.5192
 7616SOL     OW34309   0.995   2.746   9.765 -0.3131 -0.1956 -0.5916
 7616SOL    HW134310   0.947   2.707   9.838 -0.4790  0.1931 -0.4906
 7616SOL    HW234311   1.080   2.754   9.808  0.0269  1.7617 -1.6362
 7617SOL     OW34312   2.270   2.558   7.012  0.4896  0.0883 -0.3346
 7617SOL    HW134313   2.311   2.484   7.058 -1.1074 -0.1362  0.7056
 7617SOL    HW234314   2.176   2.541   7.009  0.8873 -2.1767 -0.5008
 7618SOL     OW34315   4.686   3.234   2.856  0.4081  0.2847  0.2302
 7618SOL    HW134316   4.614   3.188   2.812 -0.0548  0.7372  0.5128
 7618SOL    HW234317   4.646   3.245   2.943  1.2569  0.7463  0.5551
 7619SOL     OW34318   1.520   0.383   5.042 -0.2908 -0.4215  0.3985
 7619SOL    HW134319   1.542   0.468   5.006  1.1650 -1.2989 -0.7571
 7619SOL    HW234320   1.602   0.334   5.043 -0.2440 -0.3531 -1.0762
 7620SOL     OW34321   3.169   0.718   8.462  0.5951 -0.2367  0.7232
 7620SOL    HW134322   3.189   0.692   8.372  1.3402 -2.5151  1.5334
 7620SOL    HW234323   3.190   0.630   8.494  0.4923 -0.8921 -0.9676
 7621SOL     OW34324   1.074   3.821   1.843  0.5727  0.2324 -0.0204
 7621SOL    HW134325   1.060   3.832   1.937  1.5699 -2.3767  0.4373
 7621SOL    HW234326   1.003   3.877   1.810 -0.7193 -0.9919  0.6857
 7622SOL     OW34327   1.865   0.979   9.364 -0.0278  0.2877 -0.3643
 7622SOL    HW134328   1.943   1.034   9.372  0.2992 -0.2190 -0.0003
 7622SOL    HW234329   1.856   0.966   9.270 -0.6225 -0.1541 -0.2454
 7623SOL     OW34330   2.592   0.630   0.907 -0.0214  0.1242  0.0530
 7623SOL    HW134331   2.628   0.549   0.871 -2.7215  0.4579 -3.4402
 7623SOL    HW234332   2.618   0.691   0.837  0.5352  1.4262  1.3995
 7624SOL     OW34333   3.183   1.080   5.169 -0.2828 -0.4882  0.0113
 7624SOL    HW134334   3.248   1.127   5.222 -0.0934 -2.4605  1.5268
 7624SOL    HW234335   3.224   0.995   5.152 -0.9215 -0.8789  0.4295
 7625SOL     OW34336   4.522   0.135  17.621  0.6667 -0.0037  0.6659
 7625SOL    HW134337   4.458   0.086  17.672  0.7978 -0.7860  0.0785
 7625SOL    HW234338   4.511   0.083  17.541  0.2220  0.0990  0.6575
 7626SOL     OW34339   4.644   3.065  14.269 -0.5913  0.4101  0.5369
 7626SOL    HW134340   4.655   2.970  14.273 -0.5626  0.4230  0.7520
 7626SOL    HW234341   0.011   3.091  14.286  0.1455 -1.1394 -1.0186
 7627SOL     OW34342   0.351   4.375   6.185  0.0475 -0.7516  0.4990
 7627SOL    HW134343   0.375   4.331   6.104 -2.4484 -1.7379  0.2901
 7627SOL    HW234344   0.436   4.390   6.225  2.3303 -2.9541 -3.5726
 7628SOL     OW34345   4.412   2.829   7.076  0.5828 -0.4621 -0.5442
 7628SOL    HW134346   4.457   2.897   7.125 -0.9633  1.4120 -1.7321
 7628SOL    HW234347   4.475   2.759   7.092  0.2675 -0.3014  1.3645
 7629SOL     OW34348   4.707   2.257   3.183 -0.0766  0.2791  0.2330
 7629SOL    HW134349   0.055   2.273   3.245 -2.1154  0.6786  2.4861
 7629SOL    HW234350   4.722   2.331   3.124 -0.9970 -0.5574 -1.0402
 7630SOL     OW34351   0.100   2.097   1.225 -0.5070  0.1003  0.3316
 7630SOL    HW134352   0.050   2.081   1.145  1.2371  1.1895 -0.9722
 7630SOL    HW234353   0.088   2.014   1.271  0.4054  1.5121  3.0570
 7631SOL     OW34354   2.789   3.590   2.409 -0.1744  0.0805  0.4784
 7631SOL    HW134355   2.798   3.683   2.391  2.3340 -0.6304 -2.1058
 7631SOL    HW234356   2.803   3.547   2.324 -2.4417  3.1419 -1.4044
 7632SOL     OW34357   1.828   2.454   7.377  0.1933  0.5108 -0.5170
 7632SOL    HW134358   1.864   2.401   7.306  0.1694 -1.2529  0.8003
 7632SOL    HW234359   1.841   2.544   7.346  4.3217 -0.6300 -2.0436
 7633SOL     OW34360   4.473   1.863  15.080  0.1683 -0.1214  0.1082
 7633SOL    HW134361   4.411   1.870  15.008 -0.0622 -0.6902  0.2495
 7633SOL    HW234362   4.420   1.887  15.156  0.2403  1.0821 -0.2203
 7634SOL     OW34363   2.857   4.348  13.789  0.2807 -0.0973  0.5249
 7634SOL    HW134364   2.925   4.402  13.829  0.3652  0.0357  0.2002
 7634SOL    HW234365   2.898   4.262  13.774 -1.5929 -0.8685 -0.1998
 7635SOL     OW34366   3.476   1.477   4.803  0.0941  0.0759 -0.4901
 7635SOL    HW134367   3.534   1.519   4.740 -2.3643  0.5776 -2.3950
 7635SOL    HW234368   3.531   1.402   4.828 -2.4718 -1.7376 -0.2946
 7636SOL     OW34369   1.061   0.444  16.682  0.0766 -0.3028  0.1911
 7636SOL    HW134370   1.056   0.501  16.605 -0.9973  0.7492  1.0506
 7636SOL    HW234371   1.057   0.359  16.638 -0.5154 -0.0985 -0.1518
 7637SOL     OW34372   1.413   4.507   2.179 -0.2783  0.0416  0.0602
 7637SOL    HW134373   1.368   4.591   2.185 -1.9597 -0.8903  0.4899
 7637SOL    HW234374   1.447   4.508   2.090  1.9445  3.1851  0.9581
 7638SOL     OW34375   1.563   3.902   1.885 -0.3147  0.4029  0.5377
 7638SOL    HW134376   1.581   3.996   1.888 -0.1821  0.4927 -2.5376
 7638SOL    HW234377   1.648   3.866   1.858 -0.4645  0.3636  0.1233
 7639SOL     OW34378   3.672   3.309   1.059 -0.0851  0.5060 -0.2844
 7639SOL    HW134379   3.623   3.373   1.111 -0.9492  1.9966 -2.9014
 7639SOL    HW234380   3.760   3.312   1.095 -0.1378 -1.6948  0.0532
 7640SOL     OW34381   0.635   1.019   0.534 -0.3449 -0.5794  0.2270
 7640SOL    HW134382   0.612   0.929   0.555 -0.6529 -1.2654 -3.0540
 7640SOL    HW234383   0.714   0.998   0.485  0.4641  2.1446  0.3407
 7641SOL     OW34384   4.098   4.445   9.532  0.1666 -0.4053  0.1281
 7641SOL    HW134385   4.116   4.416   9.443 -1.1275  0.1622 -0.3205
 7641SOL    HW234386   4.130   4.535   9.526  0.7564 -0.5090  1.8290
 7642SOL     OW34387   4.713   1.441   8.133  0.7398 -0.6845 -0.8870
 7642SOL    HW134388   4.710   1.537   8.127  0.8267 -0.7461 -1.9010
 7642SOL    HW234389   4.657   1.433   8.210 -0.0731  1.3708 -1.2560
 7643SOL     OW34390   3.943   0.352   4.500  0.2163  0.0631 -0.1113
 7643SOL    HW134391   3.986   0.291   4.441  0.5064 -0.9191  1.1188
 7643SOL    HW234392   3.924   0.429   4.446 -1.1590 -0.4734 -0.3854
 7644SOL     OW34393   2.798   2.654  14.550 -0.0782  0.1475  0.4112
 7644SOL    HW134394   2.715   2.643  14.596 -1.9549  0.7009 -2.8155
 7644SOL    HW234395   2.791   2.747  14.527  2.2859  0.4352  0.8311
 7645SOL     OW34396   0.027   3.997   8.784  0.4405  0.4435  0.4482
 7645SOL    HW134397   0.002   3.923   8.840  2.2709 -1.3402 -1.1057
 7645SOL    HW234398   0.107   4.032   8.823 -0.4782  1.4739  1.3918
 7646SOL     OW34399   1.659   1.515   9.680  0.1991  0.0391 -0.4866
 7646SOL    HW134400   1.588   1.464   9.641  0.6707 -0.7394 -0.3296
 7646SOL    HW234401   1.727   1.450   9.696 -1.0098 -1.1942 -0.4105
 7647SOL     OW34402   3.707   3.098   2.695  0.2097  0.1366 -0.0128
 7647SOL    HW134403   3.631   3.111   2.637 -1.0279 -0.8709  1.3712
 7647SOL    HW234404   3.698   3.005   2.716 -1.0100  0.1779 -0.3191
 7648SOL     OW34405   2.451   3.337   4.799  0.2112  0.4639  0.0131
 7648SOL    HW134406   2.520   3.399   4.777  2.5823 -1.9058  0.7480
 7648SOL    HW234407   2.427   3.303   4.713 -0.8289  2.8059 -0.6288
 7649SOL     OW34408   0.013   1.934   8.460 -0.1811  0.1556 -0.6405
 7649SOL    HW134409   0.017   1.891   8.545 -0.3590  3.3585  1.0207
 7649SOL    HW234410   4.644   1.948   8.443 -0.4164 -1.8324 -0.9369
 7650SOL     OW34411   3.015   1.064   0.462  0.4671  0.4735  0.1035
 7650SOL    HW134412   3.045   1.114   0.537  4.1484 -1.0652 -0.3295
 7650SOL    HW234413   3.101   1.034   0.435 -0.4805 -1.7952 -0.4026
 7651SOL     OW34414   4.530   1.842   5.975 -0.1790  0.0486  0.1235
 7651SOL    HW134415   4.451   1.893   5.957 -0.8834 -1.0881 -0.0001
 7651SOL    HW234416   4.520   1.818   6.067  2.8263 -0.6123  0.2632
 7652SOL     OW34417   0.814   3.408   4.592 -0.5698 -0.7225  0.1219
 7652SOL    HW134418   0.757   3.399   4.669  1.3143  2.7421  1.9459
 7652SOL    HW234419   0.893   3.366   4.628 -0.3134  1.3699  2.0564
 7653SOL     OW34420   3.068   1.357   3.520  0.3796 -0.0074  0.3830
 7653SOL    HW134421   3.053   1.414   3.596 -1.1171 -0.7210  0.6220
 7653SOL    HW234422   3.158   1.381   3.502  0.5700 -0.0627  1.2599
 7654SOL     OW34423   4.689   2.434  15.193 -0.6913  0.2215  0.1570
 7654SOL    HW134424   4.653   2.345  15.196  0.9321 -0.4394  0.1578
 7654SOL    HW234425   4.679   2.455  15.100  0.6625 -1.7291 -0.4486
 7655SOL     OW34426   0.834   0.574   6.358 -0.0808 -0.1645 -0.5582
 7655SOL    HW134427   0.826   0.646   6.295  1.1914  0.0754 -0.4417
 7655SOL    HW234428   0.903   0.622   6.405 -0.3537  0.0504 -0.3711
 7656SOL     OW34429   1.121   3.214   7.737  0.0785  0.4470 -0.6262
 7656SOL    HW134430   1.034   3.175   7.729 -0.3034  1.3090 -0.7277
 7656SOL    HW234431   1.115   3.280   7.667 -0.9224 -0.9396 -1.8571
 7657SOL     OW34432   1.797   0.563   9.516 -0.1275 -0.0709 -0.3467
 7657SOL    HW134433   1.811   0.648   9.557 -0.4172 -1.1139  1.9097
 7657SOL    HW234434   1.788   0.588   9.424  0.2499  0.2738 -0.2886
 7658SOL     OW34435   2.768   2.593   8.851  0.1107  0.1767  0.1563
 7658SOL    HW134436   2.790   2.500   8.860  0.4954  0.2020 -0.4763
 7658SOL    HW234437   2.847   2.624   8.807 -0.3046 -2.0989 -2.2133
 7659SOL     OW34438   1.371   0.724  11.648 -0.6276  0.3483 -0.6352
 7659SOL    HW134439   1.446   0.674  11.614  0.6093 -0.1816  2.8019
 7659SOL    HW234440   1.326   0.659  11.702 -0.1559  0.2814 -0.3168
 7660SOL     OW34441   3.036   3.437   8.860 -0.2586 -0.5044  0.2144
 7660SOL    HW134442   3.021   3.465   8.950  1.9914  1.0036  0.1147
 7660SOL    HW234443   2.947   3.445   8.824  0.7601 -0.1929 -2.2861
 7661SOL     OW34444   1.988   0.674  10.769 -0.3624  0.3095 -0.0183
 7661SOL    HW134445   2.039   0.609  10.816  0.0526 -1.6131 -3.0946
 7661SOL    HW234446   1.921   0.708  10.828 -0.7433  0.5807 -0.6086
 7662SOL     OW34447   3.908   1.064   5.510 -0.0017 -0.7879 -0.0702
 7662SOL    HW134448   3.969   1.126   5.550 -1.5392  1.3525 -1.0478
 7662SOL    HW234449   3.900   1.000   5.581  0.9221  1.3026  1.8928
 7663SOL     OW34450   3.980   2.935   5.803  0.3082 -0.0254  0.4479
 7663SOL    HW134451   3.930   2.923   5.883 -1.1356  1.2977 -0.2436
 7663SOL    HW234452   3.980   2.849   5.760  3.4969 -0.5475  1.4651
 7664SOL     OW34453   2.088   1.006   8.024  0.2007  0.0555 -0.3789
 7664SOL    HW134454   2.122   0.916   8.031  2.3465  0.7726 -1.5084
 7664SOL    HW234455   2.006   0.996   8.073  0.0363  0.7587 -0.5060
 7665SOL     OW34456   1.895   1.301   9.062 -0.4392  0.4226 -0.0695
 7665SOL    HW134457   1.931   1.337   8.981  1.0502  0.8870  0.8088
 7665SOL    HW234458   1.970   1.265   9.109 -0.0982 -0.4710 -1.3242
 7666SOL     OW34459   3.900   2.950   2.378  0.0768 -0.9081 -0.2815
 7666SOL    HW134460   3.853   2.874   2.344  1.0634 -0.7126 -2.0801
 7666SOL    HW234461   3.976   2.954   2.319 -0.1958 -0.7354 -0.6213
 7667SOL     OW34462   3.696   0.491   4.550  0.3539  0.0821  0.0343
 7667SOL    HW134463   3.735   0.564   4.500  0.9415 -0.6051 -0.5060
 7667SOL    HW234464   3.731   0.507   4.638 -1.6927 -0.2991  0.9178
 7668SOL     OW34465   4.181   3.447   4.773  0.1463  0.1779  0.1016
 7668SOL    HW134466   4.160   3.445   4.679  0.9677  0.9323 -0.0998
 7668SOL    HW234467   4.259   3.391   4.783  0.1445  0.1476 -0.0526
 7669SOL     OW34468   1.667   4.071   8.501 -0.1902  0.4865  0.3621
 7669SOL    HW134469   1.686   4.117   8.419 -1.9142 -0.5734 -0.6406
 7669SOL    HW234470   1.574   4.092   8.506 -0.8986 -2.6902  0.5799
 7670SOL     OW34471   1.418   4.616   3.892 -0.2863 -0.2263 -0.3904
 7670SOL    HW134472   1.501   4.580   3.922  0.4774  1.8904  0.0426
 7670SOL    HW234473   1.454   4.698   3.859 -0.4892 -0.1852 -0.5039
 7671SOL     OW34474   3.111   4.642   7.415  0.0093 -0.0020  0.5424
 7671SOL    HW134475   3.204   4.651   7.432  0.1901  2.4953 -1.6940
 7671SOL    HW234476   3.113   4.556   7.372 -1.1738 -0.0170  0.5065
 7672SOL     OW34477   0.789   2.692   4.255 -0.2829 -0.1741 -0.0977
 7672SOL    HW134478   0.749   2.764   4.304  0.2661  0.5320 -0.6890
 7672SOL    HW234479   0.738   2.617   4.287 -1.1242  0.8922  1.0444
 7673SOL     OW34480   1.840   4.694   5.150 -0.0804  0.5106  0.2999
 7673SOL    HW134481   1.840   4.599   5.139 -0.8027  0.4317  0.9922
 7673SOL    HW234482   1.915   4.721   5.097 -0.5327  1.1229 -0.0203
 7674SOL     OW34483   2.258   2.574  14.059 -0.1291 -0.2798 -0.3742
 7674SOL    HW134484   2.185   2.589  13.999 -0.0068  2.0859  0.1033
 7674SOL    HW234485   2.305   2.496  14.028  0.4737  0.9822 -2.6202
 7675SOL     OW34486   4.698   2.716  13.732  0.6082 -0.2794  0.0848
 7675SOL    HW134487   4.705   2.758  13.817 -0.7139 -1.8660  0.9692
 7675SOL    HW234488   4.630   2.653  13.756  0.6106 -0.9761 -1.6842
 7676SOL     OW34489   0.628   3.783   8.426 -0.9264 -0.0436  0.8970
 7676SOL    HW134490   0.701   3.772   8.365  0.0684  0.3183  2.0244
 7676SOL    HW234491   0.669   3.851   8.480  1.7023  0.3134 -1.5987
 7677SOL     OW34492   3.206   1.359   4.786  0.6856 -0.2951  0.1753
 7677SOL    HW134493   3.225   1.295   4.719 -1.2644 -1.8141  1.0724
 7677SOL    HW234494   3.293   1.399   4.796  0.3763  1.0894 -2.6272
 7678SOL     OW34495   1.431   1.969   5.769 -0.0977 -0.3333  0.1594
 7678SOL    HW134496   1.369   1.960   5.697 -1.3041  2.1005  0.8868
 7678SOL    HW234497   1.464   2.056   5.747 -0.9244 -0.3578 -1.1945
 7679SOL     OW34498   0.275   1.058   0.293  0.0066  0.9173 -0.4448
 7679SOL    HW134499   0.206   1.059   0.360  2.0244  0.9838  1.6060
 7679SOL    HW234500   0.334   0.995   0.335 -0.8301  0.8454  0.6352
 7680SOL     OW34501   4.094   1.948  14.973  0.4645  0.0860  0.5600
 7680SOL    HW134502   4.088   1.944  15.069  0.1141  1.0981  0.5875
 7680SOL    HW234503   4.007   1.918  14.946  0.2845  1.9997 -1.0183
 7681SOL     OW34504   1.258   0.600  15.755  0.1744  0.1174 -0.5734
 7681SOL    HW134505   1.182   0.544  15.737 -0.9861  1.6543 -0.4344
 7681SOL    HW234506   1.335   0.549  15.732 -0.1860 -1.4292  1.6049
 7682SOL     OW34507   3.281   3.064   3.590 -0.4509 -0.1647  0.3970
 7682SOL    HW134508   3.187   3.070   3.604 -0.2194 -1.5748  2.6631
 7682SOL    HW234509   3.280   2.968   3.591 -3.2144 -0.1476 -1.0520
 7683SOL     OW34510   4.109   1.402   7.250 -0.3197  0.3774 -0.1427
 7683SOL    HW134511   4.034   1.395   7.310 -0.6148 -0.7955 -0.6412
 7683SOL    HW234512   4.165   1.329   7.276 -0.5091  0.9699  1.9334
 7684SOL     OW34513   1.194   4.696  14.208 -0.5342 -0.2374  0.0861
 7684SOL    HW134514   1.260   0.031  14.171 -0.1168  0.0918  1.3605
 7684SOL    HW234515   1.133   4.700  14.134 -1.4251  0.3453  0.8484
 7685SOL     OW34516   4.579   1.956   2.255  0.1665  0.2130 -0.3788
 7685SOL    HW134517   4.497   1.950   2.206 -1.0281  0.4143  1.5553
 7685SOL    HW234518   4.632   2.003   2.192 -0.1450  0.9912 -0.0622
 7686SOL     OW34519   2.550   1.033   4.049 -0.0150  0.2293 -0.3788
 7686SOL    HW134520   2.637   1.070   4.062 -1.2603  2.9477  0.1094
 7686SOL    HW234521   2.538   1.057   3.958 -1.6580  0.5071 -0.0890
 7687SOL     OW34522   1.659   1.553   3.131  0.3362 -0.0284  0.0901
 7687SOL    HW134523   1.750   1.542   3.104 -0.1766 -1.6076 -1.0074
 7687SOL    HW234524   1.615   1.509   3.058  1.8613 -0.5483 -0.5159
 7688SOL     OW34525   3.648   3.876   4.902  0.0447  0.1334 -0.0306
 7688SOL    HW134526   3.744   3.878   4.904 -0.0162  1.3231  2.1188
 7688SOL    HW234527   3.642   3.915   4.990  1.2950  0.8021 -0.2417
 7689SOL     OW34528   2.901   1.924   2.614  0.3031  0.2987  0.3360
 7689SOL    HW134529   2.918   1.872   2.693 -0.1723 -0.5887 -0.1502
 7689SOL    HW234530   2.988   1.940   2.579 -1.0532  2.0782 -2.2519
 7690SOL     OW34531   4.021   1.846   9.316  0.0337 -0.5358 -0.0410
 7690SOL    HW134532   3.948   1.845   9.378  0.0915  1.5239  0.0673
 7690SOL    HW234533   4.093   1.842   9.379 -0.0717 -0.7353  0.0675
 7691SOL     OW34534   2.122   1.121  10.141 -0.9269  0.3822 -0.4733
 7691SOL    HW134535   2.096   1.209  10.115 -0.4746  0.7706  0.4007
 7691SOL    HW234536   2.057   1.100  10.208  0.3269 -0.2842  0.5329
 7692SOL     OW34537   1.116   3.823   8.153 -0.4498 -0.2662  0.2767
 7692SOL    HW134538   1.114   3.827   8.057  1.2710 -1.2263  0.2200
 7692SOL    HW234539   1.177   3.752   8.171 -1.4380 -0.5182  2.6950
 7693SOL     OW34540   3.373   4.246   4.283 -0.0381 -0.1508  0.0065
 7693SOL    HW134541   3.355   4.161   4.244 -2.1886  0.8876 -1.2312
 7693SOL    HW234542   3.288   4.287   4.268 -0.8750 -1.1591  2.0121
 7694SOL     OW34543   1.443   1.137   3.077 -0.2020 -0.2478  0.1038
 7694SOL    HW134544   1.362   1.188   3.073  0.2016  0.4341  0.5462
 7694SOL    HW234545   1.426   1.075   3.006  1.2347  1.1835 -1.4715
 7695SOL     OW34546   1.507   1.523   7.510  0.5146  0.1365  0.0821
 7695SOL    HW134547   1.420   1.490   7.529  1.0237  0.1849  2.4711
 7695SOL    HW234548   1.510   1.535   7.415  2.0313  2.4174  0.4254
 7696SOL     OW34549   1.378   3.873   4.818  0.1014  0.0859  0.0692
 7696SOL    HW134550   1.384   3.964   4.847 -2.4363 -0.0599  1.0772
 7696SOL    HW234551   1.368   3.817   4.894  4.4853 -0.0069  0.5652
 7697SOL     OW34552   2.349   2.363   6.399  0.1993 -0.2734 -0.2204
 7697SOL    HW134553   2.408   2.295   6.368  0.1071 -0.3994 -0.1167
 7697SOL    HW234554   2.384   2.444   6.360 -0.1828  0.9287  1.9133
 7698SOL     OW34555   3.251   4.411   4.842 -0.1254  0.2204  0.1840
 7698SOL    HW134556   3.272   4.332   4.892 -0.9129 -0.2026 -0.1552
 7698SOL    HW234557   3.331   4.420   4.791 -1.5295 -2.5250 -2.5064
 7699SOL     OW34558   2.237   3.233   9.424  0.1382  0.0716 -0.3711
 7699SOL    HW134559   2.159   3.288   9.423 -2.2151 -3.2729 -0.6068
 7699SOL    HW234560   2.204   3.151   9.460  1.7513 -0.0410  0.8441
 7700SOL     OW34561   4.283   2.220   2.255  0.0950  0.6364 -0.8136
 7700SOL    HW134562   4.269   2.125   2.260  1.6728  0.4889  0.7419
 7700SOL    HW234563   4.231   2.249   2.180  0.5796 -1.6154 -2.0345
 7701SOL     OW34564   0.170   1.288  17.187  0.0204  0.1584  0.4333
 7701SOL    HW134565   0.258   1.279  17.151 -0.2415 -1.6213  0.2645
 7701SOL    HW234566   0.130   1.204  17.167 -1.8216  1.2503 -0.5339
 7702SOL     OW34567   3.564   0.556  12.728 -0.1437 -0.5139  0.4702
 7702SOL    HW134568   3.652   0.571  12.694 -0.6397 -0.2230 -0.6835
 7702SOL    HW234569   3.546   0.641  12.769 -1.7521 -0.3527 -0.6154
 7703SOL     OW34570   3.456   2.198   4.970  0.1614 -0.2228  0.0583
 7703SOL    HW134571   3.373   2.152   4.959  2.5959 -4.6342  0.3056
 7703SOL    HW234572   3.424   2.286   4.992  0.5459 -0.4584  1.5363
 7704SOL     OW34573   2.461   4.478   2.863  0.5312  0.2170 -0.1203
 7704SOL    HW134574   2.530   4.413   2.876  1.2338  0.5601 -2.0735
 7704SOL    HW234575   2.481   4.544   2.928 -0.9436  1.8435 -1.3226
 7705SOL     OW34576   2.640   1.688   6.002  0.3145  0.5006  0.1328
 7705SOL    HW134577   2.639   1.723   5.913 -0.0955 -1.6573 -0.7102
 7705SOL    HW234578   2.734   1.681   6.019 -0.2034 -2.8081  1.6421
 7706SOL     OW34579   4.631   4.574  13.770  0.1374 -0.0917 -0.2078
 7706SOL    HW134580   4.626   4.497  13.713  1.9742  0.3774 -1.0103
 7706SOL    HW234581   4.613   4.523  13.849  2.0161  0.9918  0.9187
 7707SOL     OW34582   4.126   1.209   3.958 -0.1536 -0.7406 -0.5695
 7707SOL    HW134583   4.035   1.200   3.986 -0.9762  1.3303 -2.5602
 7707SOL    HW234584   4.135   1.303   3.972 -2.2582 -0.6735  0.3469
 7708SOL     OW34585   4.665   2.091  12.414  0.1413  0.0218  0.1820
 7708SOL    HW134586   4.679   2.181  12.384  1.6238 -0.3169 -0.1046
 7708SOL    HW234587   0.005   2.075  12.484  1.3501  0.1417 -0.9163
 7709SOL     OW34588   4.174   2.072  12.158 -0.3680 -0.3409 -0.1770
 7709SOL    HW134589   4.218   2.066  12.074 -3.0211  2.5281 -1.7759
 7709SOL    HW234590   4.248   2.039  12.208 -0.2357  0.5501  0.2116
 7710SOL     OW34591   3.929   3.818  16.687  0.4088 -0.1991  0.7663
 7710SOL    HW134592   3.969   3.898  16.652  1.9638 -1.0607  0.5980
 7710SOL    HW234593   3.902   3.772  16.607  0.5113 -1.0629  1.2241
 7711SOL     OW34594   2.267   0.418   3.166 -0.1085  0.5598  0.2304
 7711SOL    HW134595   2.190   0.408   3.223 -1.8363 -0.1194 -2.2082
 7711SOL    HW234596   2.280   0.512   3.178  1.3291  0.2152  1.3594
 7712SOL     OW34597   3.686   0.586   9.784 -0.3532  0.3451  0.3943
 7712SOL    HW134598   3.608   0.553   9.828 -0.0274 -0.7932  0.1209
 7712SOL    HW234599   3.675   0.680   9.797  1.4133  0.9356 -2.4393
 7713SOL     OW34600   2.685   4.419   0.511  0.0777  0.1069 -0.0183
 7713SOL    HW134601   2.675   4.461   0.597 -0.3383 -0.4093  0.1843
 7713SOL    HW234602   2.695   4.327   0.535  1.9806  0.1391 -0.6868
 7714SOL     OW34603   4.492   3.693  11.751 -0.0284 -0.2346  0.2386
 7714SOL    HW134604   4.465   3.768  11.698  0.3785 -0.5393 -0.3890
 7714SOL    HW234605   4.420   3.636  11.723 -1.1937  0.6043  1.5297
 7715SOL     OW34606   4.160   0.893   5.110 -0.0018 -0.7707 -0.0230
 7715SOL    HW134607   4.071   0.916   5.086  0.4584 -0.0536 -1.0261
 7715SOL    HW234608   4.183   0.824   5.048 -2.3753 -0.2137 -1.4880
 7716SOL     OW34609   4.633   0.030   7.081  0.0585  0.1129 -0.0165
 7716SOL    HW134610   4.592   0.098   7.135  0.2095 -0.3386  0.6594
 7716SOL    HW234611   4.620   0.067   6.993  1.2049 -0.0094 -0.2387
 7717SOL     OW34612   3.260   1.379   7.070 -0.6022  0.4462 -0.3213
 7717SOL    HW134613   3.230   1.468   7.054 -2.5632  0.1485  1.7344
 7717SOL    HW234614   3.179   1.329   7.085 -0.5978  0.4544 -0.2698
 7718SOL     OW34615   3.728   4.236  17.646  0.0788 -0.0965  0.0457
 7718SOL    HW134616   3.692   4.164   0.001  0.6246  1.1242  2.1588
 7718SOL    HW234617   3.766   4.178  17.580 -0.8737 -2.1764  1.3356
 7719SOL     OW34618   1.151   3.726   9.321  0.4321  0.3307  0.5658
 7719SOL    HW134619   1.087   3.780   9.367 -1.4419 -2.5605  1.3203
 7719SOL    HW234620   1.235   3.732   9.367  1.4506  1.1309 -1.4383
 7720SOL     OW34621   1.292   0.015   6.201 -0.3184 -0.3470 -0.0701
 7720SOL    HW134622   1.269   4.670   6.264 -0.7654  0.0352  0.1855
 7720SOL    HW234623   1.226   0.003   6.133  0.3055  2.2065 -1.1015
 7721SOL     OW34624   4.689   0.504   7.835  0.5825 -0.1884  0.0240
 7721SOL    HW134625   4.638   0.424   7.849 -2.6424  1.0129 -4.9229
 7721SOL    HW234626   4.724   0.505   7.925 -0.8365  1.6770  0.5415
 7722SOL     OW34627   2.515   3.922  15.522  0.0521  0.5828 -0.1618
 7722SOL    HW134628   2.523   4.010  15.558  3.1327 -0.6485  2.1295
 7722SOL    HW234629   2.473   3.947  15.439  0.4324  1.9713  0.0766
 7723SOL     OW34630   3.402   1.131   3.568  0.0500  0.3753 -0.3339
 7723SOL    HW134631   3.458   1.112   3.643 -0.3325  0.8119  0.0593
 7723SOL    HW234632   3.334   1.064   3.574  0.0999  0.5992  2.6174
 7724SOL     OW34633   3.295   3.741  10.175  0.5534  0.1054 -0.5487
 7724SOL    HW134634   3.372   3.759  10.121  1.6137  1.8088  1.5414
 7724SOL    HW234635   3.241   3.675  10.131  0.4205 -1.4330  1.8846
 7725SOL     OW34636   3.303   2.146   5.936  0.2368 -0.3113  0.6707
 7725SOL    HW134637   3.313   2.113   6.025 -1.0275  0.4288  1.0901
 7725SOL    HW234638   3.386   2.116   5.900  0.6087  2.8004 -1.1138
 7726SOL     OW34639   3.635   4.639   3.740  0.1482  0.3303  0.3007
 7726SOL    HW134640   3.557   4.690   3.716  1.2173  0.6990 -2.4351
 7726SOL    HW234641   3.591   4.561   3.771  0.0713  0.3879  0.3368
 7727SOL     OW34642   2.948   3.475   8.377 -0.0438  0.4535  0.1592
 7727SOL    HW134643   3.016   3.472   8.309 -1.1188 -0.7976 -0.8580
 7727SOL    HW234644   2.995   3.464   8.460 -0.3490 -1.6691  0.0506
 7728SOL     OW34645   4.702   4.036   3.925  0.6130  0.1490  0.9664
 7728SOL    HW134646   4.613   4.071   3.939  0.0945  0.0463 -2.0501
 7728SOL    HW234647   0.016   4.099   3.863  2.6712 -0.0352  2.0507
 7729SOL     OW34648   0.412   2.361   1.145  0.0318  0.9152 -0.4223
 7729SOL    HW134649   0.431   2.274   1.181 -2.8655 -0.1157 -1.3648
 7729SOL    HW234650   0.473   2.372   1.072 -1.3986  0.4418 -1.6885
 7730SOL     OW34651   0.136   4.014  11.177 -0.5504  0.3575  0.7785
 7730SOL    HW134652   0.074   4.012  11.103  0.9007 -1.0686 -0.3896
 7730SOL    HW234653   0.203   3.947  11.166  1.0297  2.4921 -2.4871
 7731SOL     OW34654   1.554   4.007   4.273 -0.0996 -0.1755  0.1984
 7731SOL    HW134655   1.467   3.989   4.310 -0.3054 -0.3443 -0.3611
 7731SOL    HW234656   1.535   4.099   4.257  2.8856  0.2299 -0.9426
 7732SOL     OW34657   3.131   4.700   2.723  0.1432  0.1322  0.7972
 7732SOL    HW134658   3.086   4.646   2.658 -1.1595 -0.7442  2.4282
 7732SOL    HW234659   3.168   4.639   2.787 -1.2307 -2.9288 -1.3093
 7733SOL     OW34660   0.747   4.516   3.895 -0.5270 -0.1935  0.1195
 7733SOL    HW134661   0.701   4.574   3.834 -2.6205 -2.0463 -0.0938
 7733SOL    HW234662   0.817   4.484   3.838 -1.1041 -0.2690 -0.5608
 7734SOL     OW34663   4.067   2.233  14.903  0.0561  0.4324  0.0797
 7734SOL    HW134664   4.093   2.239  14.811  2.1114  3.0715  0.8402
 7734SOL    HW234665   4.104   2.147  14.924 -0.6428  0.4837  1.5363
 7735SOL     OW34666   1.247   3.168   2.976  0.0908 -0.2297 -0.0736
 7735SOL    HW134667   1.181   3.235   2.994  0.6398  0.2295  0.2642
 7735SOL    HW234668   1.215   3.131   2.894 -1.8552 -0.1712  0.6669
 7736SOL     OW34669   3.433   3.933   1.631  0.6671 -0.2856 -0.3896
 7736SOL    HW134670   3.469   4.020   1.648  0.4718  0.0602 -1.7488
 7736SOL    HW234671   3.508   3.879   1.656 -1.1178 -3.4309 -1.7571
 7737SOL     OW34672   3.971   4.077   7.032 -0.0788 -0.2753 -0.3378
 7737SOL    HW134673   3.946   4.059   7.123 -0.6649  1.7614 -0.1127
 7737SOL    HW234674   4.031   4.003   7.017 -1.7967 -1.2307 -2.3655
 7738SOL     OW34675   3.071   0.814   7.385 -0.3563 -0.2567 -0.2087
 7738SOL    HW134676   3.064   0.816   7.480  0.0367  1.6581 -0.2199
 7738SOL    HW234677   3.067   0.909   7.372  1.8572 -0.0063  1.0287
 7739SOL     OW34678   1.998   4.723   6.885 -0.7884  0.0350 -0.1532
 7739SOL    HW134679   1.906   0.000   6.912 -0.7965 -1.2464 -0.1443
 7739SOL    HW234680   2.028   4.641   6.923  0.4636  0.9314  0.7627
 7740SOL     OW34681   2.680   1.314   3.561  0.1211  0.1142 -0.3980
 7740SOL    HW134682   2.755   1.282   3.510 -0.4139 -0.4560 -0.8429
 7740SOL    HW234683   2.726   1.330   3.643 -2.4925 -1.7234  1.4235
 7741SOL     OW34684   1.592   3.835   5.510  0.7878  0.4003 -0.5542
 7741SOL    HW134685   1.660   3.896   5.482  0.4700  0.5839 -0.9264
 7741SOL    HW234686   1.650   3.768   5.545  0.3143 -0.3431 -1.2089
 7742SOL     OW34687   2.588   3.257   8.277  0.2379  0.7431 -0.2149
 7742SOL    HW134688   2.583   3.346   8.312 -0.2514  1.0262 -1.0201
 7742SOL    HW234689   2.493   3.244   8.278  0.9731 -4.5298 -0.2803
 7743SOL     OW34690   2.287   0.997   4.530 -0.7599 -0.4544  0.3483
 7743SOL    HW134691   2.215   1.035   4.581 -2.4044  0.2826 -2.5350
 7743SOL    HW234692   2.339   0.945   4.592  0.4789  2.7727  2.0205
 7744SOL     OW34693   4.247   0.201   0.359  0.5038  0.1063  0.7782
 7744SOL    HW134694   4.227   0.248   0.440 -0.9836 -2.0828  1.6756
 7744SOL    HW234695   4.328   0.156   0.382  1.0169  0.9831  0.7095
 7745SOL     OW34696   0.050   0.621   8.456 -0.1527  0.6620 -0.0900
 7745SOL    HW134697   0.014   0.708   8.471  0.5598  0.7732  0.9303
 7745SOL    HW234698   0.007   0.603   8.372 -0.8249  0.3528  0.3248
 7746SOL     OW34699   1.989   3.685  11.000  0.6144 -0.2262 -0.2708
 7746SOL    HW134700   2.057   3.663  11.064 -0.4226 -1.6522  0.3419
 7746SOL    HW234701   2.022   3.631  10.928 -0.0865  1.9733 -2.2253
 7747SOL     OW34702   4.501   2.606   8.005  0.0014  0.1573 -0.0054
 7747SOL    HW134703   4.546   2.521   8.005  2.0840  1.2683  1.6012
 7747SOL    HW234704   4.428   2.585   8.062 -0.9000  2.1742 -0.4385
 7748SOL     OW34705   1.163   3.586   1.558 -0.3913 -0.4034 -0.0962
 7748SOL    HW134706   1.197   3.595   1.647  0.7315  0.0337 -0.5742
 7748SOL    HW234707   1.113   3.667   1.555  0.7972  0.3794  1.5236
 7749SOL     OW34708   1.213   3.175   4.527 -0.2692  0.0660  0.5851
 7749SOL    HW134709   1.135   3.214   4.565 -1.2907 -1.7308  0.3142
 7749SOL    HW234710   1.187   3.086   4.506  1.6856 -0.2705 -0.4284
 7750SOL     OW34711   2.422   2.825   6.195  0.1177  0.2390 -0.1136
 7750SOL    HW134712   2.383   2.862   6.274 -1.2103 -1.9612  0.2735
 7750SOL    HW234713   2.453   2.738   6.222 -2.1852 -0.3759  0.5175
 7751SOL     OW34714   3.743   3.131   7.105  0.0693  0.3336 -0.1622
 7751SOL    HW134715   3.810   3.101   7.166 -0.2949  2.3229  1.2248
 7751SOL    HW234716   3.779   3.219   7.093  1.2643 -0.2446 -0.8569
 7752SOL     OW34717   3.223   2.821   6.487  0.5433  0.4151  0.2007
 7752SOL    HW134718   3.154   2.761   6.458  1.5841 -0.2042 -0.9754
 7752SOL    HW234719   3.238   2.872   6.407 -0.3132 -1.4451 -1.1432
 7753SOL     OW34720   0.155   2.223   5.395  0.2052  0.3544 -0.1387
 7753SOL    HW134721   0.070   2.265   5.380  0.5183  1.1006  0.1943
 7753SOL    HW234722   0.189   2.196   5.310  0.7084 -0.1582  0.2286
 7754SOL     OW34723   2.514   2.358   6.631  0.5064  0.1546 -0.1561
 7754SOL    HW134724   2.600   2.317   6.627  0.3078 -0.5545  3.0981
 7754SOL    HW234725   2.478   2.343   6.544  2.2678  0.6045 -0.9687
 7755SOL     OW34726   1.793   2.199   4.881  0.3606 -0.1769  0.1807
 7755SOL    HW134727   1.825   2.204   4.971  2.4735  0.4217 -0.5991
 7755SOL    HW234728   1.870   2.198   4.823  0.6670  0.2803  0.5800
 7756SOL     OW34729   2.736   1.168   5.991  0.2044 -0.0583  0.2196
 7756SOL    HW134730   2.704   1.251   6.028 -1.1592 -1.5396  2.3787
 7756SOL    HW234731   2.699   1.113   6.060 -0.4687  2.0245  1.5420
 7757SOL     OW34732   3.425   2.718   3.001  0.1702  0.2030  0.0664
 7757SOL    HW134733   3.445   2.647   3.062 -1.0508  0.3673  0.6553
 7757SOL    HW234734   3.461   2.679   2.921  0.4529  0.0458  0.2681
 7758SOL     OW34735   1.691   0.764   7.342 -0.2446 -0.1160  0.1812
 7758SOL    HW134736   1.709   0.839   7.399 -2.2112 -1.0209  1.9948
 7758SOL    HW234737   1.741   0.793   7.266  1.7198 -3.0375  0.3501
 7759SOL     OW34738   2.768   4.268   7.538  0.5628 -0.2313 -0.3630
 7759SOL    HW134739   2.673   4.262   7.546  0.6737 -0.0837  1.2086
 7759SOL    HW234740   2.790   4.270   7.632 -0.7103 -0.5768 -0.0610
 7760SOL     OW34741   2.650   0.100   5.075 -0.0732  0.2042  0.0199
 7760SOL    HW134742   2.743   0.099   5.099 -0.4660  2.0864  1.6114
 7760SOL    HW234743   2.613   0.150   5.147  3.6649  1.6491  0.9472
 7761SOL     OW34744   0.192   4.175   5.370 -0.6332  0.0458 -0.4871
 7761SOL    HW134745   0.110   4.218   5.346 -0.5643  1.7387  2.2716
 7761SOL    HW234746   0.229   4.247   5.422 -1.3829  0.7321 -0.8941
 7762SOL     OW34747   1.760   0.474   8.916 -0.1916  0.1932 -0.0995
 7762SOL    HW134748   1.797   0.501   8.832  0.9169  1.7566  0.8917
 7762SOL    HW234749   1.695   0.408   8.893 -1.4329  1.0132  1.0415
 7763SOL     OW34750   1.243   1.612   6.495 -0.5304  0.0679 -0.4670
 7763SOL    HW134751   1.313   1.677   6.506  1.1671 -1.3978 -2.4830
 7763SOL    HW234752   1.285   1.546   6.550  0.0394 -0.5853 -1.6770
 7764SOL     OW34753   2.324   3.861   6.711  0.1852 -0.0645  0.1695
 7764SOL    HW134754   2.260   3.802   6.753  0.5723  0.1031  0.9903
 7764SOL    HW234755   2.375   3.899   6.783  2.4720 -1.0795 -0.9128
 7765SOL     OW34756   4.446   2.456   4.607  0.2549  0.0241 -0.3436
 7765SOL    HW134757   4.506   2.480   4.536  2.4722 -0.3236  1.4295
 7765SOL    HW234758   4.376   2.520   4.593  1.6463  1.3956 -1.0289
 7766SOL     OW34759   1.993   3.216   4.689 -0.6182  0.0697 -0.1022
 7766SOL    HW134760   2.044   3.244   4.765 -1.1083  0.4207  0.0961
 7766SOL    HW234761   1.991   3.120   4.687  2.2954 -0.0143  0.9846
 7767SOL     OW34762   2.465   0.242   1.991 -0.4536 -0.4750 -0.5558
 7767SOL    HW134763   2.503   0.246   1.903 -0.1026 -1.5789 -0.4494
 7767SOL    HW234764   2.544   0.223   2.042 -0.6891  0.1542  0.0486
 7768SOL     OW34765   2.992   1.103  10.872  0.5379  0.0355  0.5122
 7768SOL    HW134766   3.055   1.110  10.944  2.3169  0.1398 -1.0737
 7768SOL    HW234767   2.933   1.172  10.904  0.5948  0.6446 -0.7221
 7769SOL     OW34768   1.754   1.384   3.622 -0.3884  0.2021 -0.3306
 7769SOL    HW134769   1.847   1.364   3.622 -0.3378  0.3970 -3.7070
 7769SOL    HW234770   1.713   1.299   3.640 -1.0404  1.0947  2.3418
 7770SOL     OW34771   1.168   3.579   2.439 -0.2810 -0.4221 -0.0303
 7770SOL    HW134772   1.190   3.600   2.349  0.0034  0.5562  0.2635
 7770SOL    HW234773   1.114   3.655   2.460 -1.2246 -1.5088  1.4528
 7771SOL     OW34774   0.439   1.361   3.334 -0.1185 -0.0443  0.1333
 7771SOL    HW134775   0.477   1.354   3.422  0.2759 -0.9447 -0.1164
 7771SOL    HW234776   0.345   1.372   3.352  0.0694  0.2477  0.9523
 7772SOL     OW34777   4.617   1.981  10.077 -0.4010  0.0412  0.0345
 7772SOL    HW134778   4.615   2.077  10.080 -1.0332 -0.0109  1.5287
 7772SOL    HW234779   4.698   1.980  10.027 -0.8167  0.2434 -0.6495
 7773SOL     OW34780   0.471   1.152   2.838  0.4166  0.1712 -0.4890
 7773SOL    HW134781   0.412   1.078   2.819 -1.4072  1.2753  0.8482
 7773SOL    HW234782   0.518   1.120   2.916  1.2588  0.8375 -0.7319
 7774SOL     OW34783   3.803   3.364   4.540 -0.3300 -0.5032  0.1994
 7774SOL    HW134784   3.745   3.316   4.599 -2.6031  0.1834 -1.4756
 7774SOL    HW234785   3.736   3.425   4.509  0.2968  0.8489  1.5419
 7775SOL     OW34786   1.483   4.449   6.456 -0.0542  0.1803 -0.4337
 7775SOL    HW134787   1.477   4.357   6.428  1.6258 -0.6538  1.9498
 7775SOL    HW234788   1.397   4.476   6.489  0.5190  0.1413  1.0862
 7776SOL     OW34789   3.819   1.434  11.994 -0.0635  0.1841 -0.1616
 7776SOL    HW134790   3.908   1.422  12.028  0.1795 -2.0031 -1.5364
 7776SOL    HW234791   3.826   1.450  11.900 -0.2757  2.6909  0.2717
 7777SOL     OW34792   2.363   0.261   8.254  0.3674 -0.3218 -0.1400
 7777SOL    HW134793   2.411   0.189   8.295 -2.7510 -1.7013  1.0988
 7777SOL    HW234794   2.278   0.220   8.237 -0.2083  0.3881  1.0297
 7778SOL     OW34795   1.733   4.329   2.833  0.0982  0.1164  0.2556
 7778SOL    HW134796   1.736   4.300   2.924  2.4866  1.1734  0.5115
 7778SOL    HW234797   1.655   4.287   2.797  1.5711 -1.5637 -0.9890
 7779SOL     OW34798   2.601   4.239   8.704 -0.4599 -0.0142 -0.5394
 7779SOL    HW134799   2.517   4.220   8.745  0.1494 -1.8952 -0.1823
 7779SOL    HW234800   2.579   4.323   8.662  2.1896  0.4092 -1.0663
 7780SOL     OW34801   0.112   3.111   3.495 -0.1442 -0.6576 -0.1434
 7780SOL    HW134802   0.019   3.129   3.510 -0.4234 -1.3988 -0.9860
 7780SOL    HW234803   0.132   3.034   3.547 -0.9781 -0.6464  0.1871
 7781SOL     OW34804   1.859   0.488   1.186  0.1207 -0.5355 -0.0174
 7781SOL    HW134805   1.923   0.485   1.116  0.7904 -2.6356  0.6640
 7781SOL    HW234806   1.839   0.581   1.199  0.7648 -0.7175  2.3916
 7782SOL     OW34807   4.493   0.108   4.958 -0.0507 -0.2932  0.8064
 7782SOL    HW134808   4.500   0.122   5.052  0.2465 -0.8466  0.8670
 7782SOL    HW234809   4.399   0.098   4.945  0.0949 -0.6212  0.0248
 7783SOL     OW34810   2.104   1.951  10.059 -0.6811  0.1078  0.2278
 7783SOL    HW134811   2.137   2.015  10.123 -0.5154  0.3224 -0.0738
 7783SOL    HW234812   2.133   1.983   9.974 -1.0689  1.3591  0.5674
 7784SOL     OW34813   3.230   3.337   8.527  0.2181 -0.0313 -0.3019
 7784SOL    HW134814   3.190   3.418   8.558 -0.8760 -0.7064  0.0554
 7784SOL    HW234815   3.180   3.281   8.586  1.2559 -2.2540 -1.5088
 7785SOL     OW34816   0.784   4.424   9.873  0.2447  0.6651  0.1347
 7785SOL    HW134817   0.853   4.478   9.911 -0.3285  2.8824 -2.0047
 7785SOL    HW234818   0.710   4.477   9.905 -0.6396 -1.0982  1.0524
 7786SOL     OW34819   3.496   0.064   9.488 -0.9838  0.4117 -0.2459
 7786SOL    HW134820   3.537   0.087   9.571 -0.6725  0.2046 -0.3424
 7786SOL    HW234821   3.423   0.126   9.487  0.0414  1.6118 -1.0180
 7787SOL     OW34822   2.923   0.389  16.184 -0.3837 -0.2582  0.2794
 7787SOL    HW134823   2.881   0.327  16.123  0.0740  0.7270 -1.0208
 7787SOL    HW234824   2.841   0.432  16.210 -1.5857 -3.2801  1.6098
 7788SOL     OW34825   3.283   4.322   0.594  0.5309 -0.1350  0.0284
 7788SOL    HW134826   3.349   4.344   0.660  1.8579  0.0534 -1.3825
 7788SOL    HW234827   3.231   4.253   0.635 -2.5334  2.8849  1.1827
 7789SOL     OW34828   1.563   3.947   2.743 -0.1942  0.0554  0.6843
 7789SOL    HW134829   1.575   3.913   2.831  0.3146 -0.2973  0.4729
 7789SOL    HW234830   1.541   4.040   2.755  1.7532  0.5669  0.2505
 7790SOL     OW34831   3.705   0.992   4.020 -0.1677  0.1520 -0.2022
 7790SOL    HW134832   3.794   0.997   4.055 -0.2123 -0.4839 -0.0036
 7790SOL    HW234833   3.679   0.903   4.042  1.9142  0.2290  2.5046
 7791SOL     OW34834   4.556   2.525  16.856  1.0034 -0.1363  0.1006
 7791SOL    HW134835   4.580   2.605  16.810 -0.3868 -0.3762 -1.0317
 7791SOL    HW234836   4.576   2.543  16.947 -0.9425  0.3684  0.4248
 7792SOL     OW34837   4.003   0.414   7.013 -0.1189  0.0853 -0.1864
 7792SOL    HW134838   3.946   0.336   7.013  1.4141 -1.0353 -0.9646
 7792SOL    HW234839   4.012   0.426   6.918 -0.2602  0.5108 -0.1472
 7793SOL     OW34840   1.540   0.286   8.814  0.0247 -0.1202 -0.0136
 7793SOL    HW134841   1.575   0.289   8.725 -1.6148  3.3386 -0.5423
 7793SOL    HW234842   1.514   0.194   8.807 -0.4050 -0.0967  1.2868
 7794SOL     OW34843   4.335   2.371   8.995  0.2315 -0.9220 -0.1073
 7794SOL    HW134844   4.290   2.429   8.934  0.9204 -0.5408 -0.2467
 7794SOL    HW234845   4.270   2.360   9.065 -0.6887  0.0491 -0.8193
 7795SOL     OW34846   1.092   3.845   9.030 -0.5319 -0.0262 -0.1162
 7795SOL    HW134847   1.011   3.800   9.006 -0.4209 -0.6087  0.5816
 7795SOL    HW234848   1.073   3.867   9.121 -0.6318  0.7079 -0.3142
 7796SOL     OW34849   2.253   0.269   6.143  0.1144  0.5291  0.0194
 7796SOL    HW134850   2.168   0.289   6.182 -1.0464 -1.5400 -1.4505
 7796SOL    HW234851   2.278   0.206   6.210 -0.3856 -0.5747 -0.8223
 7797SOL     OW34852   0.237   1.643   6.422 -0.2620 -0.9970  0.0524
 7797SOL    HW134853   0.330   1.663   6.435 -0.7982  2.1158 -0.9025
 7797SOL    HW234854   0.229   1.643   6.327 -2.4353  1.0671  0.2364
 7798SOL     OW34855   0.639   2.690   3.381 -0.4446  0.1806 -0.2887
 7798SOL    HW134856   0.620   2.733   3.298 -1.1446 -0.6858 -0.5679
 7798SOL    HW234857   0.711   2.742   3.417  1.3208 -1.9596 -0.7247
 7799SOL     OW34858   1.701   1.762   2.759 -0.0416 -0.3655 -0.4584
 7799SOL    HW134859   1.702   1.740   2.852 -1.4100  0.8648 -0.1644
 7799SOL    HW234860   1.629   1.705   2.730  0.0746 -1.1829  0.8343
 7800SOL     OW34861   3.750   3.443   6.801 -0.1350  0.5978 -0.7195
 7800SOL    HW134862   3.798   3.493   6.735  1.4983  0.9557  0.7408
 7800SOL    HW234863   3.713   3.378   6.742  1.5877  0.3424 -1.5142
 7801SOL     OW34864   4.127   3.597   9.471  0.3219  0.4304  0.3427
 7801SOL    HW134865   4.061   3.663   9.451 -1.1949 -0.4561  2.4245
 7801SOL    HW234866   4.187   3.666   9.501  0.9683  0.1858 -0.3553
 7802SOL     OW34867   2.274   1.418  13.486  0.2582  0.0810  0.3924
 7802SOL    HW134868   2.357   1.427  13.533  0.1018  0.3228  0.6192
 7802SOL    HW234869   2.302   1.387  13.400 -0.9170 -1.6742  0.6337
 7803SOL     OW34870   3.559   1.316   5.346 -0.3010 -0.1401  0.2431
 7803SOL    HW134871   3.534   1.333   5.256 -0.2063  0.6057  0.3633
 7803SOL    HW234872   3.486   1.265   5.382 -2.6145  1.7113 -1.8985
 7804SOL     OW34873   3.557   3.639   8.018  0.7138  0.5566 -0.3119
 7804SOL    HW134874   3.521   3.727   8.025 -2.5047 -0.7253 -0.1972
 7804SOL    HW234875   3.520   3.615   7.933  0.1636  1.5601 -0.3518
 7805SOL     OW34876   2.237   0.427   5.915 -0.1838  0.5099  0.1059
 7805SOL    HW134877   2.262   0.376   5.992  1.1310  2.5593  1.0101
 7805SOL    HW234878   2.154   0.467   5.942 -0.9676 -1.1496  0.1669
 7806SOL     OW34879   0.554   3.220   2.732 -0.1916 -0.7274 -0.5094
 7806SOL    HW134880   0.493   3.199   2.803  1.5111 -1.8743  0.6301
 7806SOL    HW234881   0.537   3.314   2.731 -2.9567 -1.2204  0.6525
 7807SOL     OW34882   1.296   4.439   2.890  0.0914 -0.0865 -0.0084
 7807SOL    HW134883   1.271   4.518   2.938  1.3498  1.0563 -1.2228
 7807SOL    HW234884   1.244   4.372   2.934  0.9882 -0.1939  0.8928
 7808SOL     OW34885   1.106   4.295   8.609  0.5603  0.2742  0.3240
 7808SOL    HW134886   1.027   4.322   8.656  0.5894 -0.9103  1.0374
 7808SOL    HW234887   1.143   4.232   8.670  1.2457  0.3306 -0.0323
 7809SOL     OW34888   4.654   3.580  11.451 -0.9446  0.1698  0.1626
 7809SOL    HW134889   0.022   3.592  11.424 -0.3869 -1.3345  1.4116
 7809SOL    HW234890   4.669   3.559  11.543 -2.1317  1.2567  0.6022
 7810SOL     OW34891   1.676   2.900   8.116 -0.6676  0.3488  0.8502
 7810SOL    HW134892   1.637   2.813   8.123  2.1362 -1.0853 -1.4714
 7810SOL    HW234893   1.767   2.880   8.139  0.2253  3.1591 -0.2268
 7811SOL     OW34894   0.560   0.748   0.593 -0.5241 -0.0189 -0.3659
 7811SOL    HW134895   0.635   0.694   0.617 -1.3708  0.4855  3.5443
 7811SOL    HW234896   0.489   0.691   0.562  1.5120 -2.2763 -0.8644
 7812SOL     OW34897   4.419   4.070  14.192  0.0692 -0.3329  0.8483
 7812SOL    HW134898   4.329   4.091  14.166  0.6718  0.8270 -0.3509
 7812SOL    HW234899   4.434   4.005  14.122  1.1872  1.7815 -0.8903
 7813SOL     OW34900   2.435   1.700   8.402 -0.7291  0.0383 -0.2857
 7813SOL    HW134901   2.490   1.778   8.388 -1.2394  0.2960 -0.8412
 7813SOL    HW234902   2.361   1.724   8.346 -0.1691  0.9842 -0.6249
 7814SOL     OW34903   0.552   3.205   8.112 -0.6935  0.0794  0.1389
 7814SOL    HW134904   0.473   3.152   8.104  1.6833 -3.6873  1.5914
 7814SOL    HW234905   0.539   3.250   8.196 -0.1603  1.0654 -0.2982
 7815SOL     OW34906   2.986   4.713   5.654 -0.3099  0.0418 -1.0398
 7815SOL    HW134907   3.066   4.705   5.705 -2.1653  1.0363  2.0444
 7815SOL    HW234908   2.921   0.013   5.720 -1.4792 -0.2357 -2.0696
 7816SOL     OW34909   0.665   4.119   9.097 -0.2413  0.1173 -0.4048
 7816SOL    HW134910   0.675   4.161   9.012 -1.0685  0.5772 -0.2694
 7816SOL    HW234911   0.573   4.093   9.103  0.2758 -1.5073  0.6123
 7817SOL     OW34912   1.278   3.619   8.123  0.0026  0.2380  0.2156
 7817SOL    HW134913   1.304   3.538   8.078  2.0165  1.2326 -0.4190
 7817SOL    HW234914   1.293   3.590   8.213  0.6509  0.0831  0.0571
 7818SOL     OW34915   1.341   3.891   6.941 -0.2174  0.1105 -0.0544
 7818SOL    HW134916   1.331   3.863   7.032  0.3772  2.0135  0.6099
 7818SOL    HW234917   1.355   3.986   6.946  1.9845 -0.2475  0.5128
 7819SOL     OW34918   4.525   0.497   5.122 -0.1992  0.3009 -0.2650
 7819SOL    HW134919   4.517   0.577   5.070 -2.1235 -0.1350 -0.6503
 7819SOL    HW234920   4.467   0.429   5.086  1.1992 -1.9746  1.7385
 7820SOL     OW34921   4.043   1.540  14.375 -0.1770 -0.3371 -0.1910
 7820SOL    HW134922   3.955   1.565  14.345 -0.9009 -1.1902  1.1885
 7820SOL    HW234923   4.046   1.576  14.464 -1.2082  2.3150 -1.2323
 7821SOL     OW34924   3.870   1.288   0.907 -0.1106 -0.0829 -0.0636
 7821SOL    HW134925   3.918   1.341   0.970  0.4853  0.0317 -0.6125
 7821SOL    HW234926   3.912   1.203   0.918  0.0832  0.2244  1.5269
 7822SOL     OW34927   0.631   3.354   9.066 -0.1325 -0.4033  0.2484
 7822SOL    HW134928   0.655   3.262   9.052 -0.0652 -0.3998  0.3385
 7822SOL    HW234929   0.700   3.401   9.020 -1.0545  0.3924 -0.3123
 7823SOL     OW34930   1.798   1.890   1.416 -0.2470 -0.4342  0.2677
 7823SOL    HW134931   1.819   1.843   1.497 -0.5001  1.1386  1.2541
 7823SOL    HW234932   1.872   1.875   1.357  0.2002 -0.9566  0.9672
 7824SOL     OW34933   1.250   2.530   8.528 -0.3166  0.3003  0.5968
 7824SOL    HW134934   1.168   2.516   8.575 -0.8188  1.7002  0.1586
 7824SOL    HW234935   1.255   2.454   8.471 -0.1400  0.5735  0.2428
 7825SOL     OW34936   0.766   0.868  16.558 -0.2521 -0.1208 -0.0035
 7825SOL    HW134937   0.796   0.859  16.467  2.6279 -0.2649  0.9516
 7825SOL    HW234938   0.793   0.959  16.570 -1.4103  0.0834  0.9838
 7826SOL     OW34939   0.940   0.149   8.041  0.1451 -0.0316  0.0288
 7826SOL    HW134940   0.946   0.242   8.061  0.5960 -0.3396  1.3064
 7826SOL    HW234941   1.017   0.127   7.990  0.2394  1.7686 -0.5876
 7827SOL     OW34942   3.335   2.426   5.023 -0.1298  0.4843 -0.0750
 7827SOL    HW134943   3.249   2.406   5.060 -0.7070 -0.6935 -2.0458
 7827SOL    HW234944   3.376   2.486   5.085 -1.9168 -0.9765  2.4673
 7828SOL     OW34945   2.944   4.084   8.090  0.1129 -0.2058  0.4097
 7828SOL    HW134946   2.907   4.016   8.147  0.7447  0.2999  1.4300
 7828SOL    HW234947   2.894   4.078   8.009 -0.0255 -0.0225  0.4799
 7829SOL     OW34948   3.194   4.460  16.879  0.7941 -0.5828  0.2197
 7829SOL    HW134949   3.115   4.411  16.858  0.3652 -0.0450  0.5925
 7829SOL    HW234950   3.174   4.547  16.844  1.0175 -0.7897 -0.4359
 7830SOL     OW34951   3.272   4.654  12.170 -0.0467  0.8282  0.3291
 7830SOL    HW134952   3.358   4.673  12.208 -0.5035  2.1882  0.6558
 7830SOL    HW234953   3.250   0.019  12.141  2.5710  1.3492 -0.1211
 7831SOL     OW34954   1.034   3.547   7.009  0.2631 -0.0384 -0.1306
 7831SOL    HW134955   1.104   3.482   7.008  0.6103  0.3328 -0.0410
 7831SOL    HW234956   1.037   3.590   6.923  0.1159 -0.1441 -0.1893
 7832SOL     OW34957   1.812   3.041   9.567 -0.0749 -0.5208  0.2187
 7832SOL    HW134958   1.771   2.965   9.609 -0.0523  0.1947  1.5282
 7832SOL    HW234959   1.757   3.113   9.598  0.6373  1.1257 -2.3283
 7833SOL     OW34960   1.240   4.280   7.230  0.2639 -0.4052 -0.4073
 7833SOL    HW134961   1.332   4.305   7.241  0.1814 -0.0975 -0.4110
 7833SOL    HW234962   1.205   4.321   7.309  0.3672 -1.0783 -0.0076
 7834SOL     OW34963   4.312   0.676   2.655  0.2005 -0.4191  0.5641
 7834SOL    HW134964   4.279   0.593   2.689 -2.7586 -0.0253 -1.3275
 7834SOL    HW234965   4.301   0.671   2.560  1.8211  1.0920  0.3089
 7835SOL     OW34966   4.551   3.478  12.985 -0.0092 -0.4301  0.1488
 7835SOL    HW134967   4.479   3.517  13.035  0.9555  0.0688  1.1604
 7835SOL    HW234968   4.623   3.482  13.049 -2.1250 -2.6412  2.6710
 7836SOL     OW34969   4.382   0.430  13.661  0.6390 -0.4153  0.5482
 7836SOL    HW134970   4.291   0.448  13.682  0.8363 -0.6449  1.5906
 7836SOL    HW234971   4.414   0.422  13.751 -0.3141  1.1170  1.0284
 7837SOL     OW34972   1.852   2.175  15.348 -0.3625 -0.0501  0.3131
 7837SOL    HW134973   1.838   2.236  15.276  2.1233  1.9436  1.5662
 7837SOL    HW234974   1.831   2.232  15.421  1.1967  0.2903  0.4793
 7838SOL     OW34975   3.935   0.589   5.165  0.1894  0.0913 -0.0475
 7838SOL    HW134976   3.987   0.615   5.241  0.1812 -0.6203  0.2020
 7838SOL    HW234977   3.994   0.617   5.096 -0.2608  1.0260 -0.0420
 7839SOL     OW34978   2.437   3.101   2.187 -0.2966 -0.4666  0.2901
 7839SOL    HW134979   2.463   3.088   2.096 -1.6218  0.2880 -0.2001
 7839SOL    HW234980   2.448   3.012   2.223  0.5227  0.0079  1.2198
 7840SOL     OW34981   1.024   3.257   3.908 -0.2160 -0.0099 -0.5267
 7840SOL    HW134982   1.084   3.209   3.965  1.2187  3.3652  0.8203
 7840SOL    HW234983   0.941   3.233   3.949  0.7037 -0.8125  0.8283
 7841SOL     OW34984   4.590   3.023   7.175 -0.4408  0.2769 -0.2887
 7841SOL    HW134985   4.639   3.046   7.096  1.2629  0.1081  0.7065
 7841SOL    HW234986   4.642   3.057   7.248  0.7541  2.7931 -2.3139
 7842SOL     OW34987   2.831   1.567  14.316 -0.3807  0.4140  0.8966
 7842SOL    HW134988   2.899   1.562  14.384  2.2429  2.3613 -1.6093
 7842SOL    HW234989   2.831   1.656  14.281  1.9737  0.8645  2.0734
 7843SOL     OW34990   4.122   1.279   3.685 -0.0417 -0.3340 -0.3856
 7843SOL    HW134991   4.041   1.330   3.676  1.4032  2.2869  1.2169
 7843SOL    HW234992   4.114   1.246   3.775 -1.6307 -4.5023 -2.1025
 7844SOL     OW34993   1.023   3.350   2.886 -0.2958  0.2326  0.1240
 7844SOL    HW134994   0.988   3.438   2.895  0.6112  0.6624 -0.6744
 7844SOL    HW234995   1.066   3.374   2.804 -1.1256 -0.0153 -0.3914
 7845SOL     OW34996   0.420   0.093   6.143  0.3028 -0.2344 -0.0709
 7845SOL    HW134997   0.344   0.116   6.197  0.2611 -0.4045 -0.0599
 7845SOL    HW234998   0.392   0.131   6.060 -0.1776  0.9268  0.6243
 7846SOL     OW34999   1.411   3.580  15.955  0.1019 -0.0352 -0.1281
 7846SOL    HW135000   1.360   3.592  15.875  1.0047 -3.8766 -1.2580
 7846SOL    HW235001   1.461   3.661  15.966  1.7689 -1.0003 -0.6243
 7847SOL     OW35002   0.934   1.915   9.551  0.2920  0.3580  0.0839
 7847SOL    HW135003   0.961   1.934   9.641  1.0208  0.1400 -0.0926
 7847SOL    HW235004   0.990   1.844   9.518  1.3669  0.4787  1.6554
 7848SOL     OW35005   3.564   3.035   4.250 -0.4228 -0.2765 -0.2978
 7848SOL    HW135006   3.564   3.071   4.338  1.1299 -0.4790 -0.2205
 7848SOL    HW235007   3.559   2.940   4.257 -3.0157 -0.0595  0.6189
 7849SOL     OW35008   4.404   4.231   6.160  0.2058  0.0661  0.1609
 7849SOL    HW135009   4.386   4.140   6.185 -0.8655  0.1762 -0.2423
 7849SOL    HW235010   4.329   4.258   6.107 -0.0172 -2.7292 -0.9581
 7850SOL     OW35011   1.275   2.779   2.706  0.1942 -0.2997 -0.1748
 7850SOL    HW135012   1.194   2.816   2.669  0.1251 -0.2610  0.0133
 7850SOL    HW235013   1.328   2.858   2.716  0.6189 -0.9628  3.0095
 7851SOL     OW35014   3.569   3.610   6.930  0.0415  0.3079  0.5469
 7851SOL    HW135015   3.612   3.654   7.003 -2.1806  0.5068  1.7046
 7851SOL    HW235016   3.641   3.581   6.873 -1.4619 -1.9123 -0.2423
 7852SOL     OW35017   1.284   4.042   3.251 -0.2491  0.0670  0.2875
 7852SOL    HW135018   1.198   4.012   3.221 -0.6493  0.9884  0.4882
 7852SOL    HW235019   1.326   4.073   3.170  0.9916 -2.8239 -0.1747
 7853SOL     OW35020   3.102   1.714   9.439  0.4616 -0.2029  0.9470
 7853SOL    HW135021   3.048   1.790   9.417 -2.4372 -2.7214 -0.5829
 7853SOL    HW235022   3.188   1.757   9.439  0.2590  0.2095 -2.5079
 7854SOL     OW35023   0.143   3.764   8.603  0.5336 -0.2941  0.5273
 7854SOL    HW135024   0.093   3.721   8.534  3.3796  1.2914 -2.5064
 7854SOL    HW235025   0.234   3.739   8.585  0.2496  1.1586 -2.8327
 7855SOL     OW35026   4.239   1.290   9.876 -0.3036  0.0279  0.1956
 7855SOL    HW135027   4.175   1.292   9.947  0.9006 -3.0137  1.3792
 7855SOL    HW235028   4.182   1.281   9.800 -0.8218  1.2984  0.4316
 7856SOL     OW35029   0.428   2.634   4.593 -0.0787  0.1152  0.4080
 7856SOL    HW135030   0.481   2.565   4.555 -1.3313 -0.2778 -0.5975
 7856SOL    HW235031   0.365   2.632   4.521  0.4509 -1.8111  0.0160
 7857SOL     OW35032   0.979   4.206   7.719 -0.4582 -0.2199 -0.2118
 7857SOL    HW135033   1.070   4.191   7.744 -1.3031 -0.7368  2.5617
 7857SOL    HW235034   0.973   4.179   7.627  2.2097 -1.4531 -0.0072
 7858SOL     OW35035   4.263   0.596   8.183  0.6483 -0.5093 -0.2861
 7858SOL    HW135036   4.314   0.547   8.119  1.4791  2.5416 -1.9818
 7858SOL    HW235037   4.182   0.615   8.135  0.8941  1.6444  0.1667
 7859SOL     OW35038   1.451   4.709   6.851  0.1518 -0.3249  0.0870
 7859SOL    HW135039   1.421   0.036   6.776 -0.8893  0.2381  0.8775
 7859SOL    HW235040   1.436   0.041   6.927 -1.1152 -0.3022 -0.1932
 7860SOL     OW35041   3.990   1.867  10.395  0.3964 -0.3196  0.9576
 7860SOL    HW135042   4.085   1.867  10.398  0.3538 -0.5648  2.0947
 7860SOL    HW235043   3.968   1.957  10.372 -1.3298 -1.3069 -1.3274
 7861SOL     OW35044   0.437   0.883   3.201 -0.6217  0.2945 -0.1438
 7861SOL    HW135045   0.506   0.909   3.262 -0.1724  0.6899 -0.8131
 7861SOL    HW235046   0.416   0.972   3.174  3.5721  0.6809 -2.0918
 7862SOL     OW35047   2.412   1.695   6.725 -0.8262 -0.2700 -0.0513
 7862SOL    HW135048   2.413   1.692   6.629 -1.3297  0.1077 -0.0726
 7862SOL    HW235049   2.353   1.768   6.744  0.7336  1.0355 -0.2924
 7863SOL     OW35050   2.475   4.281   4.121 -0.1256  0.1648 -0.3042
 7863SOL    HW135051   2.498   4.207   4.177 -0.6005  0.7137  0.6128
 7863SOL    HW235052   2.537   4.347   4.152 -0.3037  0.0376  0.3272
 7864SOL     OW35053   1.285   2.381   6.801  0.4494 -0.1737 -0.7793
 7864SOL    HW135054   1.295   2.384   6.706  2.7025 -1.6120 -0.6084
 7864SOL    HW235055   1.190   2.385   6.813  0.4843  0.8064 -0.7687
 7865SOL     OW35056   4.402   4.615   6.085  0.3679 -0.9256 -0.5057
 7865SOL    HW135057   4.479   4.607   6.142  1.2739 -2.1757 -1.9072
 7865SOL    HW235058   4.419   4.544   6.023 -1.1627 -1.0610 -0.7614
 7866SOL     OW35059   1.313   0.883   9.550  0.1227  0.1350  0.1886
 7866SOL    HW135060   1.315   0.913   9.459 -1.4678 -1.2185 -0.3020
 7866SOL    HW235061   1.275   0.958   9.594  0.5029 -0.1208  0.9551
 7867SOL     OW35062   2.172   0.109   1.710 -0.1359 -0.1021 -0.7643
 7867SOL    HW135063   2.259   0.078   1.733  0.1066  2.2432  1.5083
 7867SOL    HW235064   2.150   0.068   1.626 -1.3475  2.8736 -1.9178
 7868SOL     OW35065   2.068   2.746   9.500 -0.3785  0.1231  0.5370
 7868SOL    HW135066   1.993   2.734   9.442 -0.6082 -1.8207  1.2339
 7868SOL    HW235067   2.143   2.762   9.442 -1.7407  0.0764 -1.2141
 7869SOL     OW35068   3.742   3.061  16.160 -0.4641 -0.9214 -0.3570
 7869SOL    HW135069   3.826   3.060  16.206 -2.0562 -1.3158  2.5334
 7869SOL    HW235070   3.690   3.009  16.222 -0.2598  0.0576  0.6485
 7870SOL     OW35071   2.438   1.735   2.954 -0.1870 -0.3703 -0.1262
 7870SOL    HW135072   2.468   1.656   2.909 -0.1921 -0.8188  0.6566
 7870SOL    HW235073   2.430   1.803   2.887  0.9411 -0.0477  0.0745
 7871SOL     OW35074   0.137   4.558   6.162 -0.2429 -0.5893 -0.7602
 7871SOL    HW135075   0.140   4.582   6.070 -1.1971 -0.0680 -0.6457
 7871SOL    HW235076   0.214   4.501   6.160  0.6359  0.6324 -1.3216
 7872SOL     OW35077   2.910   0.759   3.878 -0.0965  0.1440 -0.5689
 7872SOL    HW135078   2.931   0.810   3.957 -0.8978  1.4366 -1.1953
 7872SOL    HW235079   2.833   0.715   3.915  0.1318 -1.9144 -2.5816
 7873SOL     OW35080   0.135   3.718   3.988  0.2319 -0.5542 -0.4014
 7873SOL    HW135081   0.208   3.765   3.949 -0.2013  1.1623  0.8620
 7873SOL    HW235082   0.172   3.667   4.060 -0.4360 -1.2774 -0.5777
 7874SOL     OW35083   3.683   1.691   3.698 -0.6618 -0.3725  0.4799
 7874SOL    HW135084   3.605   1.677   3.644 -0.3752  2.6260 -0.7148
 7874SOL    HW235085   3.696   1.785   3.686 -1.1077 -0.1087  2.0429
 7875SOL     OW35086   4.271   4.219   2.810  0.6701  0.3306 -0.5184
 7875SOL    HW135087   4.363   4.229   2.786  0.1935 -0.2929 -2.5396
 7875SOL    HW235088   4.259   4.294   2.869 -1.3728 -1.1249  0.9224
 7876SOL     OW35089   2.690   0.488   7.091  0.2930  0.3012  0.0353
 7876SOL    HW135090   2.729   0.401   7.103 -2.2803 -0.5532  2.1387
 7876SOL    HW235091   2.764   0.547   7.107  0.9059 -0.9815  1.8722
 7877SOL     OW35092   1.545   2.537   8.935  0.0916 -0.2599 -0.0023
 7877SOL    HW135093   1.511   2.553   8.847  1.1232 -0.8360 -0.5055
 7877SOL    HW235094   1.634   2.507   8.914  0.4933  1.3838 -0.6333
 7878SOL     OW35095   4.163   4.251   6.040 -0.3630 -0.4151 -0.1751
 7878SOL    HW135096   4.076   4.212   6.030 -1.0121  0.3047  2.5351
 7878SOL    HW235097   4.155   4.342   6.009  1.3651 -0.2950 -0.2473
 7879SOL     OW35098   0.612   2.088   1.832 -0.0730 -0.4964  0.3579
 7879SOL    HW135099   0.587   2.018   1.893 -0.9753 -0.2800  0.2249
 7879SOL    HW235100   0.578   2.166   1.876  0.6343  0.5266 -0.9153
 7880SOL     OW35101   2.051   1.809   2.795  0.2481 -0.0940 -0.1812
 7880SOL    HW135102   2.115   1.818   2.724 -0.0773 -1.0528 -0.5904
 7880SOL    HW235103   2.115   1.829   2.864  0.9369 -1.9366 -0.2872
 7881SOL     OW35104   3.945   0.683   9.372 -0.1609  0.4533  0.0465
 7881SOL    HW135105   3.994   0.752   9.415 -0.6466  0.6927  0.2229
 7881SOL    HW235106   3.857   0.688   9.411 -0.3111  0.1889 -0.2562
 7882SOL     OW35107   1.426   3.489   7.680  0.6205 -0.3318  0.0592
 7882SOL    HW135108   1.431   3.398   7.708 -1.8515 -1.4359 -3.0259
 7882SOL    HW235109   1.332   3.504   7.676  0.5352 -0.9258 -0.2567
 7883SOL     OW35110   3.157   1.535  12.943  0.3172  0.0069 -0.1765
 7883SOL    HW135111   3.206   1.535  12.861 -0.4945 -0.8529 -0.6641
 7883SOL    HW235112   3.139   1.441  12.949 -1.0348  0.2708 -0.0177
 7884SOL     OW35113   0.333   2.193   6.293 -0.0867  0.0114  0.5149
 7884SOL    HW135114   0.291   2.263   6.344 -0.1884  0.0960  0.3136
 7884SOL    HW235115   0.369   2.236   6.216  0.1777 -2.0409 -0.4816
 7885SOL     OW35116   0.938   2.187   3.898 -0.2707 -0.2313 -0.1591
 7885SOL    HW135117   0.887   2.106   3.890 -1.6670  0.8795 -2.2771
 7885SOL    HW235118   0.951   2.193   3.993  2.3128 -1.2026 -0.4340
 7886SOL     OW35119   2.920   0.028  12.277  0.0961  0.1479  0.1089
 7886SOL    HW135120   2.886   0.043  12.189 -2.0771 -1.0732  0.7303
 7886SOL    HW235121   2.844   0.032  12.335  0.2931  2.6922  0.1764
 7887SOL     OW35122   2.115   1.789   5.223  0.4221  0.3503  0.8556
 7887SOL    HW135123   2.104   1.832   5.138 -1.4122 -0.8963  0.4687
 7887SOL    HW235124   2.099   1.870   5.271 -2.3874 -0.6817  1.6613
 7888SOL     OW35125   2.343   4.085   1.780  0.0841 -0.0113  0.2994
 7888SOL    HW135126   2.316   4.012   1.835 -0.0092 -0.7689 -0.7528
 7888SOL    HW235127   2.281   4.070   1.709  1.0756 -2.1411 -0.1260
 7889SOL     OW35128   2.488   0.900  15.588  0.1349 -0.5815  0.7675
 7889SOL    HW135129   2.569   0.949  15.572 -1.7563  2.5802  0.7171
 7889SOL    HW235130   2.438   0.925  15.510  1.4998 -0.0703  0.0557
 7890SOL     OW35131   2.663   2.454   7.621  0.0212 -0.0866 -0.2075
 7890SOL    HW135132   2.657   2.550   7.614  0.2277 -0.1726 -1.5168
 7890SOL    HW235133   2.674   2.429   7.529 -0.9520  3.7527 -1.3812
 7891SOL     OW35134   3.999   4.180  17.228 -0.3830  0.5054  0.4680
 7891SOL    HW135135   3.952   4.104  17.265  1.5417  0.7587  3.4251
 7891SOL    HW235136   3.968   4.249  17.286 -0.2723 -0.2839  1.4731
 7892SOL     OW35137   0.115   4.512  17.529  0.1907  0.1934  0.5158
 7892SOL    HW135138   0.040   4.453  17.537  0.2298 -0.0203 -0.7262
 7892SOL    HW235139   0.195   4.469  17.557  1.1975  1.3950 -0.5047
 7893SOL     OW35140   1.214   3.988  13.553 -0.0798  0.0121 -0.3665
 7893SOL    HW135141   1.262   4.067  13.528  2.7218 -1.5135  0.0732
 7893SOL    HW235142   1.230   3.918  13.490 -1.0457  0.9902 -1.6774
 7894SOL     OW35143   1.469   1.690  14.697  0.1930  0.2358 -0.3008
 7894SOL    HW135144   1.478   1.620  14.762  1.7825  1.2505  0.5611
 7894SOL    HW235145   1.421   1.640  14.630  0.5527 -2.4825  1.4972
 7895SOL     OW35146   3.240   1.512   1.822 -0.2825 -0.0377 -0.0099
 7895SOL    HW135147   3.169   1.489   1.882  0.5755 -2.8535 -0.0811
 7895SOL    HW235148   3.237   1.607   1.820  0.0639 -0.0467 -1.2867
 7896SOL     OW35149   0.504   0.729   5.736  0.0264 -0.4708  0.0188
 7896SOL    HW135150   0.563   0.690   5.671 -1.4832 -0.5250 -1.2973
 7896SOL    HW235151   0.570   0.779   5.786  1.8216 -0.8691 -1.9552
 7897SOL     OW35152   1.712   4.010   9.189 -0.3848 -0.3306  0.3241
 7897SOL    HW135153   1.733   3.926   9.148 -0.0082  0.4451 -1.0736
 7897SOL    HW235154   1.792   4.046   9.227  0.9787 -1.7792 -1.1622
 7898SOL     OW35155   0.646   1.465   7.239 -0.0037 -1.0118 -1.5342
 7898SOL    HW135156   0.708   1.408   7.283 -0.1030 -0.0965 -0.2079
 7898SOL    HW235157   0.718   1.514   7.199  0.1691  0.5517  0.6786
 7899SOL     OW35158   1.287   1.223   7.112  0.6742 -0.2742 -0.4342
 7899SOL    HW135159   1.363   1.165   7.118  1.3157  0.8211  2.0275
 7899SOL    HW235160   1.231   1.185   7.180  1.8935  1.4461  1.5096
 7900SOL     OW35161   3.846   2.977  14.925  0.8540 -0.1310 -0.1464
 7900SOL    HW135162   3.929   2.982  14.878 -0.3776  0.1105 -2.3124
 7900SOL    HW235163   3.849   3.065  14.963 -1.8770  0.1624 -0.6004
 7901SOL     OW35164   3.591   0.610   7.590 -0.0087  0.2988  0.5322
 7901SOL    HW135165   3.683   0.585   7.599 -0.0110 -0.9400 -2.7881
 7901SOL    HW235166   3.586   0.704   7.571 -0.2170  0.2317  0.2551
 7902SOL     OW35167   0.686   0.152  10.492  0.1345 -0.1634  0.4722
 7902SOL    HW135168   0.687   0.235  10.443 -0.6357 -0.8443 -0.6867
 7902SOL    HW235169   0.618   0.103  10.446  0.0113 -0.1888  0.6837
 7903SOL     OW35170   0.839   3.880  17.082 -0.0212 -0.1966 -0.4216
 7903SOL    HW135171   0.888   3.956  17.049 -0.5125  1.0439  1.7651
 7903SOL    HW235172   0.872   3.802  17.036 -1.9826 -0.8655 -0.6611
 7904SOL     OW35173   3.452   0.790   6.196  0.5145  0.3929  0.4685
 7904SOL    HW135174   3.446   0.758   6.286 -0.2230 -2.9443 -0.7562
 7904SOL    HW235175   3.533   0.841   6.205 -0.3835  1.9593 -0.3961
 7905SOL     OW35176   3.043   0.980   7.690 -0.1399 -0.7220  0.2120
 7905SOL    HW135177   3.073   1.065   7.657 -0.7709 -0.3606  0.5788
 7905SOL    HW235178   3.125   0.932   7.699  0.2880 -0.2557 -1.1338
 7906SOL     OW35179   0.587   0.500  16.219 -0.0000  0.2272 -0.0727
 7906SOL    HW135180   0.670   0.468  16.255  0.5564  1.1892 -0.5277
 7906SOL    HW235181   0.577   0.583  16.265 -1.1077 -0.2655  0.5975
 7907SOL     OW35182   2.107   1.313   2.092  0.4718 -0.2181 -0.2835
 7907SOL    HW135183   2.058   1.232   2.106  0.6258 -0.4854 -1.3326
 7907SOL    HW235184   2.106   1.318   1.997 -0.6331 -3.3973 -0.4413
 7908SOL     OW35185   0.489   2.380  11.005 -0.8879  0.2203  0.2693
 7908SOL    HW135186   0.456   2.385  11.094 -0.0255 -1.7277  0.6969
 7908SOL    HW235187   0.540   2.300  11.013 -1.8314 -0.2364  1.5899
 7909SOL     OW35188   2.491   0.284  13.423 -0.3994 -0.6673  0.0889
 7909SOL    HW135189   2.499   0.194  13.454 -2.0455 -0.3437  1.4389
 7909SOL    HW235190   2.409   0.277  13.376 -0.3975 -3.3370  0.4903
 7910SOL     OW35191   3.944   2.670   8.937 -0.0672 -0.0120  0.5455
 7910SOL    HW135192   3.959   2.722   9.016  2.9767 -0.5718  0.3376
 7910SOL    HW235193   3.859   2.627   8.935  0.0911 -0.2826 -0.7384
 7911SOL     OW35194   4.174   1.435   1.335  0.0358  0.1418 -0.2520
 7911SOL    HW135195   4.207   1.511   1.383 -1.9102  0.7042  0.1850
 7911SOL    HW235196   4.189   1.374   1.407  1.5793  1.9912  0.9799
 7912SOL     OW35197   4.591   1.357   4.823 -0.2360  0.2476 -0.7185
 7912SOL    HW135198   4.638   1.315   4.896 -2.1569  1.8629  1.4427
 7912SOL    HW235199   4.506   1.314   4.838  0.8489 -1.5051  0.4081
 7913SOL     OW35200   1.353   0.942   5.365 -0.2594  0.6543  0.3901
 7913SOL    HW135201   1.301   0.910   5.292 -0.0016  0.2858  0.3719
 7913SOL    HW235202   1.438   0.914   5.331  1.1473  1.5517  3.1752
 7914SOL     OW35203   1.033   2.528   5.748 -0.3886 -0.6611  0.9661
 7914SOL    HW135204   1.057   2.435   5.751 -0.5374 -0.7113  0.6199
 7914SOL    HW235205   1.071   2.563   5.829  1.9657 -0.1839 -0.3307
 7915SOL     OW35206   0.506   2.411   4.851 -0.1434  0.3145 -0.4058
 7915SOL    HW135207   0.467   2.372   4.773  0.9616 -1.6588  0.0428
 7915SOL    HW235208   0.600   2.398   4.840 -0.2365 -1.3893  0.7329
 7916SOL     OW35209   0.234   3.070  16.604  0.1235  0.7781  0.0007
 7916SOL    HW135210   0.285   3.046  16.682 -0.4618 -1.3224 -0.2694
 7916SOL    HW235211   0.259   3.162  16.596 -0.2044  0.9773  1.3204
 7917SOL     OW35212   2.010   3.044  15.984 -0.4953  0.3073  0.6777
 7917SOL    HW135213   1.942   3.076  16.044  0.6597  1.0376  1.6138
 7917SOL    HW235214   2.088   3.065  16.037  1.4704 -2.8244 -0.9702
 7918SOL     OW35215   2.875   3.798   4.146 -0.9840  0.3088  0.8835
 7918SOL    HW135216   2.797   3.743   4.158 -0.4856 -0.1755  1.9403
 7918SOL    HW235217   2.887   3.848   4.227  0.0767  2.9324 -0.9224
 7919SOL     OW35218   1.317   0.165  10.714 -0.6446  0.3704  0.2387
 7919SOL    HW135219   1.393   0.218  10.691  0.0875 -0.5430  0.5347
 7919SOL    HW235220   1.257   0.234  10.742 -0.0109  0.4674  1.3926
 7920SOL     OW35221   1.688   4.193  14.260 -0.3956 -0.9629  0.3272
 7920SOL    HW135222   1.644   4.137  14.324 -1.6206 -1.6492 -1.1182
 7920SOL    HW235223   1.764   4.224  14.309 -0.5578 -0.4989  0.2868
 7921SOL     OW35224   3.804   4.589   5.528 -0.0475  0.2565 -0.0539
 7921SOL    HW135225   3.725   4.535   5.536  0.8204 -1.0234 -0.1640
 7921SOL    HW235226   3.865   4.525   5.491 -0.4048  0.6496 -1.3343
 7922SOL     OW35227   4.177   3.396   6.785 -0.0375  0.5908  0.3630
 7922SOL    HW135228   4.183   3.473   6.842 -1.3356  1.7059 -1.0362
 7922SOL    HW235229   4.269   3.370   6.775 -0.1779  0.2913 -0.1229
 7923SOL     OW35230   2.382   0.518   0.635  0.8503  0.1440 -0.0310
 7923SOL    HW135231   2.345   0.567   0.707 -1.7984 -1.4462 -0.3355
 7923SOL    HW235232   2.324   0.442   0.639  1.6389 -0.5720 -1.9233
 7924SOL     OW35233   0.658   4.329   7.580 -0.0737 -0.0254  0.0348
 7924SOL    HW135234   0.585   4.389   7.564 -0.5830 -0.8418 -0.7348
 7924SOL    HW235235   0.611   4.251   7.610  0.2700  1.1771  3.6577
 7925SOL     OW35236   3.302   4.283   5.865  0.9444  0.2363  0.0506
 7925SOL    HW135237   3.288   4.368   5.824  0.1460  0.0971  0.0352
 7925SOL    HW235238   3.230   4.290   5.927  0.4081 -0.9507 -0.4373
 7926SOL     OW35239   0.839   3.083   7.785 -0.3252 -0.1988 -0.4091
 7926SOL    HW135240   0.790   3.150   7.833  2.1041 -0.6181  2.6867
 7926SOL    HW235241   0.791   3.009   7.821  3.0831 -1.4319  1.5566
 7927SOL     OW35242   4.609   3.157   9.262  0.7840  0.0907  0.1309
 7927SOL    HW135243   4.622   3.080   9.207  3.3592 -0.7107  1.8217
 7927SOL    HW235244   4.658   3.121   9.336 -1.0072 -1.3003  0.6192
 7928SOL     OW35245   1.512   3.231   8.567  0.3069  0.9540  0.6798
 7928SOL    HW135246   1.528   3.164   8.501  0.5077  0.5347  1.1509
 7928SOL    HW235247   1.541   3.308   8.518  0.5143  0.0339 -0.6286
 7929SOL     OW35248   0.694   3.308   7.904  0.3348 -0.9587  0.1992
 7929SOL    HW135249   0.652   3.272   7.982  2.0478 -1.1011  1.0506
 7929SOL    HW235250   0.618   3.315   7.846  1.5606  1.1506 -1.1253
 7930SOL     OW35251   4.192   3.586   5.559 -0.2215  0.3422  0.6605
 7930SOL    HW135252   4.260   3.548   5.504  1.8500  1.2526  2.5968
 7930SOL    HW235253   4.191   3.537   5.641  1.8613 -0.4128  0.2305
 7931SOL     OW35254   2.935   0.323  10.045 -0.6502 -0.2977 -0.0391
 7931SOL    HW135255   3.000   0.383  10.007 -0.0570  0.6131  2.3709
 7931SOL    HW235256   2.908   0.377  10.119 -2.7795  0.1990 -1.1948
 7932SOL     OW35257   0.158   4.593   4.598 -0.0686  0.2295 -0.0372
 7932SOL    HW135258   0.191   4.511   4.562 -0.1151  0.3857 -0.4277
 7932SOL    HW235259   0.216   4.600   4.675  0.4309 -0.5473 -0.3377
 7933SOL     OW35260   4.217   3.878  11.308 -0.0030 -0.0177  0.1179
 7933SOL    HW135261   4.253   3.799  11.268  2.2343  1.5670 -1.0290
 7933SOL    HW235262   4.181   3.850  11.393  1.2602 -0.1672  0.6068
 7934SOL     OW35263   4.263   3.840   9.581 -0.3669  0.3019 -0.3305
 7934SOL    HW135264   4.329   3.893   9.537 -1.4135 -0.0311 -2.3233
 7934SOL    HW235265   4.319   3.816   9.655 -1.3679 -3.0718 -0.6723
 7935SOL     OW35266   4.248   2.826  11.795  0.8738 -0.0714  0.4472
 7935SOL    HW135267   4.203   2.849  11.877 -0.2402 -0.2076 -0.1273
 7935SOL    HW235268   4.190   2.867  11.732  1.7878  0.7933  0.1647
 7936SOL     OW35269   4.699   2.182   8.144  0.0955 -0.0884 -0.4857
 7936SOL    HW135270   0.005   2.261   8.099  0.0345 -0.0376 -0.4385
 7936SOL    HW235271   0.058   2.160   8.186 -0.6191 -0.5226  0.7047
 7937SOL     OW35272   3.914   4.365   0.078  0.2967  0.7640  0.3280
 7937SOL    HW135273   3.961   4.355  17.692 -3.0699 -0.2753 -1.4810
 7937SOL    HW235274   3.833   4.331   0.041 -0.1244  0.6919  1.3111
 7938SOL     OW35275   3.114   3.479   1.817  0.3778 -0.6458 -0.4129
 7938SOL    HW135276   3.168   3.550   1.782 -1.7326  1.4118  0.4761
 7938SOL    HW235277   3.169   3.463   1.894 -1.7974 -2.4961  0.7457
 7939SOL     OW35278   4.594   1.278  14.184 -0.2384 -0.3068  0.1840
 7939SOL    HW135279   4.664   1.343  14.179  0.2646 -0.9375 -0.8936
 7939SOL    HW235280   4.622   1.207  14.241 -1.7968 -1.3986 -0.4192
 7940SOL     OW35281   0.430   2.454   6.675 -0.1642  0.0368 -0.0250
 7940SOL    HW135282   0.460   2.457   6.766 -0.8850 -0.1895  0.2154
 7940SOL    HW235283   0.360   2.517   6.689  0.1189 -0.6197  4.2962
 7941SOL     OW35284   4.040   2.528  11.824  0.3115  0.9510  0.5520
 7941SOL    HW135285   4.120   2.498  11.868 -0.0199  0.0954  0.5684
 7941SOL    HW235286   4.019   2.608  11.872  0.2037  0.9833  0.4498
 7942SOL     OW35287   0.768   3.738   3.913 -0.1065  0.3450 -0.0104
 7942SOL    HW135288   0.685   3.691   3.923  0.5859 -1.1973 -1.7041
 7942SOL    HW235289   0.738   3.801   3.847 -0.2006  1.1875  0.8308
 7943SOL     OW35290   3.192   4.102   1.838 -0.0419  0.2448 -0.5337
 7943SOL    HW135291   3.216   4.052   1.916 -0.4917 -0.2281 -0.7041
 7943SOL    HW235292   3.190   4.194   1.865 -1.3849 -0.2774  1.0885
 7944SOL     OW35293   3.762   1.856  14.288  0.0429  0.0836 -0.1629
 7944SOL    HW135294   3.773   1.762  14.275 -1.5286 -0.0103 -0.7909
 7944SOL    HW235295   3.845   1.879  14.329 -0.0563 -0.3554  0.2831
 7945SOL     OW35296   2.651   0.074  10.277 -0.1273 -0.1602 -0.2927
 7945SOL    HW135297   2.572   0.112  10.236 -1.9387 -1.6269  1.8586
 7945SOL    HW235298   2.609   4.717  10.304 -0.9196  0.3883  0.1171
 7946SOL     OW35299   3.675   4.537   2.547 -0.0050  0.0966  0.3031
 7946SOL    HW135300   3.615   4.517   2.619  1.7029 -1.7578  1.2389
 7946SOL    HW235301   3.633   4.518   2.463 -0.0736  2.8109 -0.2885
 7947SOL     OW35302   0.461   0.911   3.947 -0.0734  0.5226  0.0743
 7947SOL    HW135303   0.410   0.953   4.016  1.9816 -0.4476  2.1836
 7947SOL    HW235304   0.456   0.819   3.975 -0.0858  0.2462 -0.8093
 7948SOL     OW35305   1.634   0.181   3.189  0.0944 -0.1193 -0.1511
 7948SOL    HW135306   1.637   0.171   3.284 -1.0185 -1.0626 -0.2070
 7948SOL    HW235307   1.723   0.214   3.186  0.2206 -0.1995  2.7561
 7949SOL     OW35308   0.358   1.990   8.024  0.3600  0.2284 -0.5023
 7949SOL    HW135309   0.407   1.965   7.945 -0.3123  1.2944 -1.2487
 7949SOL    HW235310   0.329   1.906   8.062  0.4651  1.3561  2.0732
 7950SOL     OW35311   0.682   1.429   5.315 -0.1656 -0.3661 -0.0376
 7950SOL    HW135312   0.713   1.492   5.250 -1.9732  0.1121 -0.4311
 7950SOL    HW235313   0.755   1.442   5.376  0.4886  0.1410 -0.9314
 7951SOL     OW35314   2.831   4.207  11.189 -0.6945 -0.0244  0.5099
 7951SOL    HW135315   2.758   4.210  11.251 -2.4670 -2.5602 -1.4666
 7951SOL    HW235316   2.894   4.273  11.217 -0.1421 -0.1675 -0.4120
 7952SOL     OW35317   1.580   1.611   2.313  0.2145  0.4840 -0.1295
 7952SOL    HW135318   1.658   1.664   2.300  0.1343  0.7965  0.6602
 7952SOL    HW235319   1.506   1.669   2.296  1.5739  1.7278 -1.7166
 7953SOL     OW35320   1.784   4.634   7.399 -0.9766 -0.0814  0.4863
 7953SOL    HW135321   1.795   0.006   7.394  2.0888 -0.3671  1.3363
 7953SOL    HW235322   1.878   4.622   7.414 -1.2935 -2.8387  0.2280
 7954SOL     OW35323   0.989   0.909   5.169 -0.9275 -0.4540  0.1435
 7954SOL    HW135324   0.998   0.879   5.259  0.8744  0.4215  0.2641
 7954SOL    HW235325   1.079   0.885   5.146 -1.1131 -1.4141  0.4371
 7955SOL     OW35326   2.879   3.920   5.675  0.0722  0.2780 -0.0202
 7955SOL    HW135327   2.839   3.984   5.735 -0.3182  1.2718 -1.3228
 7955SOL    HW235328   2.877   3.845   5.734 -1.2549 -1.3645 -2.1647
 7956SOL     OW35329   4.130   4.294   4.769  0.4756  0.5530 -0.5521
 7956SOL    HW135330   4.039   4.301   4.795 -0.1612  1.4479 -3.0181
 7956SOL    HW235331   4.165   4.281   4.858 -0.6233 -0.7851 -0.3259
 7957SOL     OW35332   3.742   4.346   3.238  0.2083 -0.4135  0.0438
 7957SOL    HW135333   3.756   4.251   3.241  2.3983 -0.1244 -0.9723
 7957SOL    HW235334   3.672   4.347   3.303 -0.3520 -1.9233 -0.5308
 7958SOL     OW35335   4.651   1.865  13.112 -0.5046 -0.1568 -0.4413
 7958SOL    HW135336   4.606   1.947  13.132  0.6985  0.4040 -0.0324
 7958SOL    HW235337   4.611   1.806  13.176  3.1080 -0.5047  1.4823
 7959SOL     OW35338   3.507   0.051  12.260 -0.1390 -0.4718 -0.0621
 7959SOL    HW135339   3.482   0.143  12.267 -0.5707 -0.6301  0.5231
 7959SOL    HW235340   3.594   0.041  12.299 -1.6292  2.2865  4.0150
 7960SOL     OW35341   2.972   1.734  14.002 -0.1231 -0.0799 -0.1091
 7960SOL    HW135342   3.020   1.690  14.072 -0.0498  0.1091 -0.0419
 7960SOL    HW235343   2.881   1.716  14.024  0.1783 -1.1010  0.2807
 7961SOL     OW35344   1.701   3.745   3.187  0.0277  0.0244 -0.0323
 7961SOL    HW135345   1.719   3.740   3.281 -1.2344  1.4326  0.2867
 7961SOL    HW235346   1.654   3.663   3.174 -1.2215  0.9022 -1.0697
 7962SOL     OW35347   0.287   4.637   8.683  0.5147  0.0566 -0.1573
 7962SOL    HW135348   0.381   4.628   8.700  0.3209 -0.4460  0.6866
 7962SOL    HW235349   0.286   4.651   8.588  0.1016  0.2220 -0.1287
 7963SOL     OW35350   4.489   1.382   7.299 -0.0585  0.3378 -0.7851
 7963SOL    HW135351   4.456   1.451   7.241 -0.5051 -0.8446 -1.9606
 7963SOL    HW235352   4.415   1.343   7.346  0.7449  2.1126  1.8848
 7964SOL     OW35353   0.821   1.142   1.086  0.0126  0.0736  0.2802
 7964SOL    HW135354   0.895   1.197   1.112 -0.4047  0.7368  0.0440
 7964SOL    HW235355   0.815   1.165   0.993 -0.4676 -3.0883 -0.4985
 7965SOL     OW35356   2.016   4.152   4.300 -0.2039 -0.5947  0.0871
 7965SOL    HW135357   1.986   4.061   4.300  1.1615 -1.0450  1.1581
 7965SOL    HW235358   2.077   4.148   4.226  1.2423 -3.6766  1.4464
 7966SOL     OW35359   3.012   0.424   8.801  0.2098 -0.0991 -0.0995
 7966SOL    HW135360   2.960   0.374   8.737  0.3920 -1.1314  0.5529
 7966SOL    HW235361   2.993   0.375   8.881  2.3405 -0.6833  0.0705
 7967SOL     OW35362   2.216   2.972   3.025 -0.5310  0.4143 -0.0016
 7967SOL    HW135363   2.235   2.964   3.119 -0.0316 -1.3443 -0.2458
 7967SOL    HW235364   2.192   3.063   3.008  0.1058  0.4515 -0.7106
 7968SOL     OW35365   0.234   4.641   0.778  0.0924  0.4128 -0.3234
 7968SOL    HW135366   0.281   4.656   0.860  0.5659  1.2506 -0.7434
 7968SOL    HW235367   0.231   4.545   0.773 -1.7984  0.4716 -0.3974
 7969SOL     OW35368   1.076   4.105   3.741  0.3067  0.3450 -0.1932
 7969SOL    HW135369   1.160   4.146   3.722  0.2093  1.0265  0.8055
 7969SOL    HW235370   1.091   4.103   3.836 -0.2871 -0.4629 -0.1167
 7970SOL     OW35371   3.252   3.742  14.691  0.3708  0.0555 -0.2617
 7970SOL    HW135372   3.191   3.690  14.638 -1.7090  1.1979  0.9931
 7970SOL    HW235373   3.220   3.832  14.683 -0.4378 -0.2104 -0.0756
 7971SOL     OW35374   4.240   0.357  11.403  0.5161  0.1828  0.0992
 7971SOL    HW135375   4.288   0.434  11.432  0.2579  0.1429  0.6271
 7971SOL    HW235376   4.194   0.324  11.479 -2.0427  0.3263 -1.3896
 7972SOL     OW35377   2.528   2.939   9.172 -0.0695  0.8827 -0.1560
 7972SOL    HW135378   2.592   2.948   9.243 -2.3582 -0.7659  2.1187
 7972SOL    HW235379   2.550   2.856   9.130 -0.9546  0.3840  0.3614
 7973SOL     OW35380   1.806   1.332   6.599 -0.0103 -0.1516 -0.7610
 7973SOL    HW135381   1.819   1.426   6.585  0.0498 -0.6694 -4.2839
 7973SOL    HW235382   1.855   1.302   6.522 -0.2068 -3.0067  0.2116
 7974SOL     OW35383   4.170   3.914  10.310  0.1528  0.0104  0.0276
 7974SOL    HW135384   4.177   3.924  10.215 -3.6228 -1.1976 -0.3799
 7974SOL    HW235385   4.260   3.893  10.332  0.2501 -0.8773 -1.2148
 7975SOL     OW35386   0.439   3.946   0.107  0.4579 -0.4920  0.6344
 7975SOL    HW135387   0.377   3.904   0.166 -1.4130 -1.5198 -2.0714
 7975SOL    HW235388   0.449   4.033   0.145  0.8085 -0.5750  0.7347
 7976SOL     OW35389   3.141   4.142   2.569  0.4176 -0.5889 -0.2055
 7976SOL    HW135390   3.173   4.055   2.546 -0.3498 -0.3129 -2.3311
 7976SOL    HW235391   3.181   4.211   2.515 -0.5066 -2.0033 -2.7079
 7977SOL     OW35392   0.148   0.542   5.938  0.3538 -0.4010  0.2478
 7977SOL    HW135393   0.220   0.543   5.875 -1.3249 -0.6550 -1.6685
 7977SOL    HW235394   0.193   0.590   6.008  1.8660  0.4143 -1.2741
 7978SOL     OW35395   1.292   2.620  16.948 -0.0734  0.1389  0.3282
 7978SOL    HW135396   1.251   2.702  16.976 -1.4791 -0.2921 -0.4490
 7978SOL    HW235397   1.275   2.629  16.854 -0.9252 -2.1245  0.2836
 7979SOL     OW35398   2.324   1.909   8.855  0.1478 -0.4795  0.6343
 7979SOL    HW135399   2.232   1.919   8.880  0.1065  0.1555  0.2447
 7979SOL    HW235400   2.317   1.954   8.770 -0.8626 -1.1112  0.3929
 7980SOL     OW35401   0.487   2.019  13.090  0.4017  0.2959  0.1732
 7980SOL    HW135402   0.405   1.990  13.049  1.7744 -2.3019 -0.7541
 7980SOL    HW235403   0.489   2.105  13.048  2.0325  0.8037  1.2923
 7981SOL     OW35404   2.013   1.624  14.954  0.0925 -0.3031  0.9090
 7981SOL    HW135405   1.944   1.558  14.948  0.1779  0.0053 -3.1264
 7981SOL    HW235406   2.052   1.631  14.867  1.2024 -0.1083  1.4079
 7982SOL     OW35407   1.471   2.655  12.589  0.2094 -0.1524 -0.5896
 7982SOL    HW135408   1.519   2.726  12.631  0.0129 -0.3168 -0.0903
 7982SOL    HW235409   1.513   2.581  12.634 -0.0167  0.2699  0.3231
 7983SOL     OW35410   1.099   0.618  16.890 -0.1664  0.1281  0.1202
 7983SOL    HW135411   1.031   0.674  16.854 -0.1344 -1.6198 -2.6476
 7983SOL    HW235412   1.114   0.559  16.816 -2.8466  1.7900 -1.7368
 7984SOL     OW35413   3.652   3.059   2.324 -0.2675  0.0223 -0.5232
 7984SOL    HW135414   3.736   3.031   2.361 -0.0540  1.1659 -0.1414
 7984SOL    HW235415   3.600   2.979   2.315  2.2293 -1.3448 -2.8391
 7985SOL     OW35416   1.145   0.914   2.948 -0.2422 -0.6491  0.1501
 7985SOL    HW135417   1.106   0.948   3.029  0.5360 -1.8167  1.0237
 7985SOL    HW235418   1.167   0.829   2.986 -0.8278 -1.9291 -2.3702
 7986SOL     OW35419   2.439   3.255   5.065 -0.0270 -0.3984  0.6845
 7986SOL    HW135420   2.436   3.280   4.973  0.8586 -2.3863  0.1242
 7986SOL    HW235421   2.419   3.328   5.124  0.3195  1.9676 -2.1632
 7987SOL     OW35422   2.125   3.375   3.593  0.4177 -0.0459  0.1417
 7987SOL    HW135423   2.160   3.362   3.505  1.3381 -1.2153  0.6800
 7987SOL    HW235424   2.204   3.390   3.644  1.4192  0.4731 -1.5544
 7988SOL     OW35425   2.576   2.129   3.107  0.0739 -0.0893  0.2202
 7988SOL    HW135426   2.579   2.139   3.203 -0.8418  0.0249  0.2363
 7988SOL    HW235427   2.644   2.064   3.090 -0.0578  0.0911 -0.9655
 7989SOL     OW35428   3.552   4.688   5.274  0.0929 -0.1627  0.5535
 7989SOL    HW135429   3.477   0.023   5.266 -2.3533 -3.1070  2.0208
 7989SOL    HW235430   3.513   4.602   5.259  0.5443  0.0027 -1.5077
 7990SOL     OW35431   0.561   0.033   2.218  0.4980  0.3381  0.4970
 7990SOL    HW135432   0.480   0.048   2.168  1.4104 -0.9170 -1.3583
 7990SOL    HW235433   0.518   0.007   2.300  1.9505  0.4688  1.2992
 7991SOL     OW35434   4.030   4.009   7.815  0.2817 -0.5633 -0.6097
 7991SOL    HW135435   4.044   3.925   7.860  0.6580 -0.6921 -0.9631
 7991SOL    HW235436   4.004   4.079   7.874  0.0563 -1.1533 -0.0131
 7992SOL     OW35437   0.282   4.506   2.540 -0.1671 -0.0869  0.3835
 7992SOL    HW135438   0.331   4.429   2.510  1.3320  1.2835 -0.6823
 7992SOL    HW235439   0.212   4.457   2.584 -1.0752 -0.7609 -1.8117
 7993SOL     OW35440   0.839   3.295   8.204 -0.2602 -0.5333 -0.4352
 7993SOL    HW135441   0.749   3.292   8.171 -0.8377 -0.0003  1.0720
 7993SOL    HW235442   0.892   3.246   8.142  0.9081 -3.5308  2.9499
 7994SOL     OW35443   2.688   2.555   5.578  0.1980 -0.4842  0.2501
 7994SOL    HW135444   2.633   2.595   5.511 -0.1561 -3.5244 -1.2852
 7994SOL    HW235445   2.706   2.469   5.539 -1.8837 -0.4469 -0.7990
 7995SOL     OW35446   4.082   4.456  15.433 -0.6756  0.1489 -0.4754
 7995SOL    HW135447   4.081   4.366  15.400  0.7859  0.2390 -0.7844
 7995SOL    HW235448   4.002   4.470  15.482  0.0944  0.0126  0.8102
 7996SOL     OW35449   1.229   3.231   1.840  0.8605 -0.3737 -0.4198
 7996SOL    HW135450   1.180   3.214   1.760  0.5924 -1.7853  0.0411
 7996SOL    HW235451   1.316   3.236   1.801  1.7208 -1.9913  1.2808
 7997SOL     OW35452   0.230   0.475   6.642 -0.3448 -0.1299 -0.2460
 7997SOL    HW135453   0.261   0.546   6.586  0.8774 -0.8127 -0.4220
 7997SOL    HW235454   0.141   0.471   6.608  0.2662  2.3003 -2.1239
 7998SOL     OW35455   3.952   1.340   8.503  0.3301 -0.1568  0.2247
 7998SOL    HW135456   3.877   1.338   8.563 -0.6333 -3.1525 -1.0765
 7998SOL    HW235457   3.949   1.256   8.456  3.0908  0.9531 -1.8968
 7999SOL     OW35458   4.142   2.714   4.689  0.1474 -0.2542 -0.1141
 7999SOL    HW135459   4.156   2.743   4.779 -0.4446 -0.9486  0.2040
 7999SOL    HW235460   4.233   2.718   4.661  0.1977 -3.1161 -0.3974
 8000SOL     OW35461   4.124   2.061   6.811  0.4657  0.1853 -0.0031
 8000SOL    HW135462   4.142   2.064   6.905  1.7647  2.4565 -0.3321
 8000SOL    HW235463   4.211   2.049   6.773  0.2722 -2.0226  0.2357
 8001SOL     OW35464   1.754   1.141   4.074 -0.2669  0.0057  0.1114
 8001SOL    HW135465   1.804   1.211   4.116 -0.2140 -0.2212  0.4294
 8001SOL    HW235466   1.709   1.176   3.998  0.6147  0.8551 -0.0263
 8002SOL     OW35467   0.253   0.132   7.443 -0.4423  0.5774  0.4016
 8002SOL    HW135468   0.168   0.086   7.444  1.1977 -2.5119 -1.1812
 8002SOL    HW235469   0.310   0.076   7.495 -1.3178  0.2358  0.9945
 8003SOL     OW35470   2.317   2.632  11.916 -0.3681 -0.0993  0.1819
 8003SOL    HW135471   2.233   2.626  11.962 -0.5340  0.9087  0.0115
 8003SOL    HW235472   2.329   2.726  11.927 -0.5224  0.0515 -0.9743
 8004SOL     OW35473   0.527   0.526  11.773 -0.2194  0.4751  0.0888
 8004SOL    HW135474   0.595   0.499  11.711 -0.3627  0.5279 -0.0922
 8004SOL    HW235475   0.529   0.620  11.758  2.5163  0.1569 -1.6401
 8005SOL     OW35476   1.800   1.209   2.678 -0.3899  0.4047  0.3130
 8005SOL    HW135477   1.837   1.219   2.591 -0.6628  2.6530  0.4786
 8005SOL    HW235478   1.710   1.212   2.645  0.1907 -0.1619 -1.3151
 8006SOL     OW35479   1.834   2.690   7.872 -0.1571 -0.4383 -0.5324
 8006SOL    HW135480   1.739   2.686   7.866 -0.4405  1.0463  2.7905
 8006SOL    HW235481   1.846   2.780   7.903 -3.4408 -0.4075  0.6624
 8007SOL     OW35482   3.543   1.316  14.435 -0.1255 -0.0787  0.4824
 8007SOL    HW135483   3.511   1.371  14.363  1.3008  0.9469  0.6326
 8007SOL    HW235484   3.612   1.279  14.381  0.9967  0.7746  1.3422
 8008SOL     OW35485   2.827   3.681   5.832  0.0625  1.1968  0.2756
 8008SOL    HW135486   2.791   3.593   5.844  2.2556  0.3727  0.9093
 8008SOL    HW235487   2.752   3.738   5.847 -0.0086  1.0163  0.5936
 8009SOL     OW35488   1.178   2.722   0.058  0.6175 -0.2683  0.4718
 8009SOL    HW135489   1.235   2.667   0.112  1.2005  1.2478  1.3958
 8009SOL    HW235490   1.130   2.649   0.019 -0.9670  0.8206  0.4271
 8010SOL     OW35491   0.997   3.620   3.826 -0.1388  0.3152 -0.3768
 8010SOL    HW135492   1.039   3.683   3.768  1.5476  0.1738  0.6903
 8010SOL    HW235493   0.939   3.675   3.879  0.5295  1.0211 -0.3819
 8011SOL     OW35494   0.405   0.221   4.342  0.0269  0.3125 -0.1332
 8011SOL    HW135495   0.479   0.177   4.384  0.9067  1.5309 -0.4261
 8011SOL    HW235496   0.337   0.204   4.407  0.1322  1.0874  0.1831
 8012SOL     OW35497   1.762   1.504   4.531  0.3359 -0.4705  0.4202
 8012SOL    HW135498   1.748   1.413   4.506  1.4026 -0.0470 -1.7433
 8012SOL    HW235499   1.680   1.532   4.571  0.5720 -0.2162  0.7279
 8013SOL     OW35500   4.069   2.957   4.554  0.0910 -0.7939 -0.2395
 8013SOL    HW135501   4.105   2.947   4.465  1.1553 -2.1868  0.3392
 8013SOL    HW235502   4.133   2.894   4.586  1.0990 -1.2571 -3.1195
 8014SOL     OW35503   2.221   1.408   6.139  0.1749 -0.3038  0.6290
 8014SOL    HW135504   2.269   1.487   6.113  0.4843 -0.7257 -0.0761
 8014SOL    HW235505   2.188   1.374   6.056 -0.7763  0.3789  0.7295
 8015SOL     OW35506   4.691   0.298   3.555 -0.5349  0.1637 -0.4103
 8015SOL    HW135507   4.708   0.379   3.507 -0.7721  0.4669  0.0168
 8015SOL    HW235508   4.596   0.292   3.545 -0.5482 -0.6004  0.1346
 8016SOL     OW35509   0.735   2.802  12.582 -0.2360 -0.7559 -0.1384
 8016SOL    HW135510   0.691   2.881  12.615 -0.0625 -0.0623 -1.5651
 8016SOL    HW235511   0.808   2.795  12.644 -1.0845  1.3517  1.1072
 8017SOL     OW35512   2.256   0.680   0.445  0.0830 -0.1062  0.3293
 8017SOL    HW135513   2.278   0.679   0.352 -0.9656 -2.8724  0.1154
 8017SOL    HW235514   2.211   0.596   0.453 -2.5478  1.3157  0.7635
 8018SOL     OW35515   0.412   0.798   6.755  0.4125 -0.1399 -0.2093
 8018SOL    HW135516   0.478   0.772   6.819  2.0133  0.8556 -1.4302
 8018SOL    HW235517   0.381   0.877   6.800  3.3046 -0.4683  2.3154
 8019SOL     OW35518   1.888   1.564   2.673 -0.0161  0.1509 -0.5377
 8019SOL    HW135519   1.900   1.511   2.751  0.3284 -0.0221 -0.7071
 8019SOL    HW235520   1.855   1.647   2.708 -0.3536 -0.2163  0.0130
 8020SOL     OW35521   1.023   3.212   8.015 -0.6185 -0.0141 -0.1570
 8020SOL    HW135522   1.100   3.237   8.065  0.2703 -2.3567 -0.3312
 8020SOL    HW235523   1.049   3.231   7.925  1.7436  0.7206  0.6945
 8021SOL     OW35524   3.066   3.721   8.202 -0.0290  0.0825 -0.6433
 8021SOL    HW135525   3.132   3.653   8.213 -2.5884 -1.7059  3.5581
 8021SOL    HW235526   3.072   3.762   8.288 -1.1036 -0.0653 -0.4913
 8022SOL     OW35527   1.130   2.788   8.663  0.0809  0.1685 -0.8362
 8022SOL    HW135528   1.118   2.745   8.747  2.1029 -0.0801 -0.6599
 8022SOL    HW235529   1.226   2.790   8.652 -0.1344 -0.3558 -2.7993
 8023SOL     OW35530   3.371   1.327  14.931  0.2947 -0.0199 -0.1988
 8023SOL    HW135531   3.383   1.234  14.909 -1.4464 -0.3693  0.3815
 8023SOL    HW235532   3.420   1.336  15.013 -0.4973  0.9058  0.1765
 8024SOL     OW35533   1.951   2.643   2.741  0.5968 -0.0863 -0.5059
 8024SOL    HW135534   1.857   2.659   2.749  0.4498 -1.8198  1.1690
 8024SOL    HW235535   1.947   2.547   2.744  0.3529 -0.1413 -2.2805
 8025SOL     OW35536   1.599   0.788   6.982  0.1820 -0.1061 -0.4458
 8025SOL    HW135537   1.591   0.708   7.034 -1.2257  0.4712  0.2169
 8025SOL    HW235538   1.671   0.835   7.024 -0.8196 -0.3345  1.5270
 8026SOL     OW35539   3.926   4.004  12.600 -1.0437  0.1245 -0.3619
 8026SOL    HW135540   4.015   4.031  12.620 -1.6416  1.4075  0.5612
 8026SOL    HW235541   3.885   4.086  12.573  0.6571  0.8742 -0.6613
 8027SOL     OW35542   2.495   1.036   0.462 -0.3216  0.2645 -0.0312
 8027SOL    HW135543   2.486   1.127   0.489  1.3695  0.0665  1.1976
 8027SOL    HW235544   2.590   1.025   0.458 -0.5421 -1.8952  0.4382
 8028SOL     OW35545   2.598   4.221  10.506  0.3258 -0.0292  1.2646
 8028SOL    HW135546   2.607   4.305  10.550 -0.6375  0.2749  0.8790
 8028SOL    HW235547   2.671   4.172  10.542 -0.3527 -0.8470  1.5387
 8029SOL     OW35548   0.190   4.560   9.412 -0.0336  0.5396 -0.6123
 8029SOL    HW135549   0.185   4.473   9.452 -1.4348  1.1510  0.5529
 8029SOL    HW235550   0.285   4.572   9.418 -0.3021  1.2408  2.2022
 8030SOL     OW35551   2.295   0.379   2.225 -0.1847 -0.1626  0.4259
 8030SOL    HW135552   2.255   0.296   2.253  1.1709 -1.1400 -0.5402
 8030SOL    HW235553   2.330   0.350   2.141 -2.0133  0.5529 -0.5728
 8031SOL     OW35554   0.073   4.222  14.150 -0.0114  0.0194  0.6292
 8031SOL    HW135555   0.132   4.214  14.226  0.2446 -1.1924  0.2895
 8031SOL    HW235556   4.715   4.249  14.192  0.2590  2.7229 -0.6012
 8032SOL     OW35557   0.602   0.368  11.569  0.1522  0.3376  0.1236
 8032SOL    HW135558   0.522   0.317  11.563 -0.0135  0.7075 -0.9155
 8032SOL    HW235559   0.646   0.315  11.635 -0.2178  1.1301  1.0024
 8033SOL     OW35560   3.913   0.355   0.004 -0.3206  0.3006 -0.0381
 8033SOL    HW135561   3.916   0.434   0.058 -0.0441  1.0134 -1.0724
 8033SOL    HW235562   3.824   0.321   0.002 -0.6059  1.0674 -0.5427
 8034SOL     OW35563   1.315   0.476   5.413  0.9332  0.5389  0.1920
 8034SOL    HW135564   1.323   0.567   5.443  0.1093  0.9093 -0.6903
 8034SOL    HW235565   1.220   0.468   5.417  1.0463  0.9973  3.5474
 8035SOL     OW35566   1.707   3.039   3.598  0.2199  0.4245 -0.0048
 8035SOL    HW135567   1.701   2.950   3.564  1.0250  0.2947  0.1966
 8035SOL    HW235568   1.647   3.022   3.671  0.0089 -1.5201 -0.6499
 8036SOL     OW35569   2.255   1.039   1.889 -0.1846  0.3836 -0.8699
 8036SOL    HW135570   2.205   1.101   1.836  1.9683  1.9814 -1.0288
 8036SOL    HW235571   2.192   0.967   1.880 -0.9217  1.0038 -0.6664
 8037SOL     OW35572   0.164   2.318   6.884 -0.3781  0.3311  0.0281
 8037SOL    HW135573   0.108   2.271   6.946  0.0241  0.2298  0.3163
 8037SOL    HW235574   0.236   2.261   6.857  0.1135  1.0376 -0.1651
 8038SOL     OW35575   0.710   0.282   5.903 -0.1485 -0.4209  0.5822
 8038SOL    HW135576   0.675   0.297   5.816  1.0465  0.7920  0.2974
 8038SOL    HW235577   0.792   0.332   5.907 -0.9679  0.8659  1.3295
 8039SOL     OW35578   3.357   2.637   5.194 -0.5672  0.1641  0.2711
 8039SOL    HW135579   3.412   2.688   5.252 -0.1233 -0.6586  0.5701
 8039SOL    HW235580   3.317   2.568   5.247 -1.3702  1.2288  1.0448
 8040SOL     OW35581   4.181   1.433   8.556  0.4517  0.3284 -0.0658
 8040SOL    HW135582   4.096   1.402   8.525  0.6794  0.7379 -1.0869
 8040SOL    HW235583   4.230   1.359   8.519 -1.6543 -0.6433 -0.9274
 8041SOL     OW35584   0.891   0.665   6.057 -0.0686  0.2156  0.0208
 8041SOL    HW135585   0.893   0.603   5.984  0.4077  0.3663 -0.0940
 8041SOL    HW235586   0.961   0.725   6.030  1.9087 -1.6486  1.0342
 8042SOL     OW35587   3.553   1.317   4.106  0.1606 -0.4694 -0.2434
 8042SOL    HW135588   3.550   1.363   4.190 -0.9190 -1.9986  0.5548
 8042SOL    HW235589   3.586   1.381   4.043 -0.5864 -0.3631 -0.5293
 8043SOL     OW35590   0.404   4.332   8.731  0.1238  0.2111  0.5229
 8043SOL    HW135591   0.311   4.354   8.725  0.5197  1.5038 -0.7353
 8043SOL    HW235592   0.449   4.416   8.739 -0.8830  0.6188  1.8602
 8044SOL     OW35593   1.116   1.222   6.914 -0.0387  0.6483  0.1238
 8044SOL    HW135594   1.098   1.132   6.889  1.5126 -0.0573  1.5665
 8044SOL    HW235595   1.183   1.218   6.982 -0.0446  0.9052  0.1446
 8045SOL     OW35596   2.388   3.633   1.797 -0.2180 -1.0210 -0.1587
 8045SOL    HW135597   2.346   3.715   1.824 -1.3110 -2.1580  1.5986
 8045SOL    HW235598   2.438   3.652   1.718 -0.5461 -3.8492 -1.0532
 8046SOL     OW35599   3.562   2.618   6.598  0.2462 -0.0375 -0.4837
 8046SOL    HW135600   3.621   2.681   6.640  0.1956 -0.0622 -0.3762
 8046SOL    HW235601   3.602   2.591   6.515  0.3749  1.7368 -0.9887
 8047SOL     OW35602   4.424   4.197   3.151  0.2330  0.2582  0.2862
 8047SOL    HW135603   4.345   4.213   3.099  0.2433  0.5385  0.3603
 8047SOL    HW235604   4.423   4.285   3.189 -1.4689  1.0543 -1.5761
 8048SOL     OW35605   4.435   0.659   7.661 -0.1712  0.5575  0.2441
 8048SOL    HW135606   4.355   0.647   7.609  0.0936  0.6341 -0.1770
 8048SOL    HW235607   4.394   0.635   7.745 -1.1657  3.3252  0.5403
 8049SOL     OW35608   1.212   3.974   9.684  0.0401  0.4249  0.7425
 8049SOL    HW135609   1.188   3.882   9.702  1.9811 -0.3636 -0.7359
 8049SOL    HW235610   1.127   4.006   9.717  1.0772  1.6582  2.2406
 8050SOL     OW35611   4.195   1.254  14.631  0.0575 -0.0630 -0.3288
 8050SOL    HW135612   4.265   1.268  14.695  1.6163  1.7723 -2.4525
 8050SOL    HW235613   4.154   1.182  14.679  0.8121 -1.8514 -2.3463
 8051SOL     OW35614   2.141   2.448   3.627  0.4043 -0.2058 -0.7219
 8051SOL    HW135615   2.069   2.394   3.661  0.9883  0.7253  1.9522
 8051SOL    HW235616   2.199   2.385   3.585  0.5441 -0.4478 -0.1618
 8052SOL     OW35617   3.014   4.068   3.823 -0.1755  0.0920  0.1803
 8052SOL    HW135618   3.001   3.989   3.875 -0.5413 -0.0492 -0.1264
 8052SOL    HW235619   2.982   4.043   3.737 -2.6995  0.8371  0.8778
 8053SOL     OW35620   3.902   3.888   3.936 -0.4473  0.1252 -0.0802
 8053SOL    HW135621   3.980   3.877   3.991 -1.3510 -2.5418  0.6847
 8053SOL    HW235622   3.885   3.981   3.948 -0.5420 -0.3913  3.6749
 8054SOL     OW35623   2.760   1.635  10.075  0.1418  0.4110 -0.2378
 8054SOL    HW135624   2.793   1.600  10.158 -0.2354  2.1490  0.6434
 8054SOL    HW235625   2.827   1.597  10.018  0.3216  0.5269 -0.1044
 8055SOL     OW35626   4.335   1.604   1.503 -0.1299  0.2279  0.2840
 8055SOL    HW135627   4.385   1.603   1.585 -1.7984  0.1019  1.3016
 8055SOL    HW235628   4.247   1.627   1.535 -0.9009 -0.7382 -1.1473
 8056SOL     OW35629   1.292   0.305   2.503 -0.6393 -0.1835 -0.2770
 8056SOL    HW135630   1.283   0.366   2.577  0.6865 -1.5326  0.9845
 8056SOL    HW235631   1.385   0.297   2.486 -0.1885  2.4413  1.0269
 8057SOL     OW35632   0.908   1.580   8.281  0.5306  0.4142 -0.1149
 8057SOL    HW135633   0.832   1.526   8.259  0.5009  0.8299 -1.0315
 8057SOL    HW235634   0.970   1.535   8.223 -1.2611  0.6281 -2.1569
 8058SOL     OW35635   0.845   1.891   9.102 -0.0185  0.3207 -0.6272
 8058SOL    HW135636   0.941   1.893   9.097 -0.1428 -0.2625 -3.5665
 8058SOL    HW235637   0.830   1.979   9.137 -0.8533 -0.2140  0.3496
 8059SOL     OW35638   3.113   4.276   2.210  0.8333 -0.5338  0.3748
 8059SOL    HW135639   3.133   4.336   2.138 -1.5475 -2.1116 -1.6311
 8059SOL    HW235640   3.189   4.283   2.267 -0.3230 -0.6713  1.9433
 8060SOL     OW35641   2.690   2.976   9.381  0.6492  0.2611  0.1341
 8060SOL    HW135642   2.762   3.017   9.428  0.3569 -0.0622  0.8650
 8060SOL    HW235643   2.668   2.907   9.443  1.8434 -0.7805 -0.5876
 8061SOL     OW35644   4.392   0.133   7.680 -0.2844  0.8001  0.0680
 8061SOL    HW135645   4.407   0.049   7.723  0.0911  1.2059  0.7251
 8061SOL    HW235646   4.450   0.123   7.604 -0.9933  1.4481 -0.5620
 8062SOL     OW35647   4.425   3.775  10.368 -0.7723  0.7883 -0.1967
 8062SOL    HW135648   4.509   3.764  10.414 -1.2176  1.6695  0.8364
 8062SOL    HW235649   4.393   3.686  10.379  1.5904 -0.0412 -0.1055
 8063SOL     OW35650   4.044   1.970   5.613  0.1888 -0.3223 -0.6652
 8063SOL    HW135651   3.988   1.924   5.675 -1.9482 -1.4594 -3.4362
 8063SOL    HW235652   4.126   1.969   5.662 -0.7468 -0.9959  0.8804
 8064SOL     OW35653   1.883   3.370   2.177  0.0728 -0.6385 -0.1871
 8064SOL    HW135654   1.835   3.296   2.213  0.1458 -1.2510 -1.3576
 8064SOL    HW235655   1.861   3.369   2.084  1.1285  0.4617 -0.4556
 8065SOL     OW35656   0.655   2.611   4.990 -0.5188 -0.2621 -0.3243
 8065SOL    HW135657   0.624   2.627   5.079  1.5625 -0.7383  0.4893
 8065SOL    HW235658   0.587   2.553   4.957 -0.1041 -0.9948  0.0991
 8066SOL     OW35659   4.039   2.923   5.423  0.1744  0.5319 -0.3342
 8066SOL    HW135660   3.978   2.997   5.424 -0.5054 -0.0931  2.3159
 8066SOL    HW235661   3.976   2.853   5.436  1.7284 -0.8655 -0.3789
 8067SOL     OW35662   3.179   0.364   7.684  0.2908 -0.2293 -0.0447
 8067SOL    HW135663   3.136   0.304   7.623 -0.4015  0.3484 -0.1183
 8067SOL    HW235664   3.259   0.379   7.634 -0.3704 -1.0762 -1.3385
 8068SOL     OW35665   3.405   0.046   4.172 -0.2523  0.1551  0.1879
 8068SOL    HW135666   3.323   0.046   4.122 -1.3223 -0.2548  1.9297
 8068SOL    HW235667   3.393   0.137   4.199  0.6293  0.9970 -2.2280
 8069SOL     OW35668   2.899   0.766   2.918  0.4385  0.0471  0.0350
 8069SOL    HW135669   2.941   0.682   2.896 -1.3440 -1.2447  1.5797
 8069SOL    HW235670   2.948   0.797   2.994 -0.1238 -1.4347  0.9966
 8070SOL     OW35671   0.500   2.532   9.156 -0.1920  0.7777  0.0218
 8070SOL    HW135672   0.459   2.479   9.223 -0.1856 -0.3992 -0.9137
 8070SOL    HW235673   0.439   2.603   9.175 -0.6874  0.9605 -2.2298
 8071SOL     OW35674   3.245   2.037   4.869  1.0092 -0.3799 -0.8372
 8071SOL    HW135675   3.178   2.008   4.931  1.3181  0.6124 -0.0417
 8071SOL    HW235676   3.273   1.955   4.828  1.1371 -0.3235 -0.8627
 8072SOL     OW35677   1.172   2.875   9.979  0.5171 -0.3608  0.1882
 8072SOL    HW135678   1.264   2.895   9.962 -0.0733  1.0884 -1.3178
 8072SOL    HW235679   1.169   2.817  10.056  0.8529  0.7639  1.0568
 8073SOL     OW35680   4.312   1.259   4.291  0.2345  0.2023 -0.3422
 8073SOL    HW135681   4.271   1.242   4.206  1.6206  2.2405 -1.4272
 8073SOL    HW235682   4.271   1.343   4.308 -0.7919 -0.1879 -0.8479
 8074SOL     OW35683   1.184   0.796   3.529  0.1414 -0.6268 -0.3203
 8074SOL    HW135684   1.196   0.765   3.619  0.3909 -1.6870 -0.7192
 8074SOL    HW235685   1.174   0.889   3.549 -0.4897 -1.1595  1.8435
 8075SOL     OW35686   4.573   1.455   6.402  0.0463  0.6708  0.0688
 8075SOL    HW135687   4.647   1.510   6.427 -1.9018  1.9498  2.9089
 8075SOL    HW235688   4.527   1.429   6.482  1.1531  3.0461  1.4709
 8076SOL     OW35689   1.672   2.349  11.202  0.3229 -0.2325 -0.0078
 8076SOL    HW135690   1.684   2.259  11.172  2.3876  0.1289 -0.2719
 8076SOL    HW235691   1.635   2.376  11.119  3.3435 -0.2919 -1.3820
 8077SOL     OW35692   3.668   0.420   8.143  0.5619  0.1160  0.4861
 8077SOL    HW135693   3.585   0.389   8.181  0.9512 -1.1402  0.3228
 8077SOL    HW235694   3.639   0.439   8.054  1.2103 -1.0137  0.0293
 8078SOL     OW35695   1.654   2.055   1.051 -0.2176 -0.3724  0.1356
 8078SOL    HW135696   1.749   2.057   1.065 -0.5803 -1.3359  2.5906
 8078SOL    HW235697   1.645   2.039   0.957  0.7973  1.2921 -0.2578
 8079SOL     OW35698   3.448   4.485  11.252 -0.8349 -0.0645 -0.1829
 8079SOL    HW135699   3.495   4.443  11.324  1.0516 -0.0589 -1.4066
 8079SOL    HW235700   3.521   4.504  11.193  0.5213 -0.3742  1.3822
 8080SOL     OW35701   2.612   2.906   1.680  0.6926 -0.3867  0.0881
 8080SOL    HW135702   2.609   2.996   1.648  2.0374 -0.7106 -0.9615
 8080SOL    HW235703   2.546   2.863   1.625  0.6730 -0.9377  0.5409
 8081SOL     OW35704   0.043   3.773   2.335 -0.2014  0.1223 -0.0296
 8081SOL    HW135705   0.008   3.690   2.371  0.0573 -0.2209 -0.5725
 8081SOL    HW235706   0.044   3.820   2.418 -1.5857  0.5434 -0.2433
 8082SOL     OW35707   3.539   0.161   8.888  0.0842 -0.6665 -0.9549
 8082SOL    HW135708   3.474   0.188   8.822  0.5762 -0.0164 -1.1780
 8082SOL    HW235709   3.514   0.222   8.957  3.3139 -2.7203  1.9719
 8083SOL     OW35710   3.820   3.588  15.702 -0.5790  0.3076  0.7737
 8083SOL    HW135711   3.762   3.515  15.726  0.9017 -0.8666  0.8028
 8083SOL    HW235712   3.759   3.662  15.701  1.5678  2.0609  2.8874
 8084SOL     OW35713   1.843   3.392   3.605 -0.0156  0.2389  0.1582
 8084SOL    HW135714   1.934   3.368   3.622  0.3775  0.7205 -1.2569
 8084SOL    HW235715   1.817   3.313   3.557 -0.7794 -0.2307  1.3518
 8085SOL     OW35716   3.805   2.560   1.628  0.0506  0.2938 -0.1854
 8085SOL    HW135717   3.787   2.519   1.713  0.5228  3.9077  1.6359
 8085SOL    HW235718   3.743   2.633   1.634 -0.8092 -0.3838 -0.9810
 8086SOL     OW35719   2.763   1.807   1.478 -0.0524 -0.1349 -0.2327
 8086SOL    HW135720   2.688   1.860   1.506 -1.0616 -1.8576  0.2767
 8086SOL    HW235721   2.822   1.824   1.552 -0.1034  1.6031 -0.5759
 8087SOL     OW35722   1.447   0.386  15.991  0.1605 -0.3959  0.4685
 8087SOL    HW135723   1.467   0.420  15.904 -0.3907  0.9462  0.8597
 8087SOL    HW235724   1.374   0.328  15.970 -0.5907  0.8825 -0.4171
 8088SOL     OW35725   1.170   1.192   4.873 -0.1285 -0.7958  0.2958
 8088SOL    HW135726   1.117   1.193   4.953 -3.0480  0.3231 -1.6600
 8088SOL    HW235727   1.194   1.100   4.883  0.2909 -0.5817  1.2264
 8089SOL     OW35728   3.991   1.838   3.673  0.2443 -0.6654  0.1119
 8089SOL    HW135729   4.068   1.785   3.695 -0.1304 -0.9351  0.7796
 8089SOL    HW235730   3.932   1.763   3.671 -0.0828 -0.4274  0.7599
 8090SOL     OW35731   1.767   3.693   1.528 -0.2251 -0.1650 -0.0686
 8090SOL    HW135732   1.821   3.620   1.497  0.9017  0.3329  0.7272
 8090SOL    HW235733   1.677   3.661   1.517  0.5344 -1.5853 -2.2827
 8091SOL     OW35734   0.238   1.428  14.901  0.2681 -0.1836 -0.0973
 8091SOL    HW135735   0.219   1.448  14.992 -1.4438 -1.8206 -0.0860
 8091SOL    HW235736   0.330   1.456  14.899 -0.0145  0.8591  2.2090
 8092SOL     OW35737   3.045   1.383  17.279  0.6105 -0.3875  0.5125
 8092SOL    HW135738   3.111   1.324  17.242  0.7289 -0.1047  0.2727
 8092SOL    HW235739   2.995   1.326  17.337 -2.7763  0.5167 -1.5182
 8093SOL     OW35740   2.598   1.491   2.344  0.8007  0.3039  0.0349
 8093SOL    HW135741   2.651   1.487   2.423  0.2619  0.5436  0.4024
 8093SOL    HW235742   2.526   1.551   2.364 -0.1190 -0.3889 -1.1668
 8094SOL     OW35743   2.611   1.105   8.083 -0.5382 -0.0397  0.2935
 8094SOL    HW135744   2.636   1.169   8.150  1.1112  0.3729 -0.7097
 8094SOL    HW235745   2.691   1.106   8.030 -0.8578 -0.1549 -0.1857
 8095SOL     OW35746   3.192   1.820   6.421  0.1501 -0.0113  0.0472
 8095SOL    HW135747   3.186   1.727   6.438 -0.0010 -0.2445 -1.2748
 8095SOL    HW235748   3.151   1.848   6.503 -3.1695 -2.3619 -0.8079
 8096SOL     OW35749   2.266   3.940   7.215 -0.2534  0.0070 -0.2347
 8096SOL    HW135750   2.258   3.884   7.138  0.8582 -1.0791  0.4216
 8096SOL    HW235751   2.205   3.899   7.277 -1.0586  0.1697 -0.9197
 8097SOL     OW35752   0.098   3.117   4.718 -0.3292 -0.1994  0.2485
 8097SOL    HW135753   0.156   3.052   4.679  0.4258 -0.1311  1.2555
 8097SOL    HW235754   0.102   3.190   4.656  0.8445  0.9148  1.6441
 8098SOL     OW35755   0.283   1.008   6.915 -0.0883  0.1808  0.2659
 8098SOL    HW135756   0.241   1.010   7.000 -0.2180 -0.9687  0.2296
 8098SOL    HW235757   0.291   1.101   6.897  0.0486  0.5201  2.1403
 8099SOL     OW35758   1.079   3.293   6.431  0.3181  0.8795  0.0100
 8099SOL    HW135759   1.075   3.370   6.487  0.3643 -0.1263  1.4161
 8099SOL    HW235760   1.157   3.302   6.376  0.8121  0.7781  0.6908
 8100SOL     OW35761   1.902   3.748  13.227  0.1783 -0.1173 -0.2406
 8100SOL    HW135762   1.851   3.829  13.231 -0.7599 -0.9048  3.3799
 8100SOL    HW235763   1.846   3.689  13.177 -0.7052  1.3732 -1.0164
 8101SOL     OW35764   3.590   2.888   5.856 -0.1583  0.2270 -0.3468
 8101SOL    HW135765   3.506   2.920   5.892 -0.1621  0.0361 -0.1874
 8101SOL    HW235766   3.567   2.813   5.801  1.8231 -2.2789  2.2743
 8102SOL     OW35767   4.564   1.996   4.446  0.0332  0.1316 -0.8248
 8102SOL    HW135768   4.548   1.901   4.445  0.1897  0.0907  0.6087
 8102SOL    HW235769   4.612   2.004   4.364 -2.2914  2.3141 -1.9736
 8103SOL     OW35770   3.269   1.509   6.107  0.5550 -0.3629  0.1856
 8103SOL    HW135771   3.183   1.473   6.126  0.6507 -0.5933  0.1851
 8103SOL    HW235772   3.259   1.515   6.012  0.2886  2.2618  0.3728
 8104SOL     OW35773   0.489   2.413   2.756  0.0068  0.1579 -0.4983
 8104SOL    HW135774   0.534   2.442   2.836  0.3391  0.1650 -0.6889
 8104SOL    HW235775   0.404   2.378   2.782  0.3307 -0.0507  0.3025
 8105SOL     OW35776   0.804   1.109   8.880  0.4211  0.3274 -0.4402
 8105SOL    HW135777   0.892   1.073   8.890 -1.2546 -3.7338 -0.2373
 8105SOL    HW235778   0.770   1.086   8.793  0.8893  0.9267 -0.7840
 8106SOL     OW35779   1.992   2.606   7.587  0.7101  0.3674  0.1897
 8106SOL    HW135780   2.053   2.678   7.607  0.9633 -0.0046  0.7590
 8106SOL    HW235781   1.909   2.653   7.584 -0.2723 -1.3669  0.7176
 8107SOL     OW35782   0.050   3.492   9.517  0.2067  0.4167 -0.0543
 8107SOL    HW135783   4.685   3.486   9.552  0.1607  0.2275 -0.2044
 8107SOL    HW235784   0.086   3.552   9.583  0.5076 -0.0516  0.2105
 8108SOL     OW35785   1.109   4.573   8.022  0.4065  0.2725  0.3238
 8108SOL    HW135786   1.145   4.487   8.003 -0.2930 -0.1392  0.8657
 8108SOL    HW235787   1.062   4.548   8.102 -0.6309 -2.5573 -1.1961
 8109SOL     OW35788   1.230   3.590   5.494  0.2785 -0.0166  0.6852
 8109SOL    HW135789   1.300   3.547   5.544 -0.8709 -2.7217 -0.0155
 8109SOL    HW235790   1.158   3.531   5.515  0.4652 -0.6942 -0.5621
 8110SOL     OW35791   1.066   4.432   6.588 -0.1943 -0.0090 -0.5002
 8110SOL    HW135792   1.023   4.478   6.660  1.4034 -0.8166  0.9667
 8110SOL    HW235793   0.989   4.402   6.541 -1.6550  0.8719  1.3603
 8111SOL     OW35794   0.725   0.403   8.190 -0.1814 -0.4257 -0.7644
 8111SOL    HW135795   0.805   0.455   8.188  0.1944 -0.8807  2.2675
 8111SOL    HW235796   0.727   0.370   8.280  0.9966 -1.8823 -1.3153
 8112SOL     OW35797   0.701   3.262   0.386  0.1881  0.3076  0.5855
 8112SOL    HW135798   0.737   3.174   0.374 -3.3695 -0.5983 -3.6416
 8112SOL    HW235799   0.754   3.299   0.456  2.4217  1.2380 -1.5953
 8113SOL     OW35800   2.888   0.251   0.498 -0.1215  0.3404  0.0714
 8113SOL    HW135801   2.862   0.161   0.522 -0.2398  0.7939  1.6719
 8113SOL    HW235802   2.932   0.244   0.414 -0.4604  0.4904 -0.1205
 8114SOL     OW35803   2.267   4.069   5.818  0.4929 -0.0511  0.5755
 8114SOL    HW135804   2.291   4.153   5.779 -1.9082  0.8500  0.9861
 8114SOL    HW235805   2.270   4.092   5.911 -1.0059  0.9440  0.3917
 8115SOL     OW35806   4.196   1.694   6.759  0.2226  0.0373  0.2812
 8115SOL    HW135807   4.224   1.602   6.763 -1.1311 -0.4184 -0.7081
 8115SOL    HW235808   4.239   1.718   6.841 -1.2426  0.0863  1.0233
 8116SOL     OW35809   0.589   2.015   5.035 -0.3446  0.3319 -0.3763
 8116SOL    HW135810   0.521   2.026   4.968 -1.5322 -1.2594  0.5627
 8116SOL    HW235811   0.556   1.939   5.082  1.7452 -0.6744 -0.5504
 8117SOL     OW35812   0.105   0.640   6.392 -0.0098  0.6128 -0.8632
 8117SOL    HW135813   0.181   0.693   6.419 -0.2181  0.6847 -0.4283
 8117SOL    HW235814   0.032   0.689   6.429  1.8187  2.6950  0.0045
 8118SOL     OW35815   4.167   4.150  14.086  0.1831 -0.8296  0.0031
 8118SOL    HW135816   4.120   4.100  14.020  1.5179 -1.1723 -0.6843
 8118SOL    HW235817   4.102   4.213  14.119 -0.0645 -0.7797 -0.5713
 8119SOL     OW35818   4.586   0.563  11.590 -0.5165  0.1679  0.1160
 8119SOL    HW135819   4.499   0.586  11.622  0.4996  2.7566  0.9783
 8119SOL    HW235820   4.561   0.515  11.511  0.0184  0.0638  0.0083
 8120SOL     OW35821   4.549   3.360   1.317  0.3533 -0.3747  0.5150
 8120SOL    HW135822   4.511   3.445   1.297  2.2202  0.3564  0.0679
 8120SOL    HW235823   4.469   3.325   1.357  1.3616 -0.3054  2.5849
 8121SOL     OW35824   0.484   1.370   8.667  0.8998 -0.2310 -0.2576
 8121SOL    HW135825   0.562   1.364   8.722  2.4241  2.2036 -2.1580
 8121SOL    HW235826   0.423   1.303   8.697 -0.6280  1.8317  1.2244
 8122SOL     OW35827   3.728   3.710   1.983 -0.0811  0.2118  0.2439
 8122SOL    HW135828   3.791   3.686   2.051  0.3909 -2.9109 -1.2872
 8122SOL    HW235829   3.706   3.619   1.966  0.6382 -0.0094  0.4912
 8123SOL     OW35830   1.908   0.203  12.525  0.0222  0.5398 -0.4358
 8123SOL    HW135831   2.003   0.211  12.531  0.1141 -1.1253  0.2162
 8123SOL    HW235832   1.906   0.119  12.480 -0.5342  0.5533 -0.4360
 8124SOL     OW35833   2.581   1.044  17.012 -0.0788 -0.1676  0.0605
 8124SOL    HW135834   2.591   1.138  16.999  1.8865 -0.5117 -0.8657
 8124SOL    HW235835   2.499   1.019  16.969 -1.2323 -0.5700  2.4927
 8125SOL     OW35836   0.720   1.206   1.338  0.1582  0.4807 -0.0696
 8125SOL    HW135837   0.727   1.193   1.243  0.2923 -1.1615  0.1665
 8125SOL    HW235838   0.737   1.300   1.346  1.8808 -0.1012  3.1497
 8126SOL     OW35839   3.773   3.189   8.175 -0.2392 -0.3424  0.5226
 8126SOL    HW135840   3.711   3.135   8.126 -3.2580  2.4157  1.3337
 8126SOL    HW235841   3.736   3.277   8.175  2.2172  0.7008  1.6666
 8127SOL     OW35842   3.882   1.997   8.525 -0.4236 -0.1411  0.1875
 8127SOL    HW135843   3.881   1.924   8.587 -1.0407  0.8043  1.2898
 8127SOL    HW235844   3.819   2.060   8.559  0.5536  0.6160  0.5853
 8128SOL     OW35845   0.885   4.652  11.185  0.4101  0.4363 -0.2288
 8128SOL    HW135846   0.800   4.610  11.173  0.5330  0.2813 -0.5503
 8128SOL    HW235847   0.943   4.580  11.162 -3.5661 -3.0999  0.9625
 8129SOL     OW35848   0.344   1.258   5.708  0.6100 -0.2484  0.1518
 8129SOL    HW135849   0.345   1.333   5.768  0.5793 -1.7410  2.0163
 8129SOL    HW235850   0.258   1.255   5.668  1.0878 -3.9328 -0.6079
 8130SOL     OW35851   3.983   2.870   1.594 -0.1474 -0.5869  0.6637
 8130SOL    HW135852   4.004   2.833   1.508 -0.3088 -0.8520  0.7356
 8130SOL    HW235853   4.073   2.895   1.615 -1.0501  3.6445 -0.5928
 8131SOL     OW35854   3.223   1.523   8.134 -0.0929  0.2231 -0.5802
 8131SOL    HW135855   3.152   1.541   8.072  1.0489 -1.2469 -2.3121
 8131SOL    HW235856   3.217   1.587   8.205 -1.3525 -0.4689 -0.0445
 8132SOL     OW35857   0.516   4.202  12.545  0.1580 -0.2182  0.1484
 8132SOL    HW135858   0.603   4.175  12.572 -0.6275 -0.7254  2.2112
 8132SOL    HW235859   0.476   4.117  12.568  0.2981 -0.3107  0.0499
 8133SOL     OW35860   1.912   2.100  17.658  0.2434 -0.0705 -0.6921
 8133SOL    HW135861   1.867   2.161   0.020  0.9373 -2.6226  2.5192
 8133SOL    HW235862   1.918   2.026   0.021  1.7895  0.6659  0.0720
 8134SOL     OW35863   0.695   0.879   4.264 -0.3003  0.8156 -0.1609
 8134SOL    HW135864   0.619   0.870   4.322  2.8958 -0.2931  3.8776
 8134SOL    HW235865   0.722   0.789   4.245 -1.0471  0.6546 -0.4522
 8135SOL     OW35866   0.331   4.197  17.623  0.2284  0.1180  0.1491
 8135SOL    HW135867   0.310   4.237  17.539  1.5013  0.8507  0.1737
 8135SOL    HW235868   0.313   4.106  17.600 -1.9191  0.3047  1.0649
 8136SOL     OW35869   3.379   0.977   5.391 -0.4004 -0.1749 -0.1723
 8136SOL    HW135870   3.473   0.996   5.399 -0.4836 -0.2619  1.0182
 8136SOL    HW235871   3.371   0.892   5.434 -1.0382 -0.1567 -0.2514
 8137SOL     OW35872   1.729   3.580   7.383 -0.2435  0.3975 -0.4248
 8137SOL    HW135873   1.821   3.554   7.373  0.0609  2.2387 -2.4857
 8137SOL    HW235874   1.708   3.521   7.455  2.1348 -0.0666 -0.1083
 8138SOL     OW35875   1.784   3.208   7.262  0.1373 -0.0647 -0.2636
 8138SOL    HW135876   1.763   3.253   7.344  0.1718  1.7377 -1.2427
 8138SOL    HW235877   1.872   3.172   7.276  0.2462  0.0318 -0.6958
 8139SOL     OW35878   0.493   4.343   4.889 -0.7664  0.1611 -0.2200
 8139SOL    HW135879   0.476   4.269   4.832 -3.1354  0.3431  0.2411
 8139SOL    HW235880   0.465   4.308   4.974  3.2361 -1.7119  0.3275
 8140SOL     OW35881   0.025   1.128   5.844  0.2288  0.4471  0.2591
 8140SOL    HW135882   0.078   1.051   5.826  0.7908  1.1443 -1.0726
 8140SOL    HW235883   0.005   1.164   5.757  1.4567  1.2382  0.3081
 8141SOL     OW35884   0.221   3.707   4.849 -0.1683  0.5943 -0.0238
 8141SOL    HW135885   0.154   3.640   4.839  1.4669 -0.7067 -2.5638
 8141SOL    HW235886   0.203   3.725   4.941 -1.9559  0.2273 -0.3090
 8142SOL     OW35887   0.666   2.409   3.838 -0.1096  0.3259  0.4517
 8142SOL    HW135888   0.715   2.483   3.874  0.3132  0.2521  0.0319
 8142SOL    HW235889   0.655   2.442   3.749 -1.1974 -1.8089 -0.2281
 8143SOL     OW35890   3.014   1.472   7.639  0.5480 -0.1118 -0.5651
 8143SOL    HW135891   2.983   1.426   7.717  1.9416  0.0474  0.0832
 8143SOL    HW235892   2.935   1.479   7.585 -1.4895  2.3216  2.7653
 8144SOL     OW35893   0.572   3.332   3.807 -0.1296 -0.0563  0.3874
 8144SOL    HW135894   0.583   3.352   3.900  0.6404  1.2279  0.0107
 8144SOL    HW235895   0.646   3.386   3.780 -0.8139  0.5600 -0.2650
 8145SOL     OW35896   3.612   1.914  16.503 -0.0813 -0.1535 -0.4143
 8145SOL    HW135897   3.563   1.944  16.426  0.0187 -0.4837 -0.6053
 8145SOL    HW235898   3.691   1.879  16.461  0.0269  1.5272 -1.6158
 8146SOL     OW35899   3.199   2.288   5.704  0.1445  0.0920 -0.3500
 8146SOL    HW135900   3.130   2.354   5.692  0.1243  0.6814  2.9133
 8146SOL    HW235901   3.196   2.274   5.798  2.0497  1.1686 -0.1259
 8147SOL     OW35902   0.092   1.067  17.572  0.3040 -0.3887 -0.8861
 8147SOL    HW135903   0.073   1.159  17.558  2.5779  0.1116 -0.7278
 8147SOL    HW235904   0.146   1.076  17.651  1.2919 -0.4423 -1.5542
 8148SOL     OW35905   0.423   1.945  11.031  0.1658 -0.8168  0.5452
 8148SOL    HW135906   0.402   2.033  11.000 -0.2570 -0.5414  1.6079
 8148SOL    HW235907   0.384   1.897  10.958 -0.0364 -1.4092  1.0377
 8149SOL     OW35908   0.434   0.116   6.910  0.2636 -0.4866  0.5361
 8149SOL    HW135909   0.362   0.119   6.847  0.7200  2.5952  0.1689
 8149SOL    HW235910   0.484   0.185   6.867  1.0330 -1.3461  0.0490
 8150SOL     OW35911   0.789   3.131   7.495 -0.2841  0.0278 -0.3032
 8150SOL    HW135912   0.751   3.052   7.454  1.1490  1.9542 -5.3566
 8150SOL    HW235913   0.807   3.102   7.585 -0.8061 -0.2434 -0.2816
 8151SOL     OW35914   1.234   1.944   7.046 -0.5844 -0.1327 -0.2037
 8151SOL    HW135915   1.240   1.995   6.965  2.3667 -0.7997 -0.3947
 8151SOL    HW235916   1.326   1.919   7.047 -0.3318  0.8383  0.5880
 8152SOL     OW35917   1.977   1.962  11.249 -0.1074  0.2172  0.1017
 8152SOL    HW135918   2.014   1.926  11.168 -0.2854  3.9910 -1.6626
 8152SOL    HW235919   2.046   1.961  11.315  1.5107  1.2513 -1.5788
 8153SOL     OW35920   1.043   0.835   8.555  0.0515  0.3014 -0.0477
 8153SOL    HW135921   1.061   0.803   8.643 -0.0638 -2.5132 -1.0723
 8153SOL    HW235922   0.972   0.782   8.521  0.1643  0.5608 -0.6876
 8154SOL     OW35923   3.196   2.097  16.134  0.1503  0.2844 -0.2323
 8154SOL    HW135924   3.130   2.077  16.067  0.2589 -0.6706 -0.0622
 8154SOL    HW235925   3.261   2.150  16.087 -0.7148  1.8976  0.3949
 8155SOL     OW35926   2.898   0.032   3.620  0.2639  0.0112  0.7404
 8155SOL    HW135927   2.967   0.053   3.557 -1.3527 -0.1819 -1.1194
 8155SOL    HW235928   2.823   0.077   3.580  0.7006  1.5386  1.6527
 8156SOL     OW35929   4.315   4.176  10.054 -0.3490  0.5048 -0.1458
 8156SOL    HW135930   4.307   4.127   9.972  1.5359  2.3717 -1.4617
 8156SOL    HW235931   4.404   4.146  10.073  0.5162  3.1974  0.1121
 8157SOL     OW35932   2.794   2.915   6.283 -0.2882 -0.0357 -0.4920
 8157SOL    HW135933   2.761   2.829   6.308 -1.2888  0.7491  0.8375
 8157SOL    HW235934   2.760   2.920   6.193  0.7254 -1.8924 -0.9986
 8158SOL     OW35935   0.936   2.382   7.304 -0.4420 -0.5501 -0.1655
 8158SOL    HW135936   0.925   2.472   7.333  2.3155 -0.2326 -0.1493
 8158SOL    HW235937   0.846   2.364   7.276 -1.0546  0.3239  1.2468
 8159SOL     OW35938   0.771   2.490   6.749 -0.7847 -0.1257  0.2925
 8159SOL    HW135939   0.744   2.411   6.702 -4.7763  1.8179 -0.6733
 8159SOL    HW235940   0.690   2.540   6.758  0.1582  1.4643 -0.0236
 8160SOL     OW35941   1.143   3.696   1.260 -0.2918 -0.2955 -0.7608
 8160SOL    HW135942   1.197   3.700   1.340  1.1845 -1.2003 -1.7116
 8160SOL    HW235943   1.130   3.789   1.248  1.1241 -0.1740 -1.4147
 8161SOL     OW35944   1.980   0.439   2.297 -0.7626  0.2914 -0.4034
 8161SOL    HW135945   1.986   0.449   2.202  1.6542 -0.7805 -0.3654
 8161SOL    HW235946   1.976   0.529   2.330 -2.6178 -0.3082  1.0427
 8162SOL     OW35947   0.252   1.814   1.889 -0.2199 -0.1357 -0.6105
 8162SOL    HW135948   0.264   1.863   1.971 -1.0101  1.8260 -1.6701
 8162SOL    HW235949   0.343   1.788   1.879 -0.2634 -1.6173  2.7813
 8163SOL     OW35950   0.988   0.559   8.773  0.1243  0.3645 -0.1803
 8163SOL    HW135951   0.971   0.469   8.803  0.5794 -0.1291 -1.4381
 8163SOL    HW235952   1.044   0.536   8.699 -0.4741  0.5313 -0.6831
 8164SOL     OW35953   2.242   1.844   4.312 -0.0186 -0.1200  0.0331
 8164SOL    HW135954   2.189   1.885   4.244 -0.8516  0.2577  0.9208
 8164SOL    HW235955   2.324   1.894   4.307  1.1792 -1.8772  1.9294
 8165SOL     OW35956   4.453   1.755   6.408  0.3332 -0.6142  0.5304
 8165SOL    HW135957   4.518   1.715   6.466  0.0430  1.8091  2.5660
 8165SOL    HW235958   4.375   1.700   6.417  1.8248 -2.7731  0.2509
 8166SOL     OW35959   2.257   2.490   5.688 -0.0475 -0.3937 -0.1999
 8166SOL    HW135960   2.289   2.513   5.600 -0.0376 -0.2973 -0.1707
 8166SOL    HW235961   2.227   2.576   5.716  2.9689  0.4541  0.4764
 8167SOL     OW35962   4.629   0.883   7.720  0.0886  0.6979  0.4208
 8167SOL    HW135963   4.656   0.907   7.808 -0.4010 -1.3988  1.1344
 8167SOL    HW235964   4.575   0.805   7.730 -0.2700  0.9147  0.1806
 8168SOL     OW35965   4.201   0.883  15.611 -0.2697  0.0701 -0.0900
 8168SOL    HW135966   4.137   0.882  15.682 -0.1139  1.9784  0.0623
 8168SOL    HW235967   4.275   0.875  15.670 -0.6047  2.2267  0.6181
 8169SOL     OW35968   3.139   4.565   0.543 -0.0774  0.2260  0.0715
 8169SOL    HW135969   3.196   4.636   0.572  1.4930 -1.3788  0.9403
 8169SOL    HW235970   3.180   4.486   0.579 -0.6563  0.3273  0.9689
 8170SOL     OW35971   2.809   0.194   8.217  0.5863 -0.7118 -0.3510
 8170SOL    HW135972   2.889   0.239   8.192 -1.7466  3.7500  0.2347
 8170SOL    HW235973   2.740   0.245   8.174  2.0057  1.5029 -0.0033
 8171SOL     OW35974   1.505   1.412   9.459  0.1875  0.5747  0.1081
 8171SOL    HW135975   1.526   1.455   9.376  1.7467 -0.7859 -0.1981
 8171SOL    HW235976   1.526   1.320   9.444 -1.1949  0.0750  1.2406
 8172SOL     OW35977   4.723   3.513   8.284 -0.3413 -0.2370  0.2487
 8172SOL    HW135978   0.086   3.485   8.254  0.3015  3.1781 -1.1129
 8172SOL    HW235979   4.664   3.438   8.275  1.5302 -1.6948  0.0463
 8173SOL     OW35980   1.389   2.169   7.906 -0.1328  0.2963  0.3163
 8173SOL    HW135981   1.304   2.148   7.943 -1.0702  1.1187 -1.3941
 8173SOL    HW235982   1.355   2.239   7.850  2.1249  1.1067 -0.0423
 8174SOL     OW35983   4.040   0.496   8.083  0.3984  0.1413 -0.0452
 8174SOL    HW135984   3.962   0.550   8.070  1.2627  1.6549  1.1021
 8174SOL    HW235985   4.053   0.463   7.994 -2.9657 -1.0012 -0.1100
 8175SOL     OW35986   1.993   0.282   2.955  0.1244 -0.3933  0.5008
 8175SOL    HW135987   2.051   0.243   2.889 -0.0789 -0.5861  0.4370
 8175SOL    HW235988   1.951   0.357   2.913  0.2475  0.4020  1.8011
 8176SOL     OW35989   4.261   2.474  11.969  0.2438 -0.6747  0.4873
 8176SOL    HW135990   4.324   2.406  11.944  0.3182  0.6715 -3.0355
 8176SOL    HW235991   4.309   2.556  11.972 -2.1293  0.7253  0.0037
 8177SOL     OW35992   1.801   1.909   7.030 -0.0025  0.3798 -0.1056
 8177SOL    HW135993   1.714   1.920   7.069 -0.3530  1.0270 -1.0724
 8177SOL    HW235994   1.835   1.843   7.091 -0.4464 -1.4285 -1.8217
 8178SOL     OW35995   0.794   3.035   5.571  0.0791  0.1832  0.4002
 8178SOL    HW135996   0.847   3.110   5.547  0.2405  0.3573  1.2922
 8178SOL    HW235997   0.834   2.968   5.515  4.3732  2.2438  1.0652
 8179SOL     OW35998   0.209   3.077  15.378  0.4889 -0.8041  0.0700
 8179SOL    HW135999   0.276   3.142  15.397 -0.6689 -0.0339  1.5535
 8179SOL    HW236000   0.187   3.093  15.286  0.4140 -1.3666 -0.0065
 8180SOL     OW36001   1.123   2.980   7.457  0.3946 -0.5456  0.3993
 8180SOL    HW136002   1.070   2.925   7.515 -0.8795  1.3243  0.9868
 8180SOL    HW236003   1.204   2.930   7.451  1.3219  0.8968  0.9394
 8181SOL     OW36004   1.050   1.252   9.406 -0.3023  0.1709  0.1531
 8181SOL    HW136005   0.974   1.295   9.366  0.0303  0.8954  0.3117
 8181SOL    HW236006   1.117   1.320   9.397 -0.1716 -0.0831 -0.8437
 8182SOL     OW36007   2.897   1.262  11.669 -1.0483 -0.1696  0.0259
 8182SOL    HW136008   2.919   1.174  11.700 -2.1976 -1.1955 -2.1477
 8182SOL    HW236009   2.807   1.271  11.700 -0.7037  1.8308  0.4434
 8183SOL     OW36010   3.212   0.333  13.411 -0.2984  0.3984  0.1818
 8183SOL    HW136011   3.221   0.306  13.319  0.8328  0.7221  0.1987
 8183SOL    HW236012   3.135   0.389  13.398 -0.7972 -0.8879 -2.5919
 8184SOL     OW36013   4.316   1.939   1.087  0.0010  0.1691  0.0043
 8184SOL    HW136014   4.250   1.870   1.073  0.0406  0.4405 -1.5429
 8184SOL    HW236015   4.277   2.005   1.029  3.1497  1.9242 -0.1042
 8185SOL     OW36016   1.904   1.711   7.445 -0.2584 -0.0120  0.3371
 8185SOL    HW136017   1.816   1.737   7.470  0.0323 -0.0231  1.3709
 8185SOL    HW236018   1.898   1.623   7.483  0.1269 -0.3083 -0.2835
 8186SOL     OW36019   4.636   2.734   5.503 -0.0935  0.3130  0.0221
 8186SOL    HW136020   4.582   2.764   5.430 -0.9224 -0.0931  0.4689
 8186SOL    HW236021   4.616   2.641   5.506 -0.4761  0.4390  1.3616
 8187SOL     OW36022   4.468   1.718   5.492  0.1843  0.3835  0.5655
 8187SOL    HW136023   4.433   1.719   5.581  0.1786  0.6555  0.5610
 8187SOL    HW236024   4.559   1.688   5.491  0.7647  2.1907 -1.7395
 8188SOL     OW36025   2.953   1.770   5.777  0.1602 -0.5470 -0.2035
 8188SOL    HW136026   2.976   1.740   5.689 -0.7297  1.5374 -1.1444
 8188SOL    HW236027   3.006   1.850   5.772 -1.5242  0.5469 -0.6194
 8189SOL     OW36028   2.406   2.111  10.396 -0.5843 -0.4815  0.0601
 8189SOL    HW136029   2.316   2.138  10.373 -0.6955 -1.7484 -1.0001
 8189SOL    HW236030   2.415   2.018  10.374  1.8952 -0.1429 -0.2542
 8190SOL     OW36031   4.214   4.046  17.692  0.3647 -0.2871 -0.2886
 8190SOL    HW136032   4.307   4.067  17.681  1.1340 -3.3763  0.3776
 8190SOL    HW236033   4.185   4.037  17.601  0.3959  0.8795 -0.4160
 8191SOL     OW36034   1.553   3.182   9.605  0.3325 -0.6684 -0.3617
 8191SOL    HW136035   1.580   3.187   9.696 -0.7437 -0.5924 -0.0461
 8191SOL    HW236036   1.475   3.128   9.615 -0.9826  1.2908  0.0981
 8192SOL     OW36037   0.263   2.190   3.606 -0.2296  0.3808  0.2290
 8192SOL    HW136038   0.180   2.163   3.644 -1.7178  3.4815 -0.8034
 8192SOL    HW236039   0.286   2.272   3.650 -2.0167  1.0922 -0.1488
 8193SOL     OW36040   1.309   1.868   8.335 -0.0429 -0.2933  0.3397
 8193SOL    HW136041   1.346   1.796   8.386 -1.5090 -1.1978  0.1220
 8193SOL    HW236042   1.227   1.826   8.311 -1.5267  1.0173  2.9693
 8194SOL     OW36043   1.676   3.340  13.769 -0.2723 -0.4143 -0.9425
 8194SOL    HW136044   1.652   3.432  13.753 -0.6956 -0.4306 -0.4368
 8194SOL    HW236045   1.612   3.299  13.712  0.1918  1.3250 -2.7091
 8195SOL     OW36046   1.107   1.071   7.372  0.1496  0.1094  0.2417
 8195SOL    HW136047   1.108   1.148   7.429  1.0070  0.6665 -0.5338
 8195SOL    HW236048   1.012   1.066   7.361  0.2465  0.4936 -0.7597
 8196SOL     OW36049   0.226   0.035   7.978  0.2086  0.1262  0.7351
 8196SOL    HW136050   0.271   0.119   7.986 -1.9354  1.1208  2.2065
 8196SOL    HW236051   0.150   0.045   8.035 -1.4898  0.4654 -1.6534
 8197SOL     OW36052   1.299   1.083   8.020 -0.1873  0.6177  0.3941
 8197SOL    HW136053   1.276   1.016   8.085  2.0323  0.6498  1.2157
 8197SOL    HW236054   1.332   1.033   7.945 -1.4843 -0.7460  0.7415
 8198SOL     OW36055   0.187   2.621  10.536 -0.0391 -0.0786 -0.1808
 8198SOL    HW136056   0.271   2.587  10.568 -0.2535 -1.0778 -0.6628
 8198SOL    HW236057   0.135   2.580  10.605 -2.6148 -0.7703 -2.5505
 8199SOL     OW36058   2.208   0.900   4.965  0.2305  0.1201  0.7287
 8199SOL    HW136059   2.264   0.822   4.954  0.2683  0.1144  0.9479
 8199SOL    HW236060   2.231   0.917   5.057 -2.5957 -1.5988  1.7522
 8200SOL     OW36061   0.980   4.514   3.101  0.6010 -0.1922  0.0316
 8200SOL    HW136062   1.062   4.537   3.147  0.6944  0.7115 -0.5976
 8200SOL    HW236063   0.971   4.564   3.020 -0.1845  0.1530  0.3389
 8201SOL     OW36064   4.240   3.785   9.178  0.1794  0.4120  0.5730
 8201SOL    HW136065   4.280   3.775   9.092 -1.6874  1.7862 -0.4773
 8201SOL    HW236066   4.146   3.791   9.157  0.2202  0.0298  0.2786
 8202SOL     OW36067   1.207   2.198   2.953 -0.1118  0.3843 -0.0827
 8202SOL    HW136068   1.162   2.113   2.954  0.4248  0.1214  1.6908
 8202SOL    HW236069   1.157   2.243   2.885  0.0725 -2.1404 -1.8910
 8203SOL     OW36070   4.525   1.477   5.095  0.2006  0.0203 -0.1133
 8203SOL    HW136071   4.525   1.568   5.127  1.7758  0.5567 -1.6027
 8203SOL    HW236072   4.445   1.485   5.044  0.1199  3.2409  0.4679
 8204SOL     OW36073   4.548   4.299  14.249  0.0134  0.0482  0.2022
 8204SOL    HW136074   4.533   4.317  14.342 -1.9138  3.3652 -0.7299
 8204SOL    HW236075   4.521   4.208  14.239 -0.4509  0.1100  0.8365
 8205SOL     OW36076   0.917   0.330   2.375 -0.2638 -0.3188  0.0974
 8205SOL    HW136077   1.000   0.354   2.334  1.5583 -3.2411  2.1582
 8205SOL    HW236078   0.927   0.342   2.469 -1.5960 -0.0574  0.2155
 8206SOL     OW36079   3.758   3.158   4.059 -0.0501  0.0634  0.2815
 8206SOL    HW136080   3.820   3.202   4.117  2.4658 -1.6974 -1.0953
 8206SOL    HW236081   3.694   3.129   4.124  0.4572 -2.5887 -0.3868
 8207SOL     OW36082   3.481   3.789  15.005  0.4914  0.0261 -0.1333
 8207SOL    HW136083   3.505   3.702  15.037 -0.5187 -1.2417 -2.7686
 8207SOL    HW236084   3.498   3.774  14.912 -2.5311 -2.3914 -0.2738
 8208SOL     OW36085   2.965   1.529   3.716 -0.0299  0.5307  0.6564
 8208SOL    HW136086   2.892   1.482   3.757 -1.5529  1.3465 -1.0877
 8208SOL    HW236087   2.998   1.586   3.785  0.4972 -0.3021  1.0898
 8209SOL     OW36088   3.552   2.545   3.479 -0.4226  0.1933 -0.2807
 8209SOL    HW136089   3.461   2.573   3.483 -0.2714  0.8185 -1.2676
 8209SOL    HW236090   3.591   2.591   3.405 -2.2979  0.3250 -1.1993
 8210SOL     OW36091   2.403   2.968   9.602  0.3586  0.9761 -0.0100
 8210SOL    HW136092   2.330   2.947   9.543 -1.1017 -0.1428  2.1859
 8210SOL    HW236093   2.463   2.893   9.593 -2.1780 -1.2119  1.3634
 8211SOL     OW36094   1.347   4.367   9.343  0.8037  0.1252  0.1988
 8211SOL    HW136095   1.311   4.445   9.385 -1.0157 -1.8824  2.4360
 8211SOL    HW236096   1.407   4.332   9.408 -0.8661  1.3970  2.4062
 8212SOL     OW36097   3.371   2.906   2.752 -0.2592  0.5367 -0.1073
 8212SOL    HW136098   3.297   2.966   2.764 -1.6531 -0.8473 -1.7014
 8212SOL    HW236099   3.445   2.966   2.748  0.3393 -0.2777 -1.1961
 8213SOL     OW36100   1.583   1.478   0.923  0.3893 -0.8485 -0.5717
 8213SOL    HW136101   1.526   1.404   0.904  0.7586 -0.9977 -1.1114
 8213SOL    HW236102   1.606   1.465   1.015  0.2842 -1.4083 -0.6297
 8214SOL     OW36103   3.297   2.279   3.369  1.3047  0.0153 -0.0517
 8214SOL    HW136104   3.255   2.313   3.290  0.8143 -1.5805 -0.4909
 8214SOL    HW236105   3.225   2.301   3.428  0.6698  0.2412 -0.9024
 8215SOL     OW36106   0.793   0.580  17.220  0.0604 -0.7148  0.1957
 8215SOL    HW136107   0.733   0.539  17.282  0.2098  0.9335  1.4318
 8215SOL    HW236108   0.840   0.505  17.185 -0.4062 -1.8896  2.1145
 8216SOL     OW36109   2.713   1.904   0.784  0.0260 -0.4880 -0.0550
 8216SOL    HW136110   2.681   1.987   0.748  1.0223 -0.8218 -1.6903
 8216SOL    HW236111   2.634   1.865   0.822 -0.3420 -2.0789 -2.5117
 8217SOL     OW36112   2.285   0.623   4.662 -0.0566 -0.0466  0.2720
 8217SOL    HW136113   2.217   0.568   4.625  0.6171 -0.6658 -0.0367
 8217SOL    HW236114   2.317   0.655   4.578 -0.0578  0.0992  0.3256
 8218SOL     OW36115   2.435   3.008   4.659  0.1659  0.0798 -0.3585
 8218SOL    HW136116   2.530   3.007   4.669 -0.0385 -0.4099  1.5370
 8218SOL    HW236117   2.407   3.063   4.732  0.9602 -0.4476  0.3449
 8219SOL     OW36118   3.020   0.761   8.672 -0.0552 -0.0016  0.1762
 8219SOL    HW136119   3.072   0.748   8.593  1.0318  1.6538  0.6223
 8219SOL    HW236120   2.946   0.701   8.666  1.0802 -1.4152  0.1502
 8220SOL     OW36121   2.641   0.481   7.931 -0.4503 -0.0486  0.0955
 8220SOL    HW136122   2.652   0.576   7.920  2.0612 -0.3641 -0.0351
 8220SOL    HW236123   2.655   0.441   7.845  2.7859  1.8878 -0.2469
 8221SOL     OW36124   3.546   2.771  16.677  0.0213  0.0265 -0.5274
 8221SOL    HW136125   3.503   2.691  16.707  0.1835  1.0030  2.3245
 8221SOL    HW236126   3.508   2.845  16.725  1.0661 -0.4105  0.9588
 8222SOL     OW36127   0.597   1.987  14.285 -0.2813  0.3583 -0.2409
 8222SOL    HW136128   0.579   2.012  14.194 -1.0301 -0.8142 -0.4169
 8222SOL    HW236129   0.692   1.977  14.279 -0.5188 -0.3957 -2.7390
 8223SOL     OW36130   1.820   4.675   5.411 -0.3254 -0.4465 -0.1729
 8223SOL    HW136131   1.847   0.042   5.425  1.9013 -0.9163 -1.4954
 8223SOL    HW236132   1.834   4.670   5.317  1.7506 -1.0358  0.1711
 8224SOL     OW36133   3.445   1.212   0.610  0.4517  0.1333 -0.5816
 8224SOL    HW136134   3.524   1.202   0.662 -0.1752 -2.0688 -0.0795
 8224SOL    HW236135   3.491   1.228   0.528 -1.4510 -0.7529 -1.8149
 8225SOL     OW36136   4.134   0.255   9.677 -0.3401 -0.0083  0.3357
 8225SOL    HW136137   4.071   0.225   9.612  1.5155 -1.4183 -0.7917
 8225SOL    HW236138   4.096   0.333   9.718  0.2320  0.9812 -1.0158
 8226SOL     OW36139   0.299   1.717   7.530  0.4649  0.8510 -0.0355
 8226SOL    HW136140   0.263   1.700   7.443  1.6697 -0.1207 -0.3331
 8226SOL    HW236141   0.376   1.662   7.544  0.1806  0.8775  1.6489
 8227SOL     OW36142   0.769   3.489  17.208  0.1429 -0.0193  0.3108
 8227SOL    HW136143   0.751   3.541  17.129  1.2412 -0.7171 -0.4131
 8227SOL    HW236144   0.854   3.448  17.193  1.0649  2.1107 -0.3067
 8228SOL     OW36145   3.199   2.212  13.898  0.1055 -0.1965 -0.3434
 8228SOL    HW136146   3.276   2.178  13.945  0.0654  2.0974  1.3798
 8228SOL    HW236147   3.164   2.280  13.956 -1.0016 -0.4035 -0.7624
 8229SOL     OW36148   2.476   4.454   1.084 -0.1635 -0.1256  0.0756
 8229SOL    HW136149   2.457   4.409   1.166  1.2023 -0.3443  0.2800
 8229SOL    HW236150   2.570   4.468   1.073  0.0536 -0.5625  1.3750
 8230SOL     OW36151   4.201   0.344   7.616 -0.4351  0.1213  0.3884
 8230SOL    HW136152   4.278   0.297   7.648  0.6923  1.4411 -0.3528
 8230SOL    HW236153   4.134   0.276   7.612  0.0637 -0.3655  0.2018
 8231SOL     OW36154   0.511   1.739  14.258  0.1045 -0.3463  0.0138
 8231SOL    HW136155   0.564   1.818  14.268 -1.6914  0.7248  1.1540
 8231SOL    HW236156   0.542   1.709  14.173 -3.0463 -2.0585 -0.5278
 8232SOL     OW36157   4.578   1.345   4.321 -0.1392 -0.2385  0.1231
 8232SOL    HW136158   4.484   1.340   4.337 -0.1246  0.6658  0.4440
 8232SOL    HW236159   4.580   1.310   4.232  0.4397  1.4784 -0.5234
 8233SOL     OW36160   0.724   2.247  12.924  0.2051  0.2414  0.1458
 8233SOL    HW136161   0.712   2.268  12.832  0.9177  0.8856  0.1960
 8233SOL    HW236162   0.633   2.249  12.955 -0.5041 -0.0811 -1.9893
 8234SOL     OW36163   1.616   0.735  11.926  0.5231 -0.2289 -0.3855
 8234SOL    HW136164   1.538   0.748  11.981  0.0241 -4.3846 -0.0705
 8234SOL    HW236165   1.627   0.824  11.892 -0.7571  0.4971  1.0481
 8235SOL     OW36166   2.466   2.554   7.322 -0.2945 -0.0100  0.1018
 8235SOL    HW136167   2.472   2.493   7.396  1.7569 -0.5223 -0.4781
 8235SOL    HW236168   2.490   2.509   7.241 -0.3535  1.4539 -0.7256
 8236SOL     OW36169   3.467   0.356   3.469 -0.1287 -0.0132 -0.0086
 8236SOL    HW136170   3.487   0.418   3.400  2.9238 -2.3569 -1.2389
 8236SOL    HW236171   3.382   0.325   3.435  1.1118 -2.6999 -0.6997
 8237SOL     OW36172   1.421   0.922   7.856  0.3193 -0.7952  0.6614
 8237SOL    HW136173   1.377   0.843   7.826 -0.2729  0.8110 -2.7145
 8237SOL    HW236174   1.509   0.890   7.872  0.5001 -0.7837 -0.3065
 8238SOL     OW36175   3.675   3.720   6.672 -0.2612  0.7191  0.1675
 8238SOL    HW136176   3.707   3.723   6.581  2.1351 -0.0976  0.9664
 8238SOL    HW236177   3.582   3.703   6.664 -0.0622  0.3807 -1.4617
 8239SOL     OW36178   0.988   2.429   0.932 -0.2273 -0.6306 -0.3063
 8239SOL    HW136179   0.956   2.344   0.963  0.7311 -0.1869  1.8841
 8239SOL    HW236180   1.081   2.411   0.919  0.1372  1.4748 -0.5467
 8240SOL     OW36181   0.674   1.481   4.050 -0.0774  0.0403  0.0933
 8240SOL    HW136182   0.766   1.507   4.055 -0.1445  0.2807  0.0742
 8240SOL    HW236183   0.644   1.530   3.974 -1.5762  1.3967  1.5403
 8241SOL     OW36184   2.609   2.599  16.804 -0.2483 -0.1163  0.0287
 8241SOL    HW136185   2.594   2.511  16.769  1.4603 -2.0520  4.1401
 8241SOL    HW236186   2.558   2.602  16.886  1.5123 -1.0712  1.1603
 8242SOL     OW36187   1.172   0.245  16.208 -0.0617 -0.3762 -0.0818
 8242SOL    HW136188   1.144   0.162  16.247  1.7852 -1.3535 -0.8479
 8242SOL    HW236189   1.173   0.229  16.113 -1.1119 -0.3415 -0.1001
 8243SOL     OW36190   1.165   4.650  15.273 -0.3592 -0.3910 -0.0814
 8243SOL    HW136191   1.076   4.644  15.238 -1.0284 -1.0474  1.6970
 8243SOL    HW236192   1.209   4.587  15.216 -1.2210 -1.5850  0.5554
 8244SOL     OW36193   4.469   4.604   0.308  0.0097 -0.1342 -0.3517
 8244SOL    HW136194   4.423   4.639   0.231  1.6307 -1.5107 -1.9203
 8244SOL    HW236195   4.551   4.652   0.297  0.3739 -0.5839  0.4525
 8245SOL     OW36196   0.224   4.045  14.842 -0.2505  0.3912  0.6603
 8245SOL    HW136197   0.146   4.062  14.894 -0.7565 -0.3389  0.1508
 8245SOL    HW236198   0.285   4.018  14.911 -0.8192  0.5002  1.2062
 8246SOL     OW36199   2.223   0.836   7.774 -0.4548  0.2569  0.1873
 8246SOL    HW136200   2.197   0.813   7.863  0.0299  0.2946  0.3342
 8246SOL    HW236201   2.145   0.831   7.718  1.7894  0.4245 -2.9671
 8247SOL     OW36202   1.585   3.264   2.946 -0.0443 -0.1984 -0.1280
 8247SOL    HW136203   1.507   3.313   2.918 -0.4338 -0.7419  0.0160
 8247SOL    HW236204   1.551   3.230   3.028 -1.0417  1.6413  0.2397
 8248SOL     OW36205   4.279   4.026  17.362 -0.3756 -0.7486 -0.2355
 8248SOL    HW136206   4.251   3.936  17.380  0.0933 -0.8926 -0.2423
 8248SOL    HW236207   4.374   4.018  17.370 -0.4188 -1.2434 -0.2011
 8249SOL     OW36208   1.461   4.201   0.219 -0.5768 -0.3188 -0.0524
 8249SOL    HW136209   1.390   4.198   0.155  1.0215  0.0216 -1.8284
 8249SOL    HW236210   1.408   4.185   0.298 -2.2138  0.7816 -0.9277
 8250SOL     OW36211   0.874   3.200   8.598 -0.0155  0.5052 -0.0507
 8250SOL    HW136212   0.918   3.131   8.649  2.7920  1.9409 -0.5412
 8250SOL    HW236213   0.784   3.177   8.619 -0.5984  0.8794 -2.1636
 8251SOL     OW36214   1.989   3.878   6.414 -0.3636  0.0419 -0.1956
 8251SOL    HW136215   1.922   3.812   6.434 -1.2236  1.3865  1.3641
 8251SOL    HW236216   2.069   3.828   6.428 -0.4829 -0.6402 -1.9452
 8252SOL     OW36217   4.347   0.995   5.301 -0.2843 -0.2294 -0.0223
 8252SOL    HW136218   4.328   1.083   5.270  0.6010  0.7127  2.0682
 8252SOL    HW236219   4.277   0.951   5.252  0.6645 -0.9362 -0.7377
 8253SOL     OW36220   2.669   4.493   5.026  0.1325 -0.1052  0.3128
 8253SOL    HW136221   2.703   4.506   5.115  0.5925 -0.8985  0.2526
 8253SOL    HW236222   2.747   4.499   4.970 -0.4167 -2.2436 -0.6890
 8254SOL     OW36223   4.173   2.484   3.726  0.6313  0.0127  0.3182
 8254SOL    HW136224   4.193   2.564   3.677  1.6298  0.0775  0.8401
 8254SOL    HW236225   4.100   2.447   3.676  0.4489  0.6135  0.1456
 8255SOL     OW36226   0.239   2.873   7.525  0.2708 -0.2564 -0.0342
 8255SOL    HW136227   0.232   2.784   7.558  2.1524  0.4013  2.1372
 8255SOL    HW236228   0.182   2.871   7.448 -1.8035  1.5774  1.4776
 8256SOL     OW36229   4.457   3.349   8.525 -0.0518  0.4510 -0.0878
 8256SOL    HW136230   4.471   3.255   8.538  0.6324  0.4962 -0.5062
 8256SOL    HW236231   4.477   3.348   8.432 -1.1074 -0.9461 -0.3018
 8257SOL     OW36232   0.752   3.999   8.557  0.0039 -0.1981  0.1202
 8257SOL    HW136233   0.672   4.051   8.550  0.0340 -0.2821 -0.8201
 8257SOL    HW236234   0.815   4.057   8.514 -0.9532  0.1557 -0.7694
 8258SOL     OW36235   1.182   0.947   8.227  0.1511 -0.2030  0.2971
 8258SOL    HW136236   1.087   0.955   8.237  0.3820  1.6534  0.9757
 8258SOL    HW236237   1.212   0.980   8.311 -0.5813  4.1315 -1.1468
 8259SOL     OW36238   4.319   0.448   3.543  0.4050 -0.3453 -0.1913
 8259SOL    HW136239   4.381   0.447   3.615  0.6343  0.9839 -0.3576
 8259SOL    HW236240   4.351   0.522   3.491  0.7101 -0.9574 -0.8690
 8260SOL     OW36241   3.885   0.932   2.646 -0.3459 -0.2112  0.5363
 8260SOL    HW136242   3.811   0.902   2.593 -0.0697  0.4365 -0.2202
 8260SOL    HW236243   3.847   0.964   2.728 -0.7326 -0.5191  0.4778
 8261SOL     OW36244   2.881   3.526   4.506 -0.5015  0.6814 -0.1538
 8261SOL    HW136245   2.973   3.552   4.505 -0.2528 -0.0655  2.7507
 8261SOL    HW236246   2.872   3.509   4.600  2.2672 -2.7958 -0.5401
 8262SOL     OW36247   4.583   2.572  17.122  0.0439  0.1562 -0.0403
 8262SOL    HW136248   4.650   2.637  17.098 -0.8207  1.2940  0.5975
 8262SOL    HW236249   4.636   2.511  17.173  1.5436  0.0189 -1.7723
 8263SOL     OW36250   1.644   4.416  14.456  0.0831 -0.2028  0.0207
 8263SOL    HW136251   1.609   4.365  14.383 -0.5759 -0.4709  0.5280
 8263SOL    HW236252   1.563   4.435  14.503 -0.8832  1.6888 -2.3963
 8264SOL     OW36253   2.548   1.387   5.314  0.1707 -0.2814 -0.4004
 8264SOL    HW136254   2.527   1.480   5.308 -0.8510 -0.2996  3.0050
 8264SOL    HW236255   2.463   1.344   5.328 -0.1813  0.7273  0.5554
 8265SOL     OW36256   0.633   3.590   6.154 -0.3837 -0.0512 -0.3024
 8265SOL    HW136257   0.557   3.567   6.207 -0.0199 -0.0366  0.2170
 8265SOL    HW236258   0.637   3.506   6.109  1.1111  1.1421 -2.4160
 8266SOL     OW36259   2.645   3.629   6.288  0.1858 -0.3462  0.3877
 8266SOL    HW136260   2.639   3.549   6.236  1.3912  1.0583 -1.8917
 8266SOL    HW236261   2.733   3.622   6.324 -0.1046  0.4462  1.2513
 8267SOL     OW36262   4.151   1.648   2.342  0.2612 -0.2556  0.0968
 8267SOL    HW136263   4.093   1.610   2.408  1.7976 -1.6908  0.6135
 8267SOL    HW236264   4.239   1.614   2.360 -0.4674 -1.6237  1.0950
 8268SOL     OW36265   1.162   2.139   7.228 -0.3799  0.3453  0.1179
 8268SOL    HW136266   1.162   2.059   7.176  1.7708 -0.1024  0.8027
 8268SOL    HW236267   1.155   2.112   7.320  1.7032 -1.3892 -0.2260
 8269SOL     OW36268   4.386   1.800  16.557  0.4479 -0.4220 -0.4847
 8269SOL    HW136269   4.463   1.795  16.615  0.3776 -1.3585 -0.4635
 8269SOL    HW236270   4.362   1.889  16.582 -1.3923 -0.1405 -3.2924
 8270SOL     OW36271   2.059   3.984   6.172  0.1944 -0.2268  0.6903
 8270SOL    HW136272   2.098   3.906   6.132 -0.8243 -0.9280  1.0773
 8270SOL    HW236273   2.011   3.953   6.248 -0.6910 -1.1559 -0.2451
 8271SOL     OW36274   2.204   1.638   7.991 -0.0855 -0.3417  0.0845
 8271SOL    HW136275   2.247   1.586   7.923  0.3790 -1.4563  1.2288
 8271SOL    HW236276   2.275   1.685   8.035 -0.8812 -0.1556  1.1797
 8272SOL     OW36277   0.869   1.544   7.130 -0.1919  0.4483  0.1597
 8272SOL    HW136278   0.948   1.593   7.154 -0.8684  1.5689  0.0566
 8272SOL    HW236279   0.859   1.569   7.038  0.6144 -2.3926 -0.7000
 8273SOL     OW36280   2.783   3.796   4.777 -0.0820  0.3558  0.0708
 8273SOL    HW136281   2.792   3.891   4.772 -0.9877  0.4055 -0.5416
 8273SOL    HW236282   2.871   3.778   4.811  0.5451  1.6755 -0.8753
 8274SOL     OW36283   2.141   1.467   0.288 -0.3158 -0.3884  0.0386
 8274SOL    HW136284   2.154   1.547   0.339 -0.8837 -1.7746  2.3555
 8274SOL    HW236285   2.227   1.463   0.246 -0.6347 -1.4463 -0.5076
 8275SOL     OW36286   1.436   2.898   8.945 -0.1790 -0.4631 -0.1898
 8275SOL    HW136287   1.422   2.987   8.978  0.8493  0.0749 -1.1769
 8275SOL    HW236288   1.384   2.841   9.001 -0.2402 -0.4284 -0.2109
 8276SOL     OW36289   0.412   2.433  11.262 -0.1311  0.3121  0.2496
 8276SOL    HW136290   0.332   2.480  11.285  0.6782  1.9861 -0.3927
 8276SOL    HW236291   0.394   2.357  11.318  1.2869  0.1633  0.5006
 8277SOL     OW36292   3.235   1.130  16.935  0.7639  1.4038 -0.0353
 8277SOL    HW136293   3.286   1.049  16.925  2.5959  2.7145 -1.2343
 8277SOL    HW236294   3.149   1.114  16.897  0.9933  1.6342 -0.6470
 8278SOL     OW36295   1.702   3.555   2.789 -0.8569  0.0912  0.0283
 8278SOL    HW136296   1.771   3.612   2.755  0.1121 -0.2950  1.3371
 8278SOL    HW236297   1.720   3.471   2.747  1.2272  1.7030 -2.3254
 8279SOL     OW36298   3.528   3.946   4.581  0.1294 -0.1077 -0.0806
 8279SOL    HW136299   3.486   3.861   4.566 -1.1685  0.9433 -2.5378
 8279SOL    HW236300   3.572   3.923   4.662 -1.9981 -2.6169  0.3544
 8280SOL     OW36301   1.488   3.907  17.504 -0.1358  0.3549 -0.2428
 8280SOL    HW136302   1.482   3.946  17.591  1.7319 -0.7655  0.3911
 8280SOL    HW236303   1.407   3.857  17.501 -0.5378  1.0724 -1.2821
 8281SOL     OW36304   2.104   0.533  15.453 -0.4434 -0.7370 -0.2627
 8281SOL    HW136305   2.037   0.553  15.519  0.5046 -0.3619  0.5756
 8281SOL    HW236306   2.189   0.562  15.486 -1.0213  0.1518  0.4512
 8282SOL     OW36307   0.392   1.798   5.147  0.4887 -0.1542  0.6231
 8282SOL    HW136308   0.470   1.802   5.203  1.8856 -0.9652 -1.2431
 8282SOL    HW236309   0.346   1.875   5.179  2.7614  1.3321  0.3531
 8283SOL     OW36310   0.627   4.067   1.460 -0.0206  0.2058 -0.2437
 8283SOL    HW136311   0.667   4.081   1.374  1.9345  0.6994  0.7520
 8283SOL    HW236312   0.660   4.148   1.499 -1.1901  0.4397  0.2654
 8284SOL     OW36313   0.021   2.152   7.037  0.8666  0.1187 -0.0547
 8284SOL    HW136314   0.073   2.111   7.106 -0.8621 -0.7113  0.7638
 8284SOL    HW236315   4.715   2.077   6.985 -0.0722  0.2264  0.3178
 8285SOL     OW36316   1.401   3.245   7.449 -0.1245 -0.1697  0.1295
 8285SOL    HW136317   1.455   3.189   7.505  0.3751 -0.7335 -0.9042
 8285SOL    HW236318   1.380   3.320   7.504  0.7015  1.4331 -1.7156
 8286SOL     OW36319   2.854   0.908  14.205  0.5254  0.2862  0.3725
 8286SOL    HW136320   2.943   0.912  14.168  0.6748 -0.0146  0.6998
 8286SOL    HW236321   2.870   0.950  14.290  0.9763 -1.0569  0.9527
 8287SOL     OW36322   0.334   2.697   3.316 -0.5827 -0.2827 -0.0799
 8287SOL    HW136323   0.291   2.766   3.367 -2.0406  0.2414 -2.0039
 8287SOL    HW236324   0.353   2.737   3.231 -0.5997  3.2180  1.5524
 8288SOL     OW36325   2.990   3.841  16.186 -0.3814 -0.1412 -0.1361
 8288SOL    HW136326   3.074   3.856  16.229 -0.4021  0.0436 -0.1616
 8288SOL    HW236327   2.978   3.931  16.157 -3.1256 -0.9434 -1.5527
 8289SOL     OW36328   2.906   1.483   4.070  0.2326 -0.0031  0.8865
 8289SOL    HW136329   2.900   1.577   4.088 -1.4431  0.1412 -0.4193
 8289SOL    HW236330   2.832   1.441   4.115  0.9517 -1.0607  1.0965
 8290SOL     OW36331   0.568   0.889  16.270 -0.4113 -0.6502 -0.4728
 8290SOL    HW136332   0.521   0.952  16.215 -2.0935 -2.2778 -0.8807
 8290SOL    HW236333   0.495   0.868  16.328  0.1517  0.0107  0.4806
 8291SOL     OW36334   1.878   4.477   6.340  0.8395 -0.4006 -0.1294
 8291SOL    HW136335   1.916   4.527   6.411  0.0317 -1.0972  0.7925
 8291SOL    HW236336   1.911   4.531   6.268 -1.3831  0.2778 -0.6454
 8292SOL     OW36337   2.369   0.744  11.831  0.0809  0.3205 -0.1486
 8292SOL    HW136338   2.275   0.749  11.847 -0.4552 -2.4885 -2.3662
 8292SOL    HW236339   2.375   0.839  11.820 -2.0190  0.6087  1.1922
 8293SOL     OW36340   3.110   4.664   4.297  0.1120  0.1676 -0.5145
 8293SOL    HW136341   3.118   0.004   4.226 -0.8052 -0.5001 -1.2197
 8293SOL    HW236342   3.192   4.681   4.343 -0.8381  0.2058  1.1580
 8294SOL     OW36343   1.272   2.555   9.943  0.5747 -0.1981  0.0219
 8294SOL    HW136344   1.323   2.482   9.978  1.1926  0.2403  0.0372
 8294SOL    HW236345   1.264   2.620  10.013  0.4710  0.0528 -0.2271
 8295SOL     OW36346   0.034   2.604   1.954 -0.3476 -0.0963 -0.3658
 8295SOL    HW136347   0.025   2.576   2.045 -0.1506  3.2009  0.6497
 8295SOL    HW236348   0.062   2.524   1.910 -1.1713 -1.5278  1.7022
 8296SOL     OW36349   0.947   2.917   8.127  0.2222 -0.0180  0.2705
 8296SOL    HW136350   1.013   2.941   8.191 -0.8321  1.3416  0.8431
 8296SOL    HW236351   0.944   2.998   8.076 -0.4208 -0.7999 -0.9568
 8297SOL     OW36352   4.620   0.898  16.908  0.3350 -0.0256  0.1656
 8297SOL    HW136353   4.529   0.927  16.905  1.0164  1.9422 -1.7744
 8297SOL    HW236354   4.620   0.853  16.992  0.9674  0.4266  0.4032
 8298SOL     OW36355   0.018   3.099   6.654  0.1423 -0.5249 -0.1369
 8298SOL    HW136356   4.662   3.058   6.619  0.7688 -0.6481 -1.4218
 8298SOL    HW236357   0.008   3.185   6.614 -0.4629 -1.4210 -1.9255
 8299SOL     OW36358   0.398   3.050   9.614 -0.5461 -0.2619 -0.8073
 8299SOL    HW136359   0.429   3.094   9.693  1.9804 -0.3858 -1.7229
 8299SOL    HW236360   0.312   3.091   9.614  0.5624  2.0645  1.0346
 8300SOL     OW36361   3.963   2.530  12.905 -0.4319 -0.2547 -0.5392
 8300SOL    HW136362   3.929   2.467  12.842 -1.2892  0.0507 -0.3789
 8300SOL    HW236363   3.915   2.496  12.981  0.0958 -1.1293 -0.6009
 8301SOL     OW36364   3.133   3.813  11.092  0.2690  0.9476 -0.3066
 8301SOL    HW136365   3.100   3.771  11.013 -1.0491  1.0897  0.1761
 8301SOL    HW236366   3.062   3.868  11.126 -0.5717  0.4897 -1.3241
 8302SOL     OW36367   0.930   1.521   4.057  0.0838  0.0932  0.1282
 8302SOL    HW136368   0.980   1.444   4.084  2.4630  1.1431 -1.2512
 8302SOL    HW236369   0.965   1.584   4.119  0.6636  1.8112 -1.9535
 8303SOL     OW36370   0.233   1.607   7.285  0.0723  0.2040  0.2976
 8303SOL    HW136371   0.312   1.622   7.234  0.2159 -0.2491  0.3864
 8303SOL    HW236372   0.243   1.515   7.312  2.4363  0.3162 -0.2125
 8304SOL     OW36373   1.496   1.510  14.475 -0.2848 -0.4420  0.2731
 8304SOL    HW136374   1.591   1.499  14.483 -0.1298  0.2468 -0.5542
 8304SOL    HW236375   1.490   1.531  14.381 -3.1775 -2.4905  0.0194
 8305SOL     OW36376   2.295   2.835   9.354  0.8546 -0.5485 -0.1290
 8305SOL    HW136377   2.378   2.864   9.316  0.4828  0.5104 -0.1574
 8305SOL    HW236378   2.250   2.819   9.271 -0.4031 -2.7770  0.9942
 8306SOL     OW36379   0.238   2.464  16.374 -0.3270  0.2706  0.1339
 8306SOL    HW136380   0.230   2.555  16.401  0.4173  0.3569  0.0618
 8306SOL    HW236381   0.267   2.477  16.284 -1.8603  0.6893 -0.3146
 8307SOL     OW36382   1.576   2.456   9.899 -0.3711 -0.3285  0.1024
 8307SOL    HW136383   1.634   2.453   9.823 -1.7684  0.9704 -1.0016
 8307SOL    HW236384   1.570   2.551   9.905 -0.0905 -0.5116  3.4057
 8308SOL     OW36385   2.729   1.732   3.223 -0.2989  0.1860  0.5819
 8308SOL    HW136386   2.689   1.646   3.211 -0.8183  0.5100 -0.0256
 8308SOL    HW236387   2.795   1.719   3.291  0.4244 -0.2929 -0.2229
 8309SOL     OW36388   1.594   1.937   8.293  0.3736  0.3175  0.3315
 8309SOL    HW136389   1.622   1.922   8.203 -2.1589 -0.0476 -0.3841
 8309SOL    HW236390   1.500   1.918   8.289  0.1931  0.6731  2.5868
 8310SOL     OW36391   2.612   4.639   2.369  0.1806 -0.3728 -0.3776
 8310SOL    HW136392   2.608   4.577   2.442  1.3413  0.0493  0.0407
 8310SOL    HW236393   2.523   4.629   2.334 -0.2717  0.6542  0.4852
 8311SOL     OW36394   3.707   1.275   4.464 -0.7207 -0.1303 -0.1326
 8311SOL    HW136395   3.772   1.328   4.510 -0.5840  0.4635 -1.0018
 8311SOL    HW236396   3.741   1.285   4.375 -1.0044  2.0222  0.0055
 8312SOL     OW36397   0.381   4.350   6.848  0.6502 -0.3138  0.0407
 8312SOL    HW136398   0.457   4.407   6.860  1.7276 -1.6835 -0.1711
 8312SOL    HW236399   0.414   4.280   6.791 -0.0596 -1.7050  1.3432
 8313SOL     OW36400   0.323   2.542   7.167  0.2422 -0.3287  0.2319
 8313SOL    HW136401   0.256   2.475   7.174  0.6675 -0.7670  0.0767
 8313SOL    HW236402   0.311   2.568   7.076 -1.1013 -0.2626  0.4257
 8314SOL     OW36403   2.675   2.884  16.620  0.0887  0.2915 -0.0549
 8314SOL    HW136404   2.607   2.907  16.683  2.1645  1.5459  1.7342
 8314SOL    HW236405   2.747   2.867  16.681  0.9976  0.0570 -1.1888
 8315SOL     OW36406   2.858   3.709  11.096  0.1371 -0.8661  0.3505
 8315SOL    HW136407   2.797   3.653  11.145  0.3462  0.2695  1.9358
 8315SOL    HW236408   2.907   3.759  11.162 -1.7532  3.0314 -1.2040
 8316SOL     OW36409   2.048   4.043   4.686 -0.5958  0.2406  0.3060
 8316SOL    HW136410   2.131   4.008   4.651 -0.6195 -0.8516  1.3293
 8316SOL    HW236411   1.991   4.076   4.617  1.4752  0.2352 -1.4112
 8317SOL     OW36412   1.574   4.520   4.236  0.1940 -0.1186  0.0088
 8317SOL    HW136413   1.609   4.531   4.148  1.3822 -1.4344  0.3061
 8317SOL    HW236414   1.654   4.503   4.286  0.1915  2.8345  1.0341
 8318SOL     OW36415   0.188   0.984   4.104 -0.6553 -0.0117 -0.2079
 8318SOL    HW136416   0.180   1.072   4.066 -0.2368  0.1328  0.0438
 8318SOL    HW236417   0.099   0.966   4.133 -0.9921 -1.3811 -2.0690
 8319SOL     OW36418   2.746   0.915   2.727  0.4408  0.2276 -0.0926
 8319SOL    HW136419   2.690   0.837   2.731  1.3321 -0.2830  2.3158
 8319SOL    HW236420   2.815   0.882   2.784  0.1449 -0.4318 -0.1071
 8320SOL     OW36421   1.367   2.022  10.965 -0.0605  0.3508  0.4261
 8320SOL    HW136422   1.273   2.023  10.985  0.1527  0.0372  1.4246
 8320SOL    HW236423   1.372   2.014  10.870  0.0271  0.3432  0.4322
 8321SOL     OW36424   0.217   0.261   0.427  0.2379 -0.3322 -0.5295
 8321SOL    HW136425   0.241   0.273   0.519  0.9143 -2.3113 -0.4242
 8321SOL    HW236426   0.255   0.173   0.417 -1.6994 -0.9778 -2.1821
 8322SOL     OW36427   4.327   0.119   9.266 -0.2391  0.2964 -1.2830
 8322SOL    HW136428   4.407   0.067   9.266  0.3543  1.1917  1.6864
 8322SOL    HW236429   4.311   0.151   9.355 -0.5303 -3.2038 -0.1081
 8323SOL     OW36430   4.133   4.416   8.960 -0.1483 -0.3043 -0.0007
 8323SOL    HW136431   4.179   4.467   9.026  0.8328 -0.0804 -0.8474
 8323SOL    HW236432   4.052   4.466   8.945 -0.0354 -0.1272 -0.0174
 8324SOL     OW36433   1.088   1.723   7.129  0.1638  0.0690 -0.7457
 8324SOL    HW136434   1.149   1.789   7.097  0.3593  0.8896  1.3240
 8324SOL    HW236435   1.128   1.644   7.093  0.1153  1.3865 -3.6504
 8325SOL     OW36436   2.015   4.329   3.889 -0.3249 -0.5305 -0.2306
 8325SOL    HW136437   2.004   4.395   3.821 -0.4512  0.9167  1.1877
 8325SOL    HW236438   2.103   4.337   3.926 -0.6176  0.2982  0.2999
 8326SOL     OW36439   4.243   0.857   3.612  0.1180  0.0666 -0.5341
 8326SOL    HW136440   4.310   0.907   3.659 -1.4718  0.0250  1.7601
 8326SOL    HW236441   4.205   0.929   3.561  1.9876  0.9981 -0.5998
 8327SOL     OW36442   3.668   2.673   3.229  0.8195  0.1643  0.2598
 8327SOL    HW136443   3.668   2.700   3.137  1.4120  1.7408  0.7187
 8327SOL    HW236444   3.653   2.761   3.265  2.6467  0.0303  1.3286
 8328SOL     OW36445   0.053   2.045   2.715 -0.2934  0.0993 -1.0161
 8328SOL    HW136446   4.710   2.078   2.655  0.8538  0.9513 -1.8144
 8328SOL    HW236447   0.010   2.055   2.800  0.7349  1.7206 -0.6756
 8329SOL     OW36448   2.589   0.959   3.303  0.1014  0.2406 -0.1874
 8329SOL    HW136449   2.500   0.970   3.272 -0.5666  0.4166  1.8022
 8329SOL    HW236450   2.622   0.916   3.223  2.1502 -1.2912  1.4661
 8330SOL     OW36451   3.006   0.256   3.960 -0.2398 -0.8294 -0.1982
 8330SOL    HW136452   2.976   0.235   3.872  2.0582  1.7479 -1.6120
 8330SOL    HW236453   3.036   0.347   3.956 -1.9353 -0.2735 -0.2851
 8331SOL     OW36454   4.098   0.950   9.895  0.3057 -0.3032  0.3036
 8331SOL    HW136455   4.138   1.014   9.837  0.4601 -0.9085 -0.2672
 8331SOL    HW236456   4.116   0.868   9.849 -2.9206 -0.1876 -1.1694
 8332SOL     OW36457   0.144   0.762   3.821  0.2845 -0.3522  0.0656
 8332SOL    HW136458   0.145   0.710   3.741  3.2758 -0.4846  0.1946
 8332SOL    HW236459   0.190   0.706   3.883 -0.6498 -1.2689 -0.0761
 8333SOL     OW36460   0.166   2.478   7.810 -0.3797 -0.6385  0.1638
 8333SOL    HW136461   0.191   2.403   7.756  3.9494  0.6204  0.4085
 8333SOL    HW236462   0.144   2.423   7.885 -1.3888 -1.8090 -0.9822
 8334SOL     OW36463   4.094   1.328   0.367  0.0664  0.4693  0.5239
 8334SOL    HW136464   4.033   1.328   0.440  1.1289 -0.7728  1.4196
 8334SOL    HW236465   4.033   1.354   0.299 -0.1443  1.4506  1.0822
 8335SOL     OW36466   3.413   0.033   0.185  0.5455  0.3679  0.5534
 8335SOL    HW136467   3.505   0.039   0.158  0.7548 -0.6210  1.0345
 8335SOL    HW236468   3.427   0.094   0.258 -1.2474  1.1492  0.2290
 8336SOL     OW36469   1.874   0.237   9.845 -0.0154  0.0253 -0.2024
 8336SOL    HW136470   1.918   0.267   9.925 -0.9683  2.8048 -0.7218
 8336SOL    HW236471   1.888   0.311   9.785 -5.0400  1.3846  0.2558
 8337SOL     OW36472   1.911   2.005  11.937 -0.3281  0.2195 -0.0007
 8337SOL    HW136473   1.881   1.983  11.850  1.2661 -1.1434 -0.2040
 8337SOL    HW236474   1.990   1.952  11.939  0.0058  0.7371  0.7351
 8338SOL     OW36475   2.643   4.276   2.947  0.3693 -0.1271  0.1985
 8338SOL    HW136476   2.627   4.259   3.040  1.9481  0.9609  0.6754
 8338SOL    HW236477   2.739   4.273   2.939  0.0953 -2.0041 -2.3974
 8339SOL     OW36478   2.152   3.212   2.943 -0.0527  0.3706  0.1600
 8339SOL    HW136479   2.122   3.213   2.853 -0.2549  3.2054  0.2452
 8339SOL    HW236480   2.126   3.298   2.976  2.5894  0.7033  1.3503
 8340SOL     OW36481   1.532   1.952  11.422 -0.1052  0.4546 -0.3109
 8340SOL    HW136482   1.492   1.933  11.507  0.7885  0.4741  0.1116
 8340SOL    HW236483   1.472   2.022  11.399  0.5583  0.1039 -3.0798
 8341SOL     OW36484   0.516   0.476   3.878 -0.1052 -0.2106  0.2928
 8341SOL    HW136485   0.511   0.380   3.874  0.8115 -0.2505  0.1498
 8341SOL    HW236486   0.593   0.503   3.828  0.9361 -3.7993 -0.0693
 8342SOL     OW36487   1.025   1.052  16.171  0.1921  0.2072 -0.3349
 8342SOL    HW136488   0.998   1.036  16.080  1.0083 -1.5500 -0.2645
 8342SOL    HW236489   0.950   1.011  16.213  2.2033 -3.2646 -0.0713
 8343SOL     OW36490   0.763   1.445   1.191 -0.1165  0.3646  0.1529
 8343SOL    HW136491   0.706   1.407   1.124 -1.5757  2.3182  0.2719
 8343SOL    HW236492   0.762   1.540   1.184 -0.1428  0.4561  1.3244
 8344SOL     OW36493   3.134   0.370   0.574  0.1133 -0.3393 -0.1914
 8344SOL    HW136494   3.092   0.456   0.568  1.5007  0.2629 -1.0586
 8344SOL    HW236495   3.105   0.318   0.499 -2.1153  0.9587 -0.2584
 8345SOL     OW36496   4.506   1.740   4.528  0.1539 -0.2259 -0.0310
 8345SOL    HW136497   4.564   1.667   4.549 -2.2845 -1.3027  3.0447
 8345SOL    HW236498   4.472   1.752   4.617  1.1690  3.3183 -0.1365
 8346SOL     OW36499   0.065   0.314   8.270  0.0815  0.3464  0.2208
 8346SOL    HW136500   0.055   0.292   8.363  2.0233 -0.2913  0.2886
 8346SOL    HW236501   0.158   0.290   8.264 -0.1730 -0.8123  0.9627
 8347SOL     OW36502   3.666   3.933   3.403  0.3445 -0.1300 -0.4626
 8347SOL    HW136503   3.744   3.883   3.426 -0.5371  0.1528  3.1541
 8347SOL    HW236504   3.603   3.890   3.461  0.5471  0.3769  0.1294
 8348SOL     OW36505   0.532   0.900   9.390 -0.2025  0.1151 -0.1597
 8348SOL    HW136506   0.495   0.882   9.477 -1.0548  0.4877 -0.4442
 8348SOL    HW236507   0.468   0.850   9.339  1.5553 -0.3334 -1.9573
 8349SOL     OW36508   2.076   2.633  14.650 -0.5752  0.5509 -0.0380
 8349SOL    HW136509   2.018   2.699  14.686 -1.6420 -0.7396  0.6066
 8349SOL    HW236510   2.061   2.625  14.556  0.8881  0.4883 -0.2693
 8350SOL     OW36511   1.170   4.487   5.566 -0.5731  0.7597 -0.1849
 8350SOL    HW136512   1.163   4.556   5.632  0.3703 -0.4040  1.1567
 8350SOL    HW236513   1.143   4.542   5.492 -0.0999  0.5648 -0.4983
 8351SOL     OW36514   1.835   3.192   9.189 -0.3821 -0.0375  0.5318
 8351SOL    HW136515   1.924   3.216   9.165 -0.3852  3.1981  3.7696
 8351SOL    HW236516   1.787   3.247   9.127 -1.5222 -0.0567  1.4087
 8352SOL     OW36517   3.563   1.128   1.025  0.4367 -0.2490 -0.5586
 8352SOL    HW136518   3.473   1.146   1.052  0.9452  2.1332 -0.4717
 8352SOL    HW236519   3.603   1.207   1.062  2.4131 -0.8976 -1.3364
 8353SOL     OW36520   2.295   3.999  11.132 -0.3247  0.0058  0.4557
 8353SOL    HW136521   2.299   3.979  11.039  1.0206 -1.5804  0.8468
 8353SOL    HW236522   2.219   3.950  11.165 -1.0131  2.2209  2.1347
 8354SOL     OW36523   4.721   2.108   3.667 -0.1091 -0.1004 -0.2608
 8354SOL    HW136524   4.654   2.170   3.640 -0.7752 -0.6242  0.1966
 8354SOL    HW236525   4.666   2.032   3.684 -1.7871  1.7309  2.5363
 8355SOL     OW36526   2.002   2.246   5.449 -0.2649 -0.0298  0.2794
 8355SOL    HW136527   1.984   2.223   5.540  1.9030  3.7382  1.6640
 8355SOL    HW236528   2.006   2.341   5.463  1.5972  0.1910 -1.6700
 8356SOL     OW36529   0.870   4.453   7.712  0.4862 -0.5303  0.2276
 8356SOL    HW136530   0.801   4.409   7.662 -0.8689  0.3378  1.3546
 8356SOL    HW236531   0.902   4.374   7.756  0.6417 -0.0252  1.0175
 8357SOL     OW36532   1.481   2.702   1.179 -0.4883 -0.4496 -0.1361
 8357SOL    HW136533   1.574   2.704   1.159 -0.3143 -1.8228  0.4944
 8357SOL    HW236534   1.454   2.647   1.105  1.6061  0.7464 -1.7878
 8358SOL     OW36535   4.602   2.875  14.762  0.2367  0.0613  0.2913
 8358SOL    HW136536   4.665   2.878  14.690  1.0168  0.9955  0.9969
 8358SOL    HW236537   4.653   2.835  14.832 -0.8787 -2.1231 -0.1516
 8359SOL     OW36538   4.321   2.872   2.083 -0.1184 -0.1929  0.2389
 8359SOL    HW136539   4.322   2.815   2.007 -1.4938 -2.1866  1.7039
 8359SOL    HW236540   4.342   2.813   2.156 -0.2077 -0.3062  0.1722
 8360SOL     OW36541   2.997   0.819   6.662 -0.4986  0.2419 -0.2914
 8360SOL    HW136542   2.941   0.750   6.625  0.7052  0.1543 -1.9890
 8360SOL    HW236543   2.981   0.889   6.598  2.2986  2.3093  1.2589
 8361SOL     OW36544   3.799   1.180   7.309 -0.1313 -0.4775 -0.7686
 8361SOL    HW136545   3.821   1.259   7.357 -0.2286 -0.1439 -1.2706
 8361SOL    HW236546   3.871   1.118   7.316 -0.6545 -1.0495 -0.4585
 8362SOL     OW36547   2.910   4.413   5.550 -0.0095  0.3947  0.1763
 8362SOL    HW136548   2.871   4.493   5.515  1.4960  1.5375  1.1121
 8362SOL    HW236549   3.001   4.441   5.553 -0.0299  0.3044  1.6035
 8363SOL     OW36550   3.893   0.935   5.109  0.2998  0.0469  0.0314
 8363SOL    HW136551   3.802   0.927   5.079  1.2031  0.8310 -2.9166
 8363SOL    HW236552   3.892   0.888   5.192  0.1081 -0.7081 -0.3925
 8364SOL     OW36553   3.963   4.230   9.239 -0.4443 -0.5596  0.1504
 8364SOL    HW136554   3.903   4.296   9.272 -0.6133 -1.2549  1.2424
 8364SOL    HW236555   4.049   4.271   9.242 -0.6228 -0.2021  0.3155
 8365SOL     OW36556   2.178   1.617   8.606 -0.4861 -0.1693 -0.1276
 8365SOL    HW136557   2.150   1.543   8.553  0.3984 -0.8436  0.3481
 8365SOL    HW236558   2.270   1.594   8.621  0.1386  0.0538 -3.5078
 8366SOL     OW36559   0.755   0.760  14.896 -0.3717 -0.3292  0.0844
 8366SOL    HW136560   0.752   0.700  14.970 -0.9060 -1.0201 -0.4943
 8366SOL    HW236561   0.848   0.781  14.898 -0.3106 -0.9158  3.0990
 8367SOL     OW36562   1.467   1.172   3.923 -0.0627  0.5095 -0.3566
 8367SOL    HW136563   1.435   1.178   4.013 -1.1096 -2.4110 -0.5292
 8367SOL    HW236564   1.413   1.241   3.885  0.1888  1.4983  1.0696
 8368SOL     OW36565   4.296   4.072   7.772  0.3466  0.2500 -0.3120
 8368SOL    HW136566   4.311   4.091   7.679  0.6731 -0.1945 -0.3481
 8368SOL    HW236567   4.202   4.059   7.767  0.2286  0.8478  0.3709
 8369SOL     OW36568   3.383   2.534   6.109  0.7194  0.6654 -0.3098
 8369SOL    HW136569   3.355   2.523   6.200  0.2217 -1.1074 -0.6679
 8369SOL    HW236570   3.479   2.539   6.108  0.7103  0.8368 -0.2639
 8370SOL     OW36571   3.159   0.309  14.576  0.2449 -0.2618  0.0767
 8370SOL    HW136572   3.081   0.287  14.627 -0.0102  0.5983  0.0435
 8370SOL    HW236573   3.218   0.359  14.633 -1.0293 -0.8036  1.8754
 8371SOL     OW36574   4.065   2.369   0.228  0.0549 -0.1218  0.1570
 8371SOL    HW136575   3.995   2.417   0.184  0.0733  0.8206  1.1335
 8371SOL    HW236576   4.012   2.331   0.298 -1.3263 -0.3450 -1.0060
 8372SOL     OW36577   3.997   2.004   4.212 -0.2305 -0.0931  0.5997
 8372SOL    HW136578   4.081   1.982   4.171 -1.0331  3.7042 -3.0472
 8372SOL    HW236579   3.995   1.940   4.283  3.5884  0.8542  1.5543
 8373SOL     OW36580   0.548   2.447  10.178 -0.3095 -0.2978  0.0207
 8373SOL    HW136581   0.641   2.428  10.166  0.2567  1.0712  2.3829
 8373SOL    HW236582   0.543   2.514  10.246  2.2148 -1.6943  1.5902
 8374SOL     OW36583   2.637   2.746   2.978  0.2989 -0.0165  0.0481
 8374SOL    HW136584   2.574   2.718   2.911 -1.0834 -1.1294  1.8132
 8374SOL    HW236585   2.601   2.712   3.059 -1.0728  1.0272 -0.1121
 8375SOL     OW36586   4.539   0.399   4.821  0.3712  0.1752 -0.2607
 8375SOL    HW136587   4.517   0.307   4.835 -0.9688  0.4278 -0.7179
 8375SOL    HW236588   4.634   0.392   4.831  0.4386 -0.1751 -1.0820
 8376SOL     OW36589   0.616   0.884  10.790  0.1616  0.5303  0.0795
 8376SOL    HW136590   0.674   0.929  10.729  0.4754  1.1991  0.8757
 8376SOL    HW236591   0.574   0.830  10.723 -0.9143 -1.4121  2.3328
 8377SOL     OW36592   2.250   3.102   6.779  0.0050  0.2162 -0.5250
 8377SOL    HW136593   2.225   3.021   6.734 -1.4924  1.0909 -1.2564
 8377SOL    HW236594   2.258   3.158   6.702 -2.0608  1.2196 -0.0252
 8378SOL     OW36595   4.405   2.347  12.370 -0.9350  0.1649 -0.4889
 8378SOL    HW136596   4.333   2.393  12.326 -0.5131  3.1989  2.0052
 8378SOL    HW236597   4.452   2.310  12.295 -1.0844  1.9209 -1.4438
 8379SOL     OW36598   0.658   1.623   8.131  0.5253  0.8148  0.6483
 8379SOL    HW136599   0.657   1.533   8.098  1.4252  1.9301 -2.4166
 8379SOL    HW236600   0.745   1.617   8.170  0.3567  0.5395  0.9826
 8380SOL     OW36601   2.265   4.721   1.234  0.2428 -0.1595 -0.3171
 8380SOL    HW136602   2.296   4.647   1.182  0.7722 -1.6626  2.1013
 8380SOL    HW236603   2.228   0.047   1.161  2.0807  0.7440 -0.6363
 8381SOL     OW36604   1.227   3.967  12.674  0.0967  0.1099  0.6921
 8381SOL    HW136605   1.174   3.990  12.750  0.6517  0.6730  0.9121
 8381SOL    HW236606   1.305   4.000  12.718  1.3321 -1.1213 -0.5664
 8382SOL     OW36607   1.489   2.222   5.690  0.2013 -0.4450 -0.1434
 8382SOL    HW136608   1.561   2.245   5.631  1.3603 -0.2562  1.3246
 8382SOL    HW236609   1.420   2.271   5.646  1.6150 -0.5917 -2.5059
 8383SOL     OW36610   2.156   2.424   9.313  0.2212 -0.5942  0.2078
 8383SOL    HW136611   2.221   2.359   9.285 -0.1522 -2.1759  3.0650
 8383SOL    HW236612   2.132   2.398   9.402  0.3100 -0.4062  0.2868
 8384SOL     OW36613   1.461   4.299  11.198 -0.1698  0.0176  0.0688
 8384SOL    HW136614   1.388   4.258  11.244 -1.0580  2.0577  0.4848
 8384SOL    HW236615   1.408   4.370  11.162  2.0046  1.3562 -0.4836
 8385SOL     OW36616   0.057   3.372   4.309 -0.2831 -0.0460  0.7399
 8385SOL    HW136617   4.701   3.424   4.306  0.2932  0.8252  0.5917
 8385SOL    HW236618   0.107   3.447   4.279 -1.0172 -0.0252 -0.4253
 8386SOL     OW36619   2.062   0.178   8.902  0.3210 -0.0808  0.2936
 8386SOL    HW136620   1.974   0.143   8.916  0.1113  0.6306  0.7854
 8386SOL    HW236621   2.101   0.100   8.863 -1.7708 -0.3721 -1.1538
 8387SOL     OW36622   4.337   4.186  12.261  0.2012  0.1766 -0.3385
 8387SOL    HW136623   4.319   4.122  12.331 -0.3604  0.8015  0.0827
 8387SOL    HW236624   4.369   4.263  12.309 -2.7785  0.0180  1.9211
 8388SOL     OW36625   2.516   0.521   2.391  0.3307 -0.6323  0.1305
 8388SOL    HW136626   2.435   0.493   2.348 -0.0774  2.4812 -1.1825
 8388SOL    HW236627   2.556   0.436   2.405  1.5562  0.1057  1.1097
 8389SOL     OW36628   3.777   3.087   7.767 -0.1334  0.2265 -0.5972
 8389SOL    HW136629   3.844   3.031   7.807 -1.5293 -0.7395  0.4014
 8389SOL    HW236630   3.787   3.057   7.677  0.1604  0.7644 -0.7428
 8390SOL     OW36631   3.593   3.641   5.542 -0.0601 -0.3591 -0.3406
 8390SOL    HW136632   3.600   3.546   5.552  1.2957 -0.0716  1.5072
 8390SOL    HW236633   3.500   3.658   5.528  0.2102  2.4648  1.2641
 8391SOL     OW36634   3.294   0.268   9.589  0.0311  0.0880  0.1340
 8391SOL    HW136635   3.283   0.347   9.643  1.0063  0.5442 -0.3332
 8391SOL    HW236636   3.218   0.210   9.596 -0.6936  0.8796 -1.2495
 8392SOL     OW36637   1.692   4.674  11.266 -0.1767 -0.5603 -0.7456
 8392SOL    HW136638   1.702   4.665  11.361 -0.4080 -1.1347 -0.7795
 8392SOL    HW236639   1.692   4.582  11.241  0.8381 -0.3168 -1.6839
 8393SOL     OW36640   4.489   1.752  12.413 -0.4803 -0.3532  0.8987
 8393SOL    HW136641   4.468   1.741  12.506  2.0492 -0.8412  1.3970
 8393SOL    HW236642   4.583   1.766  12.416 -0.3842 -0.2792 -2.5509
 8394SOL     OW36643   3.642   2.524   6.372  0.0876  0.0447 -0.3289
 8394SOL    HW136644   3.728   2.548   6.335 -0.0960 -0.8434 -1.3341
 8394SOL    HW236645   3.659   2.432   6.392  1.1820  0.4170  0.4587
 8395SOL     OW36646   2.388   2.180   4.319  0.4753  0.4439  0.1942
 8395SOL    HW136647   2.295   2.179   4.341  0.1704 -2.6272 -1.1812
 8395SOL    HW236648   2.384   2.162   4.225 -2.4343 -0.5953  0.5273
 8396SOL     OW36649   1.222   2.853  17.041 -0.5154  0.4230 -0.4837
 8396SOL    HW136650   1.129   2.837  17.024 -0.4693  0.8139 -1.0940
 8396SOL    HW236651   1.221   2.947  17.062 -1.9707 -0.0460  1.6116
 8397SOL     OW36652   4.214   0.423   5.981  0.7877 -0.1139  0.0433
 8397SOL    HW136653   4.257   0.480   5.918  0.2335  3.1911  2.6260
 8397SOL    HW236654   4.254   0.337   5.964 -1.3905 -0.7716 -1.7187
 8398SOL     OW36655   2.161   2.296  15.137  0.0016 -0.6987 -0.0920
 8398SOL    HW136656   2.154   2.201  15.147  3.1413 -0.7578  1.3101
 8398SOL    HW236657   2.147   2.323  15.227 -0.6093  0.0228 -0.4041
 8399SOL     OW36658   1.783   4.123   0.898  0.7824  0.4822 -0.1068
 8399SOL    HW136659   1.777   4.036   0.859  0.3394  0.5945 -0.2929
 8399SOL    HW236660   1.750   4.177   0.825 -0.6240  0.5021  0.5582
 8400SOL     OW36661   0.143   1.930   5.829 -0.2296  0.1845 -0.3391
 8400SOL    HW136662   0.190   1.935   5.746  1.1289 -1.2755  0.3337
 8400SOL    HW236663   0.211   1.919   5.895  1.6601 -2.5668 -2.7801
 8401SOL     OW36664   0.992   0.121  11.015  0.2989 -0.1225  0.1825
 8401SOL    HW136665   0.980   0.214  11.036  1.0900 -1.0471  4.6708
 8401SOL    HW236666   0.926   0.080  11.070 -1.7492  0.0773 -2.1143
 8402SOL     OW36667   4.116   0.082  17.372  0.0680  0.0293  0.0088
 8402SOL    HW136668   4.135   0.173  17.394 -1.8058  0.6566 -0.9497
 8402SOL    HW236669   4.057   0.064  17.445  1.0775 -1.1181  0.5359
 8403SOL     OW36670   2.385   2.780   8.526 -0.0165 -0.2935 -0.1903
 8403SOL    HW136671   2.455   2.719   8.550  0.4769  0.8217  1.1570
 8403SOL    HW236672   2.422   2.863   8.555 -3.0993  0.4099  1.7312
 8404SOL     OW36673   2.549   3.683   6.655 -0.1620 -0.5337 -0.2575
 8404SOL    HW136674   2.547   3.772   6.692 -0.5579 -0.8445  0.4706
 8404SOL    HW236675   2.457   3.658   6.642  0.2414 -1.7061 -0.8607
 8405SOL     OW36676   4.707   0.361   2.653 -0.0705  0.0838  0.0411
 8405SOL    HW136677   0.058   0.403   2.696  0.3011  0.3160 -0.8284
 8405SOL    HW236678   4.646   0.435   2.646 -0.1641  0.0480  0.4756
 8406SOL     OW36679   2.613   1.074   1.245 -0.2182  0.4028 -0.1898
 8406SOL    HW136680   2.590   1.010   1.178  1.1368  0.7228 -0.9533
 8406SOL    HW236681   2.530   1.081   1.293  0.5881  1.2115  1.0967
 8407SOL     OW36682   4.309   0.183  13.504 -0.2639 -0.2705 -0.0358
 8407SOL    HW136683   4.304   0.214  13.594 -1.8002  0.1464 -0.2695
 8407SOL    HW236684   4.230   0.129  13.508 -1.5953  1.5944 -0.7897
 8408SOL     OW36685   4.433   1.007   6.609 -0.1336 -0.4823 -0.3248
 8408SOL    HW136686   4.505   0.957   6.570 -0.1078 -1.1678  0.5811
 8408SOL    HW236687   4.391   1.050   6.534  2.3955  3.0261  0.3023
 8409SOL     OW36688   1.312   3.582   3.910  0.1273  0.2622 -0.5882
 8409SOL    HW136689   1.227   3.545   3.931  0.3345 -2.1556 -3.8903
 8409SOL    HW236690   1.351   3.577   3.997 -2.1182 -0.2490  0.3960
 8410SOL     OW36691   0.546   1.220   7.883  0.4255 -0.2821 -0.2521
 8410SOL    HW136692   0.623   1.205   7.827  0.4496 -1.3021  0.0476
 8410SOL    HW236693   0.588   1.268   7.955 -0.1154 -0.4681  0.1845
 8411SOL     OW36694   4.397   1.563  16.432  0.1771  0.5200  0.0339
 8411SOL    HW136695   4.352   1.623  16.372  2.9042  3.2304  0.7141
 8411SOL    HW236696   4.384   1.619  16.509 -2.5100 -0.0223 -0.0332
 8412SOL     OW36697   4.269   3.018   7.872  0.1660  0.0571 -0.0435
 8412SOL    HW136698   4.226   3.101   7.848 -2.1522 -0.3134  2.7732
 8412SOL    HW236699   4.289   3.041   7.962  0.4808 -1.2343  0.2078
 8413SOL     OW36700   1.600   0.876   5.605 -0.1622  0.0684  0.2713
 8413SOL    HW136701   1.569   0.965   5.619 -1.2794 -0.4237  0.9023
 8413SOL    HW236702   1.690   0.871   5.637 -0.2142 -1.1301  0.2488
 8414SOL     OW36703   3.241   2.309   9.399  0.3442  0.5178 -1.0447
 8414SOL    HW136704   3.261   2.216   9.410 -2.7429  0.2192  1.9388
 8414SOL    HW236705   3.297   2.339   9.326  1.2249 -0.3003 -0.7041
 8415SOL     OW36706   3.656   2.690   7.721  0.4464  0.0414 -0.1671
 8415SOL    HW136707   3.686   2.759   7.781  0.4699  2.5915 -3.1063
 8415SOL    HW236708   3.714   2.680   7.646  0.6644 -0.2895  0.0492
 8416SOL     OW36709   0.387   4.157  14.287  0.3076  0.4036  0.4037
 8416SOL    HW136710   0.296   4.178  14.308  0.1121 -0.8657  0.8182
 8416SOL    HW236711   0.422   4.243  14.308 -0.6627  0.9010 -0.0138
 8417SOL     OW36712   4.167   1.616  13.546  0.3399  0.2578 -0.9425
 8417SOL    HW136713   4.169   1.604  13.641 -0.7799 -1.2182 -1.1175
 8417SOL    HW236714   4.075   1.640  13.533 -0.3281 -1.5035  0.5107
 8418SOL     OW36715   0.517   0.561   5.287  0.0387  0.0053 -0.0522
 8418SOL    HW136716   0.552   0.491   5.233 -2.2468 -1.3976  0.2652
 8418SOL    HW236717   0.507   0.631   5.223 -1.4865  1.2484  1.5221
 8419SOL     OW36718   3.686   1.817   2.036 -0.0000 -0.4567 -0.0179
 8419SOL    HW136719   3.750   1.887   2.022 -1.1757  1.0242  1.9877
 8419SOL    HW236720   3.709   1.776   2.120  0.2529  0.6024  0.4359
 8420SOL     OW36721   1.626   0.798   0.793  0.2222  0.8057 -0.4104
 8420SOL    HW136722   1.595   0.718   0.836 -0.0170  0.8114 -0.5655
 8420SOL    HW236723   1.688   0.762   0.730  0.6973 -0.4438  0.7800
 8421SOL     OW36724   2.659   4.212  11.384  0.0841 -0.1302  0.0596
 8421SOL    HW136725   2.624   4.219  11.473  1.2414  0.8982  0.4387
 8421SOL    HW236726   2.572   4.224  11.346 -0.2429  0.8809  1.1119
 8422SOL     OW36727   3.349   3.619  12.523 -0.0954 -0.8601  0.3857
 8422SOL    HW136728   3.326   3.698  12.474  2.0330 -0.6974 -0.3482
 8422SOL    HW236729   3.443   3.636  12.532  0.1097 -0.6496 -2.1132
 8423SOL     OW36730   0.910   2.915   6.423 -0.7743  0.2112  0.1015
 8423SOL    HW136731   0.992   2.934   6.469 -0.6679 -1.6430  0.6880
 8423SOL    HW236732   0.895   2.826   6.456  2.7009 -0.3516  0.2288
 8424SOL     OW36733   4.087   1.004   7.043 -0.5742  0.1034 -0.2715
 8424SOL    HW136734   4.079   0.913   7.015 -0.0709  0.6864 -2.3584
 8424SOL    HW236735   4.180   1.014   7.025 -0.3911 -1.8995 -0.4571
 8425SOL     OW36736   0.680   3.262   7.227  0.1345  0.6042  0.4932
 8425SOL    HW136737   0.595   3.221   7.211  0.1319  0.4129  1.0014
 8425SOL    HW236738   0.745   3.210   7.180  0.1148  0.0093  1.1313
 8426SOL     OW36739   0.225   3.075   8.794 -0.0328  0.1320  0.0939
 8426SOL    HW136740   0.213   3.060   8.887 -0.9364  0.6554  0.0559
 8426SOL    HW236741   0.209   3.168   8.781 -0.7367  0.1688  1.2570
 8427SOL     OW36742   2.155   1.331   9.187  0.0648  0.3685 -0.3069
 8427SOL    HW136743   2.144   1.415   9.143 -0.1021 -0.0848 -1.1244
 8427SOL    HW236744   2.227   1.301   9.131  0.7173  0.7785  0.3160
 8428SOL     OW36745   0.237   1.242   8.368  0.2192 -0.0658 -0.2905
 8428SOL    HW136746   0.246   1.335   8.351 -1.2763  0.4028  1.3710
 8428SOL    HW236747   0.144   1.224   8.353  0.7685 -0.3363 -3.3343
 8429SOL     OW36748   3.480   3.078  14.440  0.0409  0.5867 -0.6790
 8429SOL    HW136749   3.427   3.011  14.483  0.1848  1.1320  0.3523
 8429SOL    HW236750   3.419   3.119  14.379 -3.0912 -1.4697  1.1290
 8430SOL     OW36751   3.111   3.539   5.509 -0.1289  0.1234 -0.2687
 8430SOL    HW136752   3.036   3.585   5.547 -1.3977 -1.8494 -0.3673
 8430SOL    HW236753   3.090   3.529   5.416  2.9349  1.4748 -1.0958
 8431SOL     OW36754   2.284   1.058   9.153 -0.2772 -0.0240  0.4421
 8431SOL    HW136755   2.232   1.034   9.076  1.0765 -2.1435  0.1994
 8431SOL    HW236756   2.375   1.052   9.122 -0.2888 -0.8992  0.5793
 8432SOL     OW36757   4.213   0.753   3.023 -0.0608  0.0840 -0.2072
 8432SOL    HW136758   4.126   0.793   3.017 -1.2198 -2.5366 -0.9308
 8432SOL    HW236759   4.252   0.782   2.941  1.5191 -1.6007 -0.0591
 8433SOL     OW36760   0.067   2.589   6.892  0.8333  0.3840 -0.0339
 8433SOL    HW136761   0.149   2.636   6.883  0.2034  1.3235 -0.8647
 8433SOL    HW236762   0.099   2.499   6.886  1.6814  0.6415  0.6370
 8434SOL     OW36763   1.070   2.651   4.304 -0.4617  0.2450 -0.0675
 8434SOL    HW136764   1.051   2.637   4.397  2.3447 -0.8668  0.3415
 8434SOL    HW236765   0.976   2.661   4.286 -0.2537  1.6840 -0.2975
 8435SOL     OW36766   4.481   2.317  11.846  0.0654  0.1886 -0.2791
 8435SOL    HW136767   4.480   2.242  11.786  2.0942 -0.7446  0.8540
 8435SOL    HW236768   4.574   2.340  11.838 -0.2422  1.0335 -1.3514
 8436SOL     OW36769   1.256   0.255   4.480  0.0596 -0.1810  0.5498
 8436SOL    HW136770   1.178   0.278   4.429  0.0654 -0.3534  0.4627
 8436SOL    HW236771   1.317   0.317   4.440  0.3041 -0.7536  0.0223
 8437SOL     OW36772   2.070   4.610   8.063 -0.3682  0.4590  0.2424
 8437SOL    HW136773   2.062   4.686   8.120  0.0051  0.7665 -0.1152
 8437SOL    HW236774   2.054   4.648   7.977 -0.2596  1.9320  0.8821
 8438SOL     OW36775   1.452   2.984   2.693  0.3403 -0.4241  0.7246
 8438SOL    HW136776   1.406   3.057   2.653  0.7270 -0.2811  0.5345
 8438SOL    HW236777   1.522   2.975   2.627  0.6970 -1.1234  1.1935
 8439SOL     OW36778   3.273   3.893   9.178  0.0897 -0.0440  0.6031
 8439SOL    HW136779   3.292   3.904   9.271  1.3886  4.6695 -0.1913
 8439SOL    HW236780   3.276   3.798   9.171 -0.8139  0.0505 -1.0807
 8440SOL     OW36781   1.679   1.993  17.024 -0.1472  0.1884 -0.2289
 8440SOL    HW136782   1.722   2.022  16.944  0.4664 -1.4126 -0.4625
 8440SOL    HW236783   1.728   1.912  17.040  1.0926  1.1492  0.9002
 8441SOL     OW36784   0.678   3.450   1.887  0.2098  0.8280 -0.2639
 8441SOL    HW136785   0.614   3.520   1.872 -0.0148  0.5227 -0.7374
 8441SOL    HW236786   0.685   3.415   1.798  0.3386  2.2949 -0.8353
 8442SOL     OW36787   3.755   0.643   2.780 -0.8320  0.7724 -0.7229
 8442SOL    HW136788   3.719   0.686   2.857 -0.8738 -1.3226  0.4274
 8442SOL    HW236789   3.684   0.655   2.716 -2.1528 -0.3351  0.5350
 8443SOL     OW36790   2.077   0.214   1.094  0.1368 -0.0247 -0.7627
 8443SOL    HW136791   2.105   0.188   1.006 -1.1915 -1.4490 -0.7682
 8443SOL    HW236792   2.046   0.302   1.072 -0.2928 -0.2314 -0.9944
 8444SOL     OW36793   0.843   2.457   1.634  0.2120 -0.0608 -0.0484
 8444SOL    HW136794   0.798   2.373   1.636 -0.9721  0.5366 -1.6804
 8444SOL    HW236795   0.909   2.441   1.701  0.6839 -1.5004 -0.8675
 8445SOL     OW36796   2.245   4.686   2.581  0.8128  0.5214  0.2266
 8445SOL    HW136797   2.264   0.021   2.507  4.2807  0.2080  0.8862
 8445SOL    HW236798   2.233   4.602   2.535 -1.1388  0.8832  0.0363
 8446SOL     OW36799   3.702   0.314   4.196  0.2487 -0.1416  0.0525
 8446SOL    HW136800   3.786   0.277   4.167  1.4979 -0.3244  3.8043
 8446SOL    HW236801   3.658   0.293   4.114  1.9386 -0.5039 -0.7531
 8447SOL     OW36802   2.895   2.314   4.077 -1.0158  0.0064 -0.0433
 8447SOL    HW136803   2.953   2.292   4.004 -1.7457 -2.3506  0.0968
 8447SOL    HW236804   2.951   2.300   4.153  1.9577 -0.8807 -2.3921
 8448SOL     OW36805   0.188   4.392   5.108 -0.4784 -0.5489 -0.5654
 8448SOL    HW136806   0.112   4.437   5.144 -0.3748 -0.3811 -0.5538
 8448SOL    HW236807   0.158   4.373   5.019  1.4415 -0.2544 -1.2938
 8449SOL     OW36808   3.294   3.629   0.228 -0.0641 -0.0344  0.2889
 8449SOL    HW136809   3.230   3.645   0.159  0.7629  2.1477  0.0256
 8449SOL    HW236810   3.253   3.557   0.276 -0.8313 -0.1040 -0.4729
 8450SOL     OW36811   3.058   0.949   3.097  0.1852  0.1767  0.0770
 8450SOL    HW136812   2.972   0.990   3.105 -0.5214 -1.3713  0.1951
 8450SOL    HW236813   3.106   0.977   3.175  0.2360 -1.6887  0.7023
 8451SOL     OW36814   0.773   0.602  12.373  0.1484  0.7172  0.0836
 8451SOL    HW136815   0.841   0.547  12.333 -0.0601  1.3824 -1.1590
 8451SOL    HW236816   0.712   0.535  12.405  0.6659 -0.3506 -1.1303
 8452SOL     OW36817   3.553   2.241   1.921  0.0277  0.1102  0.4062
 8452SOL    HW136818   3.465   2.220   1.888 -0.2762  1.3527  0.4285
 8452SOL    HW236819   3.551   2.205   2.010  0.1460 -0.3540  0.2240
 8453SOL     OW36820   3.020   2.479   5.712 -0.3250 -0.1028  0.5992
 8453SOL    HW136821   2.930   2.484   5.745 -1.2150 -2.6623 -1.4731
 8453SOL    HW236822   3.074   2.505   5.786 -0.7233  0.4588  0.6932
 8454SOL     OW36823   3.776   0.149   7.539  0.1386 -0.0865 -1.0198
 8454SOL    HW136824   3.715   0.205   7.587 -0.6128 -2.0579  0.3432
 8454SOL    HW236825   3.744   0.065   7.571 -0.3793  0.4091 -0.2412
 8455SOL     OW36826   4.050   2.091   7.158  0.1898 -0.0199  0.0048
 8455SOL    HW136827   4.146   2.092   7.153  0.1595  2.8546  0.4041
 8455SOL    HW236828   4.027   2.086   7.251  2.0173 -0.8246  0.4258
 8456SOL     OW36829   0.081   1.731   5.299 -0.3132  0.5644 -0.4872
 8456SOL    HW136830   0.137   1.656   5.280 -0.8034  0.1445 -0.2784
 8456SOL    HW236831   0.016   1.711   5.233 -0.4844 -1.8740  0.4444
 8457SOL     OW36832   4.229   0.373   5.384  0.6945 -0.4970  0.3069
 8457SOL    HW136833   4.193   0.343   5.468  1.0519  0.1930  0.7034
 8457SOL    HW236834   4.247   0.465   5.403  0.1351 -0.4669  0.6970
 8458SOL     OW36835   0.688   1.151   9.230  0.4393 -0.4113  0.2982
 8458SOL    HW136836   0.620   1.202   9.187  0.1943 -0.0353  1.1375
 8458SOL    HW236837   0.754   1.219   9.242 -1.9798  1.4504  3.3432
 8459SOL     OW36838   2.704   2.683   6.355  0.2047 -0.2585 -0.2413
 8459SOL    HW136839   2.675   2.654   6.441  1.8747 -4.7934 -1.2231
 8459SOL    HW236840   2.754   2.606   6.329  1.4026 -0.1821  1.8044
 8460SOL     OW36841   0.115   2.670   9.019 -0.6524  0.2861 -0.0168
 8460SOL    HW136842   0.037   2.698   8.970 -0.7930  3.5652  2.0617
 8460SOL    HW236843   0.079   2.591   9.058 -0.6921 -0.8201 -2.2972
 8461SOL     OW36844   0.086   0.786   4.593  0.4760  0.1956  0.2769
 8461SOL    HW136845   0.132   0.719   4.544  2.7809  2.0622 -0.1127
 8461SOL    HW236846   0.058   0.847   4.525  2.6450  0.2440 -0.5644
 8462SOL     OW36847   0.291   4.623  14.663  0.5198 -0.2170 -0.6147
 8462SOL    HW136848   0.303   4.698  14.605  0.1826  0.7977  0.6399
 8462SOL    HW236849   0.368   4.627  14.719  2.2837 -0.5998 -2.9966
 8463SOL     OW36850   3.205   1.860   2.294  0.2006  0.0244  0.4282
 8463SOL    HW136851   3.154   1.937   2.272  1.2156  0.3991 -0.5985
 8463SOL    HW236852   3.142   1.788   2.283  0.3326 -0.0581  0.2065
 8464SOL     OW36853   4.421   3.348   6.159  0.1061 -0.4339  0.1071
 8464SOL    HW136854   4.360   3.318   6.226  0.5862 -1.2091  0.2074
 8464SOL    HW236855   4.351   3.377   6.101  1.3825 -1.5103 -1.9882
 8465SOL     OW36856   1.893   2.443   1.130  0.4208 -0.1234  0.7802
 8465SOL    HW136857   1.830   2.489   1.185  1.8566  1.4292  1.1315
 8465SOL    HW236858   1.841   2.428   1.051  0.7786 -0.9793  0.7000
 8466SOL     OW36859   3.767   2.952   2.938  0.0035 -0.1780 -0.1535
 8466SOL    HW136860   3.776   2.983   3.028  0.0707 -1.4485  0.2707
 8466SOL    HW236861   3.727   3.033   2.905  0.3521 -0.1290 -0.4559
 8467SOL     OW36862   0.503   1.901   7.322  0.2062  0.1295  0.1707
 8467SOL    HW136863   0.412   1.924   7.302  0.1554 -0.6276 -0.4717
 8467SOL    HW236864   0.544   1.890   7.236 -1.1258 -1.8269 -0.2083
 8468SOL     OW36865   3.802   1.597   3.135  0.1769  0.4999 -0.1107
 8468SOL    HW136866   3.818   1.690   3.151 -1.3294  0.3711  2.0619
 8468SOL    HW236867   3.739   1.577   3.204 -1.7923  0.0320 -2.0214
 8469SOL     OW36868   4.500   0.162   0.936 -0.3853 -0.0348 -0.4695
 8469SOL    HW136869   4.436   0.093   0.955 -1.1774  1.5023  2.4275
 8469SOL    HW236870   4.567   0.150   1.004 -1.2830 -0.0591  0.4209
 8470SOL     OW36871   0.250   4.524   7.251 -0.4097  0.4208 -0.1624
 8470SOL    HW136872   0.222   4.510   7.160 -0.3654  1.7830 -0.3836
 8470SOL    HW236873   0.176   4.485   7.298  0.5063 -0.4532  0.5441
 8471SOL     OW36874   1.747   1.189   7.092  0.0296  0.1781 -0.3064
 8471SOL    HW136875   1.795   1.242   7.028  1.0018  1.1606  1.2386
 8471SOL    HW236876   1.744   1.239   7.174  2.2426 -0.2325  0.0351
 8472SOL     OW36877   2.264   2.938   7.899  0.6758  0.0925  0.1875
 8472SOL    HW136878   2.241   2.951   7.991  2.1764  0.6827  0.4756
 8472SOL    HW236879   2.359   2.937   7.907  0.7694 -1.2905 -1.0975
 8473SOL     OW36880   0.319   3.255   3.193 -0.2045 -0.3045  0.0225
 8473SOL    HW136881   0.346   3.240   3.284 -2.7524 -0.6413  0.7263
 8473SOL    HW236882   0.235   3.301   3.193  0.1637  0.3856 -0.4128
 8474SOL     OW36883   0.002   0.901   5.333 -0.0638 -0.1513 -0.8610
 8474SOL    HW136884   0.098   0.903   5.331 -0.0789 -0.0455 -1.4268
 8474SOL    HW236885   4.711   0.828   5.394  1.0385  0.9902  0.7937
 8475SOL     OW36886   0.558   1.889   6.787 -1.0254 -0.0705  0.2732
 8475SOL    HW136887   0.526   1.910   6.699  1.8796 -1.8851 -1.1962
 8475SOL    HW236888   0.639   1.939   6.780  0.2939 -2.2126  0.1482
 8476SOL     OW36889   0.835   4.323   8.669 -0.9868 -0.3720  0.0408
 8476SOL    HW136890   0.772   4.319   8.597 -1.8287 -1.8558  0.8591
 8476SOL    HW236891   0.863   4.414   8.669  0.8981 -0.9512 -0.2382
 8477SOL     OW36892   2.475   2.561  17.069  0.0042 -0.0660 -0.2089
 8477SOL    HW136893   2.463   2.489  17.007 -4.4157 -1.1870  1.9042
 8477SOL    HW236894   2.463   2.517  17.153 -0.5943  1.1820  0.3593
 8478SOL     OW36895   4.103   3.461   5.797 -0.0358  0.3381 -0.1695
 8478SOL    HW136896   4.102   3.397   5.868  0.1705  0.7147  0.1738
 8478SOL    HW236897   4.044   3.520   5.843  0.1529 -0.9128  1.6645
 8479SOL     OW36898   0.941   3.914   9.312 -0.4807  0.0457 -0.3828
 8479SOL    HW136899   0.893   3.987   9.352  2.3736  0.6682  1.9337
 8479SOL    HW236900   0.873   3.848   9.297 -0.3135 -0.6242  1.8454
 8480SOL     OW36901   1.163   0.245   2.920  0.1008  0.4529  0.1021
 8480SOL    HW136902   1.086   0.200   2.955  0.3389 -0.5802 -0.7241
 8480SOL    HW236903   1.144   0.237   2.827  3.7953 -0.0112 -0.6174
 8481SOL     OW36904   0.866   4.246  10.232 -0.1713 -0.1096  0.0414
 8481SOL    HW136905   0.874   4.331  10.190  1.3997  0.6172  1.8183
 8481SOL    HW236906   0.831   4.268  10.318 -0.5425 -1.0273  0.1293
 8482SOL     OW36907   3.317   3.942   2.418 -0.2579  0.3737  0.0114
 8482SOL    HW136908   3.340   3.993   2.340 -1.7294  0.2201 -0.5371
 8482SOL    HW236909   3.259   3.875   2.381  0.0942 -0.2877  0.6631
 8483SOL     OW36910   0.922   1.659   6.840  0.0464  0.3914  0.2249
 8483SOL    HW136911   0.971   1.735   6.871  0.1443  0.1151  0.7399
 8483SOL    HW236912   0.998   1.609   6.809 -0.4956 -1.8603  2.5311
 8484SOL     OW36913   3.517   0.891   1.166  0.4060  0.2850  0.2526
 8484SOL    HW136914   3.507   0.798   1.143  2.6276  0.1113  0.0228
 8484SOL    HW236915   3.542   0.941   1.089 -0.9437  0.4523 -0.0765
 8485SOL     OW36916   2.680   2.620   6.049 -0.4211  0.4029 -0.2178
 8485SOL    HW136917   2.707   2.561   5.978  1.7321  1.2111 -0.0651
 8485SOL    HW236918   2.681   2.708   6.010  2.9916 -0.0823 -1.2243
 8486SOL     OW36919   0.600   3.742   5.752 -0.3246  0.5817  0.0279
 8486SOL    HW136920   0.614   3.798   5.676 -0.6934  1.0700  0.3177
 8486SOL    HW236921   0.642   3.661   5.724 -0.7031  0.3127  0.2481
 8487SOL     OW36922   2.132   0.558   1.497 -0.4181 -0.1769  0.1991
 8487SOL    HW136923   2.173   0.546   1.411 -0.8443 -1.6646  0.2145
 8487SOL    HW236924   2.061   0.495   1.491  0.5914 -1.5312  2.5780
 8488SOL     OW36925   1.038   2.506   4.052 -0.1149  0.0697 -0.1717
 8488SOL    HW136926   1.054   2.573   4.118 -0.0800  0.5315 -0.6447
 8488SOL    HW236927   1.109   2.442   4.063 -0.1175  0.0295 -0.3835
 8489SOL     OW36928   3.925   0.314  14.663 -0.7499 -0.0705  0.1787
 8489SOL    HW136929   3.886   0.336  14.748 -1.2172  2.5656 -0.7097
 8489SOL    HW236930   4.019   0.320  14.681 -0.9767 -0.4655  1.5394
 8490SOL     OW36931   1.404   1.704  11.217 -0.0195  0.3121 -0.7262
 8490SOL    HW136932   1.496   1.678  11.219 -0.1880 -0.0521  3.2801
 8490SOL    HW236933   1.376   1.656  11.139 -1.1185 -1.2993  0.6699
 8491SOL     OW36934   1.243   4.184  11.348 -0.4915  0.2288  0.0440
 8491SOL    HW136935   1.188   4.237  11.406  0.3932  0.3070  0.8057
 8491SOL    HW236936   1.185   4.119  11.308 -1.5719  0.7523  0.7546
 8492SOL     OW36937   3.327   1.620   3.746  0.2046  0.5203  0.2677
 8492SOL    HW136938   3.255   1.576   3.792  0.9494 -1.3740 -0.3733
 8492SOL    HW236939   3.351   1.696   3.798  0.8324  0.5706 -0.0940
 8493SOL     OW36940   3.997   4.555   7.528 -0.0429  0.2634  0.2076
 8493SOL    HW136941   4.071   4.615   7.535  0.5235 -0.5962  1.5545
 8493SOL    HW236942   3.951   4.572   7.611 -1.8464  2.6429 -1.2987
 8494SOL     OW36943   2.197   0.674   3.928  0.2612  0.3099 -0.0782
 8494SOL    HW136944   2.207   0.755   3.979 -0.3048  0.1851  0.2305
 8494SOL    HW236945   2.209   0.707   3.839 -1.2824  0.1936 -0.3179
 8495SOL     OW36946   0.472   3.788   9.653  0.0239 -0.2972 -0.6305
 8495SOL    HW136947   0.513   3.704   9.675  1.6816  1.3489  2.5493
 8495SOL    HW236948   0.430   3.771   9.569  1.6530  1.3722 -1.7724
 8496SOL     OW36949   1.906   2.313   3.713  0.5103 -0.0718  0.2394
 8496SOL    HW136950   1.878   2.261   3.638  0.7828 -0.4357  0.3836
 8496SOL    HW236951   1.822   2.316   3.758  0.5142  1.0302  0.1834
 8497SOL     OW36952   1.330   2.004  10.681  0.4565 -0.7756  0.0641
 8497SOL    HW136953   1.281   2.010  10.598 -0.3434  1.0634  0.6728
 8497SOL    HW236954   1.316   1.912  10.704 -3.0033 -0.6372 -1.4495
 8498SOL     OW36955   3.923   3.406   8.767 -0.2826  0.1402  0.1915
 8498SOL    HW136956   4.011   3.442   8.757 -0.3558  0.1974 -0.2581
 8498SOL    HW236957   3.929   3.317   8.733  0.4701 -0.2200  1.2550
 8499SOL     OW36958   4.427   3.995   3.804  0.2175 -0.4187  0.9084
 8499SOL    HW136959   4.471   4.060   3.747  0.2521 -0.0572  1.3483
 8499SOL    HW236960   4.347   4.037   3.834  0.0921  1.0479 -1.4350
 8500SOL     OW36961   0.357   3.687   2.689  0.6448  0.4370 -0.1177
 8500SOL    HW136962   0.277   3.687   2.741  0.9052  1.6359  0.2754
 8500SOL    HW236963   0.320   3.639   2.616 -1.6781  0.1396  1.2732
 8501SOL     OW36964   3.870   3.805   5.056  0.3195  0.2186  0.5242
 8501SOL    HW136965   3.956   3.767   5.037  0.8953  1.9670 -0.3408
 8501SOL    HW236966   3.857   3.769   5.144  0.8038 -0.3396  0.3685
 8502SOL     OW36967   3.904   1.059  17.219  0.4469  0.3961 -0.7980
 8502SOL    HW136968   3.929   1.134  17.273 -0.1584  0.0144  0.0007
 8502SOL    HW236969   3.882   0.994  17.285  3.3511 -0.5837 -0.7941
 8503SOL     OW36970   1.622   2.613   6.576  0.0939 -0.0235 -0.0368
 8503SOL    HW136971   1.571   2.609   6.657  1.5430  1.5710  0.9518
 8503SOL    HW236972   1.552   2.628   6.511  1.2969  0.5276 -1.2040
 8504SOL     OW36973   3.933   0.486   5.815 -0.0451  0.3265  0.1173
 8504SOL    HW136974   3.927   0.427   5.890 -0.3442 -1.8883 -1.6242
 8504SOL    HW236975   3.857   0.542   5.828  0.4240  0.8860  0.4745
 8505SOL     OW36976   3.997   2.284   4.595 -0.8944 -0.2691  0.0242
 8505SOL    HW136977   4.066   2.300   4.531 -1.6103 -1.7021 -1.0980
 8505SOL    HW236978   3.954   2.369   4.585 -1.2629 -0.1327  2.5609
 8506SOL     OW36979   0.588   1.712  11.784  0.0681  0.3354 -0.0776
 8506SOL    HW136980   0.537   1.706  11.703  0.6954 -2.4247 -0.2726
 8506SOL    HW236981   0.635   1.629  11.782  0.3292  0.4980 -0.7624
 8507SOL     OW36982   2.201   4.703  17.606  0.3059 -0.3976 -0.1649
 8507SOL    HW136983   2.286   4.693  17.649  1.2903 -0.2221 -2.0674
 8507SOL    HW236984   2.211   4.629  17.546  0.6908 -0.3205 -0.2004
 8508SOL     OW36985   2.618   1.786   5.494  0.0114  0.5844  0.0541
 8508SOL    HW136986   2.609   1.708   5.549 -1.9704 -0.9597 -2.4489
 8508SOL    HW236987   2.680   1.759   5.426  2.2422  0.2445  2.2240
 8509SOL     OW36988   2.394   4.497   5.494 -0.0268 -0.4903 -0.4298
 8509SOL    HW136989   2.485   4.475   5.478  0.4202  1.9359 -1.2669
 8509SOL    HW236990   2.373   4.526   5.405  0.0353  1.2177  0.1048
 8510SOL     OW36991   3.667   0.822  12.545 -0.0114  0.0484 -0.2156
 8510SOL    HW136992   3.702   0.889  12.486  0.0165 -0.7812 -1.1496
 8510SOL    HW236993   3.598   0.867  12.592  0.4812  1.7890 -1.1447
 8511SOL     OW36994   0.206   4.632   2.946  0.3993  0.1984  0.2238
 8511SOL    HW136995   0.279   4.585   2.904  1.3918  1.6947  0.2560
 8511SOL    HW236996   0.137   4.575   2.913 -0.2336  0.0663  1.8141
 8512SOL     OW36997   0.882   3.327   4.348  0.1465 -0.4003 -0.2092
 8512SOL    HW136998   0.864   3.380   4.426 -0.7450  0.2505 -0.8505
 8512SOL    HW236999   0.963   3.369   4.320 -0.1089  0.4020  0.2558
 8513SOL     OW37000   1.112   0.691   9.159  0.3276 -0.2258 -0.2414
 8513SOL    HW137001   1.104   0.596   9.156 -0.5635 -0.1327 -0.7714
 8513SOL    HW237002   1.155   0.707   9.075 -1.9713 -0.5654 -1.4736
 8514SOL     OW37003   4.564   1.004   8.702  0.2756  0.5812 -0.5873
 8514SOL    HW137004   4.484   0.969   8.742 -0.8462 -0.1225 -3.4045
 8514SOL    HW237005   4.528   1.032   8.618  0.6316  0.3777 -0.8067
 8515SOL     OW37006   1.641   1.108   3.260  0.0102  0.1800  0.6725
 8515SOL    HW137007   1.574   1.154   3.210 -0.2167  0.2838  1.0743
 8515SOL    HW237008   1.725   1.148   3.235 -1.5323  1.6762 -2.0451
 8516SOL     OW37009   3.016   3.746   3.329  0.1497  0.4531 -0.2335
 8516SOL    HW137010   3.088   3.788   3.283 -1.3682  1.4308 -1.6926
 8516SOL    HW237011   2.934   3.772   3.287 -0.2344  1.8729  1.3775
 8517SOL     OW37012   4.716   3.394   9.250 -0.0249 -0.0598  0.8877
 8517SOL    HW137013   0.028   3.417   9.336  1.3534 -1.3867  0.6771
 8517SOL    HW237014   4.708   3.299   9.254 -2.4660  0.0956 -0.6327
 8518SOL     OW37015   4.511   1.368   1.450 -0.2081 -0.3696  0.7191
 8518SOL    HW137016   4.593   1.405   1.483 -0.7180 -1.5520  3.3254
 8518SOL    HW237017   4.446   1.438   1.454  1.4669  1.1751  0.7231
 8519SOL     OW37018   3.267   0.862   4.621 -0.8854  0.5047  0.2417
 8519SOL    HW137019   3.180   0.886   4.654 -1.0428  1.5082 -0.8706
 8519SOL    HW237020   3.306   0.838   4.705 -0.9459 -2.1019 -0.4688
 8520SOL     OW37021   4.018   2.712   8.390 -0.5002  0.3564  0.3557
 8520SOL    HW137022   3.942   2.654   8.382 -0.7228  0.6667  0.2521
 8520SOL    HW237023   4.026   2.716   8.485  2.2394 -1.5536  0.2102
 8521SOL     OW37024   4.658   4.105   3.311 -0.3689 -0.1010  0.1398
 8521SOL    HW137025   4.603   4.079   3.237  0.0307 -0.7619  0.0785
 8521SOL    HW237026   0.024   4.099   3.280  0.0265  0.2951  1.2202
 8522SOL     OW37027   3.591   4.010   5.124  0.8452 -0.1187 -0.1408
 8522SOL    HW137028   3.611   4.058   5.204  0.2752  0.3609 -0.2903
 8522SOL    HW237029   3.505   3.973   5.146  0.7938 -1.3556 -2.4399
 8523SOL     OW37030   0.354   4.006  13.302  0.1231 -0.5755 -0.0134
 8523SOL    HW137031   0.306   4.021  13.384 -1.2281  0.3719 -0.9814
 8523SOL    HW237032   0.308   3.935  13.258  0.6829 -1.2271  0.4595
 8524SOL     OW37033   4.524   2.478  14.192  0.2367  0.3135 -0.2204
 8524SOL    HW137034   4.484   2.460  14.277 -0.3121  2.0582 -0.0974
 8524SOL    HW237035   4.454   2.526  14.146  0.0844  0.9304  0.6485
 8525SOL     OW37036   2.211   1.377   1.791 -0.2057  0.1442  0.5489
 8525SOL    HW137037   2.204   1.472   1.801 -0.7608  0.0871  0.7246
 8525SOL    HW237038   2.287   1.377   1.734 -0.1960  0.2351  0.5612
 8526SOL     OW37039   4.612   0.504   7.146 -0.0832 -0.4198  0.1561
 8526SOL    HW137040   4.657   0.563   7.206  0.1669 -1.0534  0.5840
 8526SOL    HW237041   4.540   0.553   7.107 -0.4047 -0.9576  0.0654
 8527SOL     OW37042   1.382   1.239   5.890  0.7783  0.0119 -0.4097
 8527SOL    HW137043   1.326   1.167   5.921  1.3868 -0.2036  0.1974
 8527SOL    HW237044   1.325   1.312   5.913  0.6427 -0.3034  0.2535
 8528SOL     OW37045   0.066   1.809   4.793 -0.1050 -0.4136  0.1416
 8528SOL    HW137046   0.148   1.800   4.744  0.5511 -1.2923  1.3761
 8528SOL    HW237047   0.081   1.755   4.871  1.0211  1.6627  1.3813
 8529SOL     OW37048   4.702   4.302   6.210  0.3054 -0.3201  0.0891
 8529SOL    HW137049   4.607   4.307   6.198  0.0734 -2.0402  1.2020
 8529SOL    HW237050   0.008   4.341   6.128  0.4413 -1.2889 -0.3268
 8530SOL     OW37051   2.234   2.547   8.236  0.2122 -0.4739 -0.5202
 8530SOL    HW137052   2.242   2.594   8.153 -0.1143  0.5898  0.0503
 8530SOL    HW237053   2.327   2.537   8.258  0.2699  1.9170  0.3098
 8531SOL     OW37054   4.516   0.249   7.199 -0.7519 -0.2917 -0.1487
 8531SOL    HW137055   4.564   0.332   7.195  1.1582 -1.4427 -0.8900
 8531SOL    HW237056   4.431   0.282   7.170 -0.1990  0.5811 -0.7976
 8532SOL     OW37057   2.479   2.305   5.783 -0.3038 -0.9010  0.5771
 8532SOL    HW137058   2.386   2.316   5.767 -0.3484  1.8405  2.5788
 8532SOL    HW237059   2.516   2.381   5.737 -1.8792 -0.5346 -0.0705
 8533SOL     OW37060   2.707   2.503  11.467 -0.0397 -0.0143  0.2352
 8533SOL    HW137061   2.650   2.480  11.540  0.9578 -3.3570 -0.0477
 8533SOL    HW237062   2.786   2.468  11.508 -1.2268  0.0831  2.5850
 8534SOL     OW37063   1.891   2.450   5.127 -0.2450 -0.0868  0.4536
 8534SOL    HW137064   1.877   2.491   5.212  1.4955 -0.6176  1.0006
 8534SOL    HW237065   1.897   2.524   5.065  1.6825  1.1440  2.1081
 8535SOL     OW37066   4.243   2.499  16.897 -0.2164  0.2739  0.6867
 8535SOL    HW137067   4.218   2.442  16.969  2.0223 -1.9350 -0.2751
 8535SOL    HW237068   4.243   2.447  16.817 -0.9296  1.7034 -0.2510
 8536SOL     OW37069   2.750   0.730   4.301 -0.3419 -0.7431 -0.6715
 8536SOL    HW137070   2.757   0.718   4.206 -1.2099 -1.2793 -0.6675
 8536SOL    HW237071   2.670   0.782   4.311 -0.0669 -0.1078 -1.7968
 8537SOL     OW37072   2.598   0.222   5.324 -0.5458 -0.1746  0.0668
 8537SOL    HW137073   2.520   0.277   5.324 -0.2045  0.3035 -0.7936
 8537SOL    HW237074   2.667   0.288   5.339 -1.6680  1.1309 -0.5082
 8538SOL     OW37075   2.332   0.481   2.634  0.1618  0.5260 -0.4961
 8538SOL    HW137076   2.250   0.433   2.630 -0.6118  1.7153  0.9663
 8538SOL    HW237077   2.333   0.503   2.727  0.5470 -1.1230 -0.1229
 8539SOL     OW37078   3.567   1.817   5.707  0.4172 -0.2970  0.0582
 8539SOL    HW137079   3.644   1.804   5.653  0.9659  0.6321  0.6112
 8539SOL    HW237080   3.603   1.857   5.786 -0.3113 -1.2434  0.8666
 8540SOL     OW37081   0.013   4.637   7.800 -0.3781  0.1618  0.0300
 8540SOL    HW137082   0.088   4.658   7.855 -0.7462 -0.8534  0.9226
 8540SOL    HW237083   0.062   4.623   7.719 -1.3727  1.1205 -0.7420
 8541SOL     OW37084   1.507   1.087   7.181 -0.1268  0.1300  0.5366
 8541SOL    HW137085   1.595   1.106   7.151 -0.1512  0.6495  0.7991
 8541SOL    HW237086   1.491   1.144   7.256 -1.6171 -0.3344  0.5873
 8542SOL     OW37087   0.173   1.218   5.147 -0.4133 -0.4737 -0.0714
 8542SOL    HW137088   0.147   1.204   5.056  0.7561  1.0225 -0.6402
 8542SOL    HW237089   0.097   1.252   5.193 -1.2939 -0.3178 -1.6497
 8543SOL     OW37090   2.184   1.789   7.426  0.2877  0.4097 -0.0262
 8543SOL    HW137091   2.093   1.758   7.423  0.9471 -1.3045 -1.9223
 8543SOL    HW237092   2.194   1.787   7.521 -1.1852  0.3418  0.1359
 8544SOL     OW37093   3.422   4.129  16.154 -0.1206 -0.0825  0.2583
 8544SOL    HW137094   3.400   4.083  16.072 -0.4264 -2.3378  1.6003
 8544SOL    HW237095   3.349   4.191  16.151  0.6354  0.9049  2.5442
 8545SOL     OW37096   2.176   4.042   8.479  0.0495 -0.6869  0.3238
 8545SOL    HW137097   2.179   3.993   8.397  0.3115  2.1496 -1.3401
 8545SOL    HW237098   2.095   4.010   8.519 -1.1392  3.2490  1.0059
 8546SOL     OW37099   1.934   4.710   1.235  0.0474  0.1161 -0.3269
 8546SOL    HW137100   1.965   0.073   1.208 -0.2457  1.1602  2.6567
 8546SOL    HW237101   1.980   4.681   1.313  1.4201  0.7815 -0.8966
 8547SOL     OW37102   1.072   2.196   3.400 -0.2705 -0.3725 -0.1437
 8547SOL    HW137103   0.989   2.149   3.406 -2.0600  2.6325 -2.0414
 8547SOL    HW237104   1.077   2.208   3.495  2.2059 -0.6634 -0.2228
 8548SOL     OW37105   0.490   2.871   6.041 -0.1900 -0.1453 -0.1761
 8548SOL    HW137106   0.423   2.888   5.975  1.5685 -0.4621 -2.0449
 8548SOL    HW237107   0.550   2.945   6.030 -1.4252  1.0644  1.3382
 8549SOL     OW37108   1.453   1.002  12.064  0.7834  0.6284 -0.1264
 8549SOL    HW137109   1.387   0.963  12.006  1.5636 -1.4443  0.3747
 8549SOL    HW237110   1.393   1.050  12.121  1.3523 -1.7075  2.4837
 8550SOL     OW37111   1.205   0.724   8.909 -0.0549  0.0092  0.4929
 8550SOL    HW137112   1.155   0.666   8.852  0.0696 -0.5800  0.9911
 8550SOL    HW237113   1.292   0.683   8.908 -0.3106 -0.5326  0.9619
 8551SOL     OW37114   0.803   0.160   9.151  0.0435 -0.0244  0.3861
 8551SOL    HW137115   0.839   0.248   9.160 -1.5822  0.5839  0.9846
 8551SOL    HW237116   0.876   0.098   9.152  2.1623  2.4742  0.5854
 8552SOL     OW37117   2.496   2.522   8.879  0.4941 -0.0988  0.1299
 8552SOL    HW137118   2.592   2.527   8.880  0.4408  0.7138  0.6807
 8552SOL    HW237119   2.485   2.589   8.946  0.3604 -1.7430  1.7494
 8553SOL     OW37120   4.594   4.719   9.252  0.0580 -0.2276  0.0633
 8553SOL    HW137121   4.688   0.012   9.264 -0.3892  1.8609  0.5233
 8553SOL    HW237122   4.585   4.625   9.235 -1.8994  0.0221 -0.2125
 8554SOL     OW37123   3.886   0.565   2.456  0.5304  0.1947 -0.0240
 8554SOL    HW137124   3.883   0.469   2.457 -0.8723  0.2425 -0.4281
 8554SOL    HW237125   3.872   0.581   2.550  0.7068  0.0213  0.0320
 8555SOL     OW37126   0.290   2.394   2.950  0.4966 -0.5220  0.2768
 8555SOL    HW137127   0.272   2.304   2.977  1.8183 -0.5800  0.9589
 8555SOL    HW237128   0.358   2.408   3.015 -0.6044  0.7826  1.1489
 8556SOL     OW37129   2.550   3.769   9.565  0.6140 -0.0201 -0.0796
 8556SOL    HW137130   2.470   3.758   9.616  0.2521  2.4729 -0.0987
 8556SOL    HW237131   2.605   3.696   9.595 -2.2826 -2.6497 -1.2308
 8557SOL     OW37132   0.921   0.714   7.450 -0.3695  0.2632  0.1776
 8557SOL    HW137133   0.838   0.706   7.496  1.1740  0.0245  2.8961
 8557SOL    HW237134   0.959   0.627   7.439  1.6162  1.1738 -0.0959
 8558SOL     OW37135   1.907   2.723   7.277  0.4140 -0.0082 -0.3310
 8558SOL    HW137136   1.958   2.769   7.344 -1.2942 -0.5686  1.3657
 8558SOL    HW237137   1.942   2.770   7.201  1.8006 -0.9200 -0.2449
 8559SOL     OW37138   3.405   0.669   9.569  0.0519 -0.4727 -0.6662
 8559SOL    HW137139   3.429   0.736   9.632 -0.4525 -2.0560  1.2174
 8559SOL    HW237140   3.355   0.606   9.621  0.5047 -0.8586 -0.6946
 8560SOL     OW37141   4.619   4.113   4.449 -0.0827  0.2436 -0.5969
 8560SOL    HW137142   4.620   4.208   4.457 -1.5709  0.1325  1.0236
 8560SOL    HW237143   4.587   4.104   4.359 -0.5765  0.5498 -0.4522
 8561SOL     OW37144   3.218   2.900   4.398  0.1336 -1.1149  0.0999
 8561SOL    HW137145   3.292   2.878   4.342  2.3577  1.5793  1.9785
 8561SOL    HW237146   3.214   2.821   4.453 -0.8872 -0.2175  1.3350
 8562SOL     OW37147   2.410   4.561   6.212 -1.0971 -0.6999  0.3925
 8562SOL    HW137148   2.487   4.615   6.225  0.2490 -2.8177  1.2998
 8562SOL    HW237149   2.348   4.626   6.182  0.9678  1.2636  0.4187
 8563SOL     OW37150   2.315   4.281   9.197  0.4122 -0.0114 -0.4395
 8563SOL    HW137151   2.247   4.349   9.193  0.1766 -0.2230  0.1119
 8563SOL    HW237152   2.272   4.206   9.238 -0.3642 -0.6810 -2.4946
 8564SOL     OW37153   2.435   2.797   0.574 -0.2973  0.5081  0.2086
 8564SOL    HW137154   2.421   2.859   0.645  0.5766  1.9871 -0.8881
 8564SOL    HW237155   2.530   2.809   0.560 -0.1813 -1.9516 -1.1312
 8565SOL     OW37156   2.860   3.780   1.785 -0.1061  0.6710  0.3834
 8565SOL    HW137157   2.913   3.838   1.729 -0.2532  0.8150  0.3919
 8565SOL    HW237158   2.779   3.830   1.777 -1.0161 -0.3842  3.0838
 8566SOL     OW37159   3.443   0.862   8.206 -0.4004 -0.5066  0.0039
 8566SOL    HW137160   3.526   0.856   8.159 -0.4572  0.1080 -0.1827
 8566SOL    HW237161   3.448   0.778   8.251  0.7872  0.1346  1.0713
 8567SOL     OW37162   3.836   4.524  15.554  0.1883 -0.2730 -0.1629
 8567SOL    HW137163   3.819   4.618  15.545  0.9968 -0.0006  1.1830
 8567SOL    HW237164   3.777   4.485  15.490  1.6922 -1.9591 -0.5290
 8568SOL     OW37165   2.984   3.160  11.740  0.0351  0.2031  0.0377
 8568SOL    HW137166   2.999   3.080  11.690 -1.7012 -0.6742  0.9164
 8568SOL    HW237167   3.028   3.226  11.686  0.7959 -1.8355 -1.8693
 8569SOL     OW37168   3.066   1.531  13.384  0.0361  0.2247  0.3591
 8569SOL    HW137169   3.058   1.626  13.389  2.2901  0.4450 -0.0180
 8569SOL    HW237170   2.988   1.503  13.336  1.5620 -2.2911 -0.6533
 8570SOL     OW37171   0.657   3.005   8.944 -0.1874 -0.3832 -0.4074
 8570SOL    HW137172   0.599   2.943   8.986  1.4282 -0.7742  1.2446
 8570SOL    HW237173   0.707   3.040   9.018 -0.3676 -0.5644 -0.2050
 8571SOL     OW37174   1.840   0.639   6.770  0.8567  0.3638 -0.0543
 8571SOL    HW137175   1.843   0.589   6.851  0.2023  0.9767  0.3442
 8571SOL    HW237176   1.821   0.577   6.700 -0.5495 -2.4949  2.8810
 8572SOL     OW37177   1.610   0.006   8.576 -0.5545 -0.7079 -0.2874
 8572SOL    HW137178   1.703   4.707   8.578 -0.2907  0.4576  1.0030
 8572SOL    HW237179   1.581   4.692   8.659  2.8607 -1.3576  0.6146
 8573SOL     OW37180   2.245   2.062   7.348 -0.4150 -0.3324  0.3267
 8573SOL    HW137181   2.165   2.063   7.295  0.1735 -1.8909 -0.6056
 8573SOL    HW237182   2.238   1.971   7.379 -2.5836 -0.4956 -0.6310
 8574SOL     OW37183   2.266   3.144   5.863  0.7740 -0.5845  0.0812
 8574SOL    HW137184   2.243   3.225   5.819  0.0599 -0.4551  0.7003
 8574SOL    HW237185   2.233   3.085   5.796 -0.9951  1.8253 -1.1155
 8575SOL     OW37186   3.662   2.450   0.718  0.2852 -0.1811 -0.2212
 8575SOL    HW137187   3.758   2.450   0.726  0.5133  3.4040 -2.9689
 8575SOL    HW237188   3.659   2.500   0.637 -2.1600  1.1915  0.7418
 8576SOL     OW37189   3.155   0.729   1.384 -0.1637 -0.4504 -0.2483
 8576SOL    HW137190   3.159   0.774   1.300 -1.1842 -0.2129 -0.1746
 8576SOL    HW237191   3.235   0.769   1.418 -0.0661  0.6604 -1.8196
 8577SOL     OW37192   2.997   3.535   6.937 -0.0251 -0.0961 -0.4396
 8577SOL    HW137193   2.938   3.578   6.876  1.6063  1.9006 -0.6222
 8577SOL    HW237194   3.060   3.495   6.877  0.0126  0.4196 -0.7409
 8578SOL     OW37195   2.083   1.477   1.531 -0.0921 -0.1462 -0.3194
 8578SOL    HW137196   2.060   1.463   1.439  0.1953  0.1480 -0.4384
 8578SOL    HW237197   2.176   1.497   1.526 -0.0334 -0.1722  0.6092
 8579SOL     OW37198   3.636   3.697   2.897 -0.8742 -0.4537  0.2294
 8579SOL    HW137199   3.676   3.688   2.811  0.9211  1.1240  0.8911
 8579SOL    HW237200   3.546   3.668   2.884 -1.0660  0.0639  0.3878
 8580SOL     OW37201   4.576   3.560  14.063 -0.4836  0.1924  0.2498
 8580SOL    HW137202   4.496   3.566  14.011  1.2150  0.8056 -2.2767
 8580SOL    HW237203   4.567   3.477  14.110  1.1296  0.1117  0.4078
 8581SOL     OW37204   3.512   4.002   9.594 -0.2849  0.4625 -0.5909
 8581SOL    HW137205   3.563   3.938   9.644  1.2827  3.2666  1.3844
 8581SOL    HW237206   3.479   4.052   9.669  0.5333 -1.7256  1.2348
 8582SOL     OW37207   2.621   1.486  17.587 -0.2075  0.3258 -0.1632
 8582SOL    HW137208   2.663   1.571  17.603 -0.0365 -0.1079  1.7273
 8582SOL    HW237209   2.642   1.433  17.664  0.0761 -0.3711 -0.7201
 8583SOL     OW37210   2.433   4.326   4.512  0.2137  0.3479 -1.2349
 8583SOL    HW137211   2.505   4.388   4.497 -0.6547  1.7636  0.4516
 8583SOL    HW237212   2.376   4.383   4.565  0.0401 -1.3901  0.4278
 8584SOL     OW37213   3.778   0.687  14.393  0.6767 -0.6684 -0.5381
 8584SOL    HW137214   3.763   0.614  14.332  1.6697 -1.3439  0.0260
 8584SOL    HW237215   3.810   0.641  14.471 -1.1493 -0.4034  0.3747
 8585SOL     OW37216   2.364   4.015   6.269  0.6155 -0.0071 -0.1503
 8585SOL    HW137217   2.350   4.050   6.357  1.6376  3.4638 -1.3500
 8585SOL    HW237218   2.274   3.998   6.241  1.5234 -1.7802 -2.0269
 8586SOL     OW37219   0.318   2.915   8.277 -0.3494 -0.0040  0.0296
 8586SOL    HW137220   0.336   2.863   8.356  0.7238 -0.1537 -0.3172
 8586SOL    HW237221   0.262   2.983   8.315 -3.6803 -2.0131 -1.2434
 8587SOL     OW37222   3.018   1.110   8.022 -0.2720 -0.5374 -0.2495
 8587SOL    HW137223   2.986   1.137   8.108  1.6302  0.6175  0.0886
 8587SOL    HW237224   3.097   1.068   8.054  0.1671  0.1108 -0.4870
 8588SOL     OW37225   4.215   4.696  15.356  0.0792  0.3190 -0.3795
 8588SOL    HW137226   4.242   4.691  15.264  3.2729 -1.7034  0.6505
 8588SOL    HW237227   4.208   4.604  15.382  1.0768  0.0671 -1.0084
 8589SOL     OW37228   3.859   3.758   3.441  0.1514 -0.1655  0.0557
 8589SOL    HW137229   3.928   3.762   3.374  0.8951 -0.2817  0.8024
 8589SOL    HW237230   3.845   3.663   3.449  2.6535 -0.6177 -0.8501
 8590SOL     OW37231   0.645   0.055   6.305  0.3542 -0.1662  0.3339
 8590SOL    HW137232   0.568   0.068   6.249  0.5063 -0.0268  0.1575
 8590SOL    HW237233   0.687   0.141   6.294  1.1739 -0.9846 -2.9461
 8591SOL     OW37234   2.133   4.039   7.493 -0.1558 -0.4363 -0.2593
 8591SOL    HW137235   2.063   3.986   7.456 -0.8640  1.2844 -1.4142
 8591SOL    HW237236   2.102   4.130   7.492  1.1893 -0.0016 -2.4933
 8592SOL     OW37237   4.479   1.095  14.964 -0.7025 -0.4211  0.5186
 8592SOL    HW137238   4.436   1.040  15.029 -1.5667 -1.7228 -1.1379
 8592SOL    HW237239   4.572   1.077  14.977 -0.0953  1.4520 -1.0893
 8593SOL     OW37240   0.132   3.727   2.078 -0.5658  0.2751 -0.2279
 8593SOL    HW137241   0.097   3.799   2.026 -0.5603  0.7707  0.4524
 8593SOL    HW237242   0.116   3.754   2.169  0.5585 -1.6704  0.5442
 8594SOL     OW37243   0.542   2.265   5.432 -0.1531  0.5830 -0.1911
 8594SOL    HW137244   0.596   2.301   5.503 -2.1978  3.1343  0.0731
 8594SOL    HW237245   0.601   2.268   5.357  0.0187 -0.6417 -0.0920
 8595SOL     OW37246   3.331   2.856  10.551 -0.1192  0.1899  0.6203
 8595SOL    HW137247   3.350   2.884  10.641 -2.4240  0.0062  1.1612
 8595SOL    HW237248   3.251   2.900  10.524 -0.4221 -0.9444 -0.3062
 8596SOL     OW37249   1.380   1.242  11.115  0.9924  0.0285  0.0239
 8596SOL    HW137250   1.404   1.231  11.207  0.0581 -1.8237  0.0405
 8596SOL    HW237251   1.336   1.160  11.092 -1.3619  1.4211 -0.3764
 8597SOL     OW37252   1.881   3.975   3.343  0.3166 -0.1135 -0.0618
 8597SOL    HW137253   1.922   3.891   3.363 -1.2742 -0.4914  1.5903
 8597SOL    HW237254   1.941   4.017   3.281 -0.1542 -2.2543 -1.9767
 8598SOL     OW37255   1.543   4.556   6.157  0.1550  0.4598 -0.1636
 8598SOL    HW137256   1.474   4.621   6.167 -0.0792 -0.1118  1.9845
 8598SOL    HW237257   1.548   4.517   6.244  0.5185 -2.1753 -1.3624
 8599SOL     OW37258   3.262   2.473   5.430 -0.0479  0.2829  0.0533
 8599SOL    HW137259   3.176   2.437   5.408 -0.9559  1.1099  2.3259
 8599SOL    HW237260   3.244   2.542   5.493 -1.2214 -2.8654  3.1685
 8600SOL     OW37261   0.131   2.003  12.623 -0.9529 -0.0118  0.5837
 8600SOL    HW137262   0.222   1.990  12.599 -0.5607  1.1851  1.4255
 8600SOL    HW237263   0.129   2.082  12.676  0.3145  2.2321 -2.7289
 8601SOL     OW37264   4.308   3.188   3.455  0.2584 -0.5278  0.1337
 8601SOL    HW137265   4.308   3.226   3.367 -0.4154 -0.0550  0.3394
 8601SOL    HW237266   4.264   3.258   3.504  0.1197 -0.5293  0.0118
 8602SOL     OW37267   0.921   4.694   8.328 -0.2073 -0.3539  0.1878
 8602SOL    HW137268   0.861   0.031   8.285 -0.1297  0.4103  1.1645
 8602SOL    HW237269   0.906   4.619   8.271  0.5273  0.5391 -1.2064
 8603SOL     OW37270   3.449   3.380   8.138  0.6905 -0.4361  0.7677
 8603SOL    HW137271   3.472   3.471   8.119 -2.1646  0.5325  2.0686
 8603SOL    HW237272   3.451   3.377   8.233  1.2629  1.7288  0.8215
 8604SOL     OW37273   3.454   0.341   2.221 -0.0725 -0.0165 -0.2634
 8604SOL    HW137274   3.409   0.284   2.283  1.1438 -0.9650 -0.2366
 8604SOL    HW237275   3.497   0.405   2.278  1.5164 -2.6642  1.4843
 8605SOL     OW37276   2.409   3.232   6.088 -0.7301  0.4075 -0.0290
 8605SOL    HW137277   2.440   3.314   6.050  0.4493  0.3000  0.7069
 8605SOL    HW237278   2.350   3.209   6.016 -0.0446  0.2801 -0.5514
 8606SOL     OW37279   3.435   0.216   5.796 -0.4031  0.7992  0.4066
 8606SOL    HW137280   3.352   0.195   5.839  1.2883 -2.6508  2.0235
 8606SOL    HW237281   3.409   0.305   5.773  0.4081  0.9546  0.0992
 8607SOL     OW37282   0.904   1.269   3.236  0.6786 -0.2092 -0.2119
 8607SOL    HW137283   0.928   1.318   3.315 -1.1361  0.8913 -0.3600
 8607SOL    HW237284   0.813   1.245   3.253  0.6484 -0.6979 -1.0877
 8608SOL     OW37285   3.676   2.649   1.916  0.1325  0.3937 -0.0560
 8608SOL    HW137286   3.672   2.745   1.919 -1.6007  0.2253  2.6959
 8608SOL    HW237287   3.602   2.636   1.857 -0.8547  0.0445  1.2605
 8609SOL     OW37288   3.987   0.440   0.431 -0.2234 -0.5054  0.0508
 8609SOL    HW137289   4.072   0.401   0.447 -0.1491 -0.5063 -0.3549
 8609SOL    HW237290   3.947   0.447   0.518  0.9448 -0.9648  0.6236
 8610SOL     OW37291   2.449   0.943   2.534  0.6662 -0.3162  0.5913
 8610SOL    HW137292   2.461   0.952   2.628 -1.2630  0.6743  0.7454
 8610SOL    HW237293   2.541   0.944   2.506  0.8931 -0.3654  1.3468
 8611SOL     OW37294   1.885   0.521   0.719 -0.1781  0.0243  0.3504
 8611SOL    HW137295   1.918   0.611   0.723  0.5043 -0.2418  0.6869
 8611SOL    HW237296   1.800   0.534   0.677  1.6482  0.0517 -3.2945
 8612SOL     OW37297   2.518   4.398   7.960  0.0832 -0.4977 -0.1385
 8612SOL    HW137298   2.519   4.459   7.887  2.9870 -1.8336 -1.2313
 8612SOL    HW237299   2.582   4.440   8.018 -2.2053  2.9617 -0.1269
 8613SOL     OW37300   4.704   4.152  15.365 -0.3373  0.2888  0.6269
 8613SOL    HW137301   4.649   4.185  15.435  0.9373  3.0323  0.3428
 8613SOL    HW237302   0.036   4.228  15.346  0.1790 -0.2239  0.0756
 8614SOL     OW37303   1.565   0.880   6.715  0.3664 -0.0340 -0.1036
 8614SOL    HW137304   1.659   0.898   6.720  0.4144  0.4430 -2.5813
 8614SOL    HW237305   1.553   0.874   6.810 -1.1350  0.7233 -0.2523
 8615SOL     OW37306   4.000   0.581  15.373  0.5117  0.5048  0.0802
 8615SOL    HW137307   3.922   0.634  15.355 -0.0210  0.0459  1.0324
 8615SOL    HW237308   3.963   0.506  15.420 -0.2631  0.7668 -0.1136
 8616SOL     OW37309   2.937   2.869   1.442  0.0825 -1.0130  0.0192
 8616SOL    HW137310   2.946   2.965   1.443 -0.4613 -0.9776  2.7481
 8616SOL    HW237311   2.933   2.847   1.535 -1.2374 -1.3959 -0.1287
 8617SOL     OW37312   2.026   0.124   8.485  0.5772  0.2265 -0.3678
 8617SOL    HW137313   1.963   0.052   8.494  0.1741  0.6598  0.2499
 8617SOL    HW237314   2.090   0.103   8.553  0.5015  0.7753 -0.1236
 8618SOL     OW37315   0.830   1.801   2.321 -0.3190  0.1973  0.1418
 8618SOL    HW137316   0.822   1.806   2.416 -3.7265 -2.3027 -0.0298
 8618SOL    HW237317   0.755   1.853   2.294 -0.1817  1.0142  1.3054
 8619SOL     OW37318   4.693   0.366   5.857 -0.3320  0.0338  0.2545
 8619SOL    HW137319   0.050   0.405   5.890 -0.5242 -0.3868  1.2149
 8619SOL    HW237320   4.627   0.383   5.925 -1.6196  3.0311 -1.6928
 8620SOL     OW37321   3.138   1.612  12.504  0.2125 -0.3593 -0.3185
 8620SOL    HW137322   3.174   1.529  12.473  0.1096 -0.5207 -0.0055
 8620SOL    HW237323   3.106   1.645  12.420 -1.8206 -1.7091 -0.0686
 8621SOL     OW37324   0.265   3.379   6.644 -0.4525  0.1118 -0.2203
 8621SOL    HW137325   0.170   3.380   6.650 -0.3122 -2.3172  2.2688
 8621SOL    HW237326   0.286   3.442   6.714 -0.5550 -0.4147  0.2863
 8622SOL     OW37327   0.880   3.190   7.053 -0.9785  0.2554 -0.2019
 8622SOL    HW137328   0.894   3.128   6.981 -1.4034  0.2984 -0.3183
 8622SOL    HW237329   0.964   3.174   7.096 -0.1239  1.6063 -1.3838
 8623SOL     OW37330   1.269   3.924   6.233  0.3386  0.4123  0.0745
 8623SOL    HW137331   1.260   3.932   6.328 -1.5406  1.5910 -0.2167
 8623SOL    HW237332   1.320   4.004   6.221  0.1152  0.8730  2.1732
 8624SOL     OW37333   2.725   0.990   5.503  1.0821  0.3764  0.7322
 8624SOL    HW137334   2.680   1.021   5.424  1.3967  0.8564  0.7449
 8624SOL    HW237335   2.664   1.012   5.574 -0.8959  2.5057 -1.6412
 8625SOL     OW37336   0.543   4.508   9.213 -0.4397  0.0032  0.4889
 8625SOL    HW137337   0.483   4.534   9.142  1.4629  1.0351 -0.7458
 8625SOL    HW237338   0.509   4.557   9.287 -1.1949  2.1993 -1.3189
 8626SOL     OW37339   1.735   4.411   2.160  0.5383  0.2962 -0.2208
 8626SOL    HW137340   1.666   4.464   2.119  0.2767 -0.2921 -0.5428
 8626SOL    HW237341   1.690   4.364   2.230 -2.6436  0.7226 -1.9732
 8627SOL     OW37342   1.975   2.672   6.035 -0.1274 -0.0552 -0.4088
 8627SOL    HW137343   2.006   2.582   6.025 -0.9960 -0.4646  0.6090
 8627SOL    HW237344   2.049   2.732   6.021  0.6156 -1.2728 -1.6272
 8628SOL     OW37345   0.017   0.912   2.122  0.6585 -0.1116 -0.2957
 8628SOL    HW137346   0.096   0.956   2.090  0.1575  0.1773 -1.1085
 8628SOL    HW237347   4.699   0.982   2.172 -0.7541 -1.1259 -0.0777
 8629SOL     OW37348   2.641   1.409  13.388  0.7858  0.2978  0.2048
 8629SOL    HW137349   2.681   1.355  13.457 -0.3769  0.2519  0.8466
 8629SOL    HW237350   2.723   1.440  13.350  0.3974 -1.7003 -2.2466
 8630SOL     OW37351   3.647   1.456   2.293  0.4329 -0.4811 -0.1674
 8630SOL    HW137352   3.689   1.370   2.290  1.2569 -0.0467 -0.9083
 8630SOL    HW237353   3.557   1.447   2.264  0.8532 -1.7393 -1.0938
 8631SOL     OW37354   1.785   2.351  15.157 -0.1675 -0.4982 -0.0572
 8631SOL    HW137355   1.777   2.318  15.068  0.5119 -0.8977  0.0363
 8631SOL    HW237356   1.858   2.412  15.154 -0.5377 -0.1368 -1.7392
 8632SOL     OW37357   3.080   2.983   5.731 -0.2664 -0.0806  0.5075
 8632SOL    HW137358   3.017   2.912   5.743 -0.3548 -0.7007 -3.6074
 8632SOL    HW237359   3.106   2.991   5.823  1.8166 -2.2346  0.1145
 8633SOL     OW37360   0.363   0.041   0.355  0.2849 -0.4730 -0.0946
 8633SOL    HW137361   0.369   4.687   0.412  0.0491  0.4563  1.2060
 8633SOL    HW237362   0.313   0.009   0.280 -3.1052  3.4907  0.5280
 8634SOL     OW37363   2.914   3.142   1.966  0.6160  0.1232  0.5678
 8634SOL    HW137364   2.906   3.135   1.871  2.3350  1.2556  0.3449
 8634SOL    HW237365   2.834   3.186   1.996 -0.5049  0.4486 -2.8806
 8635SOL     OW37366   1.764   0.170   9.437  0.1981 -0.2942 -0.1101
 8635SOL    HW137367   1.846   0.213   9.414 -0.3800  0.4982 -0.6918
 8635SOL    HW237368   1.783   0.076   9.438 -1.1711 -0.5679 -0.4061
 8636SOL     OW37369   2.694   3.954   2.614 -0.1155  0.5593  0.1115
 8636SOL    HW137370   2.722   3.894   2.545  0.1021 -1.1427  1.6897
 8636SOL    HW237371   2.768   4.012   2.632  1.5330 -1.4223 -0.2685
 8637SOL     OW37372   1.261   0.415   3.311  0.0001 -0.7910 -0.5778
 8637SOL    HW137373   1.320   0.388   3.241  1.6155 -1.1509  0.9129
 8637SOL    HW237374   1.278   0.350   3.380  1.0941 -0.9922 -1.0415
 8638SOL     OW37375   1.673   2.913  10.138  0.2417 -0.0118 -0.2077
 8638SOL    HW137376   1.616   2.949  10.206  0.6846  0.5451 -0.1319
 8638SOL    HW237377   1.747   2.968  10.161  0.9672 -1.2206  0.3616
 8639SOL     OW37378   3.286   3.281   2.401 -1.3785  0.7120  0.1898
 8639SOL    HW137379   3.197   3.282   2.366 -0.1161 -2.1460 -3.1041
 8639SOL    HW237380   3.331   3.356   2.364 -2.1487  2.2635  2.3914
 8640SOL     OW37381   2.834   2.512   6.793  0.7709 -0.1929 -0.2047
 8640SOL    HW137382   2.858   2.605   6.800  2.8872 -0.8249  1.0596
 8640SOL    HW237383   2.904   2.490   6.730  0.1735 -1.2168 -0.5074
 8641SOL     OW37384   0.428   2.855   5.043 -0.6256 -0.0988  0.2027
 8641SOL    HW137385   0.400   2.782   4.989 -1.0897  0.3547 -0.1631
 8641SOL    HW237386   0.421   2.818   5.131 -0.9301  1.1752  0.7238
 8642SOL     OW37387   4.232   2.176   9.212 -0.4922  0.1776 -0.0821
 8642SOL    HW137388   4.254   2.132   9.130 -0.5723 -0.5433  0.2827
 8642SOL    HW237389   4.273   2.116   9.275 -0.2674  0.6094  0.1880
 8643SOL     OW37390   2.141   1.537   8.241 -0.8940 -0.0533  0.7558
 8643SOL    HW137391   2.185   1.613   8.280  1.0261 -0.9997  0.4449
 8643SOL    HW237392   2.121   1.581   8.159  1.5970  0.0621  0.2045
 8644SOL     OW37393   3.151   1.763  11.457 -0.7338  0.3538  0.1082
 8644SOL    HW137394   3.067   1.742  11.417 -0.6738 -3.0156  1.7998
 8644SOL    HW237395   3.165   1.690  11.516 -0.0968  2.2968  2.3740
 8645SOL     OW37396   0.214   0.039   2.638 -0.5860  0.3901  0.4645
 8645SOL    HW137397   0.225   4.669   2.621 -1.8948 -0.0484  2.0930
 8645SOL    HW237398   0.133   0.039   2.688 -1.0142 -2.1939 -0.1946
 8646SOL     OW37399   3.948   1.722   7.655  0.0876  0.6743  0.4692
 8646SOL    HW137400   3.868   1.670   7.666 -0.3227  0.8329 -1.7004
 8646SOL    HW237401   4.007   1.700   7.727  0.8576  0.6981 -0.1539
 8647SOL     OW37402   0.505   3.307   8.367 -0.3626  0.2538 -0.2363
 8647SOL    HW137403   0.509   3.222   8.410  0.3052  0.3053 -0.1949
 8647SOL    HW237404   0.536   3.363   8.438  0.1153 -1.2656  0.7444
 8648SOL     OW37405   2.289   3.579   9.916  0.2541 -0.0486  0.3032
 8648SOL    HW137406   2.327   3.611   9.998  1.2712 -0.2832 -0.0661
 8648SOL    HW237407   2.208   3.630   9.918  0.8111  0.7609  2.3171
 8649SOL     OW37408   4.097   4.148   8.994 -0.7705  0.0016 -0.2851
 8649SOL    HW137409   4.053   4.209   9.054 -1.3752 -2.0424  1.3507
 8649SOL    HW237410   4.155   4.208   8.948  1.1630 -0.9577  0.8823
 8650SOL     OW37411   1.174   2.630  14.615  0.6202  0.0544 -0.3910
 8650SOL    HW137412   1.111   2.627  14.543 -1.7547 -0.1902  1.6999
 8650SOL    HW237413   1.204   2.540  14.626 -2.5431 -0.9766 -0.2200
 8651SOL     OW37414   4.136   2.081   7.959 -0.1866  0.1616  0.0845
 8651SOL    HW137415   4.154   2.142   8.031 -0.4600 -0.8047  0.9777
 8651SOL    HW237416   4.177   2.133   7.890 -0.9684  1.6558  0.7516
 8652SOL     OW37417   1.111   0.576   2.735  0.7365  0.0326 -0.4799
 8652SOL    HW137418   1.134   0.593   2.826  0.3627 -0.3694 -0.3105
 8652SOL    HW237419   1.192   0.597   2.689  0.2264  1.3076 -0.7965
 8653SOL     OW37420   1.039   2.426   9.985 -0.0978 -0.4779 -0.6624
 8653SOL    HW137421   1.049   2.370   9.908  2.5655  0.9404 -1.3679
 8653SOL    HW237422   1.129   2.459   9.983 -0.0725 -0.4932  0.4826
 8654SOL     OW37423   4.538   0.133   7.446  0.0586 -0.0628 -0.3263
 8654SOL    HW137424   4.570   0.218   7.476 -1.0656  0.5685 -0.9344
 8654SOL    HW237425   4.548   0.140   7.351 -0.5658  0.2060 -0.3740
 8655SOL     OW37426   1.735   1.792  15.761  0.0874 -0.0381 -0.0918
 8655SOL    HW137427   1.690   1.764  15.681  0.0135 -1.9244  0.6174
 8655SOL    HW237428   1.822   1.763  15.733 -0.3435 -1.3556 -0.0863
 8656SOL     OW37429   2.481   1.918   0.512 -0.2504 -0.3217  0.5032
 8656SOL    HW137430   2.473   1.877   0.598 -1.6931 -2.2193 -0.5472
 8656SOL    HW237431   2.489   1.853   0.442 -0.5094  0.4976 -0.2835
 8657SOL     OW37432   3.354   2.101   3.902 -0.4986 -0.1955  0.6987
 8657SOL    HW137433   3.413   2.176   3.899 -0.4007 -0.2682  0.8357
 8657SOL    HW237434   3.324   2.096   3.993  1.5999 -2.7705  1.2384
 8658SOL     OW37435   2.315   1.669  17.195 -0.3175  0.2006  0.2065
 8658SOL    HW137436   2.237   1.635  17.239  0.1567 -0.1748  0.7614
 8658SOL    HW237437   2.379   1.654  17.264 -0.9833 -0.9730  0.5757
 8659SOL     OW37438   0.801   4.228   9.694  0.1749 -0.2463  0.1611
 8659SOL    HW137439   0.709   4.206   9.708  0.7442 -0.9286  2.7414
 8659SOL    HW237440   0.806   4.313   9.739  0.1397 -0.4766  0.5976
 8660SOL     OW37441   4.417   4.506   4.974 -0.2643 -0.2708  0.3190
 8660SOL    HW137442   4.452   4.446   4.908  0.6426  2.4225 -1.6647
 8660SOL    HW237443   4.357   4.555   4.918  0.2379  0.6402  0.5810
 8661SOL     OW37444   1.874   4.394   6.731 -0.4437  0.5315  0.3795
 8661SOL    HW137445   1.887   4.304   6.762  1.3853  0.3764 -0.8171
 8661SOL    HW237446   1.879   4.437   6.816 -1.9887 -2.1980  1.8383
 8662SOL     OW37447   1.265   4.633  15.517 -0.0434 -0.4945 -0.6041
 8662SOL    HW137448   1.340   4.584  15.484 -0.7623 -0.8277 -1.7908
 8662SOL    HW237449   1.239   4.658  15.428 -0.5274 -1.6474 -0.7878
 8663SOL     OW37450   2.026   0.769   8.579 -0.4715  0.2215  0.4696
 8663SOL    HW137451   2.108   0.800   8.617 -0.1697 -0.1697  0.1313
 8663SOL    HW237452   2.056   0.764   8.489 -1.4174 -1.0086  0.2212
 8664SOL     OW37453   3.651   1.229   8.098 -0.5760 -0.0564 -0.4385
 8664SOL    HW137454   3.670   1.145   8.141 -2.3667  0.3754  1.1906
 8664SOL    HW237455   3.562   1.258   8.119  0.2127  1.9495  0.1651
 8665SOL     OW37456   1.586   0.795   9.462 -0.0982  0.4581  0.1480
 8665SOL    HW137457   1.550   0.715   9.501 -0.3146  0.1075 -0.7602
 8665SOL    HW237458   1.529   0.807   9.386  1.0842 -1.0412 -0.9751
 8666SOL     OW37459   1.044   0.921   7.722  0.4601 -0.0902 -0.4531
 8666SOL    HW137460   1.079   1.008   7.742  0.1518  0.1005 -0.7353
 8666SOL    HW237461   0.950   0.939   7.729  0.4205 -0.1396 -0.8980
 8667SOL     OW37462   2.456   2.026   7.759 -0.2190 -0.5990  0.0650
 8667SOL    HW137463   2.499   1.975   7.828  1.2214 -0.8261 -0.9963
 8667SOL    HW237464   2.469   2.116   7.789  1.2991 -0.5387 -0.8134
 8668SOL     OW37465   0.271   2.192  14.667  0.1900 -0.2825  0.9060
 8668SOL    HW137466   0.212   2.120  14.644 -1.5554  0.3554  3.3679
 8668SOL    HW237467   0.350   2.172  14.616  1.6373  1.5240  2.4868
 8669SOL     OW37468   2.697   4.340   6.808  0.5141 -0.0448 -0.4185
 8669SOL    HW137469   2.652   4.403   6.752 -1.9948  0.5068  2.1673
 8669SOL    HW237470   2.637   4.336   6.883 -0.0637  1.6884 -0.7897
 8670SOL     OW37471   2.838   2.313   8.885  0.4280 -0.4951 -0.4907
 8670SOL    HW137472   2.748   2.282   8.885  0.2839 -0.0732 -0.9663
 8670SOL    HW237473   2.876   2.270   8.962  0.6574 -0.7793 -0.7636
 8671SOL     OW37474   4.581   0.589   2.676 -0.1793 -0.3745 -0.7507
 8671SOL    HW137475   4.625   0.674   2.672 -3.3126  1.3158  1.4275
 8671SOL    HW237476   4.488   0.610   2.668 -0.1011  0.7812  1.5436
 8672SOL     OW37477   3.930   0.067   5.679 -0.2791 -0.5504 -0.1727
 8672SOL    HW137478   3.885   0.016   5.611  0.5239  0.1252 -1.1997
 8672SOL    HW237479   3.853   0.108   5.720  1.4872  1.0234  1.5363
 8673SOL     OW37480   0.554   1.433   0.977 -0.0983 -0.2251 -0.4556
 8673SOL    HW137481   0.597   1.375   0.914  2.7454  1.1384  0.2448
 8673SOL    HW237482   0.487   1.469   0.918  0.1287  0.4735 -0.2805
 8674SOL     OW37483   4.198   2.339   1.708 -0.0090 -0.3290 -0.1313
 8674SOL    HW137484   4.159   2.409   1.655 -1.1796 -1.6675 -1.0296
 8674SOL    HW237485   4.144   2.265   1.683  0.3649 -0.5935 -0.1489
 8675SOL     OW37486   0.170   4.451  12.400 -0.3637  0.3151 -1.1528
 8675SOL    HW137487   0.079   4.424  12.399 -0.7040  1.5084 -2.5858
 8675SOL    HW237488   0.175   4.412  12.313 -0.4114 -1.2719 -0.4502
 8676SOL     OW37489   2.989   1.093   1.740  0.4464  0.0535  0.6822
 8676SOL    HW137490   2.968   1.185   1.718 -0.7820 -0.4025 -0.0904
 8676SOL    HW237491   2.936   1.038   1.682 -0.1334 -1.8907  3.0706
 8677SOL     OW37492   2.006   1.160   1.843  0.0102  0.4856  0.4226
 8677SOL    HW137493   1.995   1.250   1.810 -0.7760 -0.1640 -1.0751
 8677SOL    HW237494   1.931   1.115   1.806 -0.0054  2.2547 -1.7547
 8678SOL     OW37495   3.950   2.400   4.207 -0.2317 -0.1124  0.3361
 8678SOL    HW137496   3.989   2.387   4.121  1.3376  3.6435  0.4460
 8678SOL    HW237497   3.887   2.328   4.204 -1.2073  0.7071  1.1584
 8679SOL     OW37498   1.401   3.827   3.391  0.2229 -0.7629  0.5272
 8679SOL    HW137499   1.350   3.890   3.340  0.9260 -0.4248  0.2256
 8679SOL    HW237500   1.485   3.874   3.395 -0.4058  0.4096  0.1228
 8680SOL     OW37501   2.830   4.063   8.402  0.4791  0.1353  0.2028
 8680SOL    HW137502   2.819   4.005   8.326 -1.6321  1.5894 -0.5990
 8680SOL    HW237503   2.913   4.031   8.437 -0.4613 -0.4608  1.8845
 8681SOL     OW37504   1.878   3.472   2.611 -0.0580  0.1217 -0.3112
 8681SOL    HW137505   1.963   3.499   2.644  0.2561 -0.0645 -0.9722
 8681SOL    HW237506   1.862   3.524   2.532  0.6641 -0.7357 -1.0200
 8682SOL     OW37507   1.134   1.382  16.506 -0.1910  0.2622  0.2925
 8682SOL    HW137508   1.045   1.352  16.525  0.0475  1.0721  2.6526
 8682SOL    HW237509   1.145   1.364  16.412 -0.5656 -2.5575  0.7931
 8683SOL     OW37510   3.383   2.718   8.755 -0.0820  0.0499 -0.1372
 8683SOL    HW137511   3.390   2.746   8.846  0.5655 -3.3822  0.8605
 8683SOL    HW237512   3.381   2.804   8.713  0.6811  0.8324  1.4286
 8684SOL     OW37513   1.804   3.985  14.039 -0.2026 -0.7821 -0.1441
 8684SOL    HW137514   1.725   3.933  14.054 -0.0615 -0.5826  1.3077
 8684SOL    HW237515   1.862   3.937  14.098  0.4270 -0.3769 -0.4344
 8685SOL     OW37516   1.359   2.451   3.113 -0.2557  1.0822 -0.1380
 8685SOL    HW137517   1.364   2.541   3.080 -0.4067  1.5444  1.1009
 8685SOL    HW237518   1.326   2.399   3.040 -1.0079 -0.2524  1.1483
 8686SOL     OW37519   0.906   3.549   5.101 -0.0015  0.3468  0.0789
 8686SOL    HW137520   0.888   3.455   5.108  1.7117 -0.1183 -1.7517
 8686SOL    HW237521   0.953   3.556   5.018  1.4296 -0.2153  0.8456
 8687SOL     OW37522   1.546   1.615   8.149 -0.6415 -0.5219 -0.2298
 8687SOL    HW137523   1.617   1.679   8.154  0.5503 -1.9590  0.9578
 8687SOL    HW237524   1.536   1.612   8.054  0.0261 -0.2946 -0.3079
 8688SOL     OW37525   0.483   1.869  16.293  0.1242  0.6758  0.0793
 8688SOL    HW137526   0.457   1.797  16.235  2.0949  0.6304 -0.7425
 8688SOL    HW237527   0.443   1.842  16.376  0.6948 -1.5295 -0.3489
 8689SOL     OW37528   3.244   2.057   9.422  0.1687  0.0859 -0.2550
 8689SOL    HW137529   3.309   1.989   9.439  1.8021  0.9030 -3.2720
 8689SOL    HW237530   3.226   2.047   9.328  0.2042 -0.8615 -0.1665
 8690SOL     OW37531   2.474   1.678   4.724 -0.3313 -0.4627  0.4870
 8690SOL    HW137532   2.522   1.603   4.759 -1.8334 -1.3350  0.7031
 8690SOL    HW237533   2.387   1.641   4.707 -1.4344  3.0836 -1.5091
 8691SOL     OW37534   3.528   0.341  16.144 -0.0169  0.0233  0.5024
 8691SOL    HW137535   3.593   0.296  16.090 -0.3853  0.1126 -0.0192
 8691SOL    HW237536   3.580   0.409  16.186  2.1078 -0.6173 -1.1190
 8692SOL     OW37537   3.109   3.335   4.301  0.6062 -0.3949  0.2458
 8692SOL    HW137538   3.163   3.256   4.293 -2.2038 -2.5408  2.4808
 8692SOL    HW237539   3.175   3.395   4.336 -0.1740  1.2090 -1.0499
 8693SOL     OW37540   3.265   1.310   1.615  0.2177  0.5592 -0.4253
 8693SOL    HW137541   3.263   1.352   1.701  0.1116  0.4092 -0.3546
 8693SOL    HW237542   3.184   1.344   1.576 -0.5706 -0.0148  0.7063
 8694SOL     OW37543   3.828   2.440   3.042  0.6386 -0.2518 -0.8072
 8694SOL    HW137544   3.744   2.396   3.036 -0.4784  1.7953 -0.3257
 8694SOL    HW237545   3.809   2.533   3.027 -1.6883 -0.5128  0.5780
 8695SOL     OW37546   3.866   0.141   4.644 -0.2456 -0.0102  0.1672
 8695SOL    HW137547   3.800   0.100   4.588  1.4897 -1.7638 -0.5942
 8695SOL    HW237548   3.886   0.225   4.602  0.5168 -0.6550 -0.7656
 8696SOL     OW37549   3.694   0.621   5.857  0.0566 -0.6695  0.0095
 8696SOL    HW137550   3.637   0.633   5.781  0.1769  1.0383  0.1748
 8696SOL    HW237551   3.629   0.577   5.912  0.9791 -1.7103  0.2706
 8697SOL     OW37552   3.997   3.327  17.594 -0.0651 -0.2271 -0.1373
 8697SOL    HW137553   4.024   3.301  17.506  1.3007 -0.8252  0.4624
 8697SOL    HW237554   4.014   3.246  17.643  1.3532 -0.5184 -1.1090
 8698SOL     OW37555   3.793   3.710   5.737 -0.6409  0.5044  0.1618
 8698SOL    HW137556   3.737   3.656   5.681 -0.6002  0.6448 -0.0129
 8698SOL    HW237557   3.749   3.790   5.709  0.5390  1.3948  0.8943
 8699SOL     OW37558   4.598   0.975   7.337  0.3712 -0.0367 -0.1706
 8699SOL    HW137559   4.520   0.989   7.391  0.7128  0.7595  0.1124
 8699SOL    HW237560   4.564   0.997   7.250 -0.6761 -2.0351 -0.2515
 8700SOL     OW37561   2.505   2.099   7.060 -0.2232 -0.3598  0.1238
 8700SOL    HW137562   2.431   2.052   7.022 -0.6615 -1.0694  1.8262
 8700SOL    HW237563   2.568   2.066   6.995  0.4622  0.6426  0.2852
 8701SOL     OW37564   1.553   3.515   3.162  0.6212  0.7675 -0.3190
 8701SOL    HW137565   1.630   3.458   3.162  0.3829  0.4715 -2.6462
 8701SOL    HW237566   1.531   3.502   3.254 -0.9711 -0.1562 -0.8272
 8702SOL     OW37567   0.341   0.211   4.671  0.6171  0.2240  0.1712
 8702SOL    HW137568   0.380   0.124   4.680 -1.6939 -0.5296  2.8779
 8702SOL    HW237569   0.418   0.266   4.688 -1.0316  3.5208 -3.0580
 8703SOL     OW37570   4.484   4.564   7.727  0.0521 -0.1394 -0.1021
 8703SOL    HW137571   4.570   4.599   7.752 -0.2678  0.5610  0.0345
 8703SOL    HW237572   4.455   4.536   7.814 -1.7522 -3.8774 -1.9109
 8704SOL     OW37573   3.923   0.231   8.457  0.2661 -0.1272  0.4442
 8704SOL    HW137574   3.893   0.309   8.411  1.7734  0.9265  1.2668
 8704SOL    HW237575   3.922   0.267   8.546  0.1547 -1.1761  0.8731
 8705SOL     OW37576   3.017   1.120  17.184 -0.4485  0.1032 -0.2559
 8705SOL    HW137577   3.109   1.145  17.186 -0.4477  0.0259  0.6179
 8705SOL    HW237578   2.996   1.102  17.092 -0.7780  0.9173 -0.3428
 8706SOL     OW37579   2.260   4.057   3.871  0.5207 -0.5710 -0.3117
 8706SOL    HW137580   2.284   4.140   3.830  1.7813  0.3744  2.2939
 8706SOL    HW237581   2.342   4.021   3.905 -0.9605 -2.4411  1.3263
 8707SOL     OW37582   3.031   2.235  13.655 -0.2186 -0.0777 -0.4023
 8707SOL    HW137583   3.107   2.225  13.597  0.1406 -0.6045  0.1641
 8707SOL    HW237584   3.065   2.236  13.744 -1.6473  0.7729  0.1307
 8708SOL     OW37585   1.112   3.603  17.230 -0.2340 -0.2626  0.0916
 8708SOL    HW137586   1.070   3.528  17.189  0.2049 -0.0671 -0.7088
 8708SOL    HW237587   1.189   3.608  17.173  0.4197  0.3154  1.0262
 8709SOL     OW37588   0.934   3.234  13.044 -0.0597 -0.1766  0.0081
 8709SOL    HW137589   0.974   3.170  12.986  0.5429 -1.3135  1.6575
 8709SOL    HW237590   0.940   3.312  12.989  2.3502  0.9071  1.8284
 8710SOL     OW37591   2.878   3.128   6.672  0.0942 -0.9017 -0.2180
 8710SOL    HW137592   2.891   3.188   6.746 -2.6385  0.9683 -1.2255
 8710SOL    HW237593   2.968   3.121   6.639 -0.2284 -0.4373 -1.2176
 8711SOL     OW37594   4.092   0.424   4.750  0.4132  0.0316 -0.4679
 8711SOL    HW137595   4.042   0.406   4.671 -1.6112 -0.2466  0.9010
 8711SOL    HW237596   4.171   0.465   4.714 -0.8363  2.3207 -0.5638
 8712SOL     OW37597   0.733   2.247   6.643 -0.5403  0.2814 -0.1399
 8712SOL    HW137598   0.671   2.200   6.587  0.5532 -0.8573 -0.3675
 8712SOL    HW237599   0.748   2.185   6.713 -1.0696  1.3520  0.9177
 8713SOL     OW37600   2.244   1.398   5.561 -0.5214  0.0081  0.0703
 8713SOL    HW137601   2.158   1.375   5.596  0.0533  0.8862  2.1150
 8713SOL    HW237602   2.228   1.469   5.498  2.1244 -1.6298 -2.4147
 8714SOL     OW37603   3.507   0.654   5.650  0.1828  0.3544  0.1530
 8714SOL    HW137604   3.520   0.610   5.567  0.0832 -0.2050  0.4362
 8714SOL    HW237605   3.503   0.746   5.623 -1.5799  0.2243 -0.0135
 8715SOL     OW37606   3.377   4.085   6.996  0.0391 -0.2649  0.1334
 8715SOL    HW137607   3.324   4.058   7.071 -0.8301  1.2431  0.0593
 8715SOL    HW237608   3.463   4.049   7.018  0.3705  0.3114 -0.2000
 8716SOL     OW37609   2.385   1.644   0.483  0.2876 -0.1304 -0.1615
 8716SOL    HW137610   2.460   1.585   0.492 -0.0608 -0.3329  1.3443
 8716SOL    HW237611   2.318   1.601   0.535  0.0880  1.3215  0.7914
 8717SOL     OW37612   0.205   4.333   3.624 -0.4181 -0.6515 -0.5276
 8717SOL    HW137613   0.136   4.399   3.633 -2.5831 -3.0171  0.3231
 8717SOL    HW237614   0.239   4.359   3.538  1.1762  0.1126  0.3360
 8718SOL     OW37615   1.794   3.835   5.949  0.1108  0.0519 -0.0991
 8718SOL    HW137616   1.730   3.897   5.914 -1.0126 -0.7844  0.4561
 8718SOL    HW237617   1.882   3.869   5.935  1.3211 -1.8372  2.8629
 8719SOL     OW37618   4.118   3.698   7.784  0.2575  0.4233  0.1016
 8719SOL    HW137619   4.051   3.716   7.718 -0.2483  1.6648  0.9647
 8719SOL    HW237620   4.075   3.698   7.869 -1.1397  2.2434 -0.6046
 8720SOL     OW37621   0.934   3.741  11.499 -0.4655 -0.2256  0.0281
 8720SOL    HW137622   0.865   3.768  11.561 -2.8637 -1.7169 -1.9875
 8720SOL    HW237623   1.011   3.770  11.548 -0.5090  1.6284 -0.9923
 8721SOL     OW37624   0.526   1.860   4.674 -0.4464 -0.5081 -0.2594
 8721SOL    HW137625   0.530   1.775   4.717  2.0062 -0.3855 -0.2286
 8721SOL    HW237626   0.513   1.911   4.753 -2.1368  0.4221 -1.1298
 8722SOL     OW37627   4.373   0.494   2.083 -0.6942 -0.8045 -0.4096
 8722SOL    HW137628   4.430   0.518   2.157  0.6711 -1.0812 -1.3677
 8722SOL    HW237629   4.394   0.401   2.074  0.0131 -0.9582  2.9024
 8723SOL     OW37630   3.936   4.136   6.222 -0.2983 -0.1783  0.0230
 8723SOL    HW137631   3.871   4.146   6.153 -1.7127 -0.0709  1.3534
 8723SOL    HW237632   3.891   4.175   6.297 -0.0845  0.4552 -0.1855
 8724SOL     OW37633   1.749   2.664   8.528  0.3205 -0.1075 -0.9295
 8724SOL    HW137634   1.704   2.599   8.474 -0.5970  0.1848 -0.5335
 8724SOL    HW237635   1.673   2.723   8.535  1.3562  1.0608  0.4216
 8725SOL     OW37636   1.420   2.825  14.681  0.2083 -0.2741  0.3081
 8725SOL    HW137637   1.354   2.834  14.612 -1.2080 -0.6734  1.6257
 8725SOL    HW237638   1.461   2.743  14.654 -0.9703 -0.4731 -0.9097
 8726SOL     OW37639   1.181   2.607   4.914  0.1178  0.5655 -0.2482
 8726SOL    HW137640   1.207   2.635   5.002 -1.2855 -0.5167  0.5178
 8726SOL    HW237641   1.170   2.689   4.866 -1.6712  1.0128  0.9527
 8727SOL     OW37642   2.093   0.768  11.115 -0.6105  0.0668  0.7022
 8727SOL    HW137643   2.031   0.701  11.142 -0.4306  0.1185  1.2466
 8727SOL    HW237644   2.120   0.740  11.027 -3.1635  1.1747 -0.4308
 8728SOL     OW37645   1.465   3.264   4.636 -0.2809  0.2388  0.1118
 8728SOL    HW137646   1.390   3.255   4.577  1.1260 -3.2994 -1.0944
 8728SOL    HW237647   1.526   3.199   4.601 -0.4606  1.3961 -2.3779
 8729SOL     OW37648   3.831   4.181   3.615  0.4149  0.0634  0.1141
 8729SOL    HW137649   3.889   4.109   3.591  0.2867  0.3045 -0.9326
 8729SOL    HW237650   3.888   4.257   3.625  1.0162 -0.3918  0.1542
 8730SOL     OW37651   1.527   2.310  13.663  0.1324  0.1396 -0.4624
 8730SOL    HW137652   1.464   2.336  13.596 -1.1721  0.7726  1.0082
 8730SOL    HW237653   1.571   2.393  13.683 -2.3337  1.4200 -0.3858
 8731SOL     OW37654   2.551   1.112   8.709  0.0994  0.1873  0.1195
 8731SOL    HW137655   2.481   1.148   8.654  0.3082 -0.5659 -0.6326
 8731SOL    HW237656   2.621   1.124   8.645 -0.5105  1.4050 -0.3149
 8732SOL     OW37657   2.902   3.876  17.224 -0.2754  0.3693 -0.7502
 8732SOL    HW137658   2.834   3.838  17.280  1.2486  1.7051  2.0192
 8732SOL    HW237659   2.926   3.802  17.168  0.1906  2.5167 -3.3516
 8733SOL     OW37660   4.561   3.073   8.138  0.4751 -0.0374  0.5403
 8733SOL    HW137661   4.500   3.040   8.204 -1.6570  0.6638 -1.0430
 8733SOL    HW237662   4.596   2.992   8.102 -0.0283 -0.2208  0.4639
 8734SOL     OW37663   0.168   3.159   4.129 -0.5423  0.4960  0.2312
 8734SOL    HW137664   0.139   3.244   4.097 -0.1693 -0.1279 -1.7445
 8734SOL    HW237665   0.163   3.168   4.224  0.6187  1.6190  0.1842
 8735SOL     OW37666   1.951   2.464  16.476  0.3266  0.1275  0.3878
 8735SOL    HW137667   2.043   2.473  16.503  0.1948  0.6649  0.6643
 8735SOL    HW237668   1.915   2.423  16.554  0.0175 -0.0706  0.1369
 8736SOL     OW37669   4.603   4.714   9.972 -0.2090 -0.0574  0.0263
 8736SOL    HW137670   4.574   4.624   9.985  1.3432 -0.5570 -0.0076
 8736SOL    HW237671   4.578   0.043  10.048  1.2086  1.3649 -0.4753
 8737SOL     OW37672   2.755   3.245   2.411 -0.3890 -0.2476  0.2942
 8737SOL    HW137673   2.736   3.153   2.432 -0.6086  0.0071  1.2080
 8737SOL    HW237674   2.725   3.258   2.321  1.5377  0.5928 -0.2203
 8738SOL     OW37675   3.510   0.027   7.205 -0.1894 -0.1966 -0.1862
 8738SOL    HW137676   3.483   0.046   7.115 -1.1481 -0.6732 -0.0055
 8738SOL    HW237677   3.593   0.074   7.214  0.0184 -0.2087 -2.0194
 8739SOL     OW37678   1.202   1.685   6.808 -0.1822  0.0381 -0.1945
 8739SOL    HW137679   1.280   1.668   6.755 -0.6334  0.4828 -0.9973
 8739SOL    HW237680   1.237   1.718   6.891 -1.1668 -3.1297  1.4821
 8740SOL     OW37681   1.257   0.108  12.001 -0.0088  0.3400 -0.2073
 8740SOL    HW137682   1.237   0.046  11.930 -0.0155 -1.0208  0.9891
 8740SOL    HW237683   1.352   0.117  12.003  0.1526 -0.7358 -2.0255
 8741SOL     OW37684   4.154   2.877   7.321  0.2080  0.4249 -0.6375
 8741SOL    HW137685   4.197   2.854   7.403  0.0457  2.2253 -0.0440
 8741SOL    HW237686   4.182   2.809   7.260 -2.8264 -0.9193 -0.5374
 8742SOL     OW37687   1.357   3.738   9.514  0.1550  0.2616  0.0536
 8742SOL    HW137688   1.426   3.681   9.482  0.7964  0.1772  1.5658
 8742SOL    HW237689   1.401   3.823   9.517  0.2828  0.2376 -1.2465
 8743SOL     OW37690   2.343   2.866  11.216  0.0424 -0.2250 -0.0402
 8743SOL    HW137691   2.372   2.788  11.262 -2.5986 -1.7084 -0.8976
 8743SOL    HW237692   2.279   2.910  11.272  0.1300 -0.4681  0.2482
 8744SOL     OW37693   0.515   4.029   8.246 -0.0794 -0.4548 -0.3136
 8744SOL    HW137694   0.552   3.942   8.233  0.3503 -0.1862 -0.8639
 8744SOL    HW237695   0.478   4.018   8.334  1.0950 -0.5930  0.1614
 8745SOL     OW37696   0.199   2.008  15.117 -0.6004  0.2835  0.2392
 8745SOL    HW137697   0.147   2.034  15.041  0.8647 -0.5515 -1.0459
 8745SOL    HW237698   0.245   1.934  15.078 -1.4221 -1.0658  1.8059
 8746SOL     OW37699   2.912   0.153  16.049  0.4967  0.1533  0.0149
 8746SOL    HW137700   2.988   0.205  16.024  0.7274  0.8192  2.1184
 8746SOL    HW237701   2.930   0.077  15.994  0.6480  0.3494 -0.2036
 8747SOL     OW37702   2.660   2.706   9.071 -0.0558  0.1303 -0.3499
 8747SOL    HW137703   2.724   2.657   9.020  0.7441  0.3895  0.4013
 8747SOL    HW237704   2.714   2.785   9.083  0.0665 -0.1811  1.0773
 8748SOL     OW37705   2.894   3.262   6.989  0.5683  0.0800 -0.4855
 8748SOL    HW137706   2.942   3.240   7.069  0.7083 -2.5326 -1.2647
 8748SOL    HW237707   2.901   3.357   6.994 -0.3696  0.1535 -0.4794
 8749SOL     OW37708   1.627   0.660   2.980 -0.3037  0.5116  0.5434
 8749SOL    HW137709   1.587   0.673   2.894  1.1981  0.5507 -0.1369
 8749SOL    HW237710   1.648   0.750   3.005 -1.7427  0.4923  1.8594
 8750SOL     OW37711   2.293   2.252   9.559  0.6623  0.0047  0.0217
 8750SOL    HW137712   2.378   2.223   9.594  0.2194 -0.9029  0.3492
 8750SOL    HW237713   2.318   2.249   9.467  0.1513  0.3508 -0.1234
 8751SOL     OW37714   1.062   2.990   7.184 -0.5345 -0.2051  0.2224
 8751SOL    HW137715   1.048   2.992   7.278 -0.7126 -1.1288  0.2174
 8751SOL    HW237716   0.980   2.960   7.145  0.3940 -0.2902 -1.6884
 8752SOL     OW37717   2.020   3.245   1.845  0.1434  0.5212  0.3745
 8752SOL    HW137718   2.052   3.290   1.923  2.7482  0.3974 -0.6372
 8752SOL    HW237719   1.999   3.318   1.785  1.0279  2.0776  1.9621
 8753SOL     OW37720   3.179   3.072  14.289  0.3443 -0.6715  0.0886
 8753SOL    HW137721   3.117   3.015  14.244  1.8612 -1.6050 -0.7923
 8753SOL    HW237722   3.180   3.022  14.371  0.3911 -1.3844 -0.3469
 8754SOL     OW37723   0.943   0.530   4.642 -0.1446  0.3980  0.5056
 8754SOL    HW137724   0.909   0.476   4.570 -1.6704 -0.0708  1.5635
 8754SOL    HW237725   0.969   0.462   4.704  1.4711  1.9712  1.5399
 8755SOL     OW37726   1.616   0.347   9.585  0.1683  0.0563  0.1684
 8755SOL    HW137727   1.684   0.282   9.569  0.1620 -0.2151  1.2488
 8755SOL    HW237728   1.653   0.428   9.548 -1.1066 -0.8005 -2.9340
 8756SOL     OW37729   3.602   3.708  12.504  0.6721  0.0986 -0.0795
 8756SOL    HW137730   3.689   3.677  12.528 -0.6336 -1.5138  2.5352
 8756SOL    HW237731   3.626   3.800  12.492 -1.5860  0.3812 -2.4631
 8757SOL     OW37732   0.610   0.497  12.906  0.4632 -0.6404 -0.0801
 8757SOL    HW137733   0.578   0.566  12.848 -0.7539 -0.6607  0.5616
 8757SOL    HW237734   0.681   0.536  12.957  2.0360  0.5031 -3.1489
 8758SOL     OW37735   3.632   3.947  15.580 -0.6709  0.1421 -0.1481
 8758SOL    HW137736   3.642   3.860  15.618 -3.7000  0.1261  0.5798
 8758SOL    HW237737   3.538   3.945  15.566 -0.8550  1.8476  0.8334
 8759SOL     OW37738   1.949   0.659   0.114  0.7105  0.1661  0.3007
 8759SOL    HW137739   1.929   0.574   0.074 -1.5932  0.4261  0.9239
 8759SOL    HW237740   1.897   0.715   0.058 -0.8098 -1.8790 -0.3225
 8760SOL     OW37741   1.285   1.464  11.477  0.2617 -0.2153 -0.0541
 8760SOL    HW137742   1.310   1.446  11.386  3.7275  2.2275  0.4050
 8760SOL    HW237743   1.351   1.525  11.511 -0.4728 -0.0558  1.0952
 8761SOL     OW37744   3.967   2.244  12.229  0.0189 -0.1271 -0.1717
 8761SOL    HW137745   4.029   2.174  12.209 -0.2301 -0.7197  1.0734
 8761SOL    HW237746   3.891   2.192  12.257  1.0756  0.4507  3.8665
 8762SOL     OW37747   1.677   3.314   6.112 -0.0395  0.2184 -0.5705
 8762SOL    HW137748   1.717   3.246   6.168 -0.0957  1.0299  0.4533
 8762SOL    HW237749   1.706   3.397   6.150  0.5610 -1.1014  1.9178
 8763SOL     OW37750   3.385   1.892   1.238 -0.3075  0.1563  0.6617
 8763SOL    HW137751   3.418   1.903   1.327 -1.0593  1.6247  0.7559
 8763SOL    HW237752   3.289   1.890   1.238 -0.2900 -0.8497 -0.6307
 8764SOL     OW37753   3.670   2.799   2.652 -0.8983 -0.5498 -0.1133
 8764SOL    HW137754   3.594   2.840   2.610  0.0510  1.1240 -0.2298
 8764SOL    HW237755   3.658   2.710   2.620  0.7240 -0.6547 -0.4602
 8765SOL     OW37756   1.313   3.851   5.551  0.3603 -0.2489  0.9763
 8765SOL    HW137757   1.292   3.762   5.525  0.9895 -0.1919  0.2748
 8765SOL    HW237758   1.408   3.853   5.547  0.3874 -1.2075  1.1668
 8766SOL     OW37759   3.194   0.037   8.028 -0.2890 -0.0761 -0.0950
 8766SOL    HW137760   3.238   4.699   7.970 -0.2855 -1.0268  0.9179
 8766SOL    HW237761   3.142   4.696   8.076 -0.9869  0.0153 -0.7277
 8767SOL     OW37762   4.705   3.936   0.711  0.5424  0.9263 -0.2791
 8767SOL    HW137763   4.642   3.907   0.777  0.2255 -0.0652 -1.0089
 8767SOL    HW237764   0.040   3.862   0.725 -1.7286 -0.5502  1.4649
 8768SOL     OW37765   0.419   2.406   6.130  0.6179  0.5773 -0.3316
 8768SOL    HW137766   0.393   2.498   6.130  2.5914  1.1502  0.2131
 8768SOL    HW237767   0.428   2.394   6.036 -2.2408 -0.0010 -0.5143
 8769SOL     OW37768   2.479   3.485  12.973  0.1226 -0.3574  0.3300
 8769SOL    HW137769   2.553   3.513  13.027  0.3927  2.0080 -1.2842
 8769SOL    HW237770   2.488   3.390  12.982 -0.4049 -0.5227 -0.8849
 8770SOL     OW37771   1.188   0.838  16.418 -0.0330  0.1193  0.5472
 8770SOL    HW137772   1.154   0.925  16.396  0.1605 -0.1728 -0.9476
 8770SOL    HW237773   1.281   0.857  16.407 -0.3686  1.1374 -0.5934
 8771SOL     OW37774   1.324   3.715   6.071 -0.6287  0.4337 -0.0081
 8771SOL    HW137775   1.329   3.792   6.128 -0.3543 -0.1628  0.7838
 8771SOL    HW237776   1.394   3.729   6.007  1.0789 -1.1986  1.4921
 8772SOL     OW37777   0.212   0.550  15.213 -0.4061 -0.4448  0.0714
 8772SOL    HW137778   0.191   0.459  15.191  2.4216 -0.6928 -1.4981
 8772SOL    HW237779   0.211   0.530  15.307 -0.3540 -0.1778  0.1262
 8773SOL     OW37780   2.245   3.378   5.692  0.5487  0.0322 -0.4708
 8773SOL    HW137781   2.162   3.407   5.654  0.8307 -1.4454 -2.2332
 8773SOL    HW237782   2.306   3.354   5.623  2.5083 -0.4872  1.4420
 8774SOL     OW37783   3.000   3.693   3.602  0.3916 -0.0911 -0.3717
 8774SOL    HW137784   3.060   3.619   3.610  2.7816  2.0911  1.6773
 8774SOL    HW237785   3.019   3.714   3.511 -0.2151  3.1284  0.2448
 8775SOL     OW37786   1.904   1.333   4.195 -0.6612 -0.5257  0.6473
 8775SOL    HW137787   1.848   1.371   4.262  0.1073 -1.9702  2.0993
 8775SOL    HW237788   1.932   1.421   4.170 -2.1994  0.1151  1.1746
 8776SOL     OW37789   4.186   0.683  17.171 -0.1778  0.0489 -0.0589
 8776SOL    HW137790   4.217   0.641  17.090 -0.3643 -0.4206  0.1131
 8776SOL    HW237791   4.268   0.678  17.220 -0.8176  0.1959  1.0264
 8777SOL     OW37792   1.785   3.446   5.038 -0.0684  0.5831 -0.1278
 8777SOL    HW137793   1.812   3.449   4.946  1.5371 -0.8179  0.2946
 8777SOL    HW237794   1.743   3.360   5.050  0.4169 -0.1103 -3.2787
 8778SOL     OW37795   3.936   1.802   5.026 -0.1944 -0.1173 -0.0468
 8778SOL    HW137796   4.003   1.756   5.076 -1.1997 -0.3485  1.0843
 8778SOL    HW237797   3.978   1.819   4.941 -2.9517 -2.0913 -1.7957
 8779SOL     OW37798   0.241   3.474  14.624  0.4436  0.0911 -0.7503
 8779SOL    HW137799   0.299   3.547  14.643 -0.0928  0.8658 -2.0721
 8779SOL    HW237800   0.222   3.493  14.532 -0.7326  0.2278 -0.4792
 8780SOL     OW37801   4.594   1.654   7.766 -0.4578 -0.3024 -0.5715
 8780SOL    HW137802   4.687   1.658   7.789 -0.0756  0.0495 -2.1880
 8780SOL    HW237803   4.598   1.653   7.671 -0.6211  2.4157 -0.6091
 8781SOL     OW37804   1.270   1.067  17.530 -0.0613  0.3016  0.0202
 8781SOL    HW137805   1.190   1.118  17.543 -1.7279 -2.4305  0.6073
 8781SOL    HW237806   1.348   1.102  17.573 -0.8436  1.0488  0.8305
 8782SOL     OW37807   3.251   1.807   2.953 -0.2396  0.1552 -0.5886
 8782SOL    HW137808   3.273   1.716   2.935 -1.9934 -0.5382  0.8301
 8782SOL    HW237809   3.329   1.842   2.996 -1.8746  0.0823  2.4346
 8783SOL     OW37810   2.785   1.715   8.432 -0.5752 -0.4314  0.3041
 8783SOL    HW137811   2.784   1.678   8.521 -1.9851 -1.1817 -0.0238
 8783SOL    HW237812   2.710   1.769   8.456 -0.8352 -0.0962 -1.2942
 8784SOL     OW37813   3.912   3.079   1.913 -0.5158 -0.5652  0.1696
 8784SOL    HW137814   3.860   3.157   1.892 -1.5983 -1.0730  0.9426
 8784SOL    HW237815   3.990   3.125   1.944 -1.1201  0.9270 -0.5431
 8785SOL     OW37816   0.231   3.341   2.581  0.4732  0.3061 -0.1909
 8785SOL    HW137817   0.180   3.307   2.507 -0.2768 -0.5414  0.7050
 8785SOL    HW237818   0.319   3.353   2.546  0.9206  1.0284  1.1700
 8786SOL     OW37819   3.411   4.226  10.939 -0.0659  0.0864  0.3388
 8786SOL    HW137820   3.439   4.185  11.020  0.2413 -1.6696 -0.6680
 8786SOL    HW237821   3.319   4.203  10.929  0.0871  0.7356 -2.5382
 8787SOL     OW37822   2.704   0.187   8.876  0.0173  0.7251  0.6553
 8787SOL    HW137823   2.617   0.154   8.853  0.0723  0.9955  0.0572
 8787SOL    HW237824   2.712   0.141   8.959 -0.5983  1.6828  1.2442
 8788SOL     OW37825   3.587   0.837   5.157 -0.1463 -0.0235 -0.0042
 8788SOL    HW137826   3.598   0.742   5.151  1.2210  0.1975 -0.8997
 8788SOL    HW237827   3.604   0.845   5.251 -1.2617 -1.7549  0.3599
 8789SOL     OW37828   1.724   4.511  13.364 -0.2321  0.0580 -0.1333
 8789SOL    HW137829   1.628   4.512  13.360 -0.2915 -0.9013  1.1030
 8789SOL    HW237830   1.742   4.422  13.335  0.2417 -0.3308  1.3681
 8790SOL     OW37831   1.556   1.490   2.571  0.4042 -0.1503  0.0850
 8790SOL    HW137832   1.588   1.518   2.486 -2.3233  3.6597  0.3320
 8790SOL    HW237833   1.471   1.532   2.573  2.1413  3.2784  1.8972
 8791SOL     OW37834   1.188   1.890   1.272 -0.3740 -0.1791 -0.5255
 8791SOL    HW137835   1.099   1.865   1.247 -0.3993  0.6371 -1.2277
 8791SOL    HW237836   1.178   1.985   1.286  1.2699 -0.3331  1.7464
 8792SOL     OW37837   4.524   4.109   2.491  0.1824 -0.0860  0.1234
 8792SOL    HW137838   4.439   4.136   2.457 -1.6304 -2.5476  2.7139
 8792SOL    HW237839   4.505   4.015   2.481  2.8104 -0.3836 -2.1865
 8793SOL     OW37840   3.863   4.460  11.386 -0.6355 -0.0672 -0.1193
 8793SOL    HW137841   3.849   4.429  11.297 -0.6748 -3.1045  0.9434
 8793SOL    HW237842   3.915   4.537  11.362  0.3728 -0.7300 -0.0769
 8794SOL     OW37843   3.369   1.807   9.446 -0.6040 -0.2130  0.1614
 8794SOL    HW137844   3.395   1.755   9.521 -2.6661  0.3405  1.2794
 8794SOL    HW237845   3.407   1.757   9.374 -1.0792 -1.2225  0.6178
 8795SOL     OW37846   4.667   1.237   3.260 -0.4813  0.0337  0.3377
 8795SOL    HW137847   4.702   1.324   3.242 -0.5456  0.1222  0.6364
 8795SOL    HW237848   4.577   1.248   3.228 -0.2424  1.6927  0.2181
 8796SOL     OW37849   1.747   4.174   5.416 -0.0707  0.3958  0.4446
 8796SOL    HW137850   1.689   4.221   5.356  0.4501 -0.0470 -0.4126
 8796SOL    HW237851   1.830   4.157   5.370 -0.0765 -1.0503  0.9672
 8797SOL     OW37852   4.148   1.240   2.358  0.0335 -0.6396 -0.3244
 8797SOL    HW137853   4.128   1.179   2.286 -0.0963 -0.1681 -0.6914
 8797SOL    HW237854   4.230   1.198   2.382  0.2184 -0.7168 -1.0763
 8798SOL     OW37855   3.215   4.012  15.209 -0.2937  0.1526  0.4201
 8798SOL    HW137856   3.141   4.063  15.242  0.3234  0.5825  1.1426
 8798SOL    HW237857   3.285   4.078  15.216  0.6256 -0.8891  0.9614
 8799SOL     OW37858   3.124   2.947   7.750  0.1866  0.3662  0.4658
 8799SOL    HW137859   3.033   2.967   7.727  0.2645  1.9108  1.4889
 8799SOL    HW237860   3.174   2.933   7.670 -0.7567  1.0439 -0.2406
 8800SOL     OW37861   1.389   4.090   3.666 -0.1364  0.3142  0.3099
 8800SOL    HW137862   1.383   4.130   3.753 -0.5575 -1.5208  1.1227
 8800SOL    HW237863   1.453   4.023   3.692 -0.4910 -0.3785 -0.6119
 8801SOL     OW37864   3.250   2.635   7.841  0.3846 -0.5559  0.2890
 8801SOL    HW137865   3.290   2.635   7.754 -0.8062 -0.2695 -0.2687
 8801SOL    HW237866   3.165   2.668   7.811  1.7763  3.1403  0.5106
 8802SOL     OW37867   4.152   2.805   7.013 -0.5871  0.3372 -0.2968
 8802SOL    HW137868   4.247   2.813   7.020 -0.6324 -0.0332  0.8248
 8802SOL    HW237869   4.125   2.886   6.971 -2.4711  0.3315  0.8890
 8803SOL     OW37870   4.382   0.175  12.371 -0.3071 -0.1503 -0.1891
 8803SOL    HW137871   4.372   0.105  12.435 -0.9674 -2.1627 -2.4918
 8803SOL    HW237872   4.306   0.228  12.394 -0.8294 -1.0846  0.2483
 8804SOL     OW37873   2.172   3.691  17.576 -0.0718 -0.0945 -0.3408
 8804SOL    HW137874   2.096   3.651  17.617 -0.4833  0.7733 -0.2665
 8804SOL    HW237875   2.139   3.776  17.549  2.9075  0.7307 -1.3831
 8805SOL     OW37876   3.603   0.488   6.995  0.1214 -0.0934  0.2724
 8805SOL    HW137877   3.623   0.513   7.085 -0.1480 -1.3389  0.6780
 8805SOL    HW237878   3.678   0.431   6.979  2.1426  2.1158  1.8306
 8806SOL     OW37879   4.007   1.400  14.836  0.2382 -0.0154 -0.4848
 8806SOL    HW137880   4.006   1.308  14.809  0.0698 -0.0355 -0.4125
 8806SOL    HW237881   4.051   1.407  14.921  0.9450  2.7051 -1.0800
 8807SOL     OW37882   0.167   0.337   9.326 -0.2099 -0.1794  0.4039
 8807SOL    HW137883   0.257   0.304   9.330  0.2448  0.9420 -0.4932
 8807SOL    HW237884   0.176   0.417   9.376  0.2400 -1.5782  2.5455
 8808SOL     OW37885   2.034   0.297   6.406  0.0724  0.0206 -0.0790
 8808SOL    HW137886   1.993   0.284   6.492 -1.5659  0.4368 -0.8094
 8808SOL    HW237887   1.965   0.250   6.360  0.1007  0.5252 -0.6372
 8809SOL     OW37888   3.028   2.040  14.096 -0.0866 -0.2263 -0.4090
 8809SOL    HW137889   3.078   2.069  14.173 -0.5043  0.9132 -0.5762
 8809SOL    HW237890   3.101   2.011  14.041 -0.2337 -1.6399  0.1452
 8810SOL     OW37891   1.988   2.232   9.838 -0.1585  0.5311  0.0547
 8810SOL    HW137892   1.908   2.268   9.877  0.0572  0.9628  0.0952
 8810SOL    HW237893   1.969   2.141   9.861  1.0317  0.5330  1.0458
 8811SOL     OW37894   0.431   2.392   3.941  0.4396 -0.0254  0.0547
 8811SOL    HW137895   0.451   2.367   4.032  2.0487  0.5084 -0.1468
 8811SOL    HW237896   0.520   2.404   3.908  1.0856 -0.1865  1.7160
 8812SOL     OW37897   2.831   3.898  10.889  0.0322  0.2348 -0.2743
 8812SOL    HW137898   2.843   3.818  10.939 -1.0179 -0.4687 -1.1561
 8812SOL    HW237899   2.918   3.908  10.851  1.5934 -1.0231  3.0609
 8813SOL     OW37900   2.217   0.661  16.469 -0.2950  0.2353  0.4433
 8813SOL    HW137901   2.289   0.637  16.411 -0.2695 -1.3533  1.1066
 8813SOL    HW237902   2.173   0.724  16.413  0.6995 -0.6084 -1.2984
 8814SOL     OW37903   1.759   2.258  14.910 -0.3013  0.1515 -0.2753
 8814SOL    HW137904   1.688   2.213  14.864 -0.2333 -0.9174  0.6532
 8814SOL    HW237905   1.835   2.241  14.855 -0.9795  2.3540 -1.8991
 8815SOL     OW37906   3.138   1.630   7.061  0.0315  0.6132  0.4824
 8815SOL    HW137907   3.062   1.651   7.007  0.5611  0.7232 -0.2259
 8815SOL    HW237908   3.099   1.636   7.148 -0.7195  3.3448 -0.0290
 8816SOL     OW37909   0.355   2.996   5.784 -0.0228  0.3198  0.1649
 8816SOL    HW137910   0.340   2.953   5.699  3.1185  2.2677 -1.3819
 8816SOL    HW237911   0.370   3.086   5.757 -0.6001  0.4314  0.2199
 8817SOL     OW37912   4.558   3.773   6.878 -0.5295 -0.7088 -0.5540
 8817SOL    HW137913   4.507   3.794   6.956  1.8441 -2.3656  1.4162
 8817SOL    HW237914   4.591   3.858   6.850  0.4954 -0.9079  0.0620
 8818SOL     OW37915   0.930   3.671   4.148  0.0778  0.0597  0.6262
 8818SOL    HW137916   0.897   3.715   4.069  0.7797 -1.3316 -0.4601
 8818SOL    HW237917   0.998   3.615   4.108  2.6282  3.3084  0.4500
 8819SOL     OW37918   1.242   2.148   4.454  0.1090  0.2085 -0.3050
 8819SOL    HW137919   1.249   2.085   4.525  0.0977  0.6646  0.1010
 8819SOL    HW237920   1.200   2.088   4.392 -1.3484 -0.0622  0.9388
 8820SOL     OW37921   2.183   2.143   3.682 -0.1552  0.4970  0.2108
 8820SOL    HW137922   2.266   2.122   3.640 -0.1807  1.2240 -0.2037
 8820SOL    HW237923   2.128   2.149   3.604  1.9469 -0.2324 -1.3241
 8821SOL     OW37924   0.301   3.002  16.344 -0.5908  0.2057 -0.4618
 8821SOL    HW137925   0.282   3.038  16.430 -2.3716 -2.1152  0.1449
 8821SOL    HW237926   0.357   3.065  16.301  1.4704 -0.1656  1.6959
 8822SOL     OW37927   1.344   0.122   7.067 -0.4252  0.0098  0.2868
 8822SOL    HW137928   1.352   0.197   7.126 -0.5995 -0.2013  0.5784
 8822SOL    HW237929   1.305   0.050   7.116  0.6987 -0.3958  0.5947
 8823SOL     OW37930   0.984   4.138   6.420  0.0537  0.0844  0.8171
 8823SOL    HW137931   0.981   4.088   6.502  1.8684 -3.1226 -1.0597
 8823SOL    HW237932   0.932   4.212   6.450 -0.9370 -0.4061  0.3082
 8824SOL     OW37933   2.661   2.691  17.355  0.1564  0.3563 -0.0908
 8824SOL    HW137934   2.584   2.669  17.407 -0.4236  1.8641 -0.3376
 8824SOL    HW237935   2.711   2.609  17.355 -2.5619 -1.2978 -0.8194
 8825SOL     OW37936   2.996   4.146  16.207  0.2830  0.4662  0.0758
 8825SOL    HW137937   2.913   4.148  16.161  0.6851  0.1536 -0.6621
 8825SOL    HW237938   3.062   4.163  16.139 -1.8847 -1.7193 -2.5447
 8826SOL     OW37939   4.202   3.464   2.806 -0.3349  0.5965 -0.3280
 8826SOL    HW137940   4.223   3.523   2.878 -0.7568 -2.4682  2.3152
 8826SOL    HW237941   4.122   3.498   2.765 -1.2222 -1.2030 -0.1148
 8827SOL     OW37942   4.061   3.743   8.565  0.5944  0.7283  0.5758
 8827SOL    HW137943   4.146   3.705   8.544 -0.0944 -0.0534 -0.8123
 8827SOL    HW237944   4.010   3.677   8.517  0.1812  1.9198 -0.6128
 8828SOL     OW37945   2.752   2.542  17.127 -0.0193 -0.1355  0.4820
 8828SOL    HW137946   2.745   2.452  17.160 -2.6529 -0.2568 -0.4352
 8828SOL    HW237947   2.660   2.561  17.108 -0.4029 -1.6329  0.8600
 8829SOL     OW37948   1.216   0.034  10.456 -0.0283 -0.4590  0.5522
 8829SOL    HW137949   1.290   0.013  10.513 -0.0491  0.3805  0.8823
 8829SOL    HW237950   1.165   4.676  10.457  2.1452 -1.8273  0.1957
 8830SOL     OW37951   2.804   2.782   5.580 -0.2381  0.3738  0.4131
 8830SOL    HW137952   2.748   2.707   5.601 -0.0973 -0.1905 -1.2626
 8830SOL    HW237953   2.852   2.783   5.663 -0.7921  2.0433  0.7191
 8831SOL     OW37954   2.293   2.479  11.037  0.4346 -0.0830 -0.2509
 8831SOL    HW137955   2.232   2.432  11.093  1.2672 -0.7633  0.0856
 8831SOL    HW237956   2.373   2.426  11.033 -0.6956 -1.7474 -1.0124
 8832SOL     OW37957   0.016   4.462   8.980  0.0756 -0.0435 -0.5232
 8832SOL    HW137958   4.689   4.416   9.047  0.0415 -3.1242 -2.6560
 8832SOL    HW237959   0.101   4.466   9.024  0.1229  2.0308 -0.8043
 8833SOL     OW37960   3.111   1.849   6.131 -0.0449  0.5742  0.3499
 8833SOL    HW137961   3.128   1.849   6.225 -0.8109  0.9582  0.4900
 8833SOL    HW237962   3.156   1.767   6.106 -2.5342 -0.8937  0.7006
 8834SOL     OW37963   4.248   4.570   8.222 -0.3056 -0.2921 -0.3410
 8834SOL    HW137964   4.266   4.483   8.187 -1.8622 -1.2705  1.2547
 8834SOL    HW237965   4.178   4.541   8.281  0.5829  1.2954  1.4749
 8835SOL     OW37966   0.883   3.507   6.737 -0.1709 -0.0285  0.1091
 8835SOL    HW137967   0.835   3.463   6.807  1.6983 -1.1006  0.7149
 8835SOL    HW237968   0.881   3.600   6.757  0.3601 -0.0494  0.2765
 8836SOL     OW37969   3.469   1.733   3.507 -0.0017  0.1546 -0.2842
 8836SOL    HW137970   3.464   1.828   3.509 -1.6121  0.0845 -0.8565
 8836SOL    HW237971   3.395   1.699   3.557 -0.1880  1.8239  0.5430
 8837SOL     OW37972   2.483   3.841   0.719  0.2838 -0.3298  0.4515
 8837SOL    HW137973   2.486   3.936   0.714  0.1020 -0.4518 -2.0078
 8837SOL    HW237974   2.570   3.810   0.693 -0.1815  1.6733 -3.3642
 8838SOL     OW37975   0.082   4.406   8.130 -0.2569  0.8551  0.6451
 8838SOL    HW137976   0.100   4.400   8.224  1.4952  2.1674  0.3856
 8838SOL    HW237977   0.149   4.350   8.091  0.5483  3.0032 -1.0203
 8839SOL     OW37978   4.279   1.984   5.739 -0.2346 -0.4674 -0.1251
 8839SOL    HW137979   4.364   2.008   5.704  0.5092  1.1743  2.8044
 8839SOL    HW237980   4.281   2.006   5.832 -1.0786 -0.3318 -0.1349
 8840SOL     OW37981   2.908   0.749   8.205 -0.5515 -0.0290 -1.0921
 8840SOL    HW137982   2.849   0.756   8.130 -0.5783  0.2431 -1.0458
 8840SOL    HW237983   2.854   0.758   8.284 -1.0481 -0.3896 -1.3873
 8841SOL     OW37984   3.326   1.480   9.471 -0.3010  0.0052 -0.1989
 8841SOL    HW137985   3.349   1.516   9.385  2.8352 -0.9217  0.2614
 8841SOL    HW237986   3.410   1.441   9.492 -0.5959 -1.4553 -1.7152
 8842SOL     OW37987   3.734   1.806   4.761 -0.1807  0.0156  0.1721
 8842SOL    HW137988   3.700   1.837   4.845 -2.3522 -2.3969  0.1860
 8842SOL    HW237989   3.815   1.856   4.767 -1.0043  1.6157 -1.9510
 8843SOL     OW37990   4.048   1.213   5.715 -0.1152 -0.0673  0.0822
 8843SOL    HW137991   4.124   1.183   5.665 -0.8826 -1.1002 -0.4663
 8843SOL    HW237992   4.076   1.214   5.806 -0.0709 -2.0113  0.0913
 8844SOL     OW37993   2.534   1.399  16.371 -0.0104 -0.2255 -0.4658
 8844SOL    HW137994   2.547   1.472  16.311 -0.7244  0.8328  0.6535
 8844SOL    HW237995   2.578   1.415  16.455 -1.8447  0.5790  0.3552
 8845SOL     OW37996   1.741   0.588   2.204  0.4318 -0.1430 -1.0261
 8845SOL    HW137997   1.670   0.643   2.169 -0.6571 -1.0664 -0.2776
 8845SOL    HW237998   1.797   0.596   2.128  0.0745  0.5995 -1.2177
 8846SOL     OW37999   3.851   0.256   6.411 -0.0119 -0.1889 -0.1491
 8846SOL    HW138000   3.861   0.161   6.415  0.1700 -0.1859 -0.5494
 8846SOL    HW238001   3.812   0.266   6.324 -0.7622  0.5583  0.2724
 8847SOL     OW38002   4.498   4.194   8.405  0.3741 -0.6511  0.4265
 8847SOL    HW138003   4.431   4.262   8.411 -0.7653 -1.7788  0.5818
 8847SOL    HW238004   4.465   4.128   8.466 -1.8123 -0.9032 -1.0426
 8848SOL     OW38005   1.019   2.613   7.052 -0.3489 -0.3078  0.2498
 8848SOL    HW138006   1.010   2.538   6.994  1.3321  0.5333 -1.1321
 8848SOL    HW238007   1.101   2.591   7.097 -0.7082 -1.4513  0.3423
 8849SOL     OW38008   1.001   2.838   7.699  0.0718 -0.3393  0.4132
 8849SOL    HW138009   0.981   2.784   7.776  1.1956 -2.3255 -0.6909
 8849SOL    HW238010   0.962   2.921   7.724  1.2479  0.5977 -0.8631
 8850SOL     OW38011   1.617   2.877  12.684  0.1509 -0.0595 -0.2356
 8850SOL    HW138012   1.690   2.818  12.666  1.8042  1.6108  0.9916
 8850SOL    HW238013   1.665   2.930  12.748 -2.4626 -0.0508  1.6963
 8851SOL     OW38014   1.455   4.638   7.663 -0.0412  0.2479  0.6599
 8851SOL    HW138015   1.381   4.683   7.622  1.7652  1.6993 -1.0064
 8851SOL    HW238016   1.470   4.679   7.748  1.7791 -0.5598  0.7153
 8852SOL     OW38017   4.323   0.105   0.709  0.3513  1.0207  0.2271
 8852SOL    HW138018   4.406   0.106   0.757  0.2188  1.5247  0.4418
 8852SOL    HW238019   4.265   0.084   0.783 -0.3767 -1.7025 -1.1360
 8853SOL     OW38020   0.406   2.244   7.142 -0.3237 -0.2732  0.2337
 8853SOL    HW138021   0.324   2.291   7.155  0.3067  1.5963 -2.4720
 8853SOL    HW238022   0.391   2.155   7.174  0.3258 -0.5403 -0.1827
 8854SOL     OW38023   2.505   3.287   3.742 -0.3202  0.0116  0.1758
 8854SOL    HW138024   2.434   3.344   3.712  0.8682  1.4852  0.1363
 8854SOL    HW238025   2.582   3.341   3.724  0.1839 -0.9850 -0.6320
 8855SOL     OW38026   1.224   0.771   3.785  0.5727 -0.0559 -0.8863
 8855SOL    HW138027   1.307   0.814   3.805  0.6806  0.4487 -2.4397
 8855SOL    HW238028   1.180   0.790   3.868  2.7147  0.0332  0.2202
 8856SOL     OW38029   1.241   3.913   8.813  0.1257  0.0754 -0.2662
 8856SOL    HW138030   1.186   3.897   8.890  0.4593 -0.3354 -0.1129
 8856SOL    HW238031   1.168   3.931   8.754 -0.9112  1.2240  1.3719
 8857SOL     OW38032   4.300   0.118   2.751 -0.2026  0.2490  0.2745
 8857SOL    HW138033   4.255   0.077   2.677  2.7224 -1.6807 -0.4306
 8857SOL    HW238034   4.380   0.144   2.705 -0.3183  0.5013  0.2204
 8858SOL     OW38035   4.144   0.027   2.550 -0.5045 -0.1979 -0.2049
 8858SOL    HW138036   4.169   0.066   2.466  2.4141 -2.9928 -0.6287
 8858SOL    HW238037   4.084   4.681   2.525 -0.3107 -0.9629  1.5122
 8859SOL     OW38038   0.953   2.173   4.185  0.1467  0.0492  0.4647
 8859SOL    HW138039   0.946   2.078   4.190 -1.4911  0.0770 -1.5149
 8859SOL    HW238040   0.891   2.204   4.251 -0.2950 -0.7677  0.4272
 8860SOL     OW38041   3.660   0.099  15.715 -0.1264 -1.0014 -0.8752
 8860SOL    HW138042   3.565   0.094  15.728 -0.0045  1.3631  0.8563
 8860SOL    HW238043   3.669   0.075  15.622  1.5713 -1.9888 -0.4487
 8861SOL     OW38044   1.706   0.740   6.266  0.2478 -0.2769  0.1538
 8861SOL    HW138045   1.799   0.721   6.281  0.3147 -2.9155 -3.6714
 8861SOL    HW238046   1.686   0.663   6.213 -0.0115 -1.4392  1.9509
 8862SOL     OW38047   3.162   4.494   5.531  0.2197  0.2003  0.1585
 8862SOL    HW138048   3.244   4.472   5.487 -0.0296 -0.0423 -0.1853
 8862SOL    HW238049   3.188   4.514   5.621  0.4789 -1.3906  0.4408
 8863SOL     OW38050   4.333   4.484   7.487 -0.3044  0.7408  0.3375
 8863SOL    HW138051   4.366   4.508   7.574 -0.1590  0.7595  0.2775
 8863SOL    HW238052   4.276   4.558   7.468 -1.8754 -0.6824 -0.5201
 8864SOL     OW38053   3.363   1.144  15.222 -0.0615 -0.3729 -0.2076
 8864SOL    HW138054   3.345   1.234  15.251  1.0770  0.2595 -1.4977
 8864SOL    HW238055   3.430   1.106  15.278  0.8015  0.7821 -0.4743
 8865SOL     OW38056   0.997   1.361  11.797  0.4734 -0.2449 -0.4131
 8865SOL    HW138057   1.085   1.358  11.834 -0.0085  2.7209  0.9512
 8865SOL    HW238058   1.011   1.318  11.712  1.1497  2.0077 -1.4536
 8866SOL     OW38059   4.349   4.089   9.774 -0.4360 -0.1470  0.6048
 8866SOL    HW138060   4.385   4.178   9.772  1.7776 -0.9782  2.3737
 8866SOL    HW238061   4.275   4.101   9.714  0.7222  0.7024 -0.6726
 8867SOL     OW38062   3.747   4.695   8.692 -0.1142 -0.9168  0.0213
 8867SOL    HW138063   3.679   4.662   8.634 -1.7769  1.0289  0.8730
 8867SOL    HW238064   3.691   0.022   8.751 -0.0907 -1.1164  0.2169
 8868SOL     OW38065   4.493   0.643   4.501  0.0405 -0.1754  0.2486
 8868SOL    HW138066   4.556   0.578   4.531 -0.2183 -0.8900 -0.7800
 8868SOL    HW238067   4.536   0.664   4.418  0.8977  1.6046  1.1274
 8869SOL     OW38068   2.777   1.505   1.073  0.5874  0.1045 -0.0068
 8869SOL    HW138069   2.870   1.507   1.097  0.3030  0.7002  1.0808
 8869SOL    HW238070   2.750   1.577   1.130  0.9317 -0.0176  0.3159
 8870SOL     OW38071   1.512   2.684  15.763  0.0769 -0.1797 -0.3478
 8870SOL    HW138072   1.452   2.758  15.766 -0.0996 -0.3445  0.3386
 8870SOL    HW238073   1.596   2.720  15.788  0.5782 -1.6190  0.0695
 8871SOL     OW38074   0.671   3.950  17.311  0.2452 -0.2001 -0.6329
 8871SOL    HW138075   0.741   3.914  17.256  1.8944 -1.5965  2.3573
 8871SOL    HW238076   0.665   3.892  17.387  2.1456  0.7731  0.2570
 8872SOL     OW38077   1.805   3.961   4.141  0.0667  0.4572  0.1131
 8872SOL    HW138078   1.717   3.955   4.180 -0.8488 -0.7970 -2.1472
 8872SOL    HW238079   1.797   4.055   4.124  0.8892  0.4307 -0.3941
 8873SOL     OW38080   1.952   0.613   7.187 -0.3471 -0.7215  0.0369
 8873SOL    HW138081   1.978   0.703   7.170  2.2328 -1.4466  0.0881
 8873SOL    HW238082   1.997   0.570   7.115 -0.5431  0.1230 -0.5931
 8874SOL     OW38083   4.689   2.984  11.436  0.0177  0.1884 -0.1256
 8874SOL    HW138084   4.597   2.957  11.438 -0.6245  2.3375 -1.2908
 8874SOL    HW238085   4.723   2.901  11.401  2.6629  0.6793  1.2867
 8875SOL     OW38086   1.148   2.147   8.061 -0.1670 -0.3150 -0.8391
 8875SOL    HW138087   1.079   2.083   8.047 -1.2147 -0.0100  2.9980
 8875SOL    HW238088   1.090   2.223   8.061 -0.9091 -0.8803 -1.6664
 8876SOL     OW38089   0.852   1.353   7.712  0.5731  0.3526 -0.0400
 8876SOL    HW138090   0.833   1.301   7.634 -1.8048  2.1235 -0.6202
 8876SOL    HW238091   0.847   1.442   7.679  0.6344  0.0384 -0.9163
 8877SOL     OW38092   3.362   0.758   4.854  0.7432  0.3666 -0.3981
 8877SOL    HW138093   3.449   0.796   4.842  0.7610  0.2717 -0.5693
 8877SOL    HW238094   3.374   0.667   4.827 -2.1145 -0.3846  0.8501
 8878SOL     OW38095   2.214   3.566   4.034  0.4525  0.0362  0.2131
 8878SOL    HW138096   2.162   3.637   4.072 -0.1243 -1.1711  1.6758
 8878SOL    HW238097   2.297   3.584   4.079  1.6664 -1.2551 -1.5427
 8879SOL     OW38098   0.909   3.033   1.927 -0.1298  0.4950  0.0313
 8879SOL    HW138099   0.934   3.093   1.857  0.4239  0.4843  0.2199
 8879SOL    HW238100   0.923   2.946   1.889 -0.4278  1.2310 -1.7883
 8880SOL     OW38101   2.042   3.308  16.459  0.3761  0.3834 -0.1024
 8880SOL    HW138102   1.970   3.359  16.423  0.8837  0.6844 -0.6830
 8880SOL    HW238103   2.099   3.385  16.466  0.0971  0.8430 -3.0764
 8881SOL     OW38104   2.318   0.926   3.278  0.0267  0.3091  0.3340
 8881SOL    HW138105   2.246   0.901   3.335 -0.5627 -1.1184 -1.0242
 8881SOL    HW238106   2.275   0.994   3.227  0.7173  0.0265 -0.6483
 8882SOL     OW38107   3.730   1.892   2.525 -0.3156 -0.0629 -0.0228
 8882SOL    HW138108   3.655   1.931   2.479  0.2557  1.1461  0.0934
 8882SOL    HW238109   3.686   1.812   2.555 -0.7814 -0.0743 -0.7244
 8883SOL     OW38110   1.753   4.030   6.405 -0.1376  0.7445 -0.0224
 8883SOL    HW138111   1.837   3.986   6.420 -1.1840 -0.3793  2.6273
 8883SOL    HW238112   1.711   3.970   6.344 -0.2860 -0.3303  1.1191
 8884SOL     OW38113   3.451   4.232  13.462  0.2701 -0.3510 -0.1425
 8884SOL    HW138114   3.363   4.234  13.501  0.0555 -2.2605 -0.5317
 8884SOL    HW238115   3.441   4.286  13.384 -0.2883  1.6596  1.3296
 8885SOL     OW38116   2.907   1.217   0.732 -0.0674 -0.3158 -0.2144
 8885SOL    HW138117   2.994   1.197   0.699  0.0500  1.1279 -0.7993
 8885SOL    HW238118   2.925   1.214   0.826 -0.1925  0.9503 -0.1429
 8886SOL     OW38119   0.777   0.511   5.166  0.2037 -0.5914 -0.0254
 8886SOL    HW138120   0.755   0.604   5.157 -1.2896 -0.8520  1.0633
 8886SOL    HW238121   0.817   0.499   5.079 -0.2271  1.3407 -0.4922
 8887SOL     OW38122   0.372   4.470  17.686  0.0613 -0.1083 -0.0669
 8887SOL    HW138123   0.452   4.501  17.644  0.5737 -0.0320  0.9842
 8887SOL    HW238124   0.387   4.375  17.687  0.5789 -0.0095  2.0318
 8888SOL     OW38125   3.077   1.850  17.124 -0.2065  0.1687 -0.0720
 8888SOL    HW138126   3.086   1.803  17.041 -1.8089 -0.3568  0.0611
 8888SOL    HW238127   3.168   1.837  17.152 -0.3579  0.8244  0.7019
 8889SOL     OW38128   3.840   2.737   5.485 -0.6754  0.5004 -0.0268
 8889SOL    HW138129   3.859   2.648   5.454 -0.0731  0.3111  0.9038
 8889SOL    HW238130   3.872   2.747   5.575  0.5344  1.4915 -0.5775
 8890SOL     OW38131   1.706   4.558   7.115 -0.2644  0.5003  0.3433
 8890SOL    HW138132   1.719   4.465   7.132  2.9756  0.4101 -2.6560
 8890SOL    HW238133   1.735   4.602   7.195 -0.5727  1.7215 -0.2224
 8891SOL     OW38134   1.226   0.547   7.190 -0.2362 -0.2033 -0.8394
 8891SOL    HW138135   1.238   0.494   7.268  0.1429  2.1929  0.7486
 8891SOL    HW238136   1.294   0.516   7.130  1.5878 -1.5779  1.9518
 8892SOL     OW38137   2.806   1.308  10.942  0.1026 -0.0256  0.1316
 8892SOL    HW138138   2.886   1.354  10.967 -1.0150  2.6908 -1.2772
 8892SOL    HW238139   2.757   1.321  11.023  0.0180  1.2663 -0.1378
 8893SOL     OW38140   1.014   4.140   8.403 -0.0580  0.2455  0.2277
 8893SOL    HW138141   1.040   4.206   8.468 -1.1828 -1.2596  2.1851
 8893SOL    HW238142   1.076   4.072   8.429 -0.3344  0.5009  1.5620
 8894SOL     OW38143   0.098   1.971   6.134  0.2880 -0.7982  0.1224
 8894SOL    HW138144   0.181   1.922   6.132  0.7471  0.0306 -1.1046
 8894SOL    HW238145   0.037   1.899   6.118 -0.7514  0.1412 -0.1084
 8895SOL     OW38146   2.993   0.964   4.699 -0.6541  0.1750 -0.0278
 8895SOL    HW138147   3.003   1.006   4.784  1.6795 -0.2093 -0.1133
 8895SOL    HW238148   2.901   0.948   4.678 -0.2102 -0.3822 -1.5101
 8896SOL     OW38149   4.480   2.094  11.709 -1.0179  0.0374  0.0579
 8896SOL    HW138150   4.439   2.050  11.634  0.8418 -1.3275 -0.1515
 8896SOL    HW238151   4.567   2.054  11.711 -0.9473  0.2523  1.1085
 8897SOL     OW38152   1.265   3.462  16.147  0.4017 -0.3091  0.2730
 8897SOL    HW138153   1.268   3.371  16.116 -0.0422  0.1684 -1.1830
 8897SOL    HW238154   1.321   3.501  16.080 -1.3541  1.1991 -0.3065
 8898SOL     OW38155   1.235   2.664  10.174  0.1304  0.4138  0.4163
 8898SOL    HW138156   1.160   2.682  10.230 -0.0562  0.2722  0.2137
 8898SOL    HW238157   1.296   2.726  10.213  1.1013 -1.2694  1.5963
 8899SOL     OW38158   1.904   0.032   1.770 -0.9813  0.7310  0.6266
 8899SOL    HW138159   1.875   0.086   1.696  0.8525  1.8452  0.7235
 8899SOL    HW238160   1.992   0.069   1.774 -1.6891  2.1092  3.3547
 8900SOL     OW38161   0.261   0.263   0.020  0.5127  0.7190  0.1259
 8900SOL    HW138162   0.299   0.217  17.641 -1.5441 -1.0277  0.1600
 8900SOL    HW238163   0.172   0.227   0.018  0.7534  0.1493 -0.5533
 8901SOL     OW38164   3.661   1.225  12.062 -0.5858 -0.0994  0.2792
 8901SOL    HW138165   3.717   1.302  12.057  0.4441 -0.8192  0.9577
 8901SOL    HW238166   3.657   1.207  12.155  2.2462  0.3330  0.4686
 8902SOL     OW38167   1.064   4.139   4.406  0.1453 -0.0195 -0.3687
 8902SOL    HW138168   1.081   4.081   4.331 -2.3001 -1.4931  0.1911
 8902SOL    HW238169   1.150   4.175   4.424  0.4547 -0.8561 -0.1801
 8903SOL     OW38170   2.997   1.446   1.489 -0.7428  0.3049  0.4477
 8903SOL    HW138171   2.920   1.462   1.434  0.2232  1.1959 -0.6409
 8903SOL    HW238172   2.960   1.456   1.577 -3.7683 -1.8045 -0.5991
 8904SOL     OW38173   2.152   2.732   3.663  0.1563  0.3300 -0.1842
 8904SOL    HW138174   2.152   2.636   3.661  0.5487  0.2667  2.7815
 8904SOL    HW238175   2.169   2.756   3.754 -0.3757 -0.9124  0.2435
 8905SOL     OW38176   3.114   2.438   7.441 -0.3305 -0.2810  0.2672
 8905SOL    HW138177   3.070   2.522   7.458  0.9274  0.7235 -1.4289
 8905SOL    HW238178   3.208   2.451   7.450 -0.0747 -1.6398 -0.4452
 8906SOL     OW38179   1.985   0.043   4.749  0.2577  0.4353  0.3168
 8906SOL    HW138180   1.897   0.076   4.729  0.6678  1.9240  0.9209
 8906SOL    HW238181   2.030   0.072   4.670 -2.6992 -1.2100 -1.9297
 8907SOL     OW38182   1.905   3.619   6.676  0.3071  0.0107  0.4679
 8907SOL    HW138183   1.840   3.657   6.617  1.7706  1.8293  0.0249
 8907SOL    HW238184   1.880   3.526   6.671 -2.7878  0.8273  1.0476
 8908SOL     OW38185   0.037   0.101   6.636 -0.1118  0.2204  1.3282
 8908SOL    HW138186   0.091   0.042   6.584 -0.1740  0.3549  1.1117
 8908SOL    HW238187   4.718   0.146   6.563  1.5059  1.5793  1.2210
 8909SOL     OW38188   2.521   0.164   5.940  0.0281 -0.1933 -0.0707
 8909SOL    HW138189   2.441   0.115   5.921 -0.8326  1.2759 -0.1956
 8909SOL    HW238190   2.524   0.236   5.878 -2.0757  0.8583  1.0751
 8910SOL     OW38191   2.827   2.768  16.850 -0.2462  0.0053 -0.1405
 8910SOL    HW138192   2.881   2.717  16.790 -0.0471  1.0384 -0.8536
 8910SOL    HW238193   2.770   2.697  16.878  0.3227  0.6280  2.5679
 8911SOL     OW38194   3.604   1.639  10.137  0.0637 -0.0359 -0.8457
 8911SOL    HW138195   3.658   1.565  10.165  2.4185  1.4698 -1.3791
 8911SOL    HW238196   3.641   1.702  10.199 -1.7018  0.1138  0.0354
 8912SOL     OW38197   4.126   0.259   3.215  0.5621 -0.2717 -0.3019
 8912SOL    HW138198   4.150   0.327   3.152 -0.5878  0.5130  0.0933
 8912SOL    HW238199   4.051   0.229   3.165 -1.4278  2.6629  0.9150
 8913SOL     OW38200   1.799   4.297   3.095  0.0313  0.0918  0.6069
 8913SOL    HW138201   1.728   4.260   3.148 -0.1038  0.6345  0.8089
 8913SOL    HW238202   1.850   4.332   3.169 -1.6837  3.4363  0.1822
 8914SOL     OW38203   4.062   1.335   4.890  0.4651  0.4713 -0.2176
 8914SOL    HW138204   4.039   1.426   4.871 -2.7803 -0.3478 -0.2092
 8914SOL    HW238205   3.978   1.289   4.896  1.6635 -1.6054  0.6497
 8915SOL     OW38206   2.537   0.730   2.185  0.1171  0.3867  0.1181
 8915SOL    HW138207   2.510   0.677   2.260  0.7915  0.6649  0.5528
 8915SOL    HW238208   2.624   0.760   2.213  0.2406 -0.7725  0.9726
 8916SOL     OW38209   2.360   2.826  16.060  0.5278  0.3732 -0.4786
 8916SOL    HW138210   2.323   2.904  16.101  0.8091  0.4567 -0.3838
 8916SOL    HW238211   2.303   2.751  16.082  1.1681 -0.9420 -3.2484
 8917SOL     OW38212   1.452   1.880   7.919 -0.0263 -0.0398 -0.1430
 8917SOL    HW138213   1.414   1.967   7.906  1.6079  0.3466 -2.2656
 8917SOL    HW238214   1.533   1.902   7.965  0.2951  0.7150 -1.0923
 8918SOL     OW38215   3.737   3.009   7.491 -0.3033  0.2850 -0.0853
 8918SOL    HW138216   3.718   3.057   7.410 -0.6528 -1.0826 -0.8186
 8918SOL    HW238217   3.645   3.001   7.517 -0.1598  0.2336  0.3915
 8919SOL     OW38218   0.654   1.550  14.055 -0.5189  0.4698 -0.3606
 8919SOL    HW138219   0.734   1.602  14.049 -0.0505 -0.0807  1.2712
 8919SOL    HW238220   0.692   1.462  14.050  0.0768  0.7281 -0.3288
 8920SOL     OW38221   4.599   3.170   7.897  0.6144 -0.4855  0.2714
 8920SOL    HW138222   4.514   3.136   7.868  0.4921  2.0250 -2.2537
 8920SOL    HW238223   4.585   3.170   7.992 -2.4614  0.3014 -0.1793
 8921SOL     OW38224   4.277   0.813   4.526  0.9122  0.0148  0.2782
 8921SOL    HW138225   4.349   0.753   4.506 -0.7015 -2.1652  1.0352
 8921SOL    HW238226   4.317   0.898   4.505 -1.2639  1.0289  0.2274
 8922SOL     OW38227   1.310   0.991   6.049  0.3506  0.0773  0.2373
 8922SOL    HW138228   1.363   1.029   6.119 -0.3166 -0.2125  0.9022
 8922SOL    HW238229   1.226   0.991   6.095  1.6570  0.1802  2.6226
 8923SOL     OW38230   4.545   0.347   0.088  0.2868  0.3702  0.1058
 8923SOL    HW138231   4.594   0.322   0.167  2.6996  1.7187 -0.9748
 8923SOL    HW238232   4.541   0.266   0.038  2.2945 -0.5779  1.4911
 8924SOL     OW38233   1.588   2.422   4.930  0.1116 -0.7359 -0.7905
 8924SOL    HW138234   1.641   2.449   5.005 -0.2772 -1.0197 -0.4176
 8924SOL    HW238235   1.650   2.356   4.900  0.2970 -1.5724  1.4259
 8925SOL     OW38236   3.896   4.291  10.373 -0.3631 -0.0160  0.5567
 8925SOL    HW138237   3.876   4.197  10.381  0.3645 -0.3822 -1.9547
 8925SOL    HW238238   3.813   4.326  10.340 -0.0702 -0.9823 -1.2175
 8926SOL     OW38239   2.071   2.393   8.893  0.0620 -0.0281 -0.3409
 8926SOL    HW138240   2.044   2.368   8.804 -2.2668  1.2490  0.0123
 8926SOL    HW238241   2.047   2.313   8.940 -0.1592 -0.4523 -1.1768
 8927SOL     OW38242   3.943   4.552   2.552  0.8813  0.7392 -0.1222
 8927SOL    HW138243   3.850   4.534   2.560  0.7578  1.2371 -0.4861
 8927SOL    HW238244   3.973   4.495   2.623  2.0933  2.2461  0.5851
 8928SOL     OW38245   2.320   0.021   5.868  0.1945 -0.5267 -0.2597
 8928SOL    HW138246   2.270   4.716   5.945  0.8280  3.8918  1.8085
 8928SOL    HW238247   2.267   4.703   5.800  0.2437 -1.2371  0.1331
 8929SOL     OW38248   1.624   3.990  13.423 -0.0681 -0.5139  0.1180
 8929SOL    HW138249   1.543   4.033  13.396  1.0109  1.0740 -0.6226
 8929SOL    HW238250   1.675   3.999  13.342 -0.8833 -0.9910 -0.4452
 8930SOL     OW38251   3.836   3.943  16.133  0.6332 -0.2151 -0.1641
 8930SOL    HW138252   3.816   4.036  16.122 -1.7973 -0.6523  0.6802
 8930SOL    HW238253   3.812   3.930  16.225 -0.9118  1.2587 -0.3651
 8931SOL     OW38254   0.069   1.547   3.545  0.4054 -0.1739  0.5534
 8931SOL    HW138255   0.105   1.512   3.463 -0.2560 -0.8365  0.5394
 8931SOL    HW238256   4.711   1.498   3.550  0.5529 -0.5457 -0.5905
 8932SOL     OW38257   3.903   0.299   2.482  0.1549 -0.1675 -0.1625
 8932SOL    HW138258   3.931   0.272   2.395  0.6744  1.0364 -0.3583
 8932SOL    HW238259   3.860   0.223   2.523  2.8569 -2.1179 -0.9466
 8933SOL     OW38260   3.344   0.492  13.614  0.4423  0.2452 -0.0815
 8933SOL    HW138261   3.339   0.433  13.538 -0.4788  0.8662 -0.4961
 8933SOL    HW238262   3.274   0.556  13.600 -1.2691 -1.9979 -1.7813
 8934SOL     OW38263   4.471   4.621   9.469  0.1732  0.4534 -0.8125
 8934SOL    HW138264   4.540   4.671   9.427  1.9160  0.4870  2.0734
 8934SOL    HW238265   4.421   4.682   9.524  1.5896 -0.2354  1.2261
 8935SOL     OW38266   2.816   0.941   1.584  0.2239  0.2248 -0.0719
 8935SOL    HW138267   2.746   0.918   1.646 -0.5170  1.3010 -0.5010
 8935SOL    HW238268   2.822   0.871   1.518  1.8250  0.3514 -0.0596
 8936SOL     OW38269   2.809   1.497  10.321  0.0833 -0.3010  0.0378
 8936SOL    HW138270   2.768   1.410  10.324  1.8187 -1.1286  0.2901
 8936SOL    HW238271   2.766   1.547  10.390 -2.2490 -1.2097 -0.7568
 8937SOL     OW38272   1.751   1.413  10.029 -0.5959 -0.2763  0.3743
 8937SOL    HW138273   1.804   1.406   9.950  1.4085 -2.4270  1.9308
 8937SOL    HW238274   1.814   1.443  10.094  0.1918  0.0528 -0.5495
 8938SOL     OW38275   3.584   0.438   6.019  0.2166  0.1796  0.3236
 8938SOL    HW138276   3.497   0.402   6.034  1.6489 -3.3576 -0.0260
 8938SOL    HW238277   3.643   0.378   6.065 -0.3690 -0.2908  0.4489
 8939SOL     OW38278   1.987   2.360   7.158 -0.7276  0.3707 -0.0708
 8939SOL    HW138279   2.068   2.390   7.199 -0.9919  0.5944  0.2838
 8939SOL    HW238280   1.981   2.423   7.085 -0.4435 -0.9767 -1.2614
 8940SOL     OW38281   1.643   3.210   5.142 -0.2517 -0.1390 -0.0927
 8940SOL    HW138282   1.655   3.149   5.214 -0.4887  0.4408  0.4381
 8940SOL    HW238283   1.690   3.162   5.075  0.4056 -0.0504  0.3100
 8941SOL     OW38284   1.218   1.499   3.195  0.3051 -0.8722 -0.3922
 8941SOL    HW138285   1.230   1.408   3.168 -0.9762 -1.3172  0.5430
 8941SOL    HW238286   1.250   1.501   3.285  0.4666 -0.2754 -0.4602
 8942SOL     OW38287   3.104   3.381   6.493 -0.3128 -0.0415  0.0667
 8942SOL    HW138288   3.106   3.286   6.505  2.6799 -0.0019 -0.1803
 8942SOL    HW238289   3.144   3.391   6.406 -1.6731 -0.1597 -0.5710
 8943SOL     OW38290   1.839   2.860   5.132 -0.5743  0.3733  0.6177
 8943SOL    HW138291   1.744   2.858   5.138 -0.6890 -1.8017 -1.7102
 8943SOL    HW238292   1.857   2.786   5.074  0.2203 -0.1094  1.4854
 8944SOL     OW38293   0.404   1.455  10.165 -0.0603  0.4170  1.0407
 8944SOL    HW138294   0.460   1.532  10.180  0.5573  0.5887 -2.3294
 8944SOL    HW238295   0.432   1.389  10.229  1.7269  0.5147  0.3617
 8945SOL     OW38296   1.864   4.639   3.876 -0.4004 -0.2671 -0.0218
 8945SOL    HW138297   1.932   4.586   3.834  0.0733 -1.0745  1.7904
 8945SOL    HW238298   1.868   4.719   3.823 -0.2056 -0.4030 -0.2100
 8946SOL     OW38299   2.949   1.181  15.678  0.3454  0.3198 -0.5174
 8946SOL    HW138300   3.016   1.122  15.645  0.7435  0.0964  0.6941
 8946SOL    HW238301   2.981   1.266  15.648 -0.7216 -0.0036 -2.5778
 8947SOL     OW38302   3.015   1.541   1.960  0.6903 -0.0650 -0.6533
 8947SOL    HW138303   2.974   1.526   2.046  1.6048 -0.9679 -0.3845
 8947SOL    HW238304   2.951   1.607   1.932  0.2918  1.2725  3.2802
 8948SOL     OW38305   2.845   0.060   2.442  0.3044  0.0064  0.2714
 8948SOL    HW138306   2.769   0.002   2.435 -1.4860  1.9075  3.8228
 8948SOL    HW238307   2.816   0.129   2.501  0.3648  0.4803 -0.2602
 8949SOL     OW38308   0.495   3.146  16.216 -0.6235  0.0465  0.1082
 8949SOL    HW138309   0.528   3.057  16.204 -0.3010  0.2888 -0.8196
 8949SOL    HW238310   0.504   3.190  16.131  2.3035  1.6875  1.2433
 8950SOL     OW38311   3.569   3.307   6.068 -0.4435 -0.0020 -0.0179
 8950SOL    HW138312   3.480   3.300   6.033 -1.0506 -0.4037  1.6200
 8950SOL    HW238313   3.594   3.396   6.044 -1.2551  0.2090 -0.0818
 8951SOL     OW38314   2.769   1.296  13.002  0.0904  0.5140 -0.0848
 8951SOL    HW138315   2.790   1.204  13.016  1.2855  0.6872 -0.7481
 8951SOL    HW238316   2.680   1.289  12.966 -0.2371 -1.0708  1.0283
 8952SOL     OW38317   0.439   1.048   1.120 -0.6290 -0.1151  0.3177
 8952SOL    HW138318   0.444   1.144   1.116  0.0829 -0.1248  0.9622
 8952SOL    HW238319   0.511   1.015   1.066  0.6673  1.8549  0.8255
 8953SOL     OW38320   1.532   0.683   9.842 -0.7631 -0.1516  0.0041
 8953SOL    HW138321   1.485   0.653   9.764 -0.2762 -3.1387  0.8647
 8953SOL    HW238322   1.525   0.778   9.843 -0.5378 -0.1234 -0.7446
 8954SOL     OW38323   3.263   3.124   4.284  0.4855 -0.3112 -0.0978
 8954SOL    HW138324   3.255   3.038   4.325  0.7954  0.1004  0.8210
 8954SOL    HW238325   3.354   3.117   4.254  0.7000  2.1544 -0.0109
 8955SOL     OW38326   2.400   3.476   5.208  0.5540  0.5719 -0.0354
 8955SOL    HW138327   2.363   3.549   5.158 -0.5959 -0.4473 -0.6732
 8955SOL    HW238328   2.487   3.512   5.225  1.4422 -0.7142 -1.8227
 8956SOL     OW38329   4.702   4.530   4.043 -0.0338 -0.4597 -0.4671
 8956SOL    HW138330   4.712   4.574   4.128 -0.9751 -1.5864  0.2114
 8956SOL    HW238331   0.053   4.470   4.036  0.9206  0.8032 -1.2472
 8957SOL     OW38332   3.957   3.275  14.106 -0.4243 -0.3974 -0.3275
 8957SOL    HW138333   4.001   3.213  14.163  0.1715  1.7820  1.5639
 8957SOL    HW238334   3.914   3.335  14.167 -1.8343 -2.6237  0.8483
 8958SOL     OW38335   3.815   4.465   7.940  0.2685 -0.2150 -0.3002
 8958SOL    HW138336   3.797   4.429   8.027 -0.6592  0.0326 -0.3925
 8958SOL    HW238337   3.900   4.420   7.936  0.9884  1.1814 -0.5908
 8959SOL     OW38338   1.182   2.126  11.215  0.7919  0.0526 -0.9170
 8959SOL    HW138339   1.271   2.128  11.249  0.6523  0.6075 -0.5681
 8959SOL    HW238340   1.163   2.037  11.244  1.5852 -0.9463 -3.5397
 8960SOL     OW38341   0.138   2.461   6.194  0.0449 -0.0997 -0.3454
 8960SOL    HW138342   0.190   2.479   6.116  0.8668  1.6693  0.6070
 8960SOL    HW238343   0.207   2.451   6.260 -0.2729 -0.2705 -0.0379
 8961SOL     OW38344   2.414   2.729   7.734 -0.2896  0.0794  0.1789
 8961SOL    HW138345   2.401   2.644   7.691 -2.2825  0.7679 -0.5444
 8961SOL    HW238346   2.476   2.709   7.804 -0.2873  0.4946  0.2950
 8962SOL     OW38347   1.894   1.424  15.847  0.0100 -0.3459 -0.1697
 8962SOL    HW138348   1.965   1.487  15.855 -1.2290  1.2487 -1.5551
 8962SOL    HW238349   1.860   1.445  15.760 -0.4629  0.4894  0.2124
 8963SOL     OW38350   3.055   2.973   0.792  0.1905 -0.0876  0.0956
 8963SOL    HW138351   3.015   2.932   0.715  0.2835 -0.3681  0.1994
 8963SOL    HW238352   2.992   2.940   0.856  0.3478  0.4884  0.5416
 8964SOL     OW38353   0.708   3.696   9.233 -0.0956  0.4753  0.0651
 8964SOL    HW138354   0.687   3.737   9.317  1.5654 -0.5635  0.9773
 8964SOL    HW238355   0.709   3.606   9.265 -1.8760  0.0253 -1.1506
 8965SOL     OW38356   0.802   2.504  10.469  0.5463  0.2548  0.2979
 8965SOL    HW138357   0.853   2.539  10.396  0.8055 -0.4396  0.1481
 8965SOL    HW238358   0.804   2.411  10.449 -1.5922  0.1721  0.4215
 8966SOL     OW38359   1.423   0.159   5.945  0.2451 -0.5684  0.9421
 8966SOL    HW138360   1.430   0.064   5.952 -2.1083 -0.6836  1.6085
 8966SOL    HW238361   1.488   0.191   6.009 -0.9253  1.0713  1.3284
 8967SOL     OW38362   0.584   3.882   6.845  0.0010 -0.2231  0.2903
 8967SOL    HW138363   0.580   3.857   6.938  2.0040 -0.3927  0.3255
 8967SOL    HW238364   0.495   3.914   6.827  0.4131  1.1645  0.7476
 8968SOL     OW38365   0.758   1.580   2.097  0.2913  0.3434 -0.2598
 8968SOL    HW138366   0.742   1.545   2.010 -0.6269 -1.4409  0.6156
 8968SOL    HW238367   0.827   1.646   2.093 -0.3796  0.9067 -2.1660
 8969SOL     OW38368   3.803   4.397   9.607 -0.2606  0.3981  0.5807
 8969SOL    HW138369   3.896   4.410   9.587  0.5027 -0.9921  3.1977
 8969SOL    HW238370   3.810   4.395   9.702 -1.0787  2.3561  0.6968
 8970SOL     OW38371   4.690   4.198   0.555 -0.0622  0.6128  0.8014
 8970SOL    HW138372   4.634   4.159   0.488  3.5623 -2.4987 -0.4533
 8970SOL    HW238373   0.004   4.126   0.606  0.7627  2.3061  2.5409
 8971SOL     OW38374   1.768   0.214   1.607 -0.4078  0.2997  0.3232
 8971SOL    HW138375   1.788   0.296   1.561 -1.8725  1.5632  1.9425
 8971SOL    HW238376   1.734   0.254   1.687  1.6308  0.7203  0.9836
 8972SOL     OW38377   2.884   2.826   1.719  0.2182 -0.7964  0.0129
 8972SOL    HW138378   2.936   2.775   1.781  0.0421 -0.0949  0.7463
 8972SOL    HW238379   2.802   2.850   1.762  0.7670  0.8113  0.1770
 8973SOL     OW38380   3.009   1.704  12.745 -0.3757 -0.1945  0.5539
 8973SOL    HW138381   2.934   1.645  12.754 -0.9210  0.3126 -0.6430
 8973SOL    HW238382   3.034   1.688  12.654  1.9120 -0.6039  1.2474
 8974SOL     OW38383   2.750   0.464  14.822  0.0112  0.0508 -0.2070
 8974SOL    HW138384   2.698   0.480  14.901 -1.5185  2.3758 -1.6700
 8974SOL    HW238385   2.735   0.548  14.780  2.6737  0.8197  0.3625
 8975SOL     OW38386   3.046   0.088  10.326 -0.0280  0.0350 -0.0382
 8975SOL    HW138387   3.014   0.163  10.376  2.7073  0.0678  1.6711
 8975SOL    HW238388   2.974   0.079  10.263  0.0666  0.6046 -0.2285
 8976SOL     OW38389   2.583   1.550   4.980 -0.9307 -0.1476  0.2110
 8976SOL    HW138390   2.585   1.473   4.924  0.2347 -0.7819  1.1166
 8976SOL    HW238391   2.668   1.550   5.024 -1.2526  0.4437  0.8424
 8977SOL     OW38392   1.774   1.544   5.666  0.0687  0.3343  0.2062
 8977SOL    HW138393   1.764   1.449   5.667 -0.5850  0.4072  0.8633
 8977SOL    HW238394   1.791   1.579   5.754  2.0262  4.3300 -1.7492
 8978SOL     OW38395   2.812   3.885   8.194  0.3305  0.1834 -0.0666
 8978SOL    HW138396   2.834   3.819   8.260 -2.6302 -0.5170  0.2495
 8978SOL    HW238397   2.821   3.841   8.110 -0.2176  1.6764 -0.9112
 8979SOL     OW38398   4.381   2.676   0.955  0.0453  0.3366  0.0954
 8979SOL    HW138399   4.443   2.746   0.932 -1.0567  0.8239 -1.4101
 8979SOL    HW238400   4.443   2.603   0.950 -1.7246 -1.1490  0.1273
 8980SOL     OW38401   3.824   0.241   9.899  0.0832  0.0498 -0.0889
 8980SOL    HW138402   3.911   0.232   9.938 -0.1136  1.6122  0.7055
 8980SOL    HW238403   3.785   0.315   9.946  1.1649  0.8852 -0.5112
 8981SOL     OW38404   0.143   0.784   5.046 -0.4003 -0.2231 -0.4251
 8981SOL    HW138405   0.051   0.760   5.061 -0.3901 -1.4569 -2.3263
 8981SOL    HW238406   0.140   0.831   4.964  0.6918 -1.3656 -1.1268
 8982SOL     OW38407   3.462   4.579   9.166  0.1103  0.1941  0.2605
 8982SOL    HW138408   3.379   4.542   9.195 -0.4658  0.7845 -0.6598
 8982SOL    HW238409   3.458   4.579   9.071 -2.9914 -0.8012  0.4128
 8983SOL     OW38410   4.115   0.454   9.312  0.5673 -0.3222 -0.3173
 8983SOL    HW138411   4.036   0.495   9.348 -0.2849 -2.3318  0.1053
 8983SOL    HW238412   4.083   0.368   9.287 -1.9520  0.1034  1.4417
 8984SOL     OW38413   3.560   2.449   3.738 -0.0598 -0.2997 -0.4358
 8984SOL    HW138414   3.610   2.371   3.763  0.0193 -0.3569 -0.7795
 8984SOL    HW238415   3.610   2.480   3.662  1.9115 -0.4141  0.8083
 8985SOL     OW38416   0.316   0.546   7.427  0.0557 -0.4424 -0.7545
 8985SOL    HW138417   0.277   0.502   7.503  2.2593  0.1350  0.7207
 8985SOL    HW238418   0.410   0.529   7.440 -0.0788 -2.5172 -2.6098
 8986SOL     OW38419   1.514   0.921   9.022 -0.0196  0.0540  0.2785
 8986SOL    HW138420   1.512   0.962   8.935 -0.1195  1.2831  0.8501
 8986SOL    HW238421   1.567   0.985   9.071  0.4705 -0.0187 -0.1460
 8987SOL     OW38422   1.497   1.089   6.241  0.1087  0.0189  0.2280
 8987SOL    HW138423   1.593   1.085   6.243  0.1947  1.9648 -0.4655
 8987SOL    HW238424   1.480   1.031   6.315 -1.0797 -2.4280 -1.9526
 8988SOL     OW38425   0.406   0.934   9.640 -0.0916 -0.1710 -0.3452
 8988SOL    HW138426   0.443   1.022   9.650  1.5319 -1.0806  1.5620
 8988SOL    HW238427   0.314   0.958   9.652 -0.4396 -0.9619 -1.4304
 8989SOL     OW38428   3.997   1.298   0.645 -0.2959 -0.3988  0.6636
 8989SOL    HW138429   3.945   1.343   0.711 -3.3760 -0.7917 -1.5322
 8989SOL    HW238430   3.972   1.207   0.662 -1.9377  0.0325  0.5184
 8990SOL     OW38431   2.865   2.954  15.609  0.0922 -0.3057 -0.3558
 8990SOL    HW138432   2.815   2.975  15.689 -0.0083 -2.0122  0.0178
 8990SOL    HW238433   2.881   3.045  15.584 -2.1573 -0.4517 -2.3178
 8991SOL     OW38434   0.134   1.813   2.864 -0.7680 -0.9110 -0.4375
 8991SOL    HW138435   0.160   1.753   2.794 -1.8369 -0.4466 -1.2254
 8991SOL    HW238436   0.105   1.887   2.811  2.5422 -0.9335 -2.3220
 8992SOL     OW38437   1.587   3.545   7.166  0.2043  0.2185 -0.0213
 8992SOL    HW138438   1.537   3.471   7.200  0.7545  0.0319  0.3855
 8992SOL    HW238439   1.638   3.568   7.244  1.9400  3.1079 -1.9898
 8993SOL     OW38440   1.617   1.699   6.297 -0.3666 -0.1324  0.2722
 8993SOL    HW138441   1.539   1.681   6.349  0.4751 -3.1153  0.5377
 8993SOL    HW238442   1.564   1.755   6.241 -0.5761  0.8055  1.4213
 8994SOL     OW38443   4.151   2.195   4.839  0.1219 -0.6315  0.0980
 8994SOL    HW138444   4.112   2.227   4.757  1.2840  0.6026  0.0320
 8994SOL    HW238445   4.241   2.194   4.807  0.1930 -0.0962  0.2831
 8995SOL     OW38446   0.014   2.312   6.650 -0.2722 -0.1962  0.1332
 8995SOL    HW138447   0.075   2.309   6.576 -0.9461  2.2026 -0.5263
 8995SOL    HW238448   0.076   2.313   6.723  1.2941  0.9347 -1.2322
 8996SOL     OW38449   2.678   1.238  10.541  0.0201 -0.0736 -0.1256
 8996SOL    HW138450   2.618   1.166  10.528 -2.1219  1.6167  0.4301
 8996SOL    HW238451   2.691   1.258  10.448  0.4261  0.8760  0.1310
 8997SOL     OW38452   4.041   2.047   3.340 -0.3021 -0.0701  0.4085
 8997SOL    HW138453   3.969   2.047   3.278  0.1074  2.3726 -0.0687
 8997SOL    HW238454   4.113   2.023   3.282 -0.6745  0.3597 -0.2347
 8998SOL     OW38455   4.271   0.651   3.870  0.1105 -0.5657 -0.5558
 8998SOL    HW138456   4.262   0.682   3.960 -1.0887  1.6642 -1.4541
 8998SOL    HW238457   4.269   0.735   3.824  0.9729  1.1780  2.5900
 8999SOL     OW38458   4.230   4.455   5.164 -0.2131 -0.6762  0.5870
 8999SOL    HW138459   4.261   4.513   5.234  0.0889  1.6928 -1.4983
 8999SOL    HW238460   4.307   4.460   5.108 -2.0051 -0.9463 -1.9426
 9000SOL     OW38461   3.038   1.409   2.954 -0.8888  0.1796 -0.1408
 9000SOL    HW138462   3.021   1.420   3.048 -0.4456 -0.7645  0.0511
 9000SOL    HW238463   3.082   1.324   2.958  2.1783  1.7983  0.5253
 9001SOL     OW38464   0.281   2.155   3.088  0.9926  0.1792 -0.1129
 9001SOL    HW138465   0.338   2.160   3.164  2.2000 -2.1818 -0.8788
 9001SOL    HW238466   0.244   2.068   3.103  0.5314  0.5470  0.8706
 9002SOL     OW38467   2.646   3.795  10.446  0.3119 -0.3045 -0.0907
 9002SOL    HW138468   2.678   3.747  10.523 -1.3219 -0.5619  0.4422
 9002SOL    HW238469   2.603   3.725  10.397  0.2598 -1.9272  2.2542
 9003SOL     OW38470   3.060   1.001   5.945 -0.5097 -0.1614  0.0487
 9003SOL    HW138471   3.109   1.014   6.026  0.1559 -0.2143 -0.3390
 9003SOL    HW238472   2.983   0.956   5.980 -1.9330  0.5768 -2.1603
 9004SOL     OW38473   3.116   4.045   6.069 -0.1800  0.5258 -0.2849
 9004SOL    HW138474   3.024   4.065   6.091  0.1694  1.4837  0.3116
 9004SOL    HW238475   3.158   4.131   6.072  2.2304 -0.6171 -1.9786
 9005SOL     OW38476   4.639   1.447   8.965  0.7263 -0.4248  0.0619
 9005SOL    HW138477   0.006   1.475   8.951 -0.4816  3.2202 -0.5122
 9005SOL    HW238478   4.614   1.476   9.053 -0.8996  1.3523 -0.9755
 9006SOL     OW38479   2.709   0.718   6.212 -0.1269  0.4763  0.6430
 9006SOL    HW138480   2.632   0.741   6.264 -0.5023 -1.5059  0.9484
 9006SOL    HW238481   2.722   0.627   6.239  1.6331 -0.7484 -4.2497
 9007SOL     OW38482   1.249   3.552   9.143 -0.1401  0.1856  0.3883
 9007SOL    HW138483   1.206   3.491   9.204 -2.5122  1.0274 -0.4374
 9007SOL    HW238484   1.208   3.633   9.173 -1.1268 -0.0469 -0.3222
 9008SOL     OW38485   2.547   3.876   3.509 -0.1686  0.2460  0.0637
 9008SOL    HW138486   2.629   3.882   3.556 -0.4320  1.3786  0.3929
 9008SOL    HW238487   2.570   3.902   3.420  2.1373  0.6250  0.7815
 9009SOL     OW38488   1.020   3.179   2.162  0.9605  0.0320 -0.2304
 9009SOL    HW138489   1.103   3.225   2.149  1.1362  0.4077  2.2541
 9009SOL    HW238490   1.003   3.151   2.072 -1.7062 -2.2270  0.9830
 9010SOL     OW38491   0.685   0.894   5.463  0.2397  0.7255  0.0712
 9010SOL    HW138492   0.758   0.954   5.478  0.4446  0.4007  0.3632
 9010SOL    HW238493   0.614   0.958   5.470 -1.0082 -0.6920  0.2708
 9011SOL     OW38494   2.884   1.320   0.280  0.2426 -0.2885  0.3107
 9011SOL    HW138495   2.876   1.371   0.361  3.9493 -1.9925  1.7442
 9011SOL    HW238496   2.898   1.234   0.320  1.1391 -0.8909 -1.2908
 9012SOL     OW38497   4.556   3.523  14.441 -0.4499 -0.6678  0.3855
 9012SOL    HW138498   4.478   3.467  14.437 -0.0656 -1.1160 -0.7791
 9012SOL    HW238499   4.524   3.609  14.412 -0.7287 -1.4655 -1.7442
 9013SOL     OW38500   4.626   3.875  15.297  0.0984  0.2981 -0.5204
 9013SOL    HW138501   4.614   3.841  15.385 -0.8384 -0.5041 -0.9605
 9013SOL    HW238502   4.643   3.969  15.304 -0.6742  0.4197 -0.3285
 9014SOL     OW38503   3.959   4.686   4.840 -0.1236 -0.9257  0.0343
 9014SOL    HW138504   3.908   0.020   4.784 -1.6543 -1.1130  1.2529
 9014SOL    HW238505   3.892   4.661   4.904  1.3661  2.2793  2.8521
 9015SOL     OW38506   3.684   2.062   8.724 -0.0295  0.3695  0.2835
 9015SOL    HW138507   3.628   1.993   8.691 -1.4324  1.1545  1.0238
 9015SOL    HW238508   3.707   2.035   8.813  0.7024 -1.5784 -0.5099
 9016SOL     OW38509   4.529   0.284   7.880 -0.0471 -0.1990 -0.1421
 9016SOL    HW138510   4.549   0.215   7.944  3.4020  0.7050 -0.2366
 9016SOL    HW238511   4.490   0.236   7.807 -1.1774  1.2144 -0.4598
 9017SOL     OW38512   3.002   1.001   6.304  0.0512  0.5639 -0.5742
 9017SOL    HW138513   3.073   1.065   6.295  0.7424  0.1203  1.5556
 9017SOL    HW238514   2.965   1.017   6.391 -0.8770 -1.0374 -0.6781
 9018SOL     OW38515   1.812   4.296   4.054 -0.8356 -0.1359  0.2221
 9018SOL    HW138516   1.880   4.295   3.986 -0.4374  0.5047  0.6079
 9018SOL    HW238517   1.847   4.324   4.139  0.9148  1.1002 -0.9073
 9019SOL     OW38518   3.690   0.630   6.531  0.2097  0.1990  0.3549
 9019SOL    HW138519   3.617   0.689   6.552  0.4737  0.8887 -0.6451
 9019SOL    HW238520   3.766   0.686   6.551 -0.9073  0.1611  4.7202
 9020SOL     OW38521   4.686   1.024   0.818  0.2261 -0.2145 -0.1719
 9020SOL    HW138522   0.046   0.996   0.782 -0.0410  0.0415 -1.0066
 9020SOL    HW238523   4.696   1.113   0.851 -1.6152 -0.4117  0.9360
 9021SOL     OW38524   1.444   0.859  11.375  0.3662 -0.0020  0.3478
 9021SOL    HW138525   1.489   0.786  11.417  1.0623  1.3127  1.8646
 9021SOL    HW238526   1.484   0.866  11.289  1.2059 -0.6001  0.6959
 9022SOL     OW38527   1.571   2.704  10.021 -0.0167  1.1312 -0.0028
 9022SOL    HW138528   1.589   2.646  10.095 -0.7890  1.6272  0.5715
 9022SOL    HW238529   1.613   2.783  10.054 -0.0646  0.3988  1.8311
 9023SOL     OW38530   3.619   2.576  11.619 -0.0214 -0.2953  0.0236
 9023SOL    HW138531   3.549   2.550  11.558 -1.6347  3.0874  0.4534
 9023SOL    HW238532   3.695   2.590  11.563 -0.0741 -0.5364 -0.1110
 9024SOL     OW38533   1.257   3.749  17.521  0.0265  0.0062 -0.0932
 9024SOL    HW138534   1.239   3.655  17.515 -1.1470  0.0035  3.5744
 9024SOL    HW238535   1.175   3.765  17.474 -0.4073 -2.5012 -0.2157
 9025SOL     OW38536   2.726   2.655   4.171 -0.3196  1.0502  0.3620
 9025SOL    HW138537   2.679   2.713   4.111 -0.9855  0.5469  0.3964
 9025SOL    HW238538   2.742   2.577   4.119 -1.8729  1.0037 -0.0425
 9026SOL     OW38539   1.602   4.296   1.487  0.8500 -0.1666  0.1746
 9026SOL    HW138540   1.691   4.264   1.479  1.3313  1.8115 -2.4763
 9026SOL    HW238541   1.546   4.225   1.518 -0.3465  1.1887  1.1894
 9027SOL     OW38542   4.162   1.740   7.357  0.4951 -0.8672 -0.6105
 9027SOL    HW138543   4.068   1.741   7.339  0.8430 -2.0767 -2.5762
 9027SOL    HW238544   4.165   1.706   7.446 -0.1762 -0.0175 -0.2616
 9028SOL     OW38545   2.330   0.862   0.612 -0.7641 -0.2388 -0.1341
 9028SOL    HW138546   2.289   0.792   0.560  1.9053 -1.8700 -0.0544
 9028SOL    HW238547   2.364   0.919   0.543  0.1523  1.1761  1.4979
 9029SOL     OW38548   4.622   4.426   9.603  0.0634  0.1301  0.1040
 9029SOL    HW138549   4.591   4.491   9.541  2.7502 -0.9449 -2.3578
 9029SOL    HW238550   4.541   4.410   9.650 -0.1411 -1.5617 -0.8553
 9030SOL     OW38551   0.447   0.173   8.621 -0.4141 -0.2147 -0.1655
 9030SOL    HW138552   0.355   0.165   8.647  0.7282 -0.8186  3.6368
 9030SOL    HW238553   0.493   0.142   8.699  1.0894 -0.5069 -1.1660
 9031SOL     OW38554   2.913   3.748   8.418  0.5376  0.4644 -0.1160
 9031SOL    HW138555   2.868   3.770   8.500 -0.2487  1.1791 -0.7376
 9031SOL    HW238556   2.946   3.659   8.434 -0.3550  0.3286  1.0022
 9032SOL     OW38557   2.922   4.060  13.728  0.3300  0.0923 -0.1292
 9032SOL    HW138558   2.941   3.983  13.675 -0.4425 -0.3616  0.2524
 9032SOL    HW238559   2.911   4.028  13.818 -0.1731  0.0239 -0.2177
 9033SOL     OW38560   1.711   0.877  12.735 -0.4798 -0.3373 -0.6571
 9033SOL    HW138561   1.767   0.953  12.750  1.2096 -1.3440 -1.7412
 9033SOL    HW238562   1.690   0.853  12.825 -1.0239  2.6486 -0.0163
 9034SOL     OW38563   3.856   3.208   5.820 -0.4391  0.5374 -0.3003
 9034SOL    HW138564   3.902   3.125   5.811  0.6491  1.1340 -0.2937
 9034SOL    HW238565   3.870   3.236   5.911  0.4126 -1.5170  0.1933
 9035SOL     OW38566   0.642   3.518   8.524  0.3997 -0.5523 -0.6294
 9035SOL    HW138567   0.649   3.603   8.482 -0.3971 -0.2082 -0.0621
 9035SOL    HW238568   0.737   3.505   8.514  0.1985 -0.3987 -2.8437
 9036SOL     OW38569   2.659   4.066  11.676  0.2827  0.5489  0.0678
 9036SOL    HW138570   2.665   3.980  11.634 -1.0424 -0.6695  2.3932
 9036SOL    HW238571   2.742   4.070  11.723  0.8565 -0.6903 -0.8288
 9037SOL     OW38572   3.081   1.903   1.197 -0.1364 -0.0763 -0.6187
 9037SOL    HW138573   3.000   1.950   1.176 -0.3796 -1.5569 -2.9891
 9037SOL    HW238574   3.095   1.908   1.292 -2.5907 -2.1755 -0.1492
 9038SOL     OW38575   4.313   4.309   7.944 -0.7601  0.4875  0.4511
 9038SOL    HW138576   4.329   4.234   7.887 -1.4588 -0.7922  1.9681
 9038SOL    HW238577   4.405   4.333   7.953 -0.4034 -0.2125 -1.3251
 9039SOL     OW38578   2.923   1.247   2.186 -0.1554 -0.2036 -0.0963
 9039SOL    HW138579   2.973   1.246   2.105 -0.9596 -1.6201 -0.5831
 9039SOL    HW238580   2.872   1.169   2.163  0.8647 -0.9474  0.1552
 9040SOL     OW38581   3.978   1.077   8.417  0.0931  0.1206  0.1626
 9040SOL    HW138582   4.056   1.125   8.443  0.8765 -0.4750 -1.0794
 9040SOL    HW238583   3.969   1.026   8.497  1.0602  0.8387  0.7275
 9041SOL     OW38584   3.944   1.548   3.667 -0.2077 -0.0942 -0.1026
 9041SOL    HW138585   3.851   1.529   3.666 -0.2919  0.2748  0.6923
 9041SOL    HW238586   3.938   1.576   3.576 -0.8328  1.5275  0.4162
 9042SOL     OW38587   4.614   1.047   6.976  0.1192 -0.2205 -0.1347
 9042SOL    HW138588   4.673   1.064   6.902  1.2644 -0.5150  0.7268
 9042SOL    HW238589   4.628   1.132   7.016 -0.5173 -1.4029  2.5918
 9043SOL     OW38590   3.429   1.326   5.086 -0.3831  0.1577  0.1001
 9043SOL    HW138591   3.504   1.332   5.027 -0.7974  0.8497 -0.3666
 9043SOL    HW238592   3.386   1.411   5.078  0.3221  0.4940 -0.1555
 9044SOL     OW38593   2.601   0.198   2.906 -0.1387 -0.1052  0.3063
 9044SOL    HW138594   2.510   0.209   2.932 -0.2597  0.2032 -0.2428
 9044SOL    HW238595   2.596   0.167   2.815 -2.8829 -0.5117  0.5878
 9045SOL     OW38596   3.649   2.777   4.127  0.1593  0.3533  0.2471
 9045SOL    HW138597   3.743   2.793   4.118 -0.1418  0.6218 -2.5689
 9045SOL    HW238598   3.656   2.686   4.155 -1.2287  0.2525  0.2853
 9046SOL     OW38599   1.607   2.239   5.170 -0.4282  0.1350 -0.1004
 9046SOL    HW138600   1.625   2.268   5.260  0.4816 -0.4090 -0.1033
 9046SOL    HW238601   1.544   2.303   5.139  1.3382  2.0307  0.2311
 9047SOL     OW38602   2.638   2.979   3.647  0.3199 -0.2805 -0.5967
 9047SOL    HW138603   2.590   2.927   3.583  2.0093 -2.7251  0.1201
 9047SOL    HW238604   2.625   3.068   3.615 -0.0329  0.1504  0.7445
 9048SOL     OW38605   3.836   4.653  15.861  0.4678 -0.4572 -0.4701
 9048SOL    HW138606   3.789   0.012  15.853  0.9847 -0.2576 -1.5273
 9048SOL    HW238607   3.773   4.626  15.928  0.4368 -0.6035 -0.5598
 9049SOL     OW38608   4.630   2.944   3.865 -0.1959  0.0476  0.4758
 9049SOL    HW138609   4.614   3.037   3.850  0.7422  0.4187  1.7616
 9049SOL    HW238610   4.547   2.902   3.845 -0.1049  0.1739 -0.1766
 9050SOL     OW38611   1.590   4.188  10.002 -0.2727 -0.4666 -0.3358
 9050SOL    HW138612   1.514   4.137   9.973 -2.5528  1.5906  2.0902
 9050SOL    HW238613   1.577   4.269   9.953  2.7032  0.4056  0.3723
 9051SOL     OW38614   0.472   4.203  10.850  0.3105 -0.1777  0.1936
 9051SOL    HW138615   0.505   4.154  10.775 -0.4682 -1.2785  0.5762
 9051SOL    HW238616   0.548   4.224  10.904 -0.0705  2.7065 -0.3665
 9052SOL     OW38617   0.082   2.444   5.891  0.0748 -0.2860 -0.1186
 9052SOL    HW138618   0.062   2.359   5.931  2.0345 -0.5003  0.4162
 9052SOL    HW238619   0.092   2.408   5.803 -2.2541 -0.3890 -0.3295
 9053SOL     OW38620   0.744   1.735   5.901 -0.9679 -0.5626  0.2546
 9053SOL    HW138621   0.781   1.822   5.910 -2.0431 -0.0719 -0.0482
 9053SOL    HW238622   0.797   1.706   5.827  0.7506  0.1073  1.2216
 9054SOL     OW38623   0.245   3.483   2.012  0.4336 -0.1518 -0.0215
 9054SOL    HW138624   0.287   3.455   2.094  2.9168  1.4963 -0.7555
 9054SOL    HW238625   0.192   3.558   2.038  1.9597  1.1000 -0.5783
 9055SOL     OW38626   3.802   1.200   2.297 -0.5293 -0.5551 -0.6435
 9055SOL    HW138627   3.722   1.171   2.253 -1.4044  2.1835 -0.8250
 9055SOL    HW238628   3.848   1.116   2.295 -2.9865 -1.8496 -2.5079
 9056SOL     OW38629   1.256   0.431  13.903 -0.2417  0.2109 -0.0539
 9056SOL    HW138630   1.330   0.412  13.846  0.6835 -0.1341  1.2588
 9056SOL    HW238631   1.292   0.497  13.963  1.4223  1.0340 -1.9450
 9057SOL     OW38632   3.135   2.368   3.159 -0.7830 -0.0881 -0.1716
 9057SOL    HW138633   3.107   2.459   3.167  1.4328  0.5606  0.2202
 9057SOL    HW238634   3.077   2.344   3.087 -1.2460 -1.7064  0.7221
 9058SOL     OW38635   1.016   1.715   5.032  0.1377 -0.0443 -0.0794
 9058SOL    HW138636   1.008   1.803   4.997  2.6684  0.2750  0.1993
 9058SOL    HW238637   1.042   1.660   4.958  0.1925 -0.9840  0.6338
 9059SOL     OW38638   2.666   4.566  15.908 -0.1295  0.2247  0.1508
 9059SOL    HW138639   2.627   4.644  15.949  0.0994  0.6232 -0.3858
 9059SOL    HW238640   2.673   4.504  15.980  1.4783 -0.0270 -0.2401
 9060SOL     OW38641   1.768   3.033  16.408  0.0429 -0.4459 -0.0138
 9060SOL    HW138642   1.805   2.966  16.465  0.4437 -0.2329 -0.0179
 9060SOL    HW238643   1.778   3.109  16.466  1.3342 -0.8214  0.2681
 9061SOL     OW38644   2.771   1.607   2.157  0.1680  0.0218 -0.4705
 9061SOL    HW138645   2.706   1.538   2.174 -1.8810  1.7967 -1.1450
 9061SOL    HW238646   2.754   1.610   2.063 -0.6266  2.3300 -0.2421
 9062SOL     OW38647   2.341   3.080   3.706  0.5294 -0.2664  0.2379
 9062SOL    HW138648   2.413   3.140   3.723  0.0355 -0.0445  1.5510
 9062SOL    HW238649   2.309   3.067   3.796 -0.8761 -0.4641 -0.2784
 9063SOL     OW38650   4.538   0.343   9.958  0.8160  0.0888 -0.2521
 9063SOL    HW138651   4.564   0.415  10.016 -1.7932  0.5629  0.3511
 9063SOL    HW238652   4.592   0.353   9.880  0.3729 -0.1750 -0.5953
 9064SOL     OW38653   3.769   2.408   7.255  0.3874 -0.2114  0.3090
 9064SOL    HW138654   3.759   2.319   7.288  0.7421 -1.2486 -2.3496
 9064SOL    HW238655   3.836   2.436   7.317 -0.2668 -0.0608  0.9509
 9065SOL     OW38656   2.773   2.839  12.880  0.1569  0.8810 -0.3110
 9065SOL    HW138657   2.772   2.746  12.855  0.0324  0.8172 -0.0648
 9065SOL    HW238658   2.843   2.848  12.944 -0.7712  0.5443  0.7348
 9066SOL     OW38659   0.857   0.369  15.034  0.2107  0.2405  0.0721
 9066SOL    HW138660   0.898   0.292  15.074 -1.2391 -0.6321 -0.1503
 9066SOL    HW238661   0.832   0.335  14.948  2.2765 -0.8340 -0.1009
 9067SOL     OW38662   4.225   3.726  13.450  0.4086 -0.0002 -0.7111
 9067SOL    HW138663   4.241   3.813  13.414  1.0372  1.2894  2.7863
 9067SOL    HW238664   4.173   3.688  13.379  1.7903  0.5656 -2.0387
 9068SOL     OW38665   3.685   0.212   0.083 -0.1179 -0.0701  0.4598
 9068SOL    HW138666   3.686   0.120   0.110  1.7126 -0.1801  0.0017
 9068SOL    HW238667   3.720   0.256   0.160 -0.2855  3.3287 -1.4163
 9069SOL     OW38668   0.972   4.640  10.809 -0.0141 -0.4881 -0.1165
 9069SOL    HW138669   0.932   4.694  10.740 -2.9318 -0.5398  1.5113
 9069SOL    HW238670   0.977   4.704  10.880  0.9772 -0.4241 -0.2438
 9070SOL     OW38671   1.822   1.734   2.278 -0.2303 -0.2869 -0.0856
 9070SOL    HW138672   1.825   1.753   2.185  0.9212 -0.6755 -0.1307
 9070SOL    HW238673   1.909   1.758   2.311 -1.4025  1.6502  1.6301
 9071SOL     OW38674   2.084   2.675  10.445  0.5338  0.3556  0.0945
 9071SOL    HW138675   2.071   2.754  10.498 -1.0690 -0.1571  0.4747
 9071SOL    HW238676   2.085   2.715  10.357 -3.3555 -0.1484 -0.1947
 9072SOL     OW38677   2.269   0.800   3.698  0.3637  0.2568  0.4420
 9072SOL    HW138678   2.309   0.880   3.664 -0.2786  0.5559  0.4047
 9072SOL    HW238679   2.334   0.730   3.686  0.5193  0.7362 -1.5816
 9073SOL     OW38680   1.349   1.981   5.212  0.7222 -0.2719  0.5080
 9073SOL    HW138681   1.380   1.992   5.302 -0.7708 -1.4636  1.1832
 9073SOL    HW238682   1.428   1.954   5.166  0.6736  0.9370 -0.2925
 9074SOL     OW38683   3.520   1.930  16.991  0.2109 -0.1968  0.3336
 9074SOL    HW138684   3.547   1.978  16.912 -1.6776 -0.8140 -0.6824
 9074SOL    HW238685   3.603   1.889  17.014  0.5477  1.0038  1.2863
 9075SOL     OW38686   3.927   0.489   6.511 -0.1488 -0.1644 -0.0311
 9075SOL    HW138687   3.851   0.545   6.529 -0.6788 -1.1284  0.7185
 9075SOL    HW238688   3.886   0.408   6.481 -2.5822  0.9974  0.0840
 9076SOL     OW38689   0.461   0.708   3.513  0.1413 -0.3289 -0.4322
 9076SOL    HW138690   0.380   0.712   3.462 -0.5578 -2.0417  0.5409
 9076SOL    HW238691   0.431   0.767   3.581 -0.9455  0.5409 -1.6622
 9077SOL     OW38692   4.612   3.842  11.160  0.3973 -0.7894  0.1274
 9077SOL    HW138693   4.561   3.784  11.216 -1.6275  1.4580  0.6237
 9077SOL    HW238694   4.679   3.784  11.122 -1.1776 -2.3068 -0.3195
 9078SOL     OW38695   2.848   2.549   2.722  0.3588  0.1584  0.2249
 9078SOL    HW138696   2.875   2.460   2.699 -1.4985 -0.8557  1.8560
 9078SOL    HW238697   2.928   2.573   2.768 -0.1351 -1.0298  1.7385
 9079SOL     OW38698   0.151   4.516   6.738 -0.0262 -0.1802 -0.5824
 9079SOL    HW138699   0.230   4.464   6.750  0.7574  1.5327  1.7017
 9079SOL    HW238700   0.143   4.523   6.643 -0.2476  0.3626 -0.5274
 9080SOL     OW38701   2.865   4.163   2.658 -0.2385  0.0348  0.4011
 9080SOL    HW138702   2.853   4.252   2.623  2.6562  0.4260  0.4740
 9080SOL    HW238703   2.937   4.127   2.608 -0.6331  0.1306 -0.2396
 9081SOL     OW38704   4.503   0.027   5.530  0.2039 -0.6152  0.2264
 9081SOL    HW138705   4.545   0.112   5.541 -0.6650  0.0063 -1.1312
 9081SOL    HW238706   4.448   0.030   5.609  1.3802 -1.0496  1.0506
 9082SOL     OW38707   3.581   0.489   3.221 -0.1896 -0.3776  0.3453
 9082SOL    HW138708   3.548   0.573   3.188  0.0927 -0.8393 -1.1026
 9082SOL    HW238709   3.668   0.518   3.247  0.4475 -1.1415 -0.9365
 9083SOL     OW38710   2.772   1.715  17.602 -0.1969  0.4439  0.0026
 9083SOL    HW138711   2.858   1.721  17.562  0.4184  0.9034  1.4107
 9083SOL    HW238712   2.786   1.756  17.687 -1.4688 -1.6122  1.2005
 9084SOL     OW38713   3.626   1.086  15.623  0.4526 -0.1934 -0.3498
 9084SOL    HW138714   3.587   1.068  15.709  0.2056  1.4039 -0.1259
 9084SOL    HW238715   3.611   1.180  15.617 -0.0074 -0.2786 -0.5297
 9085SOL     OW38716   0.794   2.805   4.846 -0.0817 -0.6088  0.3893
 9085SOL    HW138717   0.727   2.761   4.898 -3.8977  1.2825 -2.9227
 9085SOL    HW238718   0.789   2.768   4.758  0.9221  1.1588 -0.4163
 9086SOL     OW38719   1.345   4.036   0.794  0.4669 -0.2565  0.0069
 9086SOL    HW138720   1.366   4.129   0.801 -0.6140  0.1704 -2.7871
 9086SOL    HW238721   1.298   4.012   0.875 -0.8191 -0.1606 -0.7158
 9087SOL     OW38722   0.930   3.369   9.131  0.1994  0.2377 -0.1655
 9087SOL    HW138723   1.019   3.389   9.160 -0.4669  2.1930  0.5618
 9087SOL    HW238724   0.932   3.412   9.045  2.2947  1.9243  0.7285
 9088SOL     OW38725   0.238   3.882   9.140  0.2617 -0.7779 -0.2184
 9088SOL    HW138726   0.314   3.830   9.115  0.0673 -0.5118 -1.3806
 9088SOL    HW238727   0.247   3.867   9.234  0.6097  1.7931  0.1520
 9089SOL     OW38728   2.320   1.312   7.422 -0.4888 -0.0102 -0.3422
 9089SOL    HW138729   2.339   1.400   7.391 -1.4238  0.6289  0.9150
 9089SOL    HW238730   2.386   1.300   7.491 -0.1199  0.9939 -0.5252
 9090SOL     OW38731   4.158   1.744   4.190  0.1514 -0.1991  0.3441
 9090SOL    HW138732   4.189   1.756   4.279  1.6937  3.0619 -0.6191
 9090SOL    HW238733   4.209   1.809   4.142 -0.7903 -0.6298 -1.2738
 9091SOL     OW38734   0.459   1.617   7.113 -0.1120  0.0425 -0.0238
 9091SOL    HW138735   0.477   1.605   7.020 -0.0595  1.5111 -0.1980
 9091SOL    HW238736   0.528   1.564   7.153  1.5881  3.3274  1.3271
 9092SOL     OW38737   4.637   1.299  12.652  0.0405 -0.1871 -0.1807
 9092SOL    HW138738   4.605   1.210  12.642 -0.3920 -0.2474  1.7374
 9092SOL    HW238739   4.559   1.346  12.619  2.0611  2.2373 -1.5211
 9093SOL     OW38740   3.305   0.966   8.411 -0.0180 -0.6782 -0.8847
 9093SOL    HW138741   3.265   0.880   8.423  0.7359 -0.5884  2.3344
 9093SOL    HW238742   3.386   0.952   8.363  0.9848  1.6203  0.1336
 9094SOL     OW38743   4.415   2.646   3.061  0.1725  0.0019  0.3556
 9094SOL    HW138744   4.449   2.703   2.992 -0.8889 -1.2470 -1.2017
 9094SOL    HW238745   4.370   2.577   3.012 -0.1697  2.0121 -2.1071
 9095SOL     OW38746   2.710   1.025  11.590  0.1346 -0.0619  0.3339
 9095SOL    HW138747   2.688   0.947  11.642  0.4024 -2.1259 -2.6545
 9095SOL    HW238748   2.628   1.072  11.603  0.8785  1.9040 -2.1862
 9096SOL     OW38749   2.415   0.489  11.708  0.8876 -0.2007 -0.2747
 9096SOL    HW138750   2.355   0.542  11.655 -0.1728 -0.9903  0.1302
 9096SOL    HW238751   2.411   0.406  11.660 -2.5366 -0.4672  0.4870
 9097SOL     OW38752   4.129   2.404   8.557  0.5147  0.4923 -0.6821
 9097SOL    HW138753   4.143   2.433   8.647 -0.7897 -1.7179  0.2081
 9097SOL    HW238754   4.088   2.483   8.520 -3.2091  0.0196  2.4270
 9098SOL     OW38755   3.038   3.102   7.365  0.1016  0.2240 -0.5688
 9098SOL    HW138756   3.068   3.173   7.422 -0.6780  1.0228 -1.1518
 9098SOL    HW238757   2.975   3.150   7.311 -0.0757  0.8272  0.1791
 9099SOL     OW38758   4.419   2.909   2.524  0.1859 -0.1911 -0.0152
 9099SOL    HW138759   4.379   2.825   2.506  0.9639 -0.5244 -0.1950
 9099SOL    HW238760   4.440   2.940   2.436  2.8048  1.4367  1.1695
 9100SOL     OW38761   2.035   3.327   5.163 -0.3339 -0.7042 -0.0049
 9100SOL    HW138762   2.119   3.360   5.130  0.7804 -1.9247  1.6115
 9100SOL    HW238763   1.962   3.379   5.130 -0.4309  0.2930  1.7790
 9101SOL     OW38764   0.006   0.538   3.421  0.2931 -0.4454 -0.1238
 9101SOL    HW138765   4.654   0.597   3.424  0.1715 -0.6704  1.2116
 9101SOL    HW238766   0.055   0.589   3.357  0.3587  2.1151  1.9307
 9102SOL     OW38767   2.910   0.287   6.298  0.6850 -0.3642  0.0414
 9102SOL    HW138768   2.937   0.225   6.366  0.4023  1.2152  1.5935
 9102SOL    HW238769   2.913   0.229   6.222 -0.7820  1.8157 -1.6671
 9103SOL     OW38770   4.104   3.965   0.644 -0.7541  0.1981  0.2562
 9103SOL    HW138771   4.057   3.949   0.726  1.2671  0.5214  1.5046
 9103SOL    HW238772   4.036   3.948   0.579  0.6028  1.3945 -1.4742
 9104SOL     OW38773   3.951   1.571  12.439  0.2193  0.1675  0.7508
 9104SOL    HW138774   4.046   1.567  12.428  0.3596  0.3875  1.9328
 9104SOL    HW238775   3.919   1.585  12.350  0.6880  1.9042  0.8593
 9105SOL     OW38776   0.705   2.221   1.595 -0.0655  0.3679  0.3079
 9105SOL    HW138777   0.627   2.219   1.540 -1.6047 -1.5129  2.5480
 9105SOL    HW238778   0.669   2.184   1.676  0.7077 -2.0339 -0.4551
 9106SOL     OW38779   1.451   1.614   1.246 -0.2990 -0.4660 -0.2997
 9106SOL    HW138780   1.483   1.524   1.243  0.8964 -0.0908  1.3199
 9106SOL    HW238781   1.493   1.653   1.169  1.7096  0.4392  1.2616
 9107SOL     OW38782   2.795   3.950  12.391  0.2461  0.0030 -0.0381
 9107SOL    HW138783   2.709   3.909  12.388  1.0440 -1.6696  0.0992
 9107SOL    HW238784   2.844   3.873  12.419  2.7684  1.6859  0.2251
 9108SOL     OW38785   1.253   1.543   3.507  0.4450 -0.6076 -0.1105
 9108SOL    HW138786   1.257   1.619   3.566 -0.8610 -0.0620 -0.7145
 9108SOL    HW238787   1.333   1.551   3.456  1.6458 -0.7767  1.7590
 9109SOL     OW38788   2.001   3.501   7.352 -0.3193  0.0295 -0.4667
 9109SOL    HW138789   2.077   3.469   7.303 -0.6451  0.9985 -1.5897
 9109SOL    HW238790   2.028   3.477   7.440 -1.2093 -2.1556 -0.7867
 9110SOL     OW38791   3.372   2.764   3.397 -0.3213 -0.2065  0.1666
 9110SOL    HW138792   3.309   2.780   3.467  0.8142 -4.1693  2.0548
 9110SOL    HW238793   3.335   2.819   3.328 -0.2758  0.1787  0.4497
 9111SOL     OW38794   4.048   0.935   0.604  0.2784  0.0178  0.0290
 9111SOL    HW138795   4.125   0.991   0.593 -0.8698  1.7176  0.5502
 9111SOL    HW238796   4.029   0.961   0.694 -0.2387  3.0591 -0.9345
 9112SOL     OW38797   1.978   1.996   3.222  0.1090 -0.6088  0.1563
 9112SOL    HW138798   2.005   1.950   3.143 -0.2642 -3.1293  1.4867
 9112SOL    HW238799   1.887   1.969   3.232 -1.1191  2.2970 -3.6917
 9113SOL     OW38800   0.659   1.070   3.044 -0.3890  0.1804  0.3576
 9113SOL    HW138801   0.650   1.123   3.123  1.4473  0.5806  0.2961
 9113SOL    HW238802   0.660   0.985   3.089 -0.5732  0.6116  1.1757
 9114SOL     OW38803   0.061   4.703  10.415 -0.1816  0.4125 -0.5124
 9114SOL    HW138804   0.110   0.047  10.462  1.2921 -0.7738 -0.3229
 9114SOL    HW238805   4.702   4.703  10.462  1.1346 -2.3873  1.7977
 9115SOL     OW38806   3.664   4.096  13.358  0.0689 -0.1267  0.2192
 9115SOL    HW138807   3.580   4.137  13.380  0.4378 -0.3349  1.9484
 9115SOL    HW238808   3.665   4.032  13.429  0.6918  0.6409  0.9049
 9116SOL     OW38809   4.645   3.540   5.311 -0.2841 -0.4647 -0.1266
 9116SOL    HW138810   4.723   3.544   5.365 -0.7434  1.6806  0.3961
 9116SOL    HW238811   4.660   3.464   5.255  2.0088 -0.1815  0.1285
 9117SOL     OW38812   3.941   0.968   2.292 -0.6004 -0.2780 -0.3722
 9117SOL    HW138813   3.994   1.007   2.222  2.0764 -1.7999  0.8080
 9117SOL    HW238814   4.006   0.905   2.322 -1.9860 -1.4495  0.1629
 9118SOL     OW38815   3.517   4.285   8.085  0.0109 -0.1236 -0.4331
 9118SOL    HW138816   3.512   4.357   8.147 -0.1380 -0.5108  0.0064
 9118SOL    HW238817   3.499   4.331   8.003  0.3249 -0.9932 -0.9947
 9119SOL     OW38818   1.950   4.094   1.105 -0.2994  0.2020  0.1919
 9119SOL    HW138819   1.888   4.130   1.042  1.2238  1.1519 -0.7709
 9119SOL    HW238820   2.002   4.037   1.048 -2.3355 -0.8513 -0.6295
 9120SOL     OW38821   0.372   2.997   2.914  0.4289 -0.4156  0.1141
 9120SOL    HW138822   0.359   2.953   2.830  1.1135  1.7006 -1.1110
 9120SOL    HW238823   0.294   2.993   2.969  0.3371  1.1205  0.0836
 9121SOL     OW38824   1.189   1.858  11.261 -0.1131 -0.0347 -0.7191
 9121SOL    HW138825   1.274   1.821  11.240  1.2929  1.9940  1.4487
 9121SOL    HW238826   1.170   1.805  11.339  1.4939  1.2747  0.5719
 9122SOL     OW38827   2.461   3.435   5.838 -0.0146  0.0130  0.8048
 9122SOL    HW138828   2.427   3.504   5.895  0.5368  2.0397 -1.3135
 9122SOL    HW238829   2.385   3.432   5.780  0.7471 -0.1222 -0.1830
 9123SOL     OW38830   0.954   0.726   5.786  0.1024  0.2552  0.8001
 9123SOL    HW138831   1.046   0.699   5.792  0.1737  0.4078  0.3881
 9123SOL    HW238832   0.962   0.821   5.795  0.7316  0.3746 -1.0014
 9124SOL     OW38833   3.757   0.317   0.342 -0.2296  0.0300 -0.7291
 9124SOL    HW138834   3.706   0.396   0.321 -0.0347  0.1439 -0.7688
 9124SOL    HW238835   3.839   0.353   0.375 -1.1344  0.3801  1.1382
 9125SOL     OW38836   2.774   0.640   8.672 -0.1518 -0.3298  0.3398
 9125SOL    HW138837   2.753   0.573   8.738 -1.8320  0.2476  0.4060
 9125SOL    HW238838   2.774   0.590   8.590 -2.1233  2.2350 -1.2264
 9126SOL     OW38839   3.589   1.687  14.972  0.1578 -0.4606  0.7563
 9126SOL    HW138840   3.549   1.645  14.895  0.7422  2.2255 -1.0001
 9126SOL    HW238841   3.510   1.719  15.015 -0.1425 -0.0835 -0.0699
 9127SOL     OW38842   2.696   3.572   0.706 -0.4233  0.4641  0.0558
 9127SOL    HW138843   2.618   3.601   0.752 -0.6776 -2.9144  1.7205
 9127SOL    HW238844   2.728   3.656   0.671  0.8896 -0.4872 -1.0335
 9128SOL     OW38845   3.913   0.728   6.082  0.0303 -0.6825 -0.4300
 9128SOL    HW138846   3.884   0.791   6.148  0.1753 -1.1954  0.1250
 9128SOL    HW238847   3.847   0.745   6.015  0.9858 -1.5304 -1.5809
 9129SOL     OW38848   0.503   1.447   0.441 -0.0766 -0.1766 -0.2347
 9129SOL    HW138849   0.596   1.445   0.420 -0.1966 -2.7141 -0.5328
 9129SOL    HW238850   0.480   1.356   0.461 -1.7902  0.5880  1.2666
 9130SOL     OW38851   4.397   1.522   2.382  1.0406 -0.0566 -0.0499
 9130SOL    HW138852   4.457   1.470   2.436 -0.4555 -0.7136  0.9741
 9130SOL    HW238853   4.424   1.502   2.292 -1.4398 -0.0842 -0.7952
 9131SOL     OW38854   1.287   0.759   6.326  0.0486  0.4887  0.3011
 9131SOL    HW138855   1.371   0.794   6.355  0.9813 -2.8165  1.4917
 9131SOL    HW238856   1.279   0.815   6.248  1.4713 -0.1892 -0.3466
 9132SOL     OW38857   3.615   0.426   0.611  0.3113 -0.5928 -0.3305
 9132SOL    HW138858   3.596   0.401   0.701  1.6330  0.3104  0.1935
 9132SOL    HW238859   3.710   0.419   0.612  0.4661  1.6457  0.1945
 9133SOL     OW38860   0.336   1.868   6.019 -0.2393  0.4867 -0.0770
 9133SOL    HW138861   0.413   1.820   6.048  0.3923  2.3858  1.4359
 9133SOL    HW238862   0.372   1.952   5.991  3.2432 -0.5768  1.2259
 9134SOL     OW38863   4.587   2.514   7.064 -0.1152  0.1241 -0.1245
 9134SOL    HW138864   4.508   2.525   7.011 -1.3009  0.0566  1.6102
 9134SOL    HW238865   4.646   2.541   6.993  0.9108  1.0749  1.0865
 9135SOL     OW38866   0.106   3.667  15.258  0.2918 -0.2478  0.3477
 9135SOL    HW138867   0.178   3.658  15.320 -0.0917 -3.4822  0.2847
 9135SOL    HW238868   0.046   3.730  15.299  0.4824 -0.0719  0.3561
 9136SOL     OW38869   0.121   4.008  14.375  0.1184  0.2282 -0.2501
 9136SOL    HW138870   0.031   3.986  14.400 -0.0320  1.7856  0.5517
 9136SOL    HW238871   0.146   4.070  14.443  0.3061 -0.2772  0.1388
 9137SOL     OW38872   0.973   2.360   8.040 -0.3189 -0.0873 -0.7247
 9137SOL    HW138873   0.962   2.405   7.956  0.7474  1.6378  0.0580
 9137SOL    HW238874   0.885   2.336   8.071 -0.9450  3.9811  0.6719
 9138SOL     OW38875   1.235   3.403   3.126  0.0903  0.5581 -0.1693
 9138SOL    HW138876   1.320   3.384   3.087  0.0689 -1.3787  0.7085
 9138SOL    HW238877   1.198   3.478   3.080 -1.9339 -0.2656  0.1083
 9139SOL     OW38878   1.410   1.167   3.507  0.4258  0.0411  0.1607
 9139SOL    HW138879   1.413   1.071   3.497  1.9855  0.1149 -0.1845
 9139SOL    HW238880   1.504   1.187   3.508  0.3474  0.3306  1.0900
 9140SOL     OW38881   0.766   4.280   5.200  0.0992  0.1512 -0.0697
 9140SOL    HW138882   0.692   4.261   5.259  0.9939 -2.0070  0.3556
 9140SOL    HW238883   0.812   4.196   5.192  0.1202  0.2601 -1.0646
 9141SOL     OW38884   3.045   3.494  11.574 -0.1202 -0.2161 -0.6548
 9141SOL    HW138885   3.038   3.550  11.651 -1.1110 -1.8549  0.4405
 9141SOL    HW238886   3.140   3.495  11.559 -0.0690 -0.3239 -0.3387
 9142SOL     OW38887   4.197   4.174  10.396  0.1083 -0.1414 -0.2338
 9142SOL    HW138888   4.293   4.169  10.402  0.1521 -0.0296 -0.8532
 9142SOL    HW238889   4.181   4.090  10.352 -0.5639  0.5724 -1.3685
 9143SOL     OW38890   3.680   1.220  14.763 -0.8843  0.1335 -0.8494
 9143SOL    HW138891   3.716   1.199  14.849 -0.7693  0.0857 -0.9084
 9143SOL    HW238892   3.701   1.141  14.713 -1.9436  0.0802 -1.2035
 9144SOL     OW38893   3.185   4.571  10.898  0.0489 -0.2996 -0.3981
 9144SOL    HW138894   3.129   4.499  10.929  0.1467 -0.4023 -0.4618
 9144SOL    HW238895   3.238   4.523  10.835  1.4679 -0.1690  0.6952
 9145SOL     OW38896   3.044   1.784   3.876  0.0477  0.4836 -0.6056
 9145SOL    HW138897   3.135   1.762   3.897 -0.0382 -0.5228 -1.3127
 9145SOL    HW238898   3.050   1.801   3.782  2.7153  3.0069  0.0167
 9146SOL     OW38899   4.549   2.623   4.853  0.1380 -0.6048 -0.0770
 9146SOL    HW138900   4.513   2.547   4.808 -0.5332 -0.7308  0.6718
 9146SOL    HW238901   4.616   2.586   4.911 -0.2703 -1.2224  0.0011
 9147SOL     OW38902   4.051   3.692   3.174 -0.2619  0.1654 -0.0712
 9147SOL    HW138903   4.052   3.745   3.094  0.4399 -1.0340 -0.8503
 9147SOL    HW238904   3.978   3.634   3.152  0.9411 -1.0392 -0.8451
 9148SOL     OW38905   0.427   3.700   5.997 -0.6429  0.2578  0.8384
 9148SOL    HW138906   0.443   3.750   5.917 -1.2926  0.8063  1.0576
 9148SOL    HW238907   0.515   3.692   6.036 -0.5020  1.0419  0.6780
 9149SOL     OW38908   4.004   1.311   6.196 -0.0928  0.0058 -0.0881
 9149SOL    HW138909   4.022   1.217   6.198  2.8666  0.5816  0.1703
 9149SOL    HW238910   3.999   1.317   6.291  0.9175  0.5614 -0.0619
 9150SOL     OW38911   3.648   2.109  14.190  0.0579 -0.3617  0.5851
 9150SOL    HW138912   3.599   2.118  14.271 -0.3000 -1.6165  0.5074
 9150SOL    HW238913   3.709   2.041  14.218 -0.4114 -1.3379 -0.8012
 9151SOL     OW38914   2.023   3.164  10.804  0.1916  0.4590 -0.0837
 9151SOL    HW138915   2.092   3.141  10.866 -0.3199 -1.1943 -0.1089
 9151SOL    HW238916   2.078   3.149  10.727  0.5813 -1.4992  0.5611
 9152SOL     OW38917   0.944   4.015   6.955 -0.3826  0.5331  0.8010
 9152SOL    HW138918   0.992   4.041   7.034  0.1900  1.0927  0.2696
 9152SOL    HW238919   0.861   4.021   7.003 -0.1344  1.3296  1.1246
 9153SOL     OW38920   0.495   4.206  13.171  0.1265  0.7818 -0.0851
 9153SOL    HW138921   0.430   4.149  13.213  2.1374 -0.1947  1.6846
 9153SOL    HW238922   0.533   4.152  13.102  1.4319  1.5542  0.0402
 9154SOL     OW38923   2.817   1.346  14.139  0.7407 -0.0397 -0.1878
 9154SOL    HW138924   2.822   1.413  14.207  1.1716  0.0490 -0.3062
 9154SOL    HW238925   2.891   1.369  14.083  0.5305  1.4165  0.1373
 9155SOL     OW38926   0.129   3.367   4.600 -0.6186  0.2230  0.0156
 9155SOL    HW138927   0.222   3.374   4.580 -0.0107 -0.9108  2.4770
 9155SOL    HW238928   0.104   3.342   4.511  1.0903 -0.7006 -0.2045
 9156SOL     OW38929   0.232   2.304   2.621  0.0507  0.0184 -0.3244
 9156SOL    HW138930   0.221   2.302   2.526 -2.1689 -2.1953 -0.0298
 9156SOL    HW238931   0.177   2.231   2.649 -1.2467  1.1133 -0.0753
 9157SOL     OW38932   2.236   4.038   9.337  0.2554 -0.0311  0.2869
 9157SOL    HW138933   2.319   4.021   9.382  0.4025  1.5901  0.6486
 9157SOL    HW238934   2.200   3.951   9.321 -0.4545  0.3890 -0.4116
 9158SOL     OW38935   1.536   2.533  17.037  0.0816  0.0649 -0.8471
 9158SOL    HW138936   1.444   2.544  17.010  0.3658 -0.6441 -2.1063
 9158SOL    HW238937   1.541   2.574  17.123  0.7839  1.8346 -1.7303
 9159SOL     OW38938   1.875   1.025   8.213 -0.4454 -0.1940 -0.4635
 9159SOL    HW138939   1.872   0.931   8.230 -0.0804 -0.0105  0.6023
 9159SOL    HW238940   1.780   1.041   8.209 -0.5584 -0.8539 -0.5420
 9160SOL     OW38941   2.814   4.116   4.485  0.2609 -0.6488  0.3602
 9160SOL    HW138942   2.891   4.172   4.478 -0.4264  0.2382 -0.1149
 9160SOL    HW238943   2.837   4.051   4.419 -0.4788 -0.9676  0.4076
 9161SOL     OW38944   4.174   2.806  15.055  0.0403  0.0762 -0.1011
 9161SOL    HW138945   4.226   2.844  14.984  0.4986  0.2112  0.2992
 9161SOL    HW238946   4.157   2.886  15.105  2.2019  0.1443  0.5497
 9162SOL     OW38947   2.592   0.283   8.529 -0.1236 -0.0710  0.1746
 9162SOL    HW138948   2.576   0.356   8.469  1.9373 -1.5494 -2.1866
 9162SOL    HW238949   2.499   0.261   8.523  0.2068 -1.3621 -0.1798
 9163SOL     OW38950   2.697   4.038   6.731 -0.5116 -0.1676 -0.0498
 9163SOL    HW138951   2.609   4.003   6.741 -1.1855  1.5768  0.1062
 9163SOL    HW238952   2.694   4.114   6.790 -1.5104 -1.7372  1.8928
 9164SOL     OW38953   4.184   0.210  16.587  0.9890 -0.1483  0.4103
 9164SOL    HW138954   4.200   0.218  16.681 -2.4594 -2.0058  1.1401
 9164SOL    HW238955   4.275   0.194  16.561  0.9688  1.4893 -0.6683
 9165SOL     OW38956   0.472   3.784   0.390  0.0929 -0.1439 -0.1481
 9165SOL    HW138957   0.548   3.841   0.401 -0.1267 -0.3167  2.1749
 9165SOL    HW238958   0.489   3.721   0.460  0.6696  2.3043  1.8965
 9166SOL     OW38959   3.118   3.849   7.950 -0.3483  0.2805  0.2984
 9166SOL    HW138960   3.091   3.826   8.039 -0.0915 -0.2458  0.2454
 9166SOL    HW238961   3.035   3.826   7.909  0.0213 -2.6388  1.1530
 9167SOL     OW38962   4.190   2.044   1.710  0.1552 -0.0526 -0.1297
 9167SOL    HW138963   4.281   2.071   1.696  1.1062 -2.4450  1.5169
 9167SOL    HW238964   4.158   2.031   1.621 -0.5054 -1.5070  0.3158
 9168SOL     OW38965   1.638   0.580   8.417  0.1230  0.2344  0.1231
 9168SOL    HW138966   1.580   0.554   8.489 -0.9822 -1.6945 -1.4522
 9168SOL    HW238967   1.593   0.660   8.390 -0.1412  0.5754  1.5759
 9169SOL     OW38968   0.767   2.347   4.794  0.3038  0.4134  0.3116
 9169SOL    HW138969   0.818   2.325   4.872  0.2335 -1.3374 -0.1408
 9169SOL    HW238970   0.802   2.287   4.728  0.4348 -0.2591  0.9815
 9170SOL     OW38971   3.868   2.048   5.395 -0.1760 -0.1379  0.0303
 9170SOL    HW138972   3.904   2.000   5.470  1.2078 -0.8377 -1.0707
 9170SOL    HW238973   3.780   2.057   5.433 -0.6818  1.0552 -1.4335
 9171SOL     OW38974   2.636   1.421   1.475  0.6009 -0.0977 -0.3061
 9171SOL    HW138975   2.683   1.339   1.492  0.9703 -0.6521 -3.9765
 9171SOL    HW238976   2.585   1.405   1.396  0.0688 -1.5084  0.3241
 9172SOL     OW38977   4.246   2.566   5.064  0.2698 -0.2768  0.4430
 9172SOL    HW138978   4.179   2.499   5.051  0.1565  0.1193 -1.0269
 9172SOL    HW238979   4.215   2.631   5.000  1.4273 -1.1563 -1.0377
 9173SOL     OW38980   3.646   0.483  14.733 -0.5883  0.8132 -0.2042
 9173SOL    HW138981   3.652   0.399  14.688  0.0667 -0.4985  2.2898
 9173SOL    HW238982   3.722   0.479  14.791 -0.8215  0.5604  0.0902
 9174SOL     OW38983   4.159   3.820   0.195  0.7228  0.3149 -0.5427
 9174SOL    HW138984   4.161   3.859   0.108 -1.7126 -1.2550 -1.2968
 9174SOL    HW238985   4.070   3.783   0.196  0.7437  0.2673 -0.4481
 9175SOL     OW38986   4.417   4.395   8.879 -0.6869  0.3091 -0.0098
 9175SOL    HW138987   4.437   4.304   8.904 -1.0192  0.4779  0.8626
 9175SOL    HW238988   4.322   4.402   8.885 -0.8561 -0.0967 -1.9672
 9176SOL     OW38989   3.060   2.844   8.498  0.3451  0.3679 -0.1418
 9176SOL    HW138990   3.154   2.828   8.498 -0.0735 -2.0302  1.3761
 9176SOL    HW238991   3.061   2.925   8.447 -1.2952  0.6962  0.3420
 9177SOL     OW38992   0.392   2.898   1.658 -0.5559 -0.1586  0.2684
 9177SOL    HW138993   0.392   2.993   1.672  0.7564  0.1880 -2.1597
 9177SOL    HW238994   0.398   2.896   1.563  2.4756 -0.8196  0.4817
 9178SOL     OW38995   0.199   3.482   2.299 -0.2474 -0.2971 -0.6596
 9178SOL    HW138996   0.196   3.392   2.330 -0.9547  0.2124  0.7713
 9178SOL    HW238997   0.115   3.500   2.256  0.2646  0.2855 -1.4107
 9179SOL     OW38998   2.492   2.607   3.162  0.0995 -0.5540  0.5883
 9179SOL    HW138999   2.429   2.544   3.129 -0.0595  0.4335 -1.0198
 9179SOL    HW239000   2.445   2.627   3.243  0.3148 -0.2992  0.6512
 9180SOL     OW39001   1.864   3.908  11.194 -0.4168 -0.3774 -0.2868
 9180SOL    HW139002   1.954   3.906  11.225  0.1780 -2.0600 -2.1726
 9180SOL    HW239003   1.842   3.815  11.191 -0.9453 -0.2746  0.4818
 9181SOL     OW39004   1.253   2.396   0.888 -0.0055  0.3056  0.6435
 9181SOL    HW139005   1.316   2.456   0.849 -0.9912  0.3369 -0.8898
 9181SOL    HW239006   1.250   2.327   0.821 -3.1356  2.3479 -1.2985
 9182SOL     OW39007   2.916   3.585   6.417 -0.2242 -0.2587  0.1052
 9182SOL    HW139008   2.953   3.501   6.444 -1.6159 -0.8082  0.3200
 9182SOL    HW239009   2.900   3.621   6.504 -1.7759  2.4306 -1.2842
 9183SOL     OW39010   3.616   3.602  16.664  0.5219  0.7591  0.3028
 9183SOL    HW139011   3.626   3.523  16.610  3.2016  0.7066  0.8563
 9183SOL    HW239012   3.521   3.606  16.671  0.3373 -4.0281  0.5942
 9184SOL     OW39013   0.277   0.799   5.374  0.2217  0.3998 -0.4538
 9184SOL    HW139014   0.339   0.748   5.321  0.9248 -0.3715  1.0997
 9184SOL    HW239015   0.303   0.889   5.355 -0.0897  0.1551 -2.0086
 9185SOL     OW39016   4.313   1.379   8.073 -0.2420  0.1966 -0.5463
 9185SOL    HW139017   4.264   1.462   8.080  0.2211  0.4340 -0.1521
 9185SOL    HW239018   4.372   1.392   7.999  1.0681  1.5551  0.7476
 9186SOL     OW39019   2.943   1.281   4.529  0.1454 -0.7182 -0.0339
 9186SOL    HW139020   3.019   1.234   4.496  0.1255 -1.7882  1.4543
 9186SOL    HW239021   2.928   1.235   4.612 -0.3712  0.9022  0.7857
 9187SOL     OW39022   2.992   3.305   9.520  0.0050  0.8412 -0.3912
 9187SOL    HW139023   3.047   3.382   9.533 -0.1269  0.5165  2.1421
 9187SOL    HW239024   2.987   3.295   9.425  2.3024 -2.5938 -0.1592
 9188SOL     OW39025   2.757   0.978   0.421 -0.5429  0.2573  0.1982
 9188SOL    HW139026   2.754   0.959   0.327 -0.0238  1.2457 -0.0170
 9188SOL    HW239027   2.850   1.002   0.426 -0.5524  0.7906 -2.2464
 9189SOL     OW39028   0.672   3.857   1.602  0.5940  0.1074  0.1312
 9189SOL    HW139029   0.612   3.875   1.675 -0.2063 -0.4650 -0.3771
 9189SOL    HW239030   0.643   3.910   1.527 -2.2615 -2.2183 -0.4290
 9190SOL     OW39031   4.466   0.239   9.026 -0.1283 -0.0439 -0.0863
 9190SOL    HW139032   4.429   0.208   9.109  1.2351 -0.5986  0.3307
 9190SOL    HW239033   4.549   0.271   9.061 -1.1183 -0.1381  2.3912
 9191SOL     OW39034   1.032   1.328   1.196  0.3012  0.0033 -0.9377
 9191SOL    HW139035   0.977   1.396   1.234 -1.4532 -1.6675 -0.5290
 9191SOL    HW239036   1.113   1.377   1.182  1.2591 -0.7567  1.9835
 9192SOL     OW39037   0.418   4.583   8.120  0.2778  0.3993 -0.5811
 9192SOL    HW139038   0.363   4.586   8.041 -1.2095  2.5132  0.5258
 9192SOL    HW239039   0.432   4.676   8.137 -2.5906  0.3890  1.7992
 9193SOL     OW39040   2.471   4.001   5.460  0.5605  0.4046 -0.2484
 9193SOL    HW139041   2.432   3.958   5.384  1.1246  1.7093 -1.2789
 9193SOL    HW239042   2.483   4.090   5.427 -0.9492  0.6808 -0.0705
 9194SOL     OW39043   2.707   3.790   8.607  0.1971  0.1990  0.1170
 9194SOL    HW139044   2.663   3.868   8.640 -0.2564 -0.4020  0.9349
 9194SOL    HW239045   2.675   3.796   8.517  0.7326  0.0427 -0.0821
 9195SOL     OW39046   3.870   0.600  17.386 -0.5404 -0.0864  0.4495
 9195SOL    HW139047   3.898   0.620  17.297 -0.2351  1.4446  0.8974
 9195SOL    HW239048   3.935   0.532  17.405  0.0182  0.3505  0.1009
 9196SOL     OW39049   0.811   3.832   2.583 -0.1475  0.5956 -0.2889
 9196SOL    HW139050   0.785   3.790   2.501  0.5991 -0.6397  0.0997
 9196SOL    HW239051   0.723   3.853   2.613 -0.4628 -1.7381  0.3888
 9197SOL     OW39052   0.390   2.070   5.268  0.1903  0.2121 -0.1978
 9197SOL    HW139053   0.435   2.113   5.341 -0.8613  0.6803  0.1780
 9197SOL    HW239054   0.359   2.144   5.215 -2.8715  0.4970  2.0323
 9198SOL     OW39055   4.486   3.850   2.514 -0.4303  0.5000 -0.2899
 9198SOL    HW139056   4.532   3.803   2.584  0.1477  1.5970  0.0724
 9198SOL    HW239057   4.415   3.789   2.491 -0.7448  0.7727 -0.0301
 9199SOL     OW39058   1.028   0.211   8.682  0.0821 -0.5253 -0.1132
 9199SOL    HW139059   1.119   0.240   8.685 -0.1089  0.1179 -0.6395
 9199SOL    HW239060   1.039   0.118   8.705  0.6528 -0.6302 -0.8323
 9200SOL     OW39061   2.895   2.845   9.076  0.4126 -0.1891 -0.3449
 9200SOL    HW139062   2.905   2.753   9.098  0.8230 -0.4692 -1.7396
 9200SOL    HW239063   2.939   2.877   9.155 -0.6973  2.1349 -0.6668
 9201SOL     OW39064   2.016   4.525   3.685  0.0187  0.0386  0.5581
 9201SOL    HW139065   2.112   4.523   3.686  0.0444  1.4103  1.2549
 9201SOL    HW239066   1.992   4.481   3.603  3.9899  2.5444 -1.9861
 9202SOL     OW39067   3.488   1.127  16.124 -0.0234  0.3151 -0.0612
 9202SOL    HW139068   3.535   1.093  16.201  0.7710 -2.1737 -1.6420
 9202SOL    HW239069   3.554   1.124  16.054 -0.3220  1.6420 -0.3970
 9203SOL     OW39070   1.267   4.618   7.232 -0.4066 -0.5724 -0.0543
 9203SOL    HW139071   1.210   4.653   7.301 -0.7666 -2.1807  0.4438
 9203SOL    HW239072   1.354   4.613   7.272 -0.8958  0.9839  1.2365
 9204SOL     OW39073   3.301   4.117  14.897 -0.1572  0.2698  0.7722
 9204SOL    HW139074   3.383   4.087  14.859 -0.8444 -1.0632  0.3335
 9204SOL    HW239075   3.284   4.193  14.841 -1.2244 -1.8095 -1.7377
 9205SOL     OW39076   0.598   2.556   1.654  0.1012 -0.2737 -0.2077
 9205SOL    HW139077   0.625   2.645   1.676 -0.9332 -0.4954  1.9217
 9205SOL    HW239078   0.685   2.516   1.664 -0.5640 -1.3818  1.0887
 9206SOL     OW39079   1.550   1.711  10.000  0.3840 -0.0006 -0.2682
 9206SOL    HW139080   1.533   1.662   9.920 -0.5782  0.1015 -0.1238
 9206SOL    HW239081   1.645   1.725   9.992  0.3345 -0.4010 -1.4552
 9207SOL     OW39082   3.375   1.472   0.031 -0.4924  0.2700  0.9477
 9207SOL    HW139083   3.440   1.439   0.093  0.3341  2.1915  1.1108
 9207SOL    HW239084   3.389   1.426  17.645 -0.7583 -0.3378  1.2423
 9208SOL     OW39085   0.240   0.243   6.760  0.1261 -0.0576 -0.2851
 9208SOL    HW139086   0.223   0.321   6.708  0.3118  1.0019  1.2475
 9208SOL    HW239087   0.165   0.192   6.727 -0.3958 -1.0191  2.4125
 9209SOL     OW39088   0.304   3.921   9.409 -0.4969 -0.6194  0.3039
 9209SOL    HW139089   0.257   3.946   9.488 -1.2519  1.3737 -0.7451
 9209SOL    HW239090   0.349   4.004   9.390 -1.1230 -0.2306  0.5299
 9210SOL     OW39091   1.868   2.645   9.320 -0.3582  0.5485  0.5554
 9210SOL    HW139092   1.939   2.630   9.257 -1.8359 -1.8925 -0.5081
 9210SOL    HW239093   1.806   2.662   9.250 -1.8826  0.2122  1.8409
 9211SOL     OW39094   3.198   0.940  15.242  0.6072 -0.0406  0.7267
 9211SOL    HW139095   3.235   1.027  15.229 -3.4688  1.3327 -1.3218
 9211SOL    HW239096   3.122   0.925  15.186  0.6852  1.1453  0.3136
 9212SOL     OW39097   0.201   4.055   4.885 -0.3505 -0.2744  0.4720
 9212SOL    HW139098   0.142   4.127   4.865 -0.6261 -1.2973 -2.3499
 9212SOL    HW239099   0.132   4.003   4.926 -0.1167 -1.0178 -0.0817
 9213SOL     OW39100   4.572   0.808   4.717 -0.3194  0.5813 -0.3077
 9213SOL    HW139101   4.666   0.802   4.701 -0.1212 -1.2838  1.7162
 9213SOL    HW239102   4.532   0.758   4.646 -2.5335  2.8840 -0.7039
 9214SOL     OW39103   0.077   1.864   1.389 -0.3693  0.0114  0.1668
 9214SOL    HW139104   0.137   1.820   1.449  0.4559  0.0207 -0.6677
 9214SOL    HW239105   4.721   1.815   1.410  0.1846 -0.3078  1.4967
 9215SOL     OW39106   1.773   0.588   7.878  0.3380  0.6033 -0.0606
 9215SOL    HW139107   1.754   0.618   7.789 -0.5422 -1.0860 -0.4381
 9215SOL    HW239108   1.686   0.550   7.893  0.8897  0.5990  3.0295
 9216SOL     OW39109   1.456   1.624   3.323 -0.0873  0.4548  0.1188
 9216SOL    HW139110   1.547   1.609   3.298 -0.1965  0.3614 -0.2166
 9216SOL    HW239111   1.432   1.688   3.256 -0.2671 -0.0928 -0.3359
 9217SOL     OW39112   0.264   0.927   6.174 -0.3170  1.1438  0.2594
 9217SOL    HW139113   0.176   0.957   6.152 -0.5550 -1.1959 -1.9766
 9217SOL    HW239114   0.322   0.979   6.120 -0.6910  1.9210  0.6028
 9218SOL     OW39115   3.749   1.350   3.641  0.0032  0.1413 -0.1374
 9218SOL    HW139116   3.751   1.258   3.614  1.5866 -0.2928  1.5524
 9218SOL    HW239117   3.654   1.366   3.642 -0.2368 -1.1619 -0.9486
 9219SOL     OW39118   1.898   4.703   3.005  0.0772 -0.4869  0.7103
 9219SOL    HW139119   1.884   0.070   2.975  1.2056 -0.3649  0.5851
 9219SOL    HW239120   1.808   4.672   2.998 -0.2881  0.2084  2.1135
 9220SOL     OW39121   3.645   4.441   5.773  0.5438  0.5396 -0.3193
 9220SOL    HW139122   3.728   4.464   5.814  0.8279 -0.5164 -0.2893
 9220SOL    HW239123   3.590   4.487   5.836 -1.9744 -3.0183  0.1144
 9221SOL     OW39124   3.299   4.342   0.063 -0.6375  0.0771 -0.0280
 9221SOL    HW139125   3.223   4.297   0.026 -0.2002 -0.2743 -0.4870
 9221SOL    HW239126   3.264   4.432   0.062  3.3596  1.6512  1.4188
 9222SOL     OW39127   4.352   0.799   7.948 -0.1903 -0.3025 -0.5684
 9222SOL    HW139128   4.436   0.843   7.957 -1.0430  0.9894  0.9184
 9222SOL    HW239129   4.387   0.710   7.951 -0.5449 -0.4028  0.6787
 9223SOL     OW39130   0.767   1.936   4.535  0.3591  0.4745  0.6903
 9223SOL    HW139131   0.781   1.927   4.629  2.4681  0.5490  0.3864
 9223SOL    HW239132   0.676   1.907   4.532  0.4330  0.2504  0.6310
 9224SOL     OW39133   0.060   0.613   3.111  0.5033  0.0802  0.0442
 9224SOL    HW139134   0.102   0.528   3.094  0.6658  0.5616 -1.9958
 9224SOL    HW239135   4.689   0.604   3.099  0.2329  1.8687  0.8057
 9225SOL     OW39136   4.482   2.811   2.849 -0.2109  0.2155 -0.4730
 9225SOL    HW139137   4.510   2.887   2.798  0.7358 -0.1995 -0.5865
 9225SOL    HW239138   4.533   2.738   2.813  1.2386  2.0973 -2.2001
 9226SOL     OW39139   4.053   3.029   4.058  0.3149 -0.4298  0.1971
 9226SOL    HW139140   3.990   3.075   4.112  0.0248 -0.4367 -0.1350
 9226SOL    HW239141   4.127   3.089   4.060  0.1170 -0.1683 -0.1990
 9227SOL     OW39142   3.537   0.218   4.377  0.3543 -0.1133 -0.3816
 9227SOL    HW139143   3.604   0.238   4.312  0.1275  0.8337 -0.3173
 9227SOL    HW239144   3.588   0.150   4.422  0.5437  0.4476  0.2599
 9228SOL     OW39145   2.898   2.058   8.981 -0.0616  0.0803  0.0320
 9228SOL    HW139146   2.939   1.974   8.958  0.6870  0.7857 -1.1889
 9228SOL    HW239147   2.820   2.025   9.026  2.2156 -2.8105  1.8634
 9229SOL     OW39148   0.869   2.826   3.459 -0.0680  0.0644 -0.2777
 9229SOL    HW139149   0.929   2.901   3.457 -0.3843  0.3339  0.3084
 9229SOL    HW239150   0.872   2.799   3.367 -3.4637 -0.6275 -0.1747
 9230SOL     OW39151   1.054   3.636  11.143  0.3590  0.1458  0.2893
 9230SOL    HW139152   0.959   3.639  11.151  0.3860  2.0932 -0.3246
 9230SOL    HW239153   1.054   3.606  11.052 -0.0506 -1.0708  0.6819
 9231SOL     OW39154   4.713   1.573   5.564  0.2285  0.5387 -0.3563
 9231SOL    HW139155   0.045   1.642   5.528 -1.8878  1.6893 -1.4725
 9231SOL    HW239156   4.699   1.591   5.657  1.7106 -0.6725  0.0897
 9232SOL     OW39157   2.705   2.544   3.902 -0.3361 -0.0629  0.3274
 9232SOL    HW139158   2.670   2.454   3.900 -1.2076  0.2915 -0.8060
 9232SOL    HW239159   2.652   2.590   3.837  0.8922  0.7503 -0.0929
 9233SOL     OW39160   3.361   3.743   3.337 -0.1139  0.2371 -0.5292
 9233SOL    HW139161   3.319   3.816   3.292  1.2066  0.1465 -1.9005
 9233SOL    HW239162   3.360   3.785   3.422  2.5082  0.3871 -0.5889
 9234SOL     OW39163   4.390   1.034   7.170 -0.2487  0.0296  0.2806
 9234SOL    HW139164   4.336   0.956   7.179 -1.0886  0.4332 -1.2954
 9234SOL    HW239165   4.423   1.035   7.080  0.5052  1.2244  0.5656
 9235SOL     OW39166   0.402   0.987   8.494  0.2859 -0.1808  0.3920
 9235SOL    HW139167   0.426   1.079   8.488 -2.8847  0.4183 -2.8703
 9235SOL    HW239168   0.342   0.990   8.569 -1.7213  0.2234 -1.2477
 9236SOL     OW39169   2.006   0.408   9.095 -0.0737 -0.3253  0.1556
 9236SOL    HW139170   1.920   0.449   9.101  0.3496  0.7457 -1.2574
 9236SOL    HW239171   1.988   0.354   9.018 -2.0086 -0.1259  0.4881
 9237SOL     OW39172   1.029   0.080   2.673 -0.0534 -0.5361 -0.2274
 9237SOL    HW139173   1.075   0.067   2.591  1.8174 -0.1498  0.7643
 9237SOL    HW239174   1.007   0.174   2.676  0.4913 -0.3974 -0.6377
 9238SOL     OW39175   0.601   3.097   3.035 -0.0918 -0.2039 -0.3031
 9238SOL    HW139176   0.559   3.177   3.068  1.0071 -0.8482  2.7062
 9238SOL    HW239177   0.518   3.062   3.002  0.1141 -0.8697 -0.1288
 9239SOL     OW39178   4.264   4.595   9.101  0.4368  0.7008 -0.2716
 9239SOL    HW139179   4.253   4.680   9.142 -0.0815  0.0991  0.8214
 9239SOL    HW239180   4.332   4.607   9.034  0.1151  0.1254 -0.7110
 9240SOL     OW39181   3.962   2.360   1.411 -0.9792  0.1953  0.4882
 9240SOL    HW139182   3.971   2.307   1.490  3.0343 -0.4859 -0.4173
 9240SOL    HW239183   3.972   2.449   1.445 -0.4624 -0.7858  2.9097
 9241SOL     OW39184   0.901   0.607   8.229  0.2493 -0.0494  0.0870
 9241SOL    HW139185   0.871   0.670   8.294  3.0367  0.1937  1.1435
 9241SOL    HW239186   0.952   0.552   8.289 -1.3773  0.2416  1.7230
 9242SOL     OW39187   1.809   0.631   4.124 -0.3694 -0.4907 -0.1385
 9242SOL    HW139188   1.800   0.622   4.219 -0.4997 -2.2298 -0.3132
 9242SOL    HW239189   1.846   0.719   4.122 -0.0496 -0.6193  0.2199
 9243SOL     OW39190   1.732   3.404   6.777 -0.5155 -0.3358 -0.5820
 9243SOL    HW139191   1.774   3.352   6.845 -1.1654  1.0180  0.8447
 9243SOL    HW239192   1.652   3.439   6.814 -0.4457 -0.2429 -0.5189
 9244SOL     OW39193   1.960   0.733   3.683  0.4342 -0.1242 -0.2292
 9244SOL    HW139194   2.053   0.753   3.694 -0.1160  2.2700 -0.0192
 9244SOL    HW239195   1.944   0.661   3.745 -1.9990 -0.9377 -1.8079
 9245SOL     OW39196   0.681   2.392   7.183  0.3979 -0.0092 -0.2704
 9245SOL    HW139197   0.664   2.483   7.160 -1.1969  0.5371  3.1196
 9245SOL    HW239198   0.593   2.356   7.172  1.5205 -2.2344 -2.1736
 9246SOL     OW39199   0.196   4.345  12.147 -0.9408 -0.1324 -0.0142
 9246SOL    HW139200   0.183   4.371  12.056  0.0802 -1.3955 -0.5284
 9246SOL    HW239201   0.141   4.267  12.157  1.6688 -2.0920 -1.0759
 9247SOL     OW39202   1.925   3.514   8.972 -0.1985  0.9270 -0.0091
 9247SOL    HW139203   1.990   3.453   9.006 -0.4069  0.4974 -0.3785
 9247SOL    HW239204   1.964   3.546   8.890  0.2593 -2.5823 -1.1564
 9248SOL     OW39205   1.827   3.941   7.567  0.1042  0.2901 -0.1495
 9248SOL    HW139206   1.762   3.872   7.581  2.2948 -1.7273  0.1742
 9248SOL    HW239207   1.851   3.959   7.658  0.1965 -0.2736 -0.0647
 9249SOL     OW39208   1.816   3.158  11.214  0.3236 -0.5038  0.2283
 9249SOL    HW139209   1.781   3.093  11.153  0.9373 -1.5767  1.0440
 9249SOL    HW239210   1.776   3.130  11.296 -0.5937  1.2048  0.3661
 9250SOL     OW39211   1.962   3.990   7.807 -0.7741  0.0705 -0.0340
 9250SOL    HW139212   2.018   4.066   7.794  0.6233 -0.8913  0.4120
 9250SOL    HW239213   1.906   4.015   7.881 -0.8300 -0.2864  0.0460
 9251SOL     OW39214   3.238   1.753  14.771  0.7291  0.3490  0.4030
 9251SOL    HW139215   3.228   1.676  14.715  1.3778  1.6654 -1.5498
 9251SOL    HW239216   3.260   1.709  14.853 -0.0813  0.9929  0.9715
 9252SOL     OW39217   3.664   0.565   7.236  0.2390  0.2768 -0.1257
 9252SOL    HW139218   3.675   0.660   7.242 -1.2867  0.3536  1.5074
 9252SOL    HW239219   3.635   0.540   7.324  2.2330 -0.2863  0.3780
 9253SOL     OW39220   1.446   0.363   5.765 -0.6559  0.0169 -0.5386
 9253SOL    HW139221   1.363   0.408   5.777 -0.3697 -0.0546  1.7056
 9253SOL    HW239222   1.425   0.289   5.822  2.0061 -0.4516 -0.1411
 9254SOL     OW39223   0.681   1.726  15.322  0.0953 -0.3757 -0.2357
 9254SOL    HW139224   0.666   1.730  15.417  1.4542 -2.7411  0.0918
 9254SOL    HW239225   0.734   1.803  15.302  1.7564 -1.5397 -0.2871
 9255SOL     OW39226   3.151   3.139   6.626  0.4133 -0.1965 -0.2965
 9255SOL    HW139227   3.181   3.064   6.574 -1.1107 -0.1200 -1.2944
 9255SOL    HW239228   3.219   3.156   6.691  0.8101  0.9033 -1.0058
 9256SOL     OW39229   1.830   3.967   2.319  0.4398  0.1056  0.8889
 9256SOL    HW139230   1.815   4.012   2.402  0.2891 -1.0445  1.4869
 9256SOL    HW239231   1.909   4.011   2.290  0.4466 -0.7457 -0.3879
 9257SOL     OW39232   4.520   3.313  14.185 -0.9441  0.3934 -0.6905
 9257SOL    HW139233   4.559   3.226  14.187 -0.8081  0.4732  0.7049
 9257SOL    HW239234   4.438   3.286  14.225 -0.3328  2.0548  1.7153
 9258SOL     OW39235   3.844   0.911  16.736 -0.0849  0.1540  0.6107
 9258SOL    HW139236   3.761   0.953  16.760 -0.5330 -1.9226  2.6927
 9258SOL    HW239237   3.894   0.917  16.817  0.0575 -0.0812  0.5404
 9259SOL     OW39238   2.351   2.714   3.938  0.6763  0.1651  0.1744
 9259SOL    HW139239   2.427   2.770   3.926 -0.3457  1.4986  0.0125
 9259SOL    HW239240   2.376   2.647   3.874  1.7216 -1.4577  2.2678
 9260SOL     OW39241   3.322   0.420   7.010 -0.4111 -1.6196  0.2492
 9260SOL    HW139242   3.393   0.484   7.015 -1.8911  0.3197 -3.2999
 9260SOL    HW239243   3.287   0.444   6.924  1.9888  0.9579 -0.0108
 9261SOL     OW39244   1.030   4.616   1.863 -0.3028  0.2257  0.1033
 9261SOL    HW139245   1.001   4.638   1.952  1.6902 -2.5767  1.4232
 9261SOL    HW239246   1.118   4.654   1.859  0.1282 -0.8127 -0.0920
 9262SOL     OW39247   2.077   1.089  10.791  0.2811  0.6678  0.2799
 9262SOL    HW139248   2.022   1.105  10.867  1.8004 -0.1079  1.5251
 9262SOL    HW239249   2.143   1.035  10.834 -1.0300 -1.9428 -0.9005
 9263SOL     OW39250   1.461   4.269   4.620 -0.3321 -0.3288  0.2153
 9263SOL    HW139251   1.479   4.176   4.606 -1.1126 -0.4284 -0.1632
 9263SOL    HW239252   1.551   4.296   4.636  0.3272 -0.2841 -3.6981
 9264SOL     OW39253   4.627   3.434  12.715 -0.1025  0.3057  0.2811
 9264SOL    HW139254   4.563   3.454  12.783  0.2786  0.4021  0.6158
 9264SOL    HW239255   4.597   3.481  12.637  1.7051 -1.5536 -1.5164
 9265SOL     OW39256   3.251   3.336   9.187 -0.1840 -0.1307 -0.0489
 9265SOL    HW139257   3.297   3.318   9.105 -0.6751 -3.5902  0.4287
 9265SOL    HW239258   3.320   3.316   9.251  0.3538 -1.7302 -1.1405
 9266SOL     OW39259   2.132   2.358   5.922 -0.1281 -0.1323  0.1533
 9266SOL    HW139260   2.193   2.398   5.985 -1.0696  0.2934  0.7952
 9266SOL    HW239261   2.175   2.379   5.839  0.0502 -0.8439  0.0690
 9267SOL     OW39262   4.567   3.001   9.669 -0.4035 -0.2494 -0.0795
 9267SOL    HW139263   4.639   3.016   9.730 -0.9802  2.7497 -0.1367
 9267SOL    HW239264   4.602   2.928   9.619  1.4682 -0.0787  0.9755
 9268SOL     OW39265   3.441   0.563   9.881  0.5399 -0.5180 -0.7367
 9268SOL    HW139266   3.387   0.533   9.808 -1.5216 -0.8104  0.9056
 9268SOL    HW239267   3.380   0.568   9.954 -1.3071 -0.1086 -2.3027
 9269SOL     OW39268   1.426   1.992   1.986 -0.4885  0.0662  0.0901
 9269SOL    HW139269   1.472   2.075   1.970 -0.2164 -0.3026 -1.0686
 9269SOL    HW239270   1.442   1.947   1.903  0.6275  1.7390 -0.5868
 9270SOL     OW39271   3.103   2.435   5.130 -0.0301 -0.0169  0.2765
 9270SOL    HW139272   3.045   2.422   5.055  1.2818  1.4345 -0.9692
 9270SOL    HW239273   3.073   2.520   5.161 -1.8619  0.4381 -2.7792
 9271SOL     OW39274   3.957   0.505  11.737  0.9602 -0.0444  0.2566
 9271SOL    HW139275   3.867   0.478  11.756 -0.7164  3.2013 -3.1701
 9271SOL    HW239276   3.952   0.601  11.745 -1.5596 -0.3563  2.5079
 9272SOL     OW39277   0.403   0.695   7.035 -0.3648  0.1310  0.4007
 9272SOL    HW139278   0.309   0.678   7.038 -0.6834  2.0376  1.3709
 9272SOL    HW239279   0.392   0.789   7.023  1.7613  0.1770 -1.2166
 9273SOL     OW39280   1.209   1.084   5.559  0.5637  0.5440 -0.0744
 9273SOL    HW139281   1.250   1.036   5.488  2.0537  0.3407  0.9299
 9273SOL    HW239282   1.196   1.171   5.521 -1.3295 -0.4881 -1.7969
 9274SOL     OW39283   4.710   0.928   8.913  0.4113 -0.8863 -0.0150
 9274SOL    HW139284   4.626   0.897   8.945 -0.7287  2.5549  0.3194
 9274SOL    HW239285   4.681   0.984   8.841  2.3546  0.2064  0.0321
 9275SOL     OW39286   0.548   3.875   2.679  0.7461  0.2359  0.2756
 9275SOL    HW139287   0.512   3.950   2.631  1.2928  0.3520  0.0354
 9275SOL    HW239288   0.474   3.817   2.695  2.2691 -1.0759  2.4545
 9276SOL     OW39289   3.893   0.028   9.087  0.3532  0.4296 -0.3036
 9276SOL    HW139290   3.972   0.021   9.141 -0.0164  1.0891  0.3283
 9276SOL    HW239291   3.822   0.026   9.151 -1.1999 -0.3462 -2.0552
 9277SOL     OW39292   0.411   3.280  15.349 -0.0126  0.7147 -0.0010
 9277SOL    HW139293   0.435   3.329  15.271 -0.5748  1.2819  0.1786
 9277SOL    HW239294   0.455   3.197  15.328  2.3840  2.0814 -0.4179
 9278SOL     OW39295   4.104   4.116   8.413  0.3232 -0.2796 -0.0679
 9278SOL    HW139296   4.016   4.127   8.378  1.1217  2.9666 -1.0986
 9278SOL    HW239297   4.142   4.064   8.342  1.2853  1.8560 -1.1404
 9279SOL     OW39298   2.682   1.753  16.474 -0.2699 -0.1036 -0.2628
 9279SOL    HW139299   2.664   1.685  16.409 -0.1814  0.2836 -0.6980
 9279SOL    HW239300   2.753   1.708  16.519  0.0187  1.0099  0.4030
 9280SOL     OW39301   4.669   3.523  14.680  0.1338  0.5081  0.0482
 9280SOL    HW139302   4.634   3.528  14.591  0.1914 -2.8422 -0.1406
 9280SOL    HW239303   0.028   3.480  14.659 -0.7509 -0.8106 -0.7034
 9281SOL     OW39304   3.575   1.759   4.357 -0.3640 -0.2270  0.3791
 9281SOL    HW139305   3.582   1.770   4.262 -0.2391  1.2907  0.5610
 9281SOL    HW239306   3.490   1.802   4.371 -0.3409 -0.3014  0.7505
 9282SOL     OW39307   0.047   0.539   0.698 -0.6117 -0.1185  0.2344
 9282SOL    HW139308   0.135   0.570   0.720  0.2477 -2.6041  0.3020
 9282SOL    HW239309   0.038   0.475   0.769  1.0290  0.6911  1.1682
 9283SOL     OW39310   4.598   3.729  15.572 -0.2494 -0.3762 -0.0995
 9283SOL    HW139311   4.639   3.693  15.651  0.9892 -0.5972 -0.8529
 9283SOL    HW239312   4.558   3.651  15.535 -1.5940  0.5970 -0.6984
 9284SOL     OW39313   2.331   0.043  10.627 -0.1758  0.1154  0.9656
 9284SOL    HW139314   2.306   4.711  10.700 -2.7079  1.0938  0.8651
 9284SOL    HW239315   2.395   4.713  10.581 -0.4018 -2.0727  3.2430
 9285SOL     OW39316   1.351   3.384   7.133 -0.3072 -0.0259 -0.1198
 9285SOL    HW139317   1.395   3.376   7.049  1.1306  0.2391  0.6094
 9285SOL    HW239318   1.334   3.292   7.154  0.7553 -0.2255 -0.1673
 9286SOL     OW39319   3.196   1.371   2.351 -0.4106 -0.0481  0.0079
 9286SOL    HW139320   3.116   1.415   2.380 -0.2955 -0.8005  1.4619
 9286SOL    HW239321   3.157   1.301   2.299 -1.7080  1.8229 -1.4949
 9287SOL     OW39322   4.008   2.741   3.465  0.4824  0.1956  0.0744
 9287SOL    HW139323   4.039   2.831   3.477 -1.8150  1.3304 -2.4301
 9287SOL    HW239324   4.034   2.721   3.375  1.7956  3.2470 -0.2244
 9288SOL     OW39325   3.835   3.998   9.286  0.1224  0.0640 -0.0880
 9288SOL    HW139326   3.778   4.050   9.342  2.0049  0.6396  1.2670
 9288SOL    HW239327   3.893   4.065   9.251  0.5869 -0.0134  0.5451
 9289SOL     OW39328   4.406   4.656  17.496 -0.4744 -0.0805  0.6116
 9289SOL    HW139329   4.386   4.636  17.405  4.2361  1.4690 -0.7690
 9289SOL    HW239330   4.329   4.631  17.546 -1.0893 -1.0279 -0.8255
 9290SOL     OW39331   1.948   4.162   9.901 -0.3920 -0.0548  0.1989
 9290SOL    HW139332   1.861   4.149   9.863 -0.1478  1.0973 -0.7478
 9290SOL    HW239333   1.988   4.218   9.834 -1.0201  0.1542 -0.0023
 9291SOL     OW39334   0.683   4.533   6.673  0.4139 -0.1185  0.7270
 9291SOL    HW139335   0.763   4.559   6.720 -0.3044  2.7054  0.3864
 9291SOL    HW239336   0.634   4.493   6.745  0.5746  2.8185  2.4965
 9292SOL     OW39337   2.788   0.299   3.208  0.1311  0.3126  0.2267
 9292SOL    HW139338   2.877   0.290   3.173  0.8376  1.7003  1.6605
 9292SOL    HW239339   2.735   0.292   3.129  1.3715 -0.1501 -0.5700
 9293SOL     OW39340   3.794   0.889   4.581 -0.5061 -0.2423 -0.1500
 9293SOL    HW139341   3.842   0.971   4.576  0.2860 -0.8220 -2.2253
 9293SOL    HW239342   3.823   0.851   4.498  0.4044 -0.3586  0.2212
 9294SOL     OW39343   0.301   1.023  13.386  0.6933  0.0165  0.0474
 9294SOL    HW139344   0.236   1.078  13.342  0.6192 -0.0503  0.0741
 9294SOL    HW239345   0.340   1.081  13.451 -1.2248  0.6218  0.6374
 9295SOL     OW39346   3.287   0.194   7.299  0.3295 -0.3606 -0.3445
 9295SOL    HW139347   3.284   0.289   7.287  0.9101 -0.4011 -0.8218
 9295SOL    HW239348   3.375   0.169   7.268  0.0117  0.1309 -1.6429
 9296SOL     OW39349   4.332   0.837  13.413 -0.4869  0.3699 -0.1395
 9296SOL    HW139350   4.427   0.830  13.406 -0.3813  1.0614  0.7040
 9296SOL    HW239351   4.307   0.834  13.320  0.0393 -0.3657 -0.2560
 9297SOL     OW39352   1.526   1.363   6.313 -0.4327 -0.0578  0.3771
 9297SOL    HW139353   1.537   1.312   6.393  2.8851 -0.7549 -0.4951
 9297SOL    HW239354   1.503   1.294   6.252 -0.3155 -1.7929  2.3262
 9298SOL     OW39355   2.655   3.927   7.110  0.2388 -0.1497 -0.1512
 9298SOL    HW139356   2.714   3.860   7.144 -0.7746 -2.4137 -2.7652
 9298SOL    HW239357   2.625   3.954   7.196  0.8055  0.8361 -0.2676
 9299SOL     OW39358   0.301   2.544  16.116  0.1064  0.3105  0.3764
 9299SOL    HW139359   0.358   2.564  16.042  0.5030  0.8910  0.8421
 9299SOL    HW239360   0.229   2.606  16.100  0.0578 -0.0049 -0.6366
 9300SOL     OW39361   4.128   0.223   8.186  0.4119 -0.2225 -0.2629
 9300SOL    HW139362   4.088   0.309   8.181 -0.7201 -0.7898 -1.0089
 9300SOL    HW239363   4.061   0.171   8.230  0.0429  0.1079 -0.4352
 9301SOL     OW39364   3.010   3.064   3.528  0.4181 -0.1409  0.5187
 9301SOL    HW139365   2.990   3.075   3.435 -0.2127 -1.1576  0.5350
 9301SOL    HW239366   2.996   3.154   3.557  2.7078 -0.2481  1.9806
 9302SOL     OW39367   1.486   1.125   7.680  0.2273  0.6362  0.1158
 9302SOL    HW139368   1.447   1.080   7.756  0.8209  1.9182  1.1882
 9302SOL    HW239369   1.531   1.201   7.716  0.4437 -0.0047  1.2130
 9303SOL     OW39370   1.955   4.151   4.907  0.2885 -0.0537 -0.4204
 9303SOL    HW139371   2.048   4.166   4.922  0.5099 -3.3015  1.5359
 9303SOL    HW239372   1.956   4.124   4.815 -1.4664 -2.2558  0.1950
 9304SOL     OW39373   2.606   3.926  14.902  0.1368 -0.1990  0.5942
 9304SOL    HW139374   2.701   3.932  14.900  0.1821 -1.0115  0.3962
 9304SOL    HW239375   2.595   3.863  14.973 -2.8968 -0.2090  0.1356
 9305SOL     OW39376   0.646   1.796   5.226 -0.2082  0.4120 -0.2608
 9305SOL    HW139377   0.725   1.814   5.278 -0.1756 -1.4764  0.3266
 9305SOL    HW239378   0.677   1.774   5.138 -1.2048 -0.9247 -0.2683
 9306SOL     OW39379   2.960   4.538   8.096 -0.0516 -0.2028  0.0228
 9306SOL    HW139380   2.998   4.505   8.015  0.6151  2.8638 -0.9190
 9306SOL    HW239381   2.956   4.460   8.151  2.6404  0.2460  0.8455
 9307SOL     OW39382   0.166   3.144  11.301 -0.1025 -0.3044 -0.1865
 9307SOL    HW139383   0.105   3.071  11.307  1.0853 -1.5375 -3.2647
 9307SOL    HW239384   0.191   3.147  11.394 -1.2589 -1.5282  0.1606
 9308SOL     OW39385   0.067   3.349   1.151  0.6176 -0.1428  0.5967
 9308SOL    HW139386   4.721   3.319   1.209  0.6292 -1.3904 -0.0457
 9308SOL    HW239387   0.132   3.280   1.144  1.6157  0.5567  2.9850
 9309SOL     OW39388   3.599   3.340   2.383  0.6460  0.1590 -0.4064
 9309SOL    HW139389   3.624   3.248   2.397  0.6915 -0.2146 -3.0020
 9309SOL    HW239390   3.683   3.379   2.408  0.9498  0.0392 -1.2445
 9310SOL     OW39391   4.351   0.361  17.573 -0.3976  0.4918 -0.2033
 9310SOL    HW139392   4.412   0.289  17.586 -0.0043  1.3349  2.6423
 9310SOL    HW239393   4.325   0.374  17.664 -0.5548  0.8200 -0.2947
 9311SOL     OW39394   0.381   4.560  13.137 -0.4826  0.6952 -0.8570
 9311SOL    HW139395   0.286   4.566  13.151 -0.3463  0.9305 -0.0294
 9311SOL    HW239396   0.393   4.649  13.103  1.5455  0.3366 -1.0687
 9312SOL     OW39397   4.393   1.322  14.806 -0.1738  0.0994 -0.3499
 9312SOL    HW139398   4.428   1.245  14.850 -1.7549  0.8491  2.2009
 9312SOL    HW239399   4.476   1.364  14.782  0.5216  0.0211  1.9130
 9313SOL     OW39400   2.564   3.035   3.064 -0.5011  0.3258 -0.0972
 9313SOL    HW139401   2.587   2.985   2.985 -0.8151 -0.4536  0.2997
 9313SOL    HW239402   2.642   3.089   3.075 -0.8450  1.1417 -1.7459
 9314SOL     OW39403   0.465   3.418   1.670  0.2079  0.8276  0.4071
 9314SOL    HW139404   0.446   3.488   1.732 -3.1744 -1.2913  1.7448
 9314SOL    HW239405   0.509   3.465   1.599  0.0059  0.0269 -0.2470
 9315SOL     OW39406   0.251   2.665   4.400 -0.4005 -0.7015  0.4043
 9315SOL    HW139407   0.249   2.608   4.323  1.3160  1.3193 -1.1427
 9315SOL    HW239408   0.242   2.747   4.352 -1.2387 -1.5937 -0.9696
 9316SOL     OW39409   3.570   2.126   5.752  0.6278  0.5621  0.2515
 9316SOL    HW139410   3.613   2.062   5.809  1.0402 -0.7991 -1.5683
 9316SOL    HW239411   3.608   2.090   5.672  2.0975  1.8968  0.3495
 9317SOL     OW39412   0.839   0.370   2.072 -0.2202 -0.0171 -0.5704
 9317SOL    HW139413   0.779   0.317   2.021  1.7999  0.2450 -3.2039
 9317SOL    HW239414   0.921   0.328   2.046 -1.6222 -1.3022 -2.8632
 9318SOL     OW39415   0.933   3.441   7.838  0.1016 -0.1219  0.0924
 9318SOL    HW139416   0.892   3.458   7.753 -0.3797  0.5881  0.4654
 9318SOL    HW239417   0.865   3.401   7.893  1.3288 -0.7880  1.1116
 9319SOL     OW39418   3.392   0.479   8.224  0.1951 -0.6134 -0.0586
 9319SOL    HW139419   3.321   0.544   8.218  0.0881 -0.9642 -2.6445
 9319SOL    HW239420   3.374   0.424   8.149  3.2401  0.3280 -1.4806
 9320SOL     OW39421   0.491   4.620   5.964  0.7438  0.1249  0.0909
 9320SOL    HW139422   0.532   4.561   6.027  0.2669 -0.0783  0.2115
 9320SOL    HW239423   0.517   4.704   6.000 -0.3181 -1.0388  3.5174
 9321SOL     OW39424   2.055   4.383  16.594 -1.1963  0.4623  0.2189
 9321SOL    HW139425   2.017   4.422  16.672 -0.2153 -0.1907  1.0207
 9321SOL    HW239426   2.019   4.294  16.594 -2.0205  0.8047  1.5972
 9322SOL     OW39427   1.795   3.866   4.967  0.4619 -0.0124  0.3427
 9322SOL    HW139428   1.725   3.895   5.025  0.3839  1.5825 -0.5412
 9322SOL    HW239429   1.759   3.883   4.879  2.2552 -0.5003 -0.4950
 9323SOL     OW39430   1.313   0.621   2.528  0.4387 -0.2068  0.2668
 9323SOL    HW139431   1.347   0.588   2.446  0.6502 -0.0549  0.2943
 9323SOL    HW239432   1.386   0.679   2.550  0.9496 -1.1660  1.0866
 9324SOL     OW39433   1.239   2.411   7.235  0.4161  0.5283 -0.2764
 9324SOL    HW139434   1.143   2.409   7.238  0.4752  0.0230  1.3589
 9324SOL    HW239435   1.251   2.317   7.218 -1.1103  0.5943 -1.6880
 9325SOL     OW39436   3.831   2.093   3.108 -0.5900  0.0307 -0.4996
 9325SOL    HW139437   3.795   2.102   3.019  1.8794 -0.8363 -1.5931
 9325SOL    HW239438   3.859   2.185   3.106  2.0832 -0.7860  0.4790
 9326SOL     OW39439   1.588   1.215  15.007 -0.5437  0.9122  0.5414
 9326SOL    HW139440   1.546   1.133  15.034  0.0999  0.9601  1.7141
 9326SOL    HW239441   1.674   1.179  14.988 -0.9309 -1.1187  2.5647
 9327SOL     OW39442   0.343   1.690   5.662 -0.5528 -0.7135  0.5579
 9327SOL    HW139443   0.341   1.783   5.637 -1.2444 -0.5376  1.2478
 9327SOL    HW239444   0.399   1.647   5.598  0.4314  1.9683 -0.4005
 9328SOL     OW39445   4.092   0.695  14.299  0.0244 -0.2776 -0.2837
 9328SOL    HW139446   4.115   0.781  14.263 -0.4239  0.4931  1.3068
 9328SOL    HW239447   4.142   0.635  14.243 -1.3273 -1.2596 -0.4498
 9329SOL     OW39448   4.351   0.115   5.742  0.4096 -0.4635 -0.2497
 9329SOL    HW139449   4.372   0.131   5.834 -0.3821  1.3557 -0.3690
 9329SOL    HW239450   4.286   0.184   5.731 -0.2879 -0.7700  1.9823
 9330SOL     OW39451   2.885   0.120   5.218  0.3640  0.1641 -0.7966
 9330SOL    HW139452   2.960   0.079   5.262 -0.5618  1.1182  1.6495
 9330SOL    HW239453   2.919   0.200   5.178 -1.3083  1.2142 -0.0876
 9331SOL     OW39454   2.092   2.685  12.060  0.3695 -0.5574 -0.5184
 9331SOL    HW139455   2.097   2.715  12.151  2.4416 -2.2950 -0.0440
 9331SOL    HW239456   2.014   2.735  12.039 -0.3012 -1.5069 -0.2562
 9332SOL     OW39457   3.444   0.251   8.425 -0.7457 -0.1884  0.0460
 9332SOL    HW139458   3.440   0.173   8.370 -0.5028 -0.9689  1.1272
 9332SOL    HW239459   3.394   0.313   8.371 -1.5967 -1.6848 -0.8764
 9333SOL     OW39460   0.563   1.330   4.958  0.6044 -0.3812 -0.0369
 9333SOL    HW139461   0.514   1.273   4.899 -3.4832  2.7759  0.2403
 9333SOL    HW239462   0.501   1.399   4.985  1.9818  1.1297 -0.7367
 9334SOL     OW39463   1.878   1.539   5.911 -0.0643  0.2522 -0.2482
 9334SOL    HW139464   1.934   1.591   5.967 -1.6698  0.7056  0.9351
 9334SOL    HW239465   1.819   1.493   5.971  1.6527 -0.4462  0.8804
 9335SOL     OW39466   3.638   2.376   4.446  0.0539  0.5724  0.1291
 9335SOL    HW139467   3.665   2.289   4.419 -1.8006  0.0762 -0.0959
 9335SOL    HW239468   3.695   2.397   4.520 -0.3168  0.2409  0.5049
 9336SOL     OW39469   0.580   0.519   8.937  0.3083  0.0167  0.0563
 9336SOL    HW139470   0.489   0.548   8.945  1.3719  2.7723  1.8803
 9336SOL    HW239471   0.625   0.602   8.948  1.0937  0.1362 -4.2040
 9337SOL     OW39472   0.661   0.137   5.160  1.0265 -0.2302  0.3907
 9337SOL    HW139473   0.662   0.159   5.067  1.6922 -0.9411  0.2327
 9337SOL    HW239474   0.568   0.131   5.180  1.0817 -0.6158  0.5363
 9338SOL     OW39475   3.730   2.275  16.628 -0.0474 -0.0420 -0.5930
 9338SOL    HW139476   3.728   2.334  16.553 -1.7900 -0.2188 -0.6933
 9338SOL    HW239477   3.824   2.257  16.628  0.4399  2.4035 -0.0236
 9339SOL     OW39478   1.558   0.601  11.442  0.1921 -0.7017 -0.0006
 9339SOL    HW139479   1.581   0.539  11.510 -0.4212  0.7581  1.5284
 9339SOL    HW239480   1.639   0.602  11.392  1.2290  0.9151  1.7307
 9340SOL     OW39481   2.549   0.934   4.323  0.0534  0.2167  0.1895
 9340SOL    HW139482   2.545   0.920   4.228  1.4824 -3.1759  0.6514
 9340SOL    HW239483   2.472   0.984   4.351 -0.6499 -0.4425 -0.5723
 9341SOL     OW39484   0.842   2.474   3.352  0.3781 -0.1000 -0.1830
 9341SOL    HW139485   0.789   2.549   3.326  0.9994  0.0449 -1.0493
 9341SOL    HW239486   0.907   2.512   3.411  1.6624  0.8223 -2.1573
 9342SOL     OW39487   2.877   3.417   4.813  0.1218 -0.0354  0.5949
 9342SOL    HW139488   2.937   3.346   4.793  0.5243  0.3080  0.5924
 9342SOL    HW239489   2.904   3.447   4.901  0.8139 -0.1049  0.4048
 9343SOL     OW39490   1.509   3.690   2.932  0.0495 -0.0943 -0.5439
 9343SOL    HW139491   1.516   3.655   3.021  0.3650 -0.6099 -0.7716
 9343SOL    HW239492   1.585   3.649   2.891  1.5384  0.9380  1.1675
 9344SOL     OW39493   4.500   2.439   7.728 -0.5234  0.1094  0.4567
 9344SOL    HW139494   4.560   2.413   7.798 -1.6883 -2.4244  0.4921
 9344SOL    HW239495   4.457   2.519   7.759  0.9637  1.2481 -0.3872
 9345SOL     OW39496   4.040   1.072   6.574  0.2634  0.1410 -0.5300
 9345SOL    HW139497   3.964   1.130   6.570 -0.0255 -0.2272 -0.3574
 9345SOL    HW239498   4.106   1.142   6.585 -1.4821  1.5468  1.0747
 9346SOL     OW39499   1.111   0.852   1.143  0.1232  0.3745  0.5101
 9346SOL    HW139500   1.164   0.825   1.218  0.8133 -1.4944 -0.6472
 9346SOL    HW239501   1.073   0.768   1.117 -0.2448  0.6676  0.1148
 9347SOL     OW39502   2.482   1.463   2.089 -0.1518  0.1645 -0.1129
 9347SOL    HW139503   2.515   1.478   2.178 -2.3263 -1.7378  1.0392
 9347SOL    HW239504   2.445   1.547   2.064 -0.1726  0.3299  0.4627
 9348SOL     OW39505   0.415   4.064  16.012  0.0051 -0.0459  0.1686
 9348SOL    HW139506   0.403   4.118  16.090  0.8863 -0.4558  0.5781
 9348SOL    HW239507   0.499   4.100  15.982  0.5673 -0.8463  0.8001
 9349SOL     OW39508   3.367   0.085   3.237  0.0762 -0.3758 -0.4464
 9349SOL    HW139509   3.432   0.022   3.207 -0.0178  0.1966 -1.8730
 9349SOL    HW239510   3.373   0.156   3.173 -0.6580 -1.7283 -2.0223
 9350SOL     OW39511   2.919   0.225   2.880 -0.1564  0.4262 -0.5313
 9350SOL    HW139512   2.872   0.299   2.918  0.3586  0.2638  0.4090
 9350SOL    HW239513   2.996   0.220   2.936  0.5760  1.7020 -1.4304
 9351SOL     OW39514   3.183   1.121  17.542  0.0806  0.7074 -0.2808
 9351SOL    HW139515   3.263   1.123  17.489 -0.5199  2.6104 -1.1095
 9351SOL    HW239516   3.198   1.046  17.599 -0.1506 -0.3938 -1.6755
 9352SOL     OW39517   3.470   4.492  10.969  0.4758  0.0589 -0.1940
 9352SOL    HW139518   3.450   4.409  10.925  2.9724 -0.3260 -0.5616
 9352SOL    HW239519   3.404   4.477  11.037  0.9604 -0.1075  0.2374
 9353SOL     OW39520   3.258   0.850   2.073 -0.1073  0.2302  0.1079
 9353SOL    HW139521   3.221   0.774   2.118 -0.2789 -1.1473 -2.3612
 9353SOL    HW239522   3.227   0.837   1.983 -2.6981 -0.8659  1.1787
 9354SOL     OW39523   0.606   3.886   8.829  0.1032  0.4410  0.7517
 9354SOL    HW139524   0.599   3.981   8.835 -0.2746  0.6732 -3.3785
 9354SOL    HW239525   0.531   3.874   8.771  1.5602  1.7313 -1.4282
 9355SOL     OW39526   4.511   0.628   0.798  0.0001  0.5821  0.6501
 9355SOL    HW139527   4.592   0.637   0.747  0.5411  0.8628  1.5547
 9355SOL    HW239528   4.481   0.541   0.772  2.0998 -0.5847  2.1458
 9356SOL     OW39529   2.374   3.569   7.649 -0.2700 -0.6693  0.2665
 9356SOL    HW139530   2.398   3.661   7.661 -0.9754 -0.6098  1.2027
 9356SOL    HW239531   2.361   3.540   7.739  2.0605 -1.6944  0.2806
 9357SOL     OW39532   2.497   2.919   6.516 -0.0499  0.3791 -0.1508
 9357SOL    HW139533   2.569   2.870   6.476  0.4550  0.6163  0.4707
 9357SOL    HW239534   2.517   2.921   6.609 -0.9114 -2.1660  0.0695
 9358SOL     OW39535   3.667   1.140  15.908  0.0301  0.0309  1.0990
 9358SOL    HW139536   3.751   1.105  15.937 -0.0249 -0.9785  0.0220
 9358SOL    HW239537   3.708   1.222  15.881 -0.6521  0.1072  0.2811
 9359SOL     OW39538   1.458   2.830   4.332 -0.1228 -0.2087  0.3498
 9359SOL    HW139539   1.418   2.772   4.268 -1.0542  2.8630 -1.9003
 9359SOL    HW239540   1.492   2.896   4.271 -1.4022 -0.4634 -0.6345
 9360SOL     OW39541   4.694   3.877   0.155  0.3028 -0.1297  0.2345
 9360SOL    HW139542   0.057   3.862   0.193  0.6347  2.2259  0.3682
 9360SOL    HW239543   4.658   3.791   0.133 -1.4292  1.3096 -2.5589
 9361SOL     OW39544   3.108   2.538   6.954 -0.1208  0.0953  0.6429
 9361SOL    HW139545   3.143   2.572   6.871 -0.4485  0.7000  0.7534
 9361SOL    HW239546   3.022   2.505   6.926 -0.1975 -2.0380  3.4716
 9362SOL     OW39547   2.960   3.844  13.566 -0.3987 -0.5498 -0.0589
 9362SOL    HW139548   3.032   3.894  13.529 -1.1347  0.5678  0.0473
 9362SOL    HW239549   2.975   3.762  13.519  2.2655  0.3548 -0.7516
 9363SOL     OW39550   1.213   2.207  13.169 -0.3441  0.2000 -0.1771
 9363SOL    HW139551   1.119   2.208  13.186 -0.2901  1.4136  0.0580
 9363SOL    HW239552   1.226   2.240  13.080 -1.9015  2.0755  0.2874
 9364SOL     OW39553   3.146   4.375   4.246 -0.2012  0.5768  0.1572
 9364SOL    HW139554   3.146   4.470   4.259 -0.0255  0.6825 -0.6585
 9364SOL    HW239555   3.125   4.367   4.153 -1.7656 -1.3844  0.6975
 9365SOL     OW39556   2.654   0.736   7.871  0.1698 -0.2874  0.0524
 9365SOL    HW139557   2.724   0.802   7.871  1.6379 -1.8597 -0.7474
 9365SOL    HW239558   2.603   0.763   7.794  3.1424 -0.1157 -1.8805
 9366SOL     OW39559   0.825   0.702   8.467 -0.2661  0.1073 -0.1304
 9366SOL    HW139560   0.812   0.637   8.537  0.8836 -0.3746 -0.3770
 9366SOL    HW239561   0.735   0.731   8.449 -0.5547 -0.0689  0.9850
 9367SOL     OW39562   1.583   0.392   7.584  0.0582  0.1458 -0.1908
 9367SOL    HW139563   1.536   0.424   7.661 -0.6242  1.8177 -1.3117
 9367SOL    HW239564   1.619   0.470   7.543  0.2772 -0.5971 -1.4300
 9368SOL     OW39565   1.592   2.240   6.840  0.7711 -0.4714 -0.2125
 9368SOL    HW139566   1.606   2.220   6.748  2.5509 -0.9724  0.1617
 9368SOL    HW239567   1.554   2.327   6.840 -0.3052 -0.9526 -0.8573
 9369SOL     OW39568   1.257   4.581   2.620 -0.4871 -0.3109  0.0975
 9369SOL    HW139569   1.344   4.567   2.658 -0.0331  0.3165 -0.7280
 9369SOL    HW239570   1.257   4.655   2.559 -0.3783 -0.6546 -0.3219
 9370SOL     OW39571   3.905   1.298   6.453 -0.0617  0.1110 -0.3792
 9370SOL    HW139572   3.887   1.380   6.497  1.5493 -0.1474  0.7372
 9370SOL    HW239573   3.821   1.272   6.414 -0.3156  0.4574 -0.0671
 9371SOL     OW39574   4.604   1.603   8.701  0.0129 -0.1662 -0.6698
 9371SOL    HW139575   4.676   1.598   8.638  0.9788  1.3346  0.2931
 9371SOL    HW239576   4.620   1.534   8.765 -2.7485 -1.0439 -0.9357
 9372SOL     OW39577   0.163   1.905   3.240 -0.1380  0.4414 -0.0745
 9372SOL    HW139578   0.194   1.906   3.331  0.2819  0.2772 -0.2160
 9372SOL    HW239579   0.075   1.936   3.260 -1.3238 -1.5736 -2.1207
 9373SOL     OW39580   1.977   4.353   2.436  0.0386 -0.0555 -0.0912
 9373SOL    HW139581   1.947   4.418   2.500 -1.1644 -1.5246  0.8443
 9373SOL    HW239582   1.922   4.278   2.459 -1.3072  1.7510  2.6709
 9374SOL     OW39583   3.946   2.553   4.620 -0.7722  0.0366  0.4014
 9374SOL    HW139584   4.022   2.600   4.653 -0.9039  0.7223 -0.2886
 9374SOL    HW239585   3.940   2.604   4.539 -1.4138 -0.7496 -0.0429
 9375SOL     OW39586   2.008   2.974   4.137  0.2064  0.0673 -0.8794
 9375SOL    HW139587   2.021   2.888   4.097 -2.2650 -0.8001  0.1912
 9375SOL    HW239588   2.091   3.012   4.107  0.3422  0.3401 -0.1633
 9376SOL     OW39589   3.794   4.433  10.982 -0.4597  0.3899 -0.1342
 9376SOL    HW139590   3.754   4.355  11.018  2.8902 -2.1464 -1.9300
 9376SOL    HW239591   3.731   4.495  11.020  0.1639  0.3918  0.8837
 9377SOL     OW39592   3.602   0.862   4.765 -0.5069 -0.0329 -0.3705
 9377SOL    HW139593   3.635   0.930   4.823 -0.3590  1.0066 -1.6702
 9377SOL    HW239594   3.650   0.865   4.682  1.9406  2.4657  1.1575
 9378SOL     OW39595   0.351   4.411   2.115  0.5584 -0.6405  0.5501
 9378SOL    HW139596   0.364   4.330   2.164  0.0660 -0.6363  0.6897
 9378SOL    HW239597   0.304   4.382   2.036 -1.4029  0.6193  1.2532
 9379SOL     OW39598   1.119   4.105   8.111  0.6452 -0.1743  0.4897
 9379SOL    HW139599   1.186   4.058   8.062  0.4918  1.3077 -1.1576
 9379SOL    HW239600   1.081   4.030   8.157 -0.3581 -0.4598 -0.8125
 9380SOL     OW39601   2.933   2.039   5.569  0.0385 -0.4195 -0.6328
 9380SOL    HW139602   2.995   2.026   5.640  0.3432 -0.1998 -0.8610
 9380SOL    HW239603   2.979   2.030   5.486  0.8240 -0.2171 -0.2179
 9381SOL     OW39604   2.250   3.107  16.119 -0.2435 -0.0841 -0.1755
 9381SOL    HW139605   2.213   3.076  16.202 -0.7212  0.5609 -0.1428
 9381SOL    HW239606   2.257   3.202  16.128 -1.4385 -0.1365  1.4711
 9382SOL     OW39607   4.635   4.031   4.897 -0.2936 -0.2625  0.4250
 9382SOL    HW139608   4.550   4.039   4.941 -0.3690 -0.7467  0.3716
 9382SOL    HW239609   4.599   3.980   4.825  0.8458 -1.8293  0.9758
 9383SOL     OW39610   0.933   0.434   5.888  0.6596 -0.6186 -0.1040
 9383SOL    HW139611   1.010   0.412   5.940  1.0517  0.6254 -0.1405
 9383SOL    HW239612   0.960   0.430   5.797 -0.4796  0.0450 -0.4731
 9384SOL     OW39613   2.110   4.342   1.399  0.1011 -0.6543 -0.1812
 9384SOL    HW139614   2.203   4.356   1.420  0.3251 -1.0328 -0.9204
 9384SOL    HW239615   2.109   4.335   1.304  1.1896  2.0970 -0.3903
 9385SOL     OW39616   2.461   2.828   3.524 -0.3820 -0.0338 -0.1141
 9385SOL    HW139617   2.440   2.868   3.608  1.0591 -1.8960  1.1290
 9385SOL    HW239618   2.393   2.761   3.513 -0.6610  0.6246 -2.4003
 9386SOL     OW39619   1.806   1.704   7.727  0.3475  0.6405 -0.1399
 9386SOL    HW139620   1.881   1.763   7.717  0.4729  0.7999  1.8595
 9386SOL    HW239621   1.755   1.739   7.654 -0.8202 -3.2220 -1.1807
 9387SOL     OW39622   4.368   2.779  10.548  0.0998  0.4703 -0.1481
 9387SOL    HW139623   4.279   2.813  10.544  0.1371  0.4286 -1.1457
 9387SOL    HW239624   4.363   2.719  10.623 -0.7843  0.3946 -0.2703
 9388SOL     OW39625   4.488   2.614   2.065 -0.1490 -0.5608  0.1679
 9388SOL    HW139626   4.534   2.599   2.148 -1.0376 -0.4101  0.6985
 9388SOL    HW239627   4.560   2.646   2.012  1.1410 -2.8661  0.5089
 9389SOL     OW39628   4.037   4.333  17.530  0.2724 -0.6668  0.0996
 9389SOL    HW139629   4.106   4.305  17.471 -0.1548  1.1532 -1.2393
 9389SOL    HW239630   3.997   4.398  17.473  1.6123  0.1029  0.0453
 9390SOL     OW39631   3.352   1.830  17.489  0.0687 -0.2584 -0.2545
 9390SOL    HW139632   3.387   1.841  17.401 -1.3890  1.1767 -0.6480
 9390SOL    HW239633   3.288   1.759  17.478 -0.0800 -0.1094 -0.3397
 9391SOL     OW39634   0.419   1.530   4.539 -0.0707 -0.0777 -0.3138
 9391SOL    HW139635   0.486   1.537   4.472 -1.2590 -2.1885 -1.7480
 9391SOL    HW239636   0.475   1.511   4.614 -0.3336  1.6309  0.3071
 9392SOL     OW39637   3.627   1.634   2.531 -0.2489 -0.3106  0.0047
 9392SOL    HW139638   3.645   1.577   2.457  3.2201  2.3761 -1.2378
 9392SOL    HW239639   3.542   1.677   2.520  1.2124  2.3979 -0.7370
 9393SOL     OW39640   0.118   2.953   5.153  0.0551 -0.0611 -0.6222
 9393SOL    HW139641   0.156   2.946   5.065 -3.1779  0.0680 -2.0262
 9393SOL    HW239642   0.156   3.037   5.178 -1.4725  0.3853  0.2285
 9394SOL     OW39643   0.540   4.567   8.746 -0.2008 -0.1498  1.0807
 9394SOL    HW139644   0.581   4.606   8.824 -0.6411  2.4451  0.0174
 9394SOL    HW239645   0.606   4.574   8.677 -2.1112  0.5118 -0.6516
 9395SOL     OW39646   2.658   1.588   0.255  0.7374 -0.0997 -0.1778
 9395SOL    HW139647   2.738   1.627   0.221  1.5008 -0.3366  1.3787
 9395SOL    HW239648   2.698   1.545   0.331 -0.8525  2.3355  2.0323
 9396SOL     OW39649   2.757   2.464  17.474 -0.3194 -0.6580  0.1333
 9396SOL    HW139650   2.710   2.447  17.555 -0.3992 -0.0270  0.2180
 9396SOL    HW239651   2.742   2.384  17.424 -1.5645 -0.7612  0.6970
 9397SOL     OW39652   2.829   3.505   1.852  0.0024 -0.3944 -0.1604
 9397SOL    HW139653   2.834   3.584   1.798  0.6579 -1.2672 -1.3769
 9397SOL    HW239654   2.921   3.480   1.862  0.0226  0.2620  1.3619
 9398SOL     OW39655   1.028   0.013   7.374  0.1369 -0.2769 -0.1842
 9398SOL    HW139656   1.007   0.101   7.344 -1.3993 -0.6297 -0.1451
 9398SOL    HW239657   0.941   4.703   7.395  1.1635 -0.6810  3.4235
 9399SOL     OW39658   0.183   1.997   6.467  0.6415 -0.3912  0.3378
 9399SOL    HW139659   0.184   1.964   6.377 -1.0737 -1.7272  0.8332
 9399SOL    HW239660   0.174   2.089   6.443 -0.3527 -0.4499  0.4892
 9400SOL     OW39661   2.902   4.362   2.368  0.3844 -0.4331  0.4978
 9400SOL    HW139662   2.952   4.427   2.417 -1.5540  0.3141  1.4612
 9400SOL    HW239663   2.971   4.318   2.317 -0.5953 -0.5056 -0.7558
 9401SOL     OW39664   4.403   1.617   4.784 -0.2776 -0.4008 -0.2809
 9401SOL    HW139665   4.354   1.597   4.705  1.0970 -1.7714 -0.7968
 9401SOL    HW239666   4.368   1.560   4.851 -0.7699 -0.9340 -0.9935
 9402SOL     OW39667   0.611   2.576   6.457 -0.1491 -0.1114  0.1626
 9402SOL    HW139668   0.548   2.648   6.455 -0.9873 -0.8237  1.1434
 9402SOL    HW239669   0.574   2.520   6.525  0.3937  0.0900  0.6131
 9403SOL     OW39670   3.325   3.882   5.193 -0.3425  0.7231  0.1267
 9403SOL    HW139671   3.311   3.788   5.201  2.4837  0.4252  1.4683
 9403SOL    HW239672   3.281   3.924   5.267 -0.4075  2.3117 -0.8087
 9404SOL     OW39673   3.980   0.473   2.843 -0.5721 -0.5469 -0.2632
 9404SOL    HW139674   3.929   0.546   2.807 -0.0248 -0.0997 -0.1395
 9404SOL    HW239675   3.915   0.446   2.908 -0.1078 -1.2752 -0.1009
 9405SOL     OW39676   4.155   3.311   6.009 -0.0670 -0.2220  0.2920
 9405SOL    HW139677   4.110   3.263   6.078 -0.5500 -1.5107 -0.9100
 9405SOL    HW239678   4.194   3.237   5.962 -0.4038 -1.0769  1.3583
 9406SOL     OW39679   2.660   4.186   0.927 -0.2940 -0.2647  0.3926
 9406SOL    HW139680   2.702   4.101   0.912  3.6083  1.8830 -0.7959
 9406SOL    HW239681   2.694   4.214   1.012  1.7832 -0.9718 -0.2030
 9407SOL     OW39682   0.854   1.638   3.536 -0.0132  0.2273 -0.1770
 9407SOL    HW139683   0.784   1.686   3.492 -2.9596 -3.2873  0.6603
 9407SOL    HW239684   0.814   1.560   3.575  1.4232 -0.5039 -0.1520
 9408SOL     OW39685   2.667   3.372  15.468  0.0722 -0.1086 -0.2748
 9408SOL    HW139686   2.648   3.340  15.380  0.1844 -1.5966  0.2288
 9408SOL    HW239687   2.601   3.324  15.519  1.6055  0.0536  1.8760
 9409SOL     OW39688   2.143   2.234   4.066  0.7728 -0.5191 -0.0486
 9409SOL    HW139689   2.166   2.282   4.146  1.3785  0.3829 -0.7744
 9409SOL    HW239690   2.210   2.267   4.007  0.0789 -1.4510 -1.3426
 9410SOL     OW39691   4.134   2.522  16.385 -0.1500  0.2658  0.2930
 9410SOL    HW139692   4.167   2.513  16.295 -0.5032 -1.4689  0.3385
 9410SOL    HW239693   4.199   2.474  16.436 -0.6112  2.3483  2.8278
 9411SOL     OW39694   1.018   2.398   6.884  0.3738  0.0923 -0.0326
 9411SOL    HW139695   0.941   2.423   6.833  2.1370  1.4872 -2.0242
 9411SOL    HW239696   0.977   2.328   6.935  0.0126  2.3394  2.7711
 9412SOL     OW39697   0.556   4.634  11.527 -0.7620 -0.0710  0.4063
 9412SOL    HW139698   0.484   4.634  11.464 -0.1483 -0.5640 -0.2876
 9412SOL    HW239699   0.540   4.718  11.571  3.2536  0.0393  1.6273
 9413SOL     OW39700   0.702   4.359  11.557  0.2134  0.0770 -1.6404
 9413SOL    HW139701   0.643   4.413  11.504 -1.0016  1.7449  1.4004
 9413SOL    HW239702   0.773   4.338  11.496 -0.2715 -0.4864 -2.0102
 9414SOL     OW39703   3.676   4.698   6.723  0.5768 -0.3049 -0.5295
 9414SOL    HW139704   3.767   4.694   6.693  1.0416  0.7097  0.7448
 9414SOL    HW239705   3.641   0.016   6.644 -0.3238  1.6891  0.9238
 9415SOL     OW39706   2.652   0.836   1.092  0.1587  0.2952 -0.0793
 9415SOL    HW139707   2.636   0.758   1.040  1.0456 -1.2038  1.9024
 9415SOL    HW239708   2.747   0.836   1.101 -0.0228  1.0799  2.0020
 9416SOL     OW39709   3.367   0.216   8.689  0.2819  0.2094 -0.4815
 9416SOL    HW139710   3.282   0.173   8.675 -0.5651  1.4334  0.8739
 9416SOL    HW239711   3.385   0.243   8.599  2.6125  1.9297  0.5111
 9417SOL     OW39712   0.658   1.187   3.291 -0.6269 -0.6468 -0.3044
 9417SOL    HW139713   0.659   1.117   3.356 -1.2348 -2.1719 -1.9516
 9417SOL    HW239714   0.575   1.229   3.312  0.1865  1.2697 -0.8745
 9418SOL     OW39715   1.843   2.186   3.472  0.4723  0.3025  0.7838
 9418SOL    HW139716   1.823   2.100   3.436 -0.8918  1.5688 -1.4440
 9418SOL    HW239717   1.939   2.188   3.465  0.4834 -0.0809  0.8512
 9419SOL     OW39718   0.993   2.008   9.819  0.2273 -0.4211 -0.6296
 9419SOL    HW139719   1.037   2.089   9.793  0.7157 -0.4528  0.0930
 9419SOL    HW239720   0.994   2.009   9.915 -1.8883 -0.3941 -0.5923
 9420SOL     OW39721   2.660   3.787   3.870 -0.0097  0.3644 -0.3410
 9420SOL    HW139722   2.749   3.790   3.906 -0.2783  0.5826  0.3145
 9420SOL    HW239723   2.636   3.695   3.882 -0.7836  0.4415 -1.2918
 9421SOL     OW39724   3.298   1.392   0.345  0.2939  0.1077  0.1310
 9421SOL    HW139725   3.273   1.415   0.435  2.4194 -0.1520  0.7821
 9421SOL    HW239726   3.385   1.431   0.339 -0.3251  1.5223  0.3786
 9422SOL     OW39727   0.530   3.933   6.470  0.1920  0.1516 -0.3699
 9422SOL    HW139728   0.613   3.926   6.422 -0.8110  2.3805 -2.4103
 9422SOL    HW239729   0.533   3.859   6.530  2.4288 -1.5562 -2.5704
 9423SOL     OW39730   4.264   4.112   4.020 -0.2938  0.1284 -0.4568
 9423SOL    HW139731   4.222   4.128   3.935  1.3228  2.3591 -0.8506
 9423SOL    HW239732   4.226   4.180   4.076  1.4683  0.4003  0.3875
 9424SOL     OW39733   2.189   2.766   2.369 -0.2665  0.3615  0.8324
 9424SOL    HW139734   2.271   2.814   2.363 -0.5957  0.5154 -2.2960
 9424SOL    HW239735   2.140   2.841   2.401 -1.5575 -0.0546 -0.1453
 9425SOL     OW39736   2.495   4.509   9.249 -0.0649  0.1257  0.6115
 9425SOL    HW139737   2.574   4.484   9.296 -1.2713 -1.5165  1.7333
 9425SOL    HW239738   2.449   4.428   9.229  1.0975 -0.7625  1.5968
 9426SOL     OW39739   0.023   0.214   8.511 -0.0174 -0.2582  0.4827
 9426SOL    HW139740   0.089   0.145   8.510  2.3666  2.0759 -2.1257
 9426SOL    HW239741   4.701   0.203   8.594  1.4043  1.6870  1.5156
 9427SOL     OW39742   0.934   2.246  15.567 -0.1870 -0.0186 -0.8219
 9427SOL    HW139743   0.973   2.192  15.497 -1.8042 -0.4888 -1.3646
 9427SOL    HW239744   0.941   2.175  15.632 -1.9778  0.9995  0.4752
 9428SOL     OW39745   0.714   3.711   4.734 -0.0013 -0.2990 -0.3969
 9428SOL    HW139746   0.667   3.631   4.759 -0.3707 -0.1470 -0.6006
 9428SOL    HW239747   0.665   3.766   4.795 -0.2528 -0.3592 -0.5421
 9429SOL     OW39748   3.953   3.999  11.193 -0.1683  0.8978 -0.3280
 9429SOL    HW139749   3.981   3.925  11.139  0.0723 -0.4184  1.6208
 9429SOL    HW239750   4.019   3.993  11.263 -2.4440 -0.4102  1.6839
 9430SOL     OW39751   4.074   4.652   1.814 -0.4619  0.4658 -0.4675
 9430SOL    HW139752   4.087   0.014   1.855  1.2012  0.9354 -1.9847
 9430SOL    HW239753   4.011   4.612   1.874 -0.9888  0.8690 -0.7631
 9431SOL     OW39754   2.032   2.281  13.948 -0.1703  0.2816  0.1491
 9431SOL    HW139755   2.028   2.371  13.916 -0.0767 -0.5285 -2.1555
 9431SOL    HW239756   2.123   2.281  13.978 -0.5902 -1.0134  1.3915
 9432SOL     OW39757   0.561   0.133   3.076 -0.4041  0.4682  0.7789
 9432SOL    HW139758   0.510   0.140   2.995  0.4206  0.3071  0.2480
 9432SOL    HW239759   0.507   0.067   3.119 -1.7899  0.4768 -0.9686
 9433SOL     OW39760   1.632   2.829  16.270 -0.0577  0.1912  0.0201
 9433SOL    HW139761   1.696   2.810  16.202  1.8071  0.3381  1.7214
 9433SOL    HW239762   1.688   2.884  16.325 -0.1977  0.3034  0.0519
 9434SOL     OW39763   3.042   2.227   8.702  0.4732  0.2090 -0.6064
 9434SOL    HW139764   2.969   2.232   8.763 -1.0271 -1.3032 -2.2334
 9434SOL    HW239765   3.111   2.218   8.768 -0.0572 -0.6819 -0.1785
 9435SOL     OW39766   3.153   0.499   3.893 -0.3164 -0.4991 -0.4623
 9435SOL    HW139767   3.227   0.483   3.953  0.4042 -2.7050 -1.9315
 9435SOL    HW239768   3.145   0.594   3.900  1.3241 -0.2978 -1.2459
 9436SOL     OW39769   3.281   1.533  12.719  0.4838  0.6405  0.1196
 9436SOL    HW139770   3.234   1.572  12.646 -0.2419 -0.2570  0.1221
 9436SOL    HW239771   3.370   1.559  12.694 -0.0435  2.3923  0.0675
 9437SOL     OW39772   3.065   3.272   7.594  0.9321 -0.7374 -0.6982
 9437SOL    HW139773   3.158   3.249   7.583  0.8269 -0.7244 -1.6194
 9437SOL    HW239774   3.075   3.267   7.689  2.8501 -0.4314 -0.8674
 9438SOL     OW39775   3.820   1.743  15.253 -0.0064 -0.3102  0.1484
 9438SOL    HW139776   3.761   1.731  15.328 -0.5679 -1.1594 -0.4332
 9438SOL    HW239777   3.835   1.652  15.227 -0.0804 -0.4079  0.4496
 9439SOL     OW39778   3.967   2.926  14.043 -0.1083 -0.0073  0.0846
 9439SOL    HW139779   3.987   2.993  14.109  1.2089 -0.9526  0.6503
 9439SOL    HW239780   4.030   2.949  13.975 -0.0217  0.9249  0.4666
 9440SOL     OW39781   0.015   1.627   1.192 -0.4773 -0.4645  0.1683
 9440SOL    HW139782   0.001   1.538   1.224  0.2054  0.0152  1.7925
 9440SOL    HW239783   4.701   1.664   1.272  0.5841  0.2579  0.3278
 9441SOL     OW39784   1.393   0.974  11.727  0.4797 -0.0868  0.0562
 9441SOL    HW139785   1.331   1.004  11.660  1.3429  1.5644 -0.0149
 9441SOL    HW239786   1.386   0.882  11.701 -0.4211 -0.2242  0.7909
 9442SOL     OW39787   4.115   0.136   4.413  0.2730  0.0123  0.1461
 9442SOL    HW139788   4.130   0.157   4.506  2.2274  0.3978 -0.2607
 9442SOL    HW239789   4.199   0.152   4.371  0.1163  0.7797  0.1249
 9443SOL     OW39790   0.152   0.803  15.307 -0.7382 -0.0746  0.7319
 9443SOL    HW139791   0.166   0.730  15.246  0.1042  0.9146 -0.2463
 9443SOL    HW239792   0.113   0.757  15.381 -2.8894  1.3403  0.4740
 9444SOL     OW39793   1.480   0.424   6.544  0.3660 -0.8517  0.0606
 9444SOL    HW139794   1.459   0.411   6.451  0.4331 -0.6525  0.0177
 9444SOL    HW239795   1.405   0.474   6.575 -0.0045 -0.2191 -1.8105
 9445SOL     OW39796   0.249   0.357   7.611 -0.1297 -0.3689 -0.0029
 9445SOL    HW139797   0.255   0.274   7.562 -1.1804 -0.5818  0.2448
 9445SOL    HW239798   0.267   0.325   7.699 -0.1611  3.2358  1.2984
 9446SOL     OW39799   0.237   0.103   3.959  0.0970 -0.3695  0.2441
 9446SOL    HW139800   0.158   0.131   3.911  0.3719  0.1644  0.1003
 9446SOL    HW239801   0.253   0.017   3.921  1.6659  0.6708 -1.5108
 9447SOL     OW39802   4.263   4.324   4.334 -0.3841  0.2944 -0.4839
 9447SOL    HW139803   4.276   4.379   4.257 -2.8042 -1.3408 -2.0713
 9447SOL    HW239804   4.347   4.337   4.377  0.1859 -1.7527 -0.9870
 9448SOL     OW39805   1.351   2.561   5.482 -0.0621  0.2091 -0.7158
 9448SOL    HW139806   1.433   2.610   5.472 -0.1267  0.3456 -0.5759
 9448SOL    HW239807   1.297   2.639   5.501  0.9996  1.1848 -1.6648
 9449SOL     OW39808   0.959   4.490   6.101 -0.8744  0.4331  0.1200
 9449SOL    HW139809   1.048   4.486   6.066 -1.1489  0.1783 -0.5504
 9449SOL    HW239810   0.921   4.421   6.047 -0.5846  0.3155  0.0641
 9450SOL     OW39811   1.408   0.445   7.019  0.5185  0.1120  0.6042
 9450SOL    HW139812   1.448   0.401   6.944  0.9156 -0.3723  1.1017
 9450SOL    HW239813   1.484   0.465   7.073  1.7260 -0.4670 -0.8899
 9451SOL     OW39814   2.800   0.150   7.806  0.1149 -0.0128  0.0429
 9451SOL    HW139815   2.876   0.180   7.855  0.5351  2.8233 -2.3037
 9451SOL    HW239816   2.844   0.103   7.736  3.3523  1.0587  1.3708
 9452SOL     OW39817   4.352   0.695   6.086 -0.1563 -0.6504 -0.0627
 9452SOL    HW139818   4.320   0.656   6.005  1.1637  1.4557 -1.6113
 9452SOL    HW239819   4.447   0.704   6.071 -0.3841  0.8765 -0.6099
 9453SOL     OW39820   3.359   0.399  14.344  0.6076  0.1264  0.1944
 9453SOL    HW139821   3.435   0.389  14.287 -0.3223  0.8239 -1.1774
 9453SOL    HW239822   3.408   0.439  14.416  0.9445 -0.2518  0.1723
 9454SOL     OW39823   0.331   1.421  14.140 -0.1047  0.0580 -0.3722
 9454SOL    HW139824   0.340   1.489  14.073  1.0455  1.4939  1.2476
 9454SOL    HW239825   0.405   1.437  14.198 -0.3119 -0.8715  0.1631
 9455SOL     OW39826   1.802   2.370   4.580  0.2500 -0.1204 -0.0741
 9455SOL    HW139827   1.852   2.305   4.530  0.3591 -0.7037  0.7883
 9455SOL    HW239828   1.712   2.345   4.557  0.3758 -1.1758  0.5706
 9456SOL     OW39829   3.960   1.753   9.059 -0.1656 -0.7049  0.3380
 9456SOL    HW139830   3.973   1.798   9.142  1.1564 -1.9181  0.7682
 9456SOL    HW239831   4.048   1.747   9.022  0.0849 -3.8748  1.4664
 9457SOL     OW39832   0.943   3.564   3.290  0.3543 -0.4846  0.1172
 9457SOL    HW139833   1.032   3.597   3.298  0.4656 -0.5755 -0.7725
 9457SOL    HW239834   0.901   3.616   3.359 -0.0361 -0.0192 -0.4705
 9458SOL     OW39835   2.993   3.776   0.701 -0.6450 -0.2840 -0.2060
 9458SOL    HW139836   3.084   3.802   0.717 -0.9512  0.1568  0.8128
 9458SOL    HW239837   2.960   3.756   0.788 -0.8817  0.5847 -0.0935
 9459SOL     OW39838   1.318   0.657  16.599  0.0492 -0.2139 -0.0862
 9459SOL    HW139839   1.379   0.706  16.654 -0.7013 -0.3484  0.8508
 9459SOL    HW239840   1.265   0.731  16.569  1.5266  0.3922 -1.2345
 9460SOL     OW39841   3.532   4.611  16.885  0.1150  0.2042  0.1941
 9460SOL    HW139842   3.598   4.541  16.878  0.9061  0.7218  2.3972
 9460SOL    HW239843   3.466   4.569  16.832  0.3701  0.3385 -0.2276
 9461SOL     OW39844   0.914   4.546   6.815  0.6350 -0.6209 -0.0932
 9461SOL    HW139845   0.951   4.480   6.875 -0.7110 -0.2751  1.1119
 9461SOL    HW239846   0.920   4.620   6.875 -2.7164  1.3379 -2.2559
 9462SOL     OW39847   1.248   4.395  17.623 -0.2307  0.4346  0.6373
 9462SOL    HW139848   1.282   4.455  17.557  0.4256  1.0628  1.5503
 9462SOL    HW239849   1.203   4.461  17.675  0.6445  0.5855  1.1907
 9463SOL     OW39850   1.907   0.708   1.472  0.0444 -0.3538  0.2565
 9463SOL    HW139851   1.998   0.681   1.481  0.7028  0.4282 -3.7985
 9463SOL    HW239852   1.903   0.754   1.388 -2.7601  0.6507  0.9324
 9464SOL     OW39853   3.679   4.558   7.100 -0.4291 -0.6051  0.0732
 9464SOL    HW139854   3.676   4.529   7.191 -0.6280  0.3846  0.3898
 9464SOL    HW239855   3.604   4.618   7.103  0.1640  0.0327  2.2006
 9465SOL     OW39856   1.756   2.090   8.799  0.4862 -0.2794  0.1689
 9465SOL    HW139857   1.772   2.013   8.745  1.2251  0.2520 -0.3797
 9465SOL    HW239858   1.665   2.072   8.820 -0.0947  1.2323 -1.0216
 9466SOL     OW39859   0.774   1.420   0.396 -0.4697 -0.0724  0.0552
 9466SOL    HW139860   0.838   1.378   0.338  1.0046 -0.7919  2.2167
 9466SOL    HW239861   0.820   1.401   0.478 -1.5477 -0.4792  0.5601
 9467SOL     OW39862   2.505   3.103   5.292  0.5213 -0.2746  0.1302
 9467SOL    HW139863   2.436   3.129   5.352 -1.1305 -2.5470 -0.7920
 9467SOL    HW239864   2.487   3.158   5.215 -1.4404 -1.3569 -0.1799
 9468SOL     OW39865   1.794   2.917   6.721 -0.1812 -0.2420  0.1260
 9468SOL    HW139866   1.832   2.947   6.804  0.5033 -0.1850 -0.2048
 9468SOL    HW239867   1.719   2.975   6.714 -1.0981 -1.4505 -0.0424
 9469SOL     OW39868   4.391   4.277  13.652  0.3676  0.4244 -0.0180
 9469SOL    HW139869   4.482   4.274  13.624  0.5883 -1.0525  0.8646
 9469SOL    HW239870   4.386   4.252  13.744  0.5152  0.1342 -0.0882
 9470SOL     OW39871   0.291   2.891   2.189 -0.1620  0.2208 -0.0997
 9470SOL    HW139872   0.216   2.918   2.243 -1.1871 -0.7979 -1.0204
 9470SOL    HW239873   0.304   2.966   2.131 -1.1537  0.6476  0.2366
 9471SOL     OW39874   1.569   2.604   4.025 -0.2151  0.0773 -0.6770
 9471SOL    HW139875   1.493   2.658   4.002  0.0881  0.8699  0.1747
 9471SOL    HW239876   1.652   2.651   4.023  0.8724 -1.7588  0.6921
 9472SOL     OW39877   4.281   0.679   6.860 -0.4944 -0.4930  0.5091
 9472SOL    HW139878   4.270   0.681   6.765  0.7862  0.4783  0.3709
 9472SOL    HW239879   4.205   0.723   6.896 -0.3290 -0.1273  0.4141
 9473SOL     OW39880   3.183   4.589  17.403 -0.3132 -0.3707 -0.2817
 9473SOL    HW139881   3.216   4.503  17.378 -0.2261 -0.5620  0.5154
 9473SOL    HW239882   3.206   4.644  17.328  0.3401  2.3973  1.9663
 9474SOL     OW39883   1.437   4.136   9.741 -0.1023 -0.4429 -0.3424
 9474SOL    HW139884   1.404   4.221   9.712  0.1470 -0.0554  0.4945
 9474SOL    HW239885   1.367   4.076   9.716  0.5045 -1.5093  0.4892
 9475SOL     OW39886   4.337   2.430   0.174  0.2374  0.0025 -0.0912
 9475SOL    HW139887   4.340   2.526   0.168  0.4278  0.0419  0.5952
 9475SOL    HW239888   4.267   2.412   0.237 -0.2089  1.8745 -0.0477
 9476SOL     OW39889   0.991   3.963  11.329  0.2365 -0.1477  0.6833
 9476SOL    HW139890   0.981   4.001  11.417  0.6170  0.8496  0.2929
 9476SOL    HW239891   0.982   3.871  11.355 -0.0332 -0.3892 -0.2821
 9477SOL     OW39892   1.270   4.315   4.406  0.1423  0.5711 -0.5323
 9477SOL    HW139893   1.318   4.309   4.489  0.0384  0.0131 -0.5128
 9477SOL    HW239894   1.195   4.363   4.440  0.7408 -1.8120  4.1103
 9478SOL     OW39895   4.615   4.420   9.210  0.0424 -0.0693 -0.1589
 9478SOL    HW139896   4.669   4.351   9.249  2.2126  1.5620 -0.2624
 9478SOL    HW239897   4.529   4.380   9.219 -0.0292  0.0367 -0.3661
 9479SOL     OW39898   3.680   4.133   0.477  0.1286 -0.3682  0.5073
 9479SOL    HW139899   3.595   4.168   0.451 -0.5565 -0.9833  1.9345
 9479SOL    HW239900   3.655   4.072   0.546 -0.2719 -0.2849  0.4348
 9480SOL     OW39901   4.417   2.159   3.231 -0.1973 -0.1792  0.4084
 9480SOL    HW139902   4.502   2.202   3.231 -0.0207 -0.5496 -2.3717
 9480SOL    HW239903   4.377   2.183   3.315  0.0148 -1.2893  0.8180
 9481SOL     OW39904   1.072   0.994  12.848 -0.2437 -0.0612  0.3100
 9481SOL    HW139905   1.001   0.947  12.804 -0.8556 -0.1804  1.4458
 9481SOL    HW239906   1.080   0.959  12.936 -1.2099 -0.4760  0.2268
 9482SOL     OW39907   1.515   1.251   8.078  0.6180  0.2584 -0.6824
 9482SOL    HW139908   1.452   1.181   8.059  2.8943 -2.3240  1.2892
 9482SOL    HW239909   1.541   1.228   8.167  1.4373 -1.5505 -1.3812
 9483SOL     OW39910   3.566   1.438   0.238  0.0803 -0.4760  0.6430
 9483SOL    HW139911   3.590   1.362   0.291  1.0962 -0.9288 -0.4774
 9483SOL    HW239912   3.654   1.473   0.226 -0.1199 -1.1958 -2.7018
 9484SOL     OW39913   2.906   1.928   1.724 -0.1091  0.3053 -0.1967
 9484SOL    HW139914   2.948   1.962   1.645  0.6022 -0.1900 -0.0344
 9484SOL    HW239915   2.905   2.001   1.786 -1.5711 -0.3005  0.4928
 9485SOL     OW39916   3.347   3.246  14.173 -0.0657 -0.4740  0.1471
 9485SOL    HW139917   3.284   3.289  14.114 -1.0611 -0.6881  1.0480
 9485SOL    HW239918   3.283   3.193  14.220 -0.9639 -0.5483 -1.1526
 9486SOL     OW39919   0.202   3.476   5.313 -0.1304  0.5336  0.3222
 9486SOL    HW139920   0.222   3.549   5.253 -1.0990  0.6421  0.1344
 9486SOL    HW239921   0.264   3.496   5.383  1.3447  0.2859 -0.8945
 9487SOL     OW39922   0.279   0.117   5.519  0.4457 -0.7493 -0.3974
 9487SOL    HW139923   0.225   0.052   5.475  0.4402 -2.7766  2.5919
 9487SOL    HW239924   0.243   0.113   5.608 -1.1380  0.3325 -0.9930
 9488SOL     OW39925   4.530   1.852   4.822  0.3567  0.2033 -0.0899
 9488SOL    HW139926   4.518   1.758   4.807  2.8650 -0.0275 -0.7345
 9488SOL    HW239927   4.624   1.858   4.805  0.6497 -1.2788  1.0215
 9489SOL     OW39928   0.549   1.623   2.262  0.3302  0.1229  0.4343
 9489SOL    HW139929   0.632   1.637   2.217  0.3292 -2.1778 -0.2975
 9489SOL    HW239930   0.505   1.582   2.187 -0.0477 -0.4324  0.9658
 9490SOL     OW39931   1.129   2.980  13.993 -0.4135  0.2713  0.3423
 9490SOL    HW139932   1.200   2.933  13.950 -0.8074 -0.6180  0.6660
 9490SOL    HW239933   1.072   2.993  13.917  0.0191 -1.5065 -0.2811
 9491SOL     OW39934   0.289   2.304   5.089  0.3157  0.6019  0.2074
 9491SOL    HW139935   0.220   2.270   5.033  0.9384  0.5812 -0.5475
 9491SOL    HW239936   0.364   2.324   5.033  1.0328 -1.6290  0.3507
 9492SOL     OW39937   0.397   4.252   2.536 -0.8352 -0.2508 -0.2093
 9492SOL    HW139938   0.379   4.201   2.615  0.5055  0.9594  0.8729
 9492SOL    HW239939   0.398   4.187   2.466 -1.1983 -0.1826 -0.2819
 9493SOL     OW39940   1.420   1.790  12.551 -0.8005  0.8230  0.0585
 9493SOL    HW139941   1.463   1.755  12.474  0.9979 -0.5910  1.7078
 9493SOL    HW239942   1.358   1.852  12.512 -2.3583 -0.3275  0.7057
 9494SOL     OW39943   1.391   1.052   4.603 -0.5192 -0.2981  0.1683
 9494SOL    HW139944   1.443   0.976   4.631 -0.4948 -0.2829  0.1641
 9494SOL    HW239945   1.336   0.997   4.547 -0.7880  1.9336 -1.7581
 9495SOL     OW39946   2.447   3.996   2.709  0.3901  0.2072 -0.0522
 9495SOL    HW139947   2.432   3.935   2.782  1.3944 -1.8702 -1.5565
 9495SOL    HW239948   2.538   3.981   2.684  0.9331  1.9862  0.8936
 9496SOL     OW39949   3.423   3.088  15.881  0.6149 -0.0634  0.5476
 9496SOL    HW139950   3.504   3.046  15.911  0.2574  0.5013  2.2944
 9496SOL    HW239951   3.426   3.072  15.787 -1.6698  3.2062 -0.0562
 9497SOL     OW39952   2.855   0.201   0.887 -0.0158  0.2931 -0.5541
 9497SOL    HW139953   2.938   0.187   0.932 -0.9391 -0.4007  0.9596
 9497SOL    HW239954   2.828   0.123   0.838  0.6351 -1.5236  2.0145
 9498SOL     OW39955   1.906   2.956   9.308 -0.0355 -0.1832 -0.2512
 9498SOL    HW139956   1.873   3.023   9.248  2.4469 -0.1203 -1.5319
 9498SOL    HW239957   1.869   2.971   9.395 -0.4173 -1.6645 -0.1523
 9499SOL     OW39958   2.973   2.609   8.311 -0.1165  0.0989 -0.0253
 9499SOL    HW139959   2.977   2.683   8.372 -0.1045 -0.0302  0.1318
 9499SOL    HW239960   3.046   2.552   8.334 -0.4084 -0.1270  0.3500
 9500SOL     OW39961   0.860   4.702   4.065 -0.3176 -0.4041  0.8917
 9500SOL    HW139962   0.831   4.641   3.998  1.3189 -0.9865  0.7123
 9500SOL    HW239963   0.811   4.670   4.141 -0.3455 -2.2889  0.0689
 9501SOL     OW39964   2.437   1.070   5.457 -0.2583 -0.1675  0.5032
 9501SOL    HW139965   2.446   0.978   5.435  1.1812  0.1450 -0.2260
 9501SOL    HW239966   2.493   1.095   5.384  1.0380  0.5477  1.7450
 9502SOL     OW39967   2.734   3.483   7.339 -0.7040 -0.3819  0.3347
 9502SOL    HW139968   2.692   3.480   7.425  1.5729 -1.6727  1.4116
 9502SOL    HW239969   2.821   3.475   7.376 -0.3405  0.0278 -0.4275
 9503SOL     OW39970   2.298   4.561   3.635 -0.1954 -0.3408  0.0630
 9503SOL    HW139971   2.355   4.500   3.588  0.9692  0.7901 -0.0003
 9503SOL    HW239972   2.362   4.607   3.690 -1.2091 -0.3264  1.2200
 9504SOL     OW39973   1.284   4.399   7.931  0.0595 -0.1038  0.0644
 9504SOL    HW139974   1.369   4.431   7.960  0.0226  0.3900 -0.3782
 9504SOL    HW239975   1.301   4.405   7.837  0.7064 -0.7934  0.1297
 9505SOL     OW39976   2.781   4.081   7.862 -0.1174  0.1147  0.1260
 9505SOL    HW139977   2.704   4.137   7.851  1.0486  1.5265 -0.9858
 9505SOL    HW239978   2.724   4.004   7.864  1.9092 -1.3736  0.3041
 9506SOL     OW39979   3.055   4.107   7.741 -0.1864 -0.5003  0.5285
 9506SOL    HW139980   3.096   4.161   7.809  2.3213 -1.2645 -0.3611
 9506SOL    HW239981   2.968   4.121   7.778 -1.3084 -1.4449 -1.7849
 9507SOL     OW39982   3.456   0.265   3.041 -0.6394 -0.7475  0.3477
 9507SOL    HW139983   3.508   0.248   2.963  2.5496 -0.8752  2.5230
 9507SOL    HW239984   3.463   0.359   3.056  1.7376 -0.7142 -1.0800
 9508SOL     OW39985   3.471   1.927  12.334 -0.0669  0.5151 -0.0771
 9508SOL    HW139986   3.391   1.920  12.386  1.1010 -1.1401  1.4974
 9508SOL    HW239987   3.459   1.850  12.279  1.7275  1.1702 -1.3905
 9509SOL     OW39988   1.223   3.289   9.923  0.3009  0.1575  0.3949
 9509SOL    HW139989   1.144   3.248   9.959  0.3934  1.0453  1.6170
 9509SOL    HW239990   1.220   3.285   9.827  1.7232  2.1138  0.2563
 9510SOL     OW39991   3.172   0.686  17.136  0.6053  0.5999 -0.8238
 9510SOL    HW139992   3.098   0.710  17.081 -0.0352  0.3603 -0.0752
 9510SOL    HW239993   3.119   0.662  17.212  1.5372  0.4044 -0.2354
 9511SOL     OW39994   0.157   1.370   6.500  0.0420 -0.1328  0.1235
 9511SOL    HW139995   0.234   1.317   6.484  0.1773  0.6794 -1.9387
 9511SOL    HW239996   0.186   1.461   6.490 -3.4653  1.0908  0.7364
 9512SOL     OW39997   0.061   3.301   0.654 -0.0786 -0.1033 -0.3369
 9512SOL    HW139998   0.133   3.363   0.665 -0.6306  0.4384  0.2156
 9512SOL    HW239999   0.007   3.328   0.728  0.5822  1.7360 -0.5189
 9513SOL     OW40000   4.687   3.544   2.506  0.0431 -0.4705  0.1188
 9513SOL    HW140001   4.595   3.518   2.510 -0.0446  0.2326  2.4836
 9513SOL    HW240002   0.006   3.460   2.523  0.6883 -0.1122  0.2890
 9514SOL     OW40003   2.763   2.570   0.413 -0.0694  0.1547 -0.0295
 9514SOL    HW140004   2.709   2.491   0.408  1.9773 -1.2755  0.3286
 9514SOL    HW240005   2.755   2.599   0.322  0.7283  0.7831  0.1010
 9515SOL     OW40006   1.897   4.010   2.730  0.0291  0.2923 -0.6041
 9515SOL    HW140007   1.983   4.045   2.709 -0.3065  0.4917 -1.6089
 9515SOL    HW240008   1.896   4.034   2.823  0.0338  0.7148 -0.7139
 9516SOL     OW40009   3.134   3.266   3.888  0.3791  0.0600 -0.0652
 9516SOL    HW140010   3.183   3.185   3.877 -1.0411 -0.4515 -2.6912
 9516SOL    HW240011   3.050   3.233   3.920  0.3035 -1.4732 -1.8709
 9517SOL     OW40012   3.284   2.699   1.841  0.4240  0.1536  0.2206
 9517SOL    HW140013   3.248   2.787   1.845  0.7876  0.3925 -1.6970
 9517SOL    HW240014   3.218   2.659   1.898  0.9228 -0.9278  0.0307
 9518SOL     OW40015   1.395   0.200   8.531  0.4527  0.2638  0.1885
 9518SOL    HW140016   1.322   0.151   8.494 -0.3804  1.3693  0.3915
 9518SOL    HW240017   1.457   0.136   8.567  0.2094  0.6276  1.2454
 9519SOL     OW40018   4.169   3.021   6.860 -0.7127  0.3743  0.3294
 9519SOL    HW140019   4.100   3.087   6.847 -1.1191 -0.2336 -0.6595
 9519SOL    HW240020   4.170   2.978   6.774 -0.0344  1.3212 -0.1325
 9520SOL     OW40021   1.420   0.301   8.290  0.6738 -0.0652 -0.1054
 9520SOL    HW140022   1.393   0.259   8.371 -0.1480  0.1931 -0.2431
 9520SOL    HW240023   1.336   0.323   8.249  1.9053 -0.1236 -2.7073
 9521SOL     OW40024   3.455   0.409   9.375  0.4777  0.1266 -0.9415
 9521SOL    HW140025   3.377   0.387   9.425 -0.6601  1.1480 -2.2440
 9521SOL    HW240026   3.514   0.397   9.449  0.2033 -2.3222 -1.1192
 9522SOL     OW40027   0.445   1.554   5.463  0.5116  0.3515  0.1988
 9522SOL    HW140028   0.519   1.539   5.405  1.0134  2.2186  0.3341
 9522SOL    HW240029   0.374   1.553   5.399  0.4269 -3.2396  0.3543
 9523SOL     OW40030   2.890   1.855  14.278 -0.3195 -0.0907  0.1449
 9523SOL    HW140031   2.813   1.906  14.303 -2.1057 -0.8502 -3.7883
 9523SOL    HW240032   2.931   1.907  14.209  1.5530  0.1358  1.4437
 9524SOL     OW40033   2.488   0.803   5.370  0.5008  0.4804  0.0070
 9524SOL    HW140034   2.530   0.797   5.284  0.8321  1.4706  0.0998
 9524SOL    HW240035   2.526   0.722   5.405  1.0399  0.5072 -0.5188
 9525SOL     OW40036   1.799   2.209   0.184  0.2299 -0.2274 -0.0944
 9525SOL    HW140037   1.787   2.283   0.243  1.0748 -1.4818  1.6536
 9525SOL    HW240038   1.886   2.177   0.208  0.3972  1.0940  1.0156
 9526SOL     OW40039   2.996   2.451  17.327 -0.0728 -0.3345  0.2516
 9526SOL    HW140040   2.944   2.477  17.403 -0.1895  1.9774 -0.6234
 9526SOL    HW240041   2.990   2.521  17.262  1.2890  0.8326  1.3887
 9527SOL     OW40042   0.841   3.498  12.406  0.1493 -1.3040 -0.4748
 9527SOL    HW140043   0.757   3.534  12.379  2.0861  2.6453 -1.2259
 9527SOL    HW240044   0.881   3.567  12.459  1.1365 -1.6130 -0.8093
 9528SOL     OW40045   2.603   1.296  17.134  0.1195 -0.2313  0.0689
 9528SOL    HW140046   2.685   1.296  17.185  1.0848  2.5333 -1.4749
 9528SOL    HW240047   2.572   1.384  17.153  2.2087  0.2332  1.3191
 9529SOL     OW40048   3.367   3.199   7.951 -0.4534  0.5144 -0.5406
 9529SOL    HW140049   3.406   3.241   8.027 -0.7254  0.1832 -0.2180
 9529SOL    HW240050   3.362   3.278   7.897  1.0983  0.5130 -0.6942
 9530SOL     OW40051   3.211   3.456   6.228 -0.2034  0.0102  0.2441
 9530SOL    HW140052   3.267   3.379   6.234  1.4965  1.0505 -2.5657
 9530SOL    HW240053   3.280   3.521   6.243 -0.1210 -0.2607  1.0516
 9531SOL     OW40054   2.343   3.292   4.580 -0.0822 -0.9825 -0.1431
 9531SOL    HW140055   2.251   3.318   4.581 -0.0745 -0.9575 -0.0172
 9531SOL    HW240056   2.347   3.232   4.506 -0.4083 -0.0856 -0.8870
 9532SOL     OW40057   1.786   2.458   8.887 -0.1328 -0.0781 -0.3106
 9532SOL    HW140058   1.867   2.504   8.865  0.5408  0.0736  2.4770
 9532SOL    HW240059   1.832   2.380   8.918  0.3881  0.1168 -0.5923
 9533SOL     OW40060   0.019   1.720   8.154  0.4648 -0.3182 -0.0329
 9533SOL    HW140061   0.039   1.732   8.061  0.2982  0.2087  0.0008
 9533SOL    HW240062   0.103   1.746   8.192  1.1208 -1.3645 -0.7528
 9534SOL     OW40063   4.641   3.602   0.194  0.0001  0.0974 -0.5610
 9534SOL    HW140064   4.700   3.585   0.267  0.2816 -1.1143 -1.0594
 9534SOL    HW240065   4.640   3.517   0.149  0.3728  0.3842 -1.1061
 9535SOL     OW40066   0.502   0.756  10.585 -0.1991 -0.1411 -0.7276
 9535SOL    HW140067   0.515   0.665  10.560  0.5838  0.0067 -0.8371
 9535SOL    HW240068   0.408   0.755  10.605  0.1480  0.5969  1.0276
 9536SOL     OW40069   3.686   2.781  10.612  0.5017  0.9876 -0.0043
 9536SOL    HW140070   3.678   2.800  10.518 -0.5432 -1.0309 -0.3311
 9536SOL    HW240071   3.654   2.863  10.648  0.1847  0.9806 -0.2756
 9537SOL     OW40072   4.721   3.369   6.619 -0.0911 -0.0118  0.2816
 9537SOL    HW140073   4.676   3.387   6.536  1.1426  0.2498 -0.3424
 9537SOL    HW240074   4.648   3.401   6.672  0.4900 -1.3079  1.8580
 9538SOL     OW40075   2.942   0.064  14.134 -0.3519 -0.4686 -0.0045
 9538SOL    HW140076   2.910   4.721  14.194 -0.0888 -0.9711 -0.4190
 9538SOL    HW240077   2.870   0.126  14.136 -0.7795 -1.0145  1.6303
 9539SOL     OW40078   3.916   2.247   7.744  0.0021  0.2099 -0.8849
 9539SOL    HW140079   3.936   2.264   7.652 -0.2455 -0.5051 -1.0684
 9539SOL    HW240080   3.998   2.265   7.790 -0.0430  0.7318 -1.0012
 9540SOL     OW40081   0.555   2.577  15.673 -0.0992  0.4673 -0.1444
 9540SOL    HW140082   0.607   2.500  15.652 -0.8070  0.0450 -0.3280
 9540SOL    HW240083   0.509   2.596  15.592  1.2043  1.4122 -0.6788
 9541SOL     OW40084   3.273   2.876  15.982  0.0746  0.0544 -0.3205
 9541SOL    HW140085   3.323   2.956  15.971  0.5776 -0.5509 -2.4721
 9541SOL    HW240086   3.187   2.915  15.998 -0.8294 -1.7090 -0.7905
 9542SOL     OW40087   0.351   1.489   5.859  0.4374 -0.6552  0.6293
 9542SOL    HW140088   0.318   1.551   5.794 -1.0870 -2.5036 -0.3665
 9542SOL    HW240089   0.445   1.496   5.846  0.2435  2.7226  0.9768
 9543SOL     OW40090   3.239   2.714   6.720 -0.0488 -0.1815 -0.2051
 9543SOL    HW140091   3.297   2.783   6.753  0.7291 -0.3266 -1.2402
 9543SOL    HW240092   3.223   2.754   6.635  0.5939 -0.2060 -0.3414
 9544SOL     OW40093   3.523   0.166   3.634  0.1238 -0.0586  0.4713
 9544SOL    HW140094   3.498   0.243   3.582 -2.5639 -0.9502  0.4599
 9544SOL    HW240095   3.615   0.147   3.615  0.7862  1.9397  1.5639
 9545SOL     OW40096   0.457   2.917   0.162  0.1115 -0.1131  0.3613
 9545SOL    HW140097   0.369   2.886   0.141  0.1615  0.4249 -0.6063
 9545SOL    HW240098   0.470   2.867   0.243  2.4948 -1.7746 -1.0554
 9546SOL     OW40099   1.741   2.567   1.343 -0.7460 -0.3572 -0.6179
 9546SOL    HW140100   1.759   2.477   1.369  0.7325  0.5367  1.4176
 9546SOL    HW240101   1.682   2.592   1.414  1.1020 -1.5979  1.3618
 9547SOL     OW40102   4.046   1.620  14.644 -0.5757  0.1422  0.1199
 9547SOL    HW140103   4.065   1.557  14.714 -1.1053 -0.3874 -0.2152
 9547SOL    HW240104   3.956   1.642  14.665 -0.0463  1.1317  1.3841
 9548SOL     OW40105   4.527   3.340   8.266 -0.1679 -0.2768  0.1046
 9548SOL    HW140106   4.437   3.333   8.234 -0.6667 -0.4099  1.5101
 9548SOL    HW240107   4.550   3.248   8.255 -2.5580 -1.0230  1.3684
 9549SOL     OW40108   3.493   3.459   2.155 -0.1915  0.1759  0.0719
 9549SOL    HW140109   3.553   3.436   2.084 -2.3804  0.5030 -1.9019
 9549SOL    HW240110   3.534   3.426   2.235 -0.1073 -0.0940 -0.0850
 9550SOL     OW40111   2.063   3.395   6.166 -0.0430  0.5319 -0.1933
 9550SOL    HW140112   2.040   3.371   6.076 -0.9574  2.2351 -0.4016
 9550SOL    HW240113   1.993   3.360   6.222  1.9381 -0.2494  1.7850
 9551SOL     OW40114   0.102   0.802   7.537  0.2620 -0.4084 -0.2989
 9551SOL    HW140115   0.074   0.710   7.533  1.6639 -0.8752  0.4175
 9551SOL    HW240116   0.037   0.839   7.596 -0.8572  0.7052 -2.2415
 9552SOL     OW40117   2.787   1.847   0.127  0.2467 -1.0288  0.1674
 9552SOL    HW140118   2.746   1.885   0.205  0.5482 -0.6071  0.1263
 9552SOL    HW240119   2.871   1.822   0.166 -0.5564 -0.1453  2.4550
 9553SOL     OW40120   0.602   3.026   8.456 -0.3185  0.8347  1.0207
 9553SOL    HW140121   0.661   3.001   8.527 -0.4612 -0.2283  0.7681
 9553SOL    HW240122   0.518   3.015   8.500 -0.1581  0.6337  1.2799
 9554SOL     OW40123   0.043   1.531  12.648 -0.3603  0.3840  0.2252
 9554SOL    HW140124   0.131   1.493  12.649  0.0301  1.3249  1.5760
 9554SOL    HW240125   4.715   1.451  12.643 -0.3001  0.3825 -0.4122
 9555SOL     OW40126   4.592   0.129   8.105  0.9217 -0.7666 -0.0384
 9555SOL    HW140127   4.665   0.147   8.165  0.0328  1.5467  0.3420
 9555SOL    HW240128   4.515   0.128   8.161 -0.4645  0.6563 -1.9089
 9556SOL     OW40129   3.203   4.601   0.090  0.2056  0.0143 -0.4777
 9556SOL    HW140130   3.278   4.652   0.120 -0.2536  1.3778 -1.6276
 9556SOL    HW240131   3.159   4.586   0.173  1.9155  1.3588  0.6752
 9557SOL     OW40132   0.011   3.805   3.751  0.0435  0.8222  0.4173
 9557SOL    HW140133   4.722   3.890   3.794  0.7730  1.8356 -1.3811
 9557SOL    HW240134   0.036   3.743   3.819  0.3226 -0.0857 -0.5136
 9558SOL     OW40135   4.655   2.862   7.572  0.5233 -0.3110  0.3148
 9558SOL    HW140136   4.714   2.792   7.601  0.8086  0.0981  0.7148
 9558SOL    HW240137   4.581   2.817   7.531 -1.0529  1.9219  0.7732
 9559SOL     OW40138   2.416   1.738   3.486 -0.0824 -0.0246  0.1385
 9559SOL    HW140139   2.500   1.694   3.477  0.1250  0.0178  1.8419
 9559SOL    HW240140   2.399   1.724   3.579  5.0148 -0.7183  0.9598
 9560SOL     OW40141   1.373   0.110   7.876  0.3755 -0.3413  0.4356
 9560SOL    HW140142   1.337   0.144   7.958 -3.4516  0.4203 -1.5460
 9560SOL    HW240143   1.290   0.119   7.830  0.1312 -2.7103  0.4210
 9561SOL     OW40144   0.100   2.867  13.516  0.3995 -0.0579 -0.4095
 9561SOL    HW140145   0.069   2.832  13.599  1.1736 -2.9928 -1.3287
 9561SOL    HW240146   0.036   2.843  13.449  1.0070 -1.5081 -0.4743
 9562SOL     OW40147   2.050   0.297  12.910  0.3094  0.1110  0.4666
 9562SOL    HW140148   2.034   0.367  12.846 -2.6973  0.1222  1.2161
 9562SOL    HW240149   2.145   0.295  12.916  0.4466  0.4839 -1.7181
 9563SOL     OW40150   3.183   1.830   1.456 -0.1260  0.0925  0.3126
 9563SOL    HW140151   3.275   1.853   1.458 -0.0130 -0.3464  0.1731
 9563SOL    HW240152   3.145   1.855   1.540 -0.7494  0.9769 -0.2412
 9564SOL     OW40153   2.821   0.263   2.629 -0.2165  1.0525 -0.4325
 9564SOL    HW140154   2.737   0.221   2.645  1.3192 -2.1111 -0.7396
 9564SOL    HW240155   2.864   0.243   2.712  2.3219 -0.3329 -2.0654
 9565SOL     OW40156   3.080   1.388  10.929  0.1503 -0.1640  0.0867
 9565SOL    HW140157   3.068   1.464  10.872  2.4420 -0.5363 -0.8705
 9565SOL    HW240158   3.175   1.386  10.927  0.1088 -1.2516 -0.8772
 9566SOL     OW40159   0.191   2.265   2.361 -0.4597 -0.5183  0.3864
 9566SOL    HW140160   0.231   2.292   2.278  1.7374  0.5434  1.7751
 9566SOL    HW240161   0.104   2.241   2.329 -1.4313  0.2688  2.4458
 9567SOL     OW40162   1.994   4.589  13.141 -0.4006 -0.5715 -0.4164
 9567SOL    HW140163   2.042   4.535  13.203  0.4015  1.6380  0.8672
 9567SOL    HW240164   2.054   4.655  13.108  0.1827 -0.4838  0.8381
 9568SOL     OW40165   2.664   3.231  12.524 -0.2217  0.6451 -0.7521
 9568SOL    HW140166   2.705   3.210  12.441  0.5046 -1.5658  0.1619
 9568SOL    HW240167   2.593   3.167  12.522  0.7221 -0.4477  0.4439
   4.72365   4.72365  17.69633
